<event>
12    4  0.4381187E-008  0.1439988E+04  0.7818608E-02  0.8925371E-01
          1   -1    0    0  501    0  0.00000000000E+00  0.00000000000E+00  0.34716213273E+04  0.34716213273E+04  0.00000000000E+00 0. -1.
         -2   -1    0    0    0  501 -0.00000000000E+00 -0.00000000000E+00 -0.14932253206E+03  0.14932253206E+03  0.00000000000E+00 0.  1.
        -24    2    1    2    0    0  0.11785692295E+03 -0.33901176418E+03  0.15609458987E+04  0.16039654002E+04  0.85636883279E+02 0.  0.
        254    2    1    2    0    0 -0.11785692295E+03  0.33901176418E+03  0.17613528965E+04  0.20169784591E+04  0.91488734171E+03 0.  0.
         23    2    4    4    0    0 -0.38782534077E+03  0.51270757643E+03  0.11262747026E+04  0.12998501099E+04  0.88532755138E+02 0.  0.
         23    2    4    4    0    0  0.26996841782E+03 -0.17369581225E+03  0.63507819388E+03  0.71712834916E+03  0.88857048245E+02 0.  0.
          3    1    3    3  502    0  0.12252900854E+03 -0.33629593646E+03  0.15560146034E+04  0.15966495423E+04  0.00000000000E+00 0. -1.
         -4    1    3    3    0  502 -0.46720855902E+01 -0.27158277223E+01  0.49312953434E+01  0.73158579635E+01  0.00000000000E+00 0.  1.
         11    1    5    5    0    0 -0.22019715341E+03  0.34375546656E+03  0.65309124486E+03  0.77018360231E+03  0.00000000000E+00 0.  1.
        -11    1    5    5    0    0 -0.16762818735E+03  0.16895210987E+03  0.47318345773E+03  0.52966650762E+03  0.00000000000E+00 0. -1.
          2    1    6    6  503    0  0.48837543555E+02 -0.77997316860E+02  0.16722846985E+03  0.19087705002E+03  0.00000000000E+00 0. -1.
         -2    1    6    6    0  503  0.22113087426E+03 -0.95698495388E+02  0.46784972403E+03  0.52625129914E+03  0.00000000000E+00 0.  1.
<mgrwt>
<rscale>  0 0.14399879E+04</rscale>
<asrwt>0</asrwt>
<pdfrwt beam="1">  1        1 0.53409553E+00 0.14399879E+04</pdfrwt>
<pdfrwt beam="2">  1       -2 0.22972700E-01 0.14399879E+04</pdfrwt>
<totfact> 0.38013487E+00</totfact>
</mgrwt>
</event>
<event>
12    4  0.4381187E-008  0.2128639E+04  0.7818608E-02  0.8548732E-01
         -4   -1    0    0    0  501 -0.00000000000E+00  0.00000000000E+00  0.10455605043E+04  0.10455605043E+04  0.00000000000E+00 0.  1.
          3   -1    0    0  501    0  0.00000000000E+00 -0.00000000000E+00 -0.10834147119E+04  0.10834147119E+04  0.00000000000E+00 0. -1.
        -24    2    1    2    0    0  0.43718598928E+03 -0.59808790892E+03 -0.47286415083E+03  0.88261747197E+03  0.81070097260E+02 0.  0.
        254    2    1    2    0    0 -0.43718598928E+03  0.59808790892E+03  0.43500994329E+03  0.12463577442E+04  0.90295804984E+03 0.  0.
         23    2    4    4    0    0 -0.68515353121E+03  0.40004435311E+03  0.44916732708E+03  0.91627148398E+03  0.91275948961E+02 0.  0.
         23    2    4    4    0    0  0.24796754193E+03  0.19804355581E+03 -0.14157383787E+02  0.33008626023E+03  0.89707055590E+02 0.  0.
          3    1    3    3  502    0  0.25498038194E+03 -0.36690545089E+03 -0.23927189488E+03  0.50683887454E+03  0.00000000000E+00 0. -1.
         -4    1    3    3    0  502  0.18220560734E+03 -0.23118245803E+03 -0.23359225595E+03  0.37577859743E+03  0.00000000000E+00 0.  1.
         11    1    5    5    0    0 -0.19410998727E+03  0.12181962735E+03  0.17768816856E+03  0.28998585141E+03  0.00000000000E+00 0.  1.
        -11    1    5    5    0    0 -0.49104354394E+03  0.27822472575E+03  0.27147915851E+03  0.62628563257E+03  0.00000000000E+00 0. -1.
          1    1    6    6  503    0  0.24670787213E+03  0.20413274419E+03 -0.65723732404E+01  0.32027823453E+03  0.00000000000E+00 0. -1.
         -1    1    6    6    0  503  0.12596698034E+01 -0.60891883777E+01 -0.75850105468E+01  0.98080256988E+01  0.00000000000E+00 0.  1.
<mgrwt>
<rscale>  0 0.21286387E+04</rscale>
<asrwt>0</asrwt>
<pdfrwt beam="1">  1        3 0.16667918E+00 0.21286387E+04</pdfrwt>
<pdfrwt beam="2">  1       -4 0.16085546E+00 0.21286387E+04</pdfrwt>
<totfact> 0.12693723E-01</totfact>
</mgrwt>
</event>
<event>
12    4  0.4381187E-008  0.1379438E+04  0.7818608E-02  0.8968839E-01
         -2   -1    0    0    0  501 -0.00000000000E+00  0.00000000000E+00  0.26215875482E+03  0.26215875482E+03  0.00000000000E+00 0.  1.
          1   -1    0    0  501    0  0.00000000000E+00 -0.00000000000E+00 -0.18145952640E+04  0.18145952640E+04  0.00000000000E+00 0. -1.
        -24    2    1    2    0    0 -0.22150961761E+03 -0.32601224826E+03 -0.50605224710E+03  0.64652295226E+03  0.80947849206E+02 0.  0.
        254    2    1    2    0    0  0.22150961761E+03  0.32601224826E+03 -0.10463842621E+04  0.14302310666E+04  0.89179054893E+03 0.  0.
         23    2    4    4    0    0 -0.31760329314E+03 -0.12152416908E+02 -0.38843923330E+03  0.51013142625E+03  0.91266100146E+02 0.  0.
         23    2    4    4    0    0  0.53911291074E+03  0.33816466517E+03 -0.65794502880E+03  0.92009964033E+03  0.93239562019E+02 0.  0.
          1    1    3    3  502    0 -0.15140092623E+03 -0.25073146127E+03 -0.31914690347E+03  0.43317808362E+03  0.00000000000E+00 0. -1.
         -2    1    3    3    0  502 -0.70108691384E+02 -0.75280786995E+02 -0.18690534363E+03  0.21334486864E+03  0.00000000000E+00 0.  1.
         11    1    5    5    0    0 -0.17017937294E+02  0.15262616358E+02 -0.73934040524E+01  0.24025404707E+02  0.00000000000E+00 0.  1.
        -11    1    5    5    0    0 -0.30058535584E+03 -0.27415033267E+02 -0.38104582925E+03  0.48610602155E+03  0.00000000000E+00 0. -1.
          2    1    6    6  503    0  0.24638523474E+03  0.16627926333E+03 -0.37260818877E+03  0.47664592693E+03  0.00000000000E+00 0. -1.
         -2    1    6    6    0  503  0.29272767600E+03  0.17188540184E+03 -0.28533684002E+03  0.44345371341E+03  0.00000000000E+00 0.  1.
<mgrwt>
<rscale>  0 0.13794376E+04</rscale>
<asrwt>0</asrwt>
<pdfrwt beam="1">  1        1 0.27916851E+00 0.13794376E+04</pdfrwt>
<pdfrwt beam="2">  1       -2 0.40332116E-01 0.13794376E+04</pdfrwt>
<totfact> 0.19871596E+01</totfact>
</mgrwt>
</event>
<event>
12    4  0.4381187E-008  0.2502120E+04  0.7818608E-02  0.8402231E-01
         -2   -1    0    0    0  501 -0.00000000000E+00  0.00000000000E+00  0.66665295145E+03  0.66665295145E+03  0.00000000000E+00 0.  1.
          1   -1    0    0  501    0  0.00000000000E+00 -0.00000000000E+00 -0.23477745539E+04  0.23477745539E+04  0.00000000000E+00 0. -1.
        -24    2    1    2    0    0 -0.75199403323E+03  0.15981564017E+03  0.19408418008E+03  0.79704600339E+03  0.81102390273E+02 0.  0.
        254    2    1    2    0    0  0.75199403323E+03 -0.15981564017E+03 -0.18752057825E+04  0.22173815020E+04  0.89963766791E+03 0.  0.
         23    2    4    4    0    0  0.69417031505E+03  0.25806407894E+03 -0.12984643987E+04  0.14975668163E+04  0.90703248754E+02 0.  0.
         23    2    4    4    0    0  0.57823718177E+02 -0.41787971911E+03 -0.57674138383E+03  0.71981468569E+03  0.86807349304E+02 0.  0.
          1    1    3    3  502    0 -0.17925115722E+02  0.16565409532E+02  0.19940909972E+00  0.24408243087E+02  0.00000000000E+00 0. -1.
         -2    1    3    3    0  502 -0.73406891751E+03  0.14325023064E+03  0.19388477099E+03  0.77263776030E+03  0.00000000000E+00 0.  1.
         11    1    5    5    0    0  0.34848568473E+03  0.10981391496E+03 -0.72302920541E+03  0.81010653636E+03  0.00000000000E+00 0.  1.
        -11    1    5    5    0    0  0.34568463033E+03  0.14825016398E+03 -0.57543519329E+03  0.68746027990E+03  0.00000000000E+00 0. -1.
          1    1    6    6  503    0 -0.18519871111E+02 -0.40931844628E+02 -0.77879732046E+02  0.89909144108E+02  0.00000000000E+00 0. -1.
         -1    1    6    6    0  503  0.76343589289E+02 -0.37694787448E+03 -0.49886165178E+03  0.62990554159E+03  0.00000000000E+00 0.  1.
<mgrwt>
<rscale>  0 0.25021198E+04</rscale>
<asrwt>0</asrwt>
<pdfrwt beam="1">  1        1 0.36119609E+00 0.25021198E+04</pdfrwt>
<pdfrwt beam="2">  1       -2 0.10256199E+00 0.25021198E+04</pdfrwt>
<totfact> 0.10477230E+00</totfact>
</mgrwt>
</event>
<event>
12    4  0.4381187E-008  0.3267007E+04  0.7818608E-02  0.8171342E-01
          1   -1    0    0  501    0  0.00000000000E+00  0.00000000000E+00  0.32560530727E+04  0.32560530727E+04  0.00000000000E+00 0. -1.
         -2   -1    0    0    0  501 -0.00000000000E+00 -0.00000000000E+00 -0.81949952145E+03  0.81949952145E+03  0.00000000000E+00 0.  1.
        -24    2    1    2    0    0  0.12812159967E+04  0.54902458017E+03  0.41028442365E+03  0.14551935564E+04  0.79451610601E+02 0.  0.
        254    2    1    2    0    0 -0.12812159967E+04 -0.54902458017E+03  0.20262691276E+04  0.26203590377E+04  0.90419715191E+03 0.  0.
         23    2    4    4    0    0 -0.34689081799E+01  0.12637995122E+03  0.39646913248E+02  0.16189866901E+03  0.93034272725E+02 0.  0.
         23    2    4    4    0    0 -0.12777470885E+04 -0.67540453139E+03  0.19866222143E+04  0.24584603687E+04  0.92469773327E+02 0.  0.
          3    1    3    3  502    0  0.81522560533E+03  0.32823616571E+03  0.22394999803E+03  0.90690979137E+03  0.00000000000E+00 0. -1.
         -4    1    3    3    0  502  0.46599039136E+03  0.22078841446E+03  0.18633442561E+03  0.54828376501E+03  0.00000000000E+00 0.  1.
         11    1    5    5    0    0  0.44736823114E+02  0.56823184092E+02  0.19569232629E+02  0.74921375177E+02  0.00000000000E+00 0.  1.
        -11    1    5    5    0    0 -0.48205731294E+02  0.69556767129E+02  0.20077680619E+02  0.86977293830E+02  0.00000000000E+00 0. -1.
          1    1    6    6  503    0 -0.21224542738E+02 -0.20865986261E+02  0.60119441215E+02  0.67083662758E+02  0.00000000000E+00 0. -1.
         -1    1    6    6    0  503 -0.12565225458E+04 -0.65453854513E+03  0.19265027731E+04  0.23913767060E+04  0.00000000000E+00 0.  1.
<mgrwt>
<rscale>  0 0.32670072E+04</rscale>
<asrwt>0</asrwt>
<pdfrwt beam="1">  1        1 0.50093123E+00 0.32670072E+04</pdfrwt>
<pdfrwt beam="2">  1       -2 0.12607685E+00 0.32670072E+04</pdfrwt>
<totfact> 0.13242886E-01</totfact>
</mgrwt>
</event>
<event>
12    4  0.4381187E-008  0.1690807E+04  0.7818608E-02  0.8766625E-01
         -2   -1    0    0    0  501 -0.00000000000E+00  0.00000000000E+00  0.50331103725E+03  0.50331103725E+03  0.00000000000E+00 0.  1.
          1   -1    0    0  501    0  0.00000000000E+00 -0.00000000000E+00 -0.14200113581E+04  0.14200113581E+04  0.00000000000E+00 0. -1.
        -24    2    1    2    0    0 -0.29838475188E+02  0.53859752174E+03 -0.31854393733E+02  0.54589555341E+03  0.77521789236E+02 0.  0.
        254    2    1    2    0    0  0.29838475188E+02 -0.53859752174E+03 -0.88484592710E+03  0.13774268419E+04  0.90740000281E+03 0.  0.
         23    2    4    4    0    0 -0.40118447447E+03 -0.14908995266E+03 -0.54370407631E+03  0.69773637528E+03  0.89694650067E+02 0.  0.
         23    2    4    4    0    0  0.43102294966E+03 -0.38950756909E+03 -0.34114185079E+03  0.67969046664E+03  0.90024655364E+02 0.  0.
          1    1    3    3  502    0 -0.22142848252E+02  0.22881598941E+03 -0.50832292038E+02  0.23543785730E+03  0.00000000000E+00 0. -1.
         -2    1    3    3    0  502 -0.76956269363E+01  0.30978153234E+03  0.18977898305E+02  0.31045769611E+03  0.00000000000E+00 0.  1.
         11    1    5    5    0    0 -0.56796649961E+02 -0.22078600742E+02 -0.34506843054E+02  0.70028896000E+02  0.00000000000E+00 0. -1.
        -11    1    5    5    0    0 -0.34438782451E+03 -0.12701135192E+03 -0.50919723325E+03  0.62770747928E+03  0.00000000000E+00 0.  1.
          1    1    6    6  503    0  0.46252174026E+02 -0.12558885810E+02 -0.40976164440E+02  0.63055810732E+02  0.00000000000E+00 0. -1.
         -1    1    6    6    0  503  0.38477077564E+03 -0.37694868328E+03 -0.30016568635E+03  0.61663465591E+03  0.00000000000E+00 0.  1.
<mgrwt>
<rscale>  0 0.16908074E+04</rscale>
<asrwt>0</asrwt>
<pdfrwt beam="1">  1        1 0.21846329E+00 0.16908074E+04</pdfrwt>
<pdfrwt beam="2">  1       -2 0.77432467E-01 0.16908074E+04</pdfrwt>
<totfact> 0.92437759E+00</totfact>
</mgrwt>
</event>
<event>
12    4  0.4381187E-008  0.1320633E+04  0.7818608E-02  0.9013361E-01
          1   -1    0    0  501    0  0.00000000000E+00  0.00000000000E+00  0.11577241908E+04  0.11577241908E+04  0.00000000000E+00 0. -1.
         -2   -1    0    0    0  501 -0.00000000000E+00 -0.00000000000E+00 -0.37661615289E+03  0.37661615289E+03  0.00000000000E+00 0.  1.
        -24    2    1    2    0    0 -0.16189749863E+03 -0.55860251729E+02  0.57596370137E+03  0.60617471635E+03  0.79890134941E+02 0.  0.
        254    2    1    2    0    0  0.16189749863E+03  0.55860251729E+02  0.20514433655E+03  0.92816562735E+03  0.88886223071E+03 0.  0.
         23    2    4    4    0    0  0.27380612497E+03 -0.40029943130E+01 -0.29020849030E+03  0.40937276621E+03  0.91538384517E+02 0.  0.
         23    2    4    4    0    0 -0.11190862634E+03  0.59863246042E+02  0.49535282685E+03  0.51879286113E+03  0.87546906407E+02 0.  0.
          1    1    3    3  502    0 -0.94850203857E+02 -0.35648223056E+02  0.45727667211E+03  0.46836877760E+03  0.00000000000E+00 0. -1.
         -2    1    3    3    0  502 -0.67047294771E+02 -0.20212028673E+02  0.11868702927E+03  0.13780593875E+03  0.00000000000E+00 0.  1.
         11    1    5    5    0    0  0.28006516516E+03 -0.54636876320E+01 -0.27360502719E+03  0.39156871622E+03  0.00000000000E+00 0. -1.
        -11    1    5    5    0    0 -0.62590401862E+01  0.14606933189E+01 -0.16603463106E+02  0.17804049993E+02  0.00000000000E+00 0.  1.
          3    1    6    6  503    0 -0.13091098316E+02  0.53464295643E+02  0.18656256073E+03  0.19451323047E+03  0.00000000000E+00 0. -1.
         -3    1    6    6    0  503 -0.98817528028E+02  0.63989503993E+01  0.30879026612E+03  0.32427963066E+03  0.00000000000E+00 0.  1.
<mgrwt>
<rscale>  0 0.13206326E+04</rscale>
<asrwt>0</asrwt>
<pdfrwt beam="1">  1        1 0.17811141E+00 0.13206326E+04</pdfrwt>
<pdfrwt beam="2">  1       -2 0.57940947E-01 0.13206326E+04</pdfrwt>
<totfact> 0.27534154E+01</totfact>
</mgrwt>
</event>
<event>
12    4  0.4381187E-008  0.1605812E+04  0.7818608E-02  0.8816986E-01
          1   -1    0    0  501    0  0.00000000000E+00  0.00000000000E+00  0.10049880251E+04  0.10049880251E+04  0.00000000000E+00 0. -1.
         -2   -1    0    0    0  501 -0.00000000000E+00 -0.00000000000E+00 -0.64145813670E+03  0.64145813670E+03  0.00000000000E+00 0.  1.
        -24    2    1    2    0    0  0.21114479043E+03  0.34116533162E+03 -0.25664969069E+03  0.48302937371E+03  0.80451265435E+02 0.  0.
        254    2    1    2    0    0 -0.21114479043E+03 -0.34116533162E+03  0.62017957911E+03  0.11634167881E+04  0.89885483061E+03 0.  0.
         23    2    4    4    0    0  0.18519416186E+03  0.21316001562E+03  0.16961616088E+03  0.34128589134E+03  0.89288004489E+02 0.  0.
         23    2    4    4    0    0 -0.39633895230E+03 -0.55432534724E+03  0.45056341824E+03  0.82213089678E+03  0.92361582331E+02 0.  0.
          1    1    3    3  502    0  0.29313878418E+00 -0.42171876694E+01 -0.88330783169E+00  0.43186612406E+01  0.00000000000E+00 0. -1.
         -2    1    3    3    0  502  0.21085165165E+03  0.34538251928E+03 -0.25576638286E+03  0.47871071247E+03  0.00000000000E+00 0.  1.
         11    1    5    5    0    0 -0.98634678767E+01  0.15341323408E+02  0.12654166026E+02  0.22198471125E+02  0.00000000000E+00 0. -1.
        -11    1    5    5    0    0  0.19505762974E+03  0.19781869222E+03  0.15696199485E+03  0.31908742021E+03  0.00000000000E+00 0.  1.
          4    1    6    6  503    0 -0.13709788445E+03 -0.23900380716E+03  0.13900532270E+03  0.30861161595E+03  0.00000000000E+00 0. -1.
         -4    1    6    6    0  503 -0.25924106785E+03 -0.31532154008E+03  0.31155809553E+03  0.51351928083E+03  0.00000000000E+00 0.  1.
<mgrwt>
<rscale>  0 0.16058116E+04</rscale>
<asrwt>0</asrwt>
<pdfrwt beam="1">  1        1 0.15461354E+00 0.16058116E+04</pdfrwt>
<pdfrwt beam="2">  1       -2 0.98685867E-01 0.16058116E+04</pdfrwt>
<totfact> 0.10745634E+01</totfact>
</mgrwt>
</event>
<event>
12    4  0.4381187E-008  0.1331764E+04  0.7818608E-02  0.9004748E-01
          1   -1    0    0  501    0  0.00000000000E+00  0.00000000000E+00  0.59972653307E+03  0.59972653307E+03  0.00000000000E+00 0. -1.
         -2   -1    0    0    0  501 -0.00000000000E+00 -0.00000000000E+00 -0.73933549524E+03  0.73933549524E+03  0.00000000000E+00 0.  1.
        -24    2    1    2    0    0  0.15109204177E+03 -0.54898207305E+02  0.27773597047E+03  0.33071193182E+03  0.79940567308E+02 0.  0.
        254    2    1    2    0    0 -0.15109204177E+03  0.54898207305E+02 -0.41734493264E+03  0.10083500965E+04  0.90374249986E+03 0.  0.
         23    2    4    4    0    0  0.36230085418E+03 -0.29095911899E+02 -0.26511486217E+03  0.45889704596E+03  0.90510372989E+02 0.  0.
         23    2    4    4    0    0 -0.51339289595E+03  0.83994119204E+02 -0.15223007047E+03  0.54945305054E+03  0.89985458386E+02 0.  0.
          1    1    3    3  502    0  0.93140150956E+02 -0.18171265370E+02  0.22494683153E+03  0.24414413698E+03  0.00000000000E+00 0. -1.
         -2    1    3    3    0  502  0.57951890818E+02 -0.36726941936E+02  0.52789138935E+02  0.86567794837E+02  0.00000000000E+00 0.  1.
         11    1    5    5    0    0  0.25389426107E+03 -0.35906673585E+02 -0.23077884225E+03  0.34497892550E+03  0.00000000000E+00 0. -1.
        -11    1    5    5    0    0  0.10840659311E+03  0.68107616859E+01 -0.34336019921E+02  0.11391812045E+03  0.00000000000E+00 0.  1.
          2    1    6    6  503    0 -0.25793746711E+01 -0.34485711654E+01 -0.11738818119E+02  0.12503826119E+02  0.00000000000E+00 0. -1.
         -2    1    6    6    0  503 -0.51081352128E+03  0.87442690370E+02 -0.14049125235E+03  0.53694922442E+03  0.00000000000E+00 0.  1.
<mgrwt>
<rscale>  0 0.13317644E+04</rscale>
<asrwt>0</asrwt>
<pdfrwt beam="1">  1        1 0.92265620E-01 0.13317644E+04</pdfrwt>
<pdfrwt beam="2">  1       -2 0.11374392E+00 0.13317644E+04</pdfrwt>
<totfact> 0.17802118E+01</totfact>
</mgrwt>
</event>
<event>
12    4  0.4381187E-008  0.1067112E+04  0.7818608E-02  0.9237854E-01
         -4   -1    0    0    0  501 -0.00000000000E+00  0.00000000000E+00  0.15670926855E+04  0.15670926855E+04  0.00000000000E+00 0.  1.
          3   -1    0    0  501    0  0.00000000000E+00 -0.00000000000E+00 -0.18166236021E+03  0.18166236021E+03  0.00000000000E+00 0. -1.
        -24    2    1    2    0    0 -0.11109996305E+03  0.32375266023E+02  0.30401657883E+03  0.33456188363E+03  0.78193440482E+02 0.  0.
        254    2    1    2    0    0  0.11109996305E+03 -0.32375266023E+02  0.10814137465E+04  0.14141931621E+04  0.90393321048E+03 0.  0.
         23    2    4    4    0    0  0.39590675233E+03 -0.19875813625E+03  0.94146670117E+03  0.10443890381E+04  0.90232811831E+02 0.  0.
         23    2    4    4    0    0 -0.28480678928E+03  0.16638287022E+03  0.13994704532E+03  0.36980412395E+03  0.91497256124E+02 0.  0.
          1    1    3    3  502    0 -0.10342130473E+02  0.18088289369E+02  0.13998081327E+03  0.14152305098E+03  0.00000000000E+00 0. -1.
         -2    1    3    3    0  502 -0.10075783258E+03  0.14286976654E+02  0.16403576556E+03  0.19303883265E+03  0.00000000000E+00 0.  1.
         11    1    5    5    0    0  0.67135231762E+02  0.18223308649E-01  0.16284993956E+03  0.17614551510E+03  0.00000000000E+00 0. -1.
        -11    1    5    5    0    0  0.32877152056E+03 -0.19877635956E+03  0.77861676161E+03  0.86824352305E+03  0.00000000000E+00 0.  1.
          2    1    6    6  503    0 -0.13217936403E+03  0.12187078777E+03  0.47757072080E+02  0.18602314673E+03  0.00000000000E+00 0.  1.
         -2    1    6    6    0  503 -0.15262742525E+03  0.44512082451E+02  0.92189973239E+02  0.18378097722E+03  0.00000000000E+00 0. -1.
<mgrwt>
<rscale>  0 0.10671115E+04</rscale>
<asrwt>0</asrwt>
<pdfrwt beam="1">  1        3 0.27948056E-01 0.10671115E+04</pdfrwt>
<pdfrwt beam="2">  1       -4 0.24109117E+00 0.10671115E+04</pdfrwt>
<totfact> 0.20357303E+00</totfact>
</mgrwt>
</event>
<event>
12    4  0.4381187E-008  0.1213362E+04  0.7818608E-02  0.9101241E-01
          1   -1    0    0  501    0  0.00000000000E+00  0.00000000000E+00  0.61191545755E+03  0.61191545755E+03  0.00000000000E+00 0. -1.
         -2   -1    0    0    0  501 -0.00000000000E+00 -0.00000000000E+00 -0.60149131950E+03  0.60149131950E+03  0.00000000000E+00 0.  1.
        -24    2    1    2    0    0 -0.22572641734E+03  0.67833593448E+02 -0.13617308310E+03  0.28394942854E+03  0.80810627519E+02 0.  0.
        254    2    1    2    0    0  0.22572641734E+03 -0.67833593448E+02  0.14659722114E+03  0.92945734851E+03  0.88704363228E+03 0.  0.
         23    2    4    4    0    0 -0.15764587670E+03 -0.12662707565E+03 -0.27158690519E+03  0.35184729052E+03  0.95657880225E+02 0.  0.
         23    2    4    4    0    0  0.38337229404E+03  0.58793482206E+02  0.41818412633E+03  0.57761005799E+03  0.91238293454E+02 0.  0.
          3    1    3    3  502    0 -0.17149090209E+02 -0.14259433885E+02 -0.25780288328E+02  0.34088796048E+02  0.00000000000E+00 0. -1.
         -4    1    3    3    0  502 -0.20857732714E+03  0.82093027333E+02 -0.11039279477E+03  0.24986063249E+03  0.00000000000E+00 0.  1.
         11    1    5    5    0    0 -0.19267988708E+01 -0.50099484283E+02 -0.57955039821E+02  0.76631961478E+02  0.00000000000E+00 0. -1.
        -11    1    5    5    0    0 -0.15571907783E+03 -0.76527591371E+02 -0.21363186536E+03  0.27521532904E+03  0.00000000000E+00 0.  1.
          1    1    6    6  503    0  0.10885175136E+03  0.13608142696E+02  0.18275768476E+03  0.21315312960E+03  0.00000000000E+00 0. -1.
         -1    1    6    6    0  503  0.27452054268E+03  0.45185339510E+02  0.23542644157E+03  0.36445692839E+03  0.00000000000E+00 0.  1.
<mgrwt>
<rscale>  0 0.12133620E+04</rscale>
<asrwt>0</asrwt>
<pdfrwt beam="1">  1        1 0.94140839E-01 0.12133620E+04</pdfrwt>
<pdfrwt beam="2">  1       -2 0.92537126E-01 0.12133620E+04</pdfrwt>
<totfact> 0.28547745E+01</totfact>
</mgrwt>
</event>
<event>
12    4  0.4381187E-008  0.1729634E+04  0.7818608E-02  0.8744641E-01
          1   -1    0    0  501    0  0.00000000000E+00  0.00000000000E+00  0.10121855985E+04  0.10121855985E+04  0.00000000000E+00 0. -1.
         -2   -1    0    0    0  501 -0.00000000000E+00 -0.00000000000E+00 -0.73890429937E+03  0.73890429937E+03  0.00000000000E+00 0.  1.
        -24    2    1    2    0    0  0.17903658352E+03  0.45055793309E+03  0.50245091879E+03  0.70241139343E+03  0.76604768246E+02 0.  0.
        254    2    1    2    0    0 -0.17903658352E+03 -0.45055793309E+03 -0.22916961964E+03  0.10486785045E+04  0.90119439736E+03 0.  0.
         23    2    4    4    0    0  0.15812508134E+03 -0.65296592679E+02  0.26747921524E+03  0.32928616844E+03  0.87275791478E+02 0.  0.
         23    2    4    4    0    0 -0.33716166486E+03 -0.38526134041E+03 -0.49664883488E+03  0.71939233602E+03  0.93600102904E+02 0.  0.
          3    1    3    3  502    0  0.78112233233E+01  0.47559111459E+02  0.83453211948E+02  0.96370757375E+02  0.00000000000E+00 0. -1.
         -4    1    3    3    0  502  0.17122536020E+03  0.40299882163E+03  0.41899770684E+03  0.60604063605E+03  0.00000000000E+00 0.  1.
         11    1    5    5    0    0  0.96896049673E+01  0.15980763050E+02  0.52257778401E+02  0.55499086799E+02  0.00000000000E+00 0.  1.
        -11    1    5    5    0    0  0.14843547637E+03 -0.81277355728E+02  0.21522143684E+03  0.27378708164E+03  0.00000000000E+00 0. -1.
          2    1    6    6  503    0 -0.22621651262E+03 -0.23073465313E+03 -0.36807407912E+03  0.48978660502E+03  0.00000000000E+00 0. -1.
         -2    1    6    6    0  503 -0.11094515224E+03 -0.15452668728E+03 -0.12857475577E+03  0.22960573100E+03  0.00000000000E+00 0.  1.
<mgrwt>
<rscale>  0 0.17296338E+04</rscale>
<asrwt>0</asrwt>
<pdfrwt beam="1">  1        1 0.15572086E+00 0.17296338E+04</pdfrwt>
<pdfrwt beam="2">  1       -2 0.11367758E+00 0.17296338E+04</pdfrwt>
<totfact> 0.74716429E+00</totfact>
</mgrwt>
</event>
<event>
12    4  0.4381187E-008  0.1213991E+04  0.7818608E-02  0.9100697E-01
          3   -1    0    0  501    0  0.00000000000E+00  0.00000000000E+00  0.54392284205E+03  0.54392284205E+03  0.00000000000E+00 0. -1.
         -4   -1    0    0    0  501 -0.00000000000E+00 -0.00000000000E+00 -0.67738228220E+03  0.67738228220E+03  0.00000000000E+00 0.  1.
        -24    2    1    2    0    0 -0.15308829040E+03 -0.53418859301E+02  0.16845516915E+03  0.24703672638E+03  0.79752122093E+02 0.  0.
        254    2    1    2    0    0  0.15308829040E+03  0.53418859301E+02 -0.30191460930E+03  0.97426839788E+03  0.91200706171E+03 0.  0.
         23    2    4    4    0    0 -0.28847851776E+02 -0.18362316743E+03 -0.54164843600E+03  0.58065152136E+03  0.96039027783E+02 0.  0.
         23    2    4    4    0    0  0.18193614218E+03  0.23704202673E+03  0.23973382670E+03  0.39361687652E+03  0.90400528478E+02 0.  0.
          1    1    3    3  502    0 -0.10807924983E+03 -0.28010177067E+02  0.59663579347E+02  0.12659161490E+03  0.00000000000E+00 0. -1.
         -4    1    3    3    0  502 -0.45009040572E+02 -0.25408682234E+02  0.10879158981E+03  0.12044511148E+03  0.00000000000E+00 0.  1.
         11    1    5    5    0    0 -0.42270533293E+02 -0.13400322246E+03 -0.48123400085E+03  0.50132806144E+03  0.00000000000E+00 0. -1.
        -11    1    5    5    0    0  0.13422681516E+02 -0.49619944967E+02 -0.60414435154E+02  0.79323459913E+02  0.00000000000E+00 0.  1.
          3    1    6    6  503    0  0.11603707699E+03  0.77493459220E+02  0.10434647894E+03  0.17423555070E+03  0.00000000000E+00 0. -1.
         -3    1    6    6    0  503  0.65899065186E+02  0.15954856751E+03  0.13538734776E+03  0.21938132582E+03  0.00000000000E+00 0.  1.
<mgrwt>
<rscale>  0 0.12139913E+04</rscale>
<asrwt>0</asrwt>
<pdfrwt beam="1">  1        3 0.83680437E-01 0.12139913E+04</pdfrwt>
<pdfrwt beam="2">  1       -4 0.10421266E+00 0.12139913E+04</pdfrwt>
<totfact> 0.22179908E+00</totfact>
</mgrwt>
</event>
<event>
12    4  0.4381187E-008  0.1186557E+04  0.7818608E-02  0.9124705E-01
         -2   -1    0    0    0  501 -0.00000000000E+00  0.00000000000E+00  0.12484796280E+03  0.12484796280E+03  0.00000000000E+00 0.  1.
          1   -1    0    0  501    0  0.00000000000E+00 -0.00000000000E+00 -0.28192650914E+04  0.28192650914E+04  0.00000000000E+00 0. -1.
        -24    2    1    2    0    0  0.18028244129E+03  0.11078288735E+01 -0.10000341490E+04  0.10189884238E+04  0.75934990314E+02 0.  0.
        254    2    1    2    0    0 -0.18028244129E+03 -0.11078288735E+01 -0.16943829796E+04  0.19251246304E+04  0.89591750461E+03 0.  0.
         23    2    4    4    0    0 -0.43458783080E+02  0.74996034836E+02 -0.17353381166E+04  0.17398933223E+04  0.91199358850E+02 0.  0.
         23    2    4    4    0    0 -0.13682365821E+03 -0.76103863710E+02  0.40955137065E+02  0.18523130801E+03  0.90115496435E+02 0.  0.
          1    1    3    3  502    0  0.17616013498E+03 -0.16841694606E+02 -0.91967939632E+03  0.93655017370E+03  0.00000000000E+00 0. -1.
         -2    1    3    3    0  502  0.41223063140E+01  0.17949523480E+02 -0.80354752696E+02  0.82438250123E+02  0.00000000000E+00 0.  1.
         11    1    5    5    0    0 -0.44521325137E+02 -0.54445760635E+01 -0.69887025759E+03  0.70030809558E+03  0.00000000000E+00 0. -1.
        -11    1    5    5    0    0  0.10625420566E+01  0.80440610900E+02 -0.10364678590E+04  0.10395852268E+04  0.00000000000E+00 0.  1.
          4    1    6    6  503    0 -0.21643676146E+02 -0.14393169982E+02  0.47770084875E+02  0.54383757393E+02  0.00000000000E+00 0. -1.
         -4    1    6    6    0  503 -0.11517998207E+03 -0.61710693728E+02 -0.68149478102E+01  0.13084755062E+03  0.00000000000E+00 0.  1.
<mgrwt>
<rscale>  0 0.11865572E+04</rscale>
<asrwt>0</asrwt>
<pdfrwt beam="1">  1        1 0.43373303E+00 0.11865572E+04</pdfrwt>
<pdfrwt beam="2">  1       -2 0.19207381E-01 0.11865572E+04</pdfrwt>
<totfact> 0.16289850E+01</totfact>
</mgrwt>
</event>
<event>
12    4  0.4381187E-008  0.1485568E+04  0.7818608E-02  0.8894107E-01
          1   -1    0    0  501    0  0.00000000000E+00  0.00000000000E+00  0.93231065109E+03  0.93231065109E+03  0.00000000000E+00 0. -1.
         -2   -1    0    0    0  501 -0.00000000000E+00 -0.00000000000E+00 -0.59178541237E+03  0.59178541237E+03  0.00000000000E+00 0.  1.
        -24    2    1    2    0    0 -0.10057871407E+03 -0.17985746493E+03  0.52914731109E+03  0.57418142371E+03  0.84986146451E+02 0.  0.
        254    2    1    2    0    0  0.10057871407E+03  0.17985746493E+03 -0.18862207237E+03  0.94991463974E+03  0.90790679653E+03 0.  0.
         23    2    4    4    0    0 -0.20189139223E+03  0.45309356092E+03 -0.16808105751E+03  0.53163281924E+03  0.91259538666E+02 0.  0.
         23    2    4    4    0    0  0.30247010629E+03 -0.27323609599E+03 -0.20541014861E+02  0.41828182050E+03  0.91605778860E+02 0.  0.
          3    1    3    3  502    0 -0.26040948123E+02 -0.10570477557E+03  0.34912578566E+03  0.36570540709E+03  0.00000000000E+00 0. -1.
         -4    1    3    3    0  502 -0.74537765945E+02 -0.74152689360E+02  0.18002152543E+03  0.20847601663E+03  0.00000000000E+00 0.  1.
         11    1    5    5    0    0 -0.84331672588E+02  0.27562184953E+03 -0.12631386215E+03  0.31469735733E+03  0.00000000000E+00 0.  1.
        -11    1    5    5    0    0 -0.11755971964E+03  0.17747171138E+03 -0.41767195356E+02  0.21693546190E+03  0.00000000000E+00 0. -1.
          4    1    6    6  503    0  0.84580489067E+02 -0.12302986579E+03  0.19700583536E+02  0.15059322693E+03  0.00000000000E+00 0. -1.
         -4    1    6    6    0  503  0.21788961723E+03 -0.15020623020E+03 -0.40241598397E+02  0.26768859357E+03  0.00000000000E+00 0.  1.
<mgrwt>
<rscale>  0 0.14855677E+04</rscale>
<asrwt>0</asrwt>
<pdfrwt beam="1">  1        1 0.14343241E+00 0.14855677E+04</pdfrwt>
<pdfrwt beam="2">  1       -2 0.91043909E-01 0.14855677E+04</pdfrwt>
<totfact> 0.14960321E+01</totfact>
</mgrwt>
</event>
<event>
12    4  0.4381187E-008  0.1747605E+04  0.7818608E-02  0.8734670E-01
          1   -1    0    0  501    0  0.00000000000E+00  0.00000000000E+00  0.16297632038E+04  0.16297632038E+04  0.00000000000E+00 0. -1.
         -2   -1    0    0    0  501 -0.00000000000E+00 -0.00000000000E+00 -0.46849186972E+03  0.46849186972E+03  0.00000000000E+00 0.  1.
        -24    2    1    2    0    0  0.25852546309E+03 -0.12630269173E+03  0.11131467984E+04  0.11524541173E+04  0.79163835427E+02 0.  0.
        254    2    1    2    0    0 -0.25852546309E+03  0.12630269173E+03  0.48124535670E+02  0.94580095615E+03  0.89968644133E+03 0.  0.
         23    2    4    4    0    0 -0.33542132328E+03  0.45674433297E+03  0.12228059625E+03  0.58697285763E+03  0.91987725098E+02 0.  0.
         23    2    4    4    0    0  0.76895860189E+02 -0.33044164124E+03 -0.74156060577E+02  0.35882809852E+03  0.90298568014E+02 0.  0.
          1    1    3    3  502    0  0.26102860106E+03 -0.13026914926E+03  0.11065520508E+04  0.11443615788E+04  0.00000000000E+00 0. -1.
         -2    1    3    3    0  502 -0.25031379657E+01  0.39664575311E+01  0.65947475570E+01  0.80925385610E+01  0.00000000000E+00 0.  1.
         11    1    5    5    0    0 -0.19673231458E+03  0.28492164203E+03  0.11905023357E+03  0.36613782079E+03  0.00000000000E+00 0. -1.
        -11    1    5    5    0    0 -0.13868900870E+03  0.17182269094E+03  0.32303626750E+01  0.22083503684E+03  0.00000000000E+00 0.  1.
          3    1    6    6  503    0  0.94609027949E+01 -0.19248003546E+03 -0.70564947232E+02  0.20522544801E+03  0.00000000000E+00 0. -1.
         -3    1    6    6    0  503  0.67434957394E+02 -0.13796160578E+03 -0.35911133449E+01  0.15360265050E+03  0.00000000000E+00 0.  1.
<mgrwt>
<rscale>  0 0.17476050E+04</rscale>
<asrwt>0</asrwt>
<pdfrwt beam="1">  1        1 0.25073280E+00 0.17476050E+04</pdfrwt>
<pdfrwt beam="2">  1       -2 0.72075673E-01 0.17476050E+04</pdfrwt>
<totfact> 0.77213341E+00</totfact>
</mgrwt>
</event>
<event>
12    4  0.4381187E-008  0.2146392E+04  0.7818608E-02  0.8541078E-01
         -2   -1    0    0    0  501 -0.00000000000E+00  0.00000000000E+00  0.11225343182E+04  0.11225343182E+04  0.00000000000E+00 0.  1.
          1   -1    0    0  501    0  0.00000000000E+00 -0.00000000000E+00 -0.10260258143E+04  0.10260258143E+04  0.00000000000E+00 0. -1.
        -24    2    1    2    0    0  0.74091454165E+03  0.41453353836E+01  0.50595178267E+03  0.90073449331E+03  0.79773925604E+02 0.  0.
        254    2    1    2    0    0 -0.74091454165E+03 -0.41453353836E+01 -0.40944327869E+03  0.12478256392E+04  0.91676250227E+03 0.  0.
         23    2    4    4    0    0 -0.85465281741E+03 -0.22722253173E+03 -0.41108587096E+03  0.97964262226E+03  0.92986863613E+02 0.  0.
         23    2    4    4    0    0  0.11373827576E+03  0.22307719635E+03  0.16425922757E+01  0.26818301695E+03  0.96018756337E+02 0.  0.
          3    1    3    3  502    0  0.18321618353E+01  0.44904532988E+01  0.86574439035E+01  0.99233221635E+01  0.00000000000E+00 0. -1.
         -4    1    3    3    0  502  0.73908237982E+03 -0.34511791524E+00  0.49729433877E+03  0.89081117114E+03  0.00000000000E+00 0.  1.
         11    1    5    5    0    0 -0.57127015455E+03 -0.17494342333E+03 -0.31800650703E+03  0.67681823953E+03  0.00000000000E+00 0. -1.
        -11    1    5    5    0    0 -0.28338266286E+03 -0.52279108402E+02 -0.93079363936E+02  0.30282438273E+03  0.00000000000E+00 0.  1.
          4    1    6    6  503    0  0.98930844572E+02  0.12276876167E+03  0.34876135813E+02  0.16148010930E+03  0.00000000000E+00 0. -1.
         -4    1    6    6    0  503  0.14807431190E+02  0.10030843467E+03 -0.33233543537E+02  0.10670290765E+03  0.00000000000E+00 0.  1.
<mgrwt>
<rscale>  0 0.21463916E+04</rscale>
<asrwt>0</asrwt>
<pdfrwt beam="1">  1        1 0.15785012E+00 0.21463916E+04</pdfrwt>
<pdfrwt beam="2">  1       -2 0.17269759E+00 0.21463916E+04</pdfrwt>
<totfact> 0.23652485E+00</totfact>
</mgrwt>
</event>
<event>
12    4  0.4381187E-008  0.1443614E+04  0.7818608E-02  0.8922840E-01
         -2   -1    0    0    0  501 -0.00000000000E+00  0.00000000000E+00  0.42491252606E+03  0.42491252606E+03  0.00000000000E+00 0.  1.
          1   -1    0    0  501    0  0.00000000000E+00 -0.00000000000E+00 -0.12261468550E+04  0.12261468550E+04  0.00000000000E+00 0. -1.
        -24    2    1    2    0    0  0.26495754994E+03  0.37585937887E+02 -0.64281124014E+03  0.69905670418E+03  0.62119072873E+02 0.  0.
        254    2    1    2    0    0 -0.26495754994E+03 -0.37585937887E+02 -0.15842308884E+03  0.95200267692E+03  0.89977553633E+03 0.  0.
         23    2    4    4    0    0 -0.25976087846E+03  0.35219888724E+03 -0.28724972427E+03  0.53141871265E+03  0.91507780565E+02 0.  0.
         23    2    4    4    0    0 -0.51966714740E+01 -0.38978482513E+03  0.12882663542E+03  0.42058396427E+03  0.91298158311E+02 0.  0.
          1    1    3    3  502    0  0.15637089847E+03  0.51685495648E+02 -0.40722347937E+03  0.43926553530E+03  0.00000000000E+00 0. -1.
         -2    1    3    3    0  502  0.10858665147E+03 -0.14099557760E+02 -0.23558776076E+03  0.25979116888E+03  0.00000000000E+00 0.  1.
         11    1    5    5    0    0 -0.60633126137E+01 -0.57509136381E+01 -0.54367942431E+01  0.99697291421E+01  0.00000000000E+00 0. -1.
        -11    1    5    5    0    0 -0.25369756585E+03  0.35794980088E+03 -0.28181293002E+03  0.52144898350E+03  0.00000000000E+00 0.  1.
          1    1    6    6  503    0 -0.99761685750E+01 -0.60169026187E+02  0.56399828658E+02  0.83070911421E+02  0.00000000000E+00 0. -1.
         -1    1    6    6    0  503  0.47794971010E+01 -0.32961579894E+03  0.72426806766E+02  0.33751305285E+03  0.00000000000E+00 0.  1.
<mgrwt>
<rscale>  0 0.14436137E+04</rscale>
<asrwt>0</asrwt>
<pdfrwt beam="1">  1        1 0.18863797E+00 0.14436137E+04</pdfrwt>
<pdfrwt beam="2">  1       -2 0.65371160E-01 0.14436137E+04</pdfrwt>
<totfact> 0.18795816E+01</totfact>
</mgrwt>
</event>
<event>
12    4  0.4381187E-008  0.1567524E+04  0.7818608E-02  0.8840751E-01
         -2   -1    0    0    0  501 -0.00000000000E+00  0.00000000000E+00  0.29159675873E+03  0.29159675873E+03  0.00000000000E+00 0.  1.
          1   -1    0    0  501    0  0.00000000000E+00 -0.00000000000E+00 -0.21066181894E+04  0.21066181894E+04  0.00000000000E+00 0. -1.
        -24    2    1    2    0    0  0.20169273986E+03 -0.12839997913E+03  0.10713283982E+03  0.27407469814E+03  0.80454824827E+02 0.  0.
        254    2    1    2    0    0 -0.20169273986E+03  0.12839997913E+03 -0.19221542705E+04  0.21241402500E+04  0.87185333983E+03 0.  0.
         23    2    4    4    0    0 -0.46451901771E+03 -0.44447311243E+02 -0.61555953958E+03  0.77704577433E+03  0.84457725179E+02 0.  0.
         23    2    4    4    0    0  0.26282627786E+03  0.17284729038E+03 -0.13065947309E+04  0.13470944757E+04  0.92303290423E+02 0.  0.
          1    1    3    3  502    0  0.28967374703E+02  0.55629872564E+01 -0.23735042500E+01  0.29592045330E+02  0.00000000000E+00 0. -1.
         -2    1    3    3    0  502  0.17272536516E+03 -0.13396296639E+03  0.10950634407E+03  0.24448265281E+03  0.00000000000E+00 0.  1.
         11    1    5    5    0    0 -0.27312669853E+03 -0.62950960362E+02 -0.39651625728E+03  0.48557816997E+03  0.00000000000E+00 0.  1.
        -11    1    5    5    0    0 -0.19139231918E+03  0.18503649119E+02 -0.21904328230E+03  0.29146760436E+03  0.00000000000E+00 0. -1.
          2    1    6    6  503    0  0.20312196071E+03  0.16551651360E+03 -0.95044142848E+03  0.98589713265E+03  0.00000000000E+00 0. -1.
         -2    1    6    6    0  503  0.59704317146E+02  0.73307767745E+01 -0.35615330245E+03  0.36119734304E+03  0.00000000000E+00 0.  1.
<mgrwt>
<rscale>  0 0.15675242E+04</rscale>
<asrwt>0</asrwt>
<pdfrwt beam="1">  1        1 0.32409512E+00 0.15675242E+04</pdfrwt>
<pdfrwt beam="2">  1       -2 0.44861038E-01 0.15675242E+04</pdfrwt>
<totfact> 0.10046662E+01</totfact>
</mgrwt>
</event>
<event>
12    4  0.4381187E-008  0.3186918E+04  0.7818608E-02  0.8192281E-01
          1   -1    0    0  501    0  0.00000000000E+00  0.00000000000E+00  0.13097670741E+04  0.13097670741E+04  0.00000000000E+00 0. -1.
         -2   -1    0    0    0  501 -0.00000000000E+00 -0.00000000000E+00 -0.19385981996E+04  0.19385981996E+04  0.00000000000E+00 0.  1.
        -24    2    1    2    0    0 -0.85720970075E+03  0.12654807009E+03 -0.15009908700E+04  0.17352904210E+04  0.86234380569E+02 0.  0.
        254    2    1    2    0    0  0.85720970075E+03 -0.12654807009E+03  0.87215974456E+03  0.15130748526E+04  0.88199206605E+03 0.  0.
         23    2    4    4    0    0  0.80621820943E+02  0.31503049508E+03  0.24968318312E+03  0.41993599931E+03  0.90887076850E+02 0.  0.
         23    2    4    4    0    0  0.77658787981E+03 -0.44157856517E+03  0.62247656144E+03  0.10931388533E+04  0.96928421239E+02 0.  0.
          3    1    3    3  502    0 -0.25229964215E+03  0.75999014395E+02 -0.43485490265E+03  0.50845820475E+03  0.00000000000E+00 0. -1.
         -4    1    3    3    0  502 -0.60491005860E+03  0.50549055694E+02 -0.10661359674E+04  0.12268322163E+04  0.00000000000E+00 0.  1.
         11    1    5    5    0    0  0.73168018916E+02  0.28656862157E+03  0.18494648482E+03  0.34882708626E+03  0.00000000000E+00 0.  1.
        -11    1    5    5    0    0  0.74538020276E+01  0.28461873514E+02  0.64736698298E+02  0.71108913050E+02  0.00000000000E+00 0. -1.
          3    1    6    6  503    0  0.73130076459E+02 -0.21006717278E+02  0.29846340989E+02  0.81731844003E+02  0.00000000000E+00 0. -1.
         -3    1    6    6    0  503  0.70345780335E+03 -0.42057184790E+03  0.59263022045E+03  0.10114070093E+04  0.00000000000E+00 0.  1.
<mgrwt>
<rscale>  0 0.31869183E+04</rscale>
<asrwt>0</asrwt>
<pdfrwt beam="1">  1        1 0.20150263E+00 0.31869183E+04</pdfrwt>
<pdfrwt beam="2">  1       -2 0.29824588E+00 0.31869183E+04</pdfrwt>
<totfact> 0.21324223E-01</totfact>
</mgrwt>
</event>
<event>
12    4  0.4381187E-008  0.2262674E+04  0.7818608E-02  0.8492785E-01
          1   -1    0    0  501    0  0.00000000000E+00  0.00000000000E+00  0.12659825228E+04  0.12659825228E+04  0.00000000000E+00 0. -1.
         -2   -1    0    0    0  501 -0.00000000000E+00 -0.00000000000E+00 -0.10110116333E+04  0.10110116333E+04  0.00000000000E+00 0.  1.
        -24    2    1    2    0    0  0.25660060432E+03 -0.91274074187E+03  0.13744497055E+03  0.96150796405E+03  0.81651166455E+02 0.  0.
        254    2    1    2    0    0 -0.25660060432E+03  0.91274074187E+03  0.11752591891E+03  0.13154861921E+04  0.90429643811E+03 0.  0.
         23    2    4    4    0    0  0.62370207517E+01 -0.16802463224E+03  0.30035003475E+02  0.19610751164E+03  0.96358067745E+02 0.  0.
         23    2    4    4    0    0 -0.26283762507E+03  0.10807653741E+04  0.87490915437E+02  0.11193786805E+04  0.90645236831E+02 0.  0.
          3    1    3    3  502    0  0.23419119664E+03 -0.88145772027E+03  0.12250643329E+03  0.92022880601E+03  0.00000000000E+00 0. -1.
         -4    1    3    3    0  502  0.22409407676E+02 -0.31283021603E+02  0.14938537256E+02  0.41279158039E+02  0.00000000000E+00 0.  1.
         11    1    5    5    0    0  0.13713288937E+02 -0.11821257622E+03 -0.24892902998E+02  0.12158093637E+03  0.00000000000E+00 0.  1.
        -11    1    5    5    0    0 -0.74762681852E+01 -0.49812056019E+02  0.54927906473E+02  0.74526575262E+02  0.00000000000E+00 0. -1.
          1    1    6    6  503    0 -0.22504085563E+03  0.97541363587E+03  0.53759213811E+02  0.10024795264E+04  0.00000000000E+00 0. -1.
         -1    1    6    6    0  503 -0.37796769439E+02  0.10535173825E+03  0.33731701626E+02  0.11689915409E+03  0.00000000000E+00 0.  1.
<mgrwt>
<rscale>  0 0.22626737E+04</rscale>
<asrwt>0</asrwt>
<pdfrwt beam="1">  1        1 0.19476654E+00 0.22626737E+04</pdfrwt>
<pdfrwt beam="2">  1       -2 0.15554025E+00 0.22626737E+04</pdfrwt>
<totfact> 0.20707679E+00</totfact>
</mgrwt>
</event>
<event>
12    4  0.4381187E-008  0.2314881E+04  0.7818608E-02  0.8472077E-01
         -2   -1    0    0    0  501 -0.00000000000E+00  0.00000000000E+00  0.11258645409E+04  0.11258645409E+04  0.00000000000E+00 0.  1.
          1   -1    0    0  501    0  0.00000000000E+00 -0.00000000000E+00 -0.11899019538E+04  0.11899019538E+04  0.00000000000E+00 0. -1.
        -24    2    1    2    0    0 -0.25482051074E+03  0.93215271134E+03 -0.33883143175E+03  0.10271457816E+04  0.79872070126E+02 0.  0.
        254    2    1    2    0    0  0.25482051074E+03 -0.93215271134E+03  0.27479401885E+03  0.12886207131E+04  0.80696308440E+03 0.  0.
         23    2    4    4    0    0  0.30927408877E+03 -0.33081561645E+03  0.45873612375E+03  0.65048048429E+03  0.87158448433E+02 0.  0.
         23    2    4    4    0    0 -0.54453578023E+02 -0.60133709489E+03 -0.18394210489E+03  0.63814022886E+03  0.93897603204E+02 0.  0.
          3    1    3    3  502    0 -0.20890399003E+03  0.80027892891E+03 -0.31723255223E+03  0.88584633729E+03  0.00000000000E+00 0. -1.
         -4    1    3    3    0  502 -0.45916520717E+02  0.13187378244E+03 -0.21598879518E+02  0.14129944432E+03  0.00000000000E+00 0.  1.
         11    1    5    5    0    0  0.94242546474E+02 -0.82941066023E+02  0.77796212579E+02  0.14769268327E+03  0.00000000000E+00 0.  1.
        -11    1    5    5    0    0  0.21503154229E+03 -0.24787455043E+03  0.38093991117E+03  0.50278780102E+03  0.00000000000E+00 0. -1.
          3    1    6    6  503    0  0.17749893444E+02 -0.79494598364E+02 -0.43962200018E+01  0.81570684910E+02  0.00000000000E+00 0. -1.
         -3    1    6    6    0  503 -0.72203471467E+02 -0.52184249652E+03 -0.17954588489E+03  0.55656954395E+03  0.00000000000E+00 0.  1.
<mgrwt>
<rscale>  0 0.23148809E+04</rscale>
<asrwt>0</asrwt>
<pdfrwt beam="1">  1        1 0.18306184E+00 0.23148809E+04</pdfrwt>
<pdfrwt beam="2">  1       -2 0.17320993E+00 0.23148809E+04</pdfrwt>
<totfact> 0.17411426E+00</totfact>
</mgrwt>
</event>
<event>
12    4  0.4381187E-008  0.1992789E+04  0.7818608E-02  0.8609999E-01
          1   -1    0    0  501    0  0.00000000000E+00  0.00000000000E+00  0.45654577464E+03  0.45654577464E+03  0.00000000000E+00 0. -1.
         -2   -1    0    0    0  501 -0.00000000000E+00 -0.00000000000E+00 -0.21745948312E+04  0.21745948312E+04  0.00000000000E+00 0.  1.
        -24    2    1    2    0    0  0.58098625529E+03 -0.46842482942E+03 -0.92411840551E+03  0.11906291619E+04  0.81462408676E+02 0.  0.
        254    2    1    2    0    0 -0.58098625529E+03  0.46842482942E+03 -0.79393065100E+03  0.14405114439E+04  0.94222104193E+03 0.  0.
         23    2    4    4    0    0 -0.63014370286E+03 -0.71133516558E+02 -0.32827517423E+03  0.72027379789E+03  0.94279851896E+02 0.  0.
         23    2    4    4    0    0  0.49157447569E+02  0.53955834597E+03 -0.46565547678E+03  0.72023764605E+03  0.91474479338E+02 0.  0.
          1    1    3    3  502    0  0.24398308322E+03 -0.14606525538E+03 -0.35385203282E+03  0.45395381357E+03  0.00000000000E+00 0. -1.
         -2    1    3    3    0  502  0.33700317208E+03 -0.32235957404E+03 -0.57026637269E+03  0.73667534829E+03  0.00000000000E+00 0.  1.
         11    1    5    5    0    0 -0.61960681697E+03 -0.55722786895E+02 -0.31458611950E+03  0.69712413758E+03  0.00000000000E+00 0. -1.
        -11    1    5    5    0    0 -0.10536885896E+02 -0.15410729664E+02 -0.13689054724E+02  0.23149660309E+02  0.00000000000E+00 0.  1.
          3    1    6    6  503    0  0.62240409165E+02  0.52834297729E+03 -0.44719934683E+03  0.69498735672E+03  0.00000000000E+00 0. -1.
         -3    1    6    6    0  503 -0.13082961596E+02  0.11215368680E+02 -0.18456129945E+02  0.25250289331E+02  0.00000000000E+00 0.  1.
<mgrwt>
<rscale>  0 0.19927891E+04</rscale>
<asrwt>0</asrwt>
<pdfrwt beam="1">  1        1 0.70237810E-01 0.19927891E+04</pdfrwt>
<pdfrwt beam="2">  1       -2 0.33455306E+00 0.19927891E+04</pdfrwt>
<totfact> 0.79481444E-01</totfact>
</mgrwt>
</event>
<event>
12    4  0.4381187E-008  0.4515240E+04  0.7818608E-02  0.7907974E-01
          1   -1    0    0  501    0  0.00000000000E+00  0.00000000000E+00  0.32564850620E+04  0.32564850620E+04  0.00000000000E+00 0. -1.
         -2   -1    0    0    0  501 -0.00000000000E+00 -0.00000000000E+00 -0.15651375610E+04  0.15651375610E+04  0.00000000000E+00 0.  1.
        -24    2    1    2    0    0 -0.38023118397E+03 -0.50994611048E+03 -0.13941854085E+04  0.15346279791E+04  0.81910269619E+02 0.  0.
        254    2    1    2    0    0  0.38023118397E+03  0.50994611048E+03  0.30855329096E+04  0.32869946438E+04  0.93765647434E+03 0.  0.
         23    2    4    4    0    0  0.45565770454E+03  0.50636450152E+02  0.24483980424E+04  0.24926087866E+04  0.90871311317E+02 0.  0.
         23    2    4    4    0    0 -0.75426520571E+02  0.45930966033E+03  0.63713486718E+03  0.79438585727E+03  0.91943064861E+02 0.  0.
          1    1    3    3  502    0 -0.46774595245E+02 -0.39376916427E+02 -0.92320058883E+02  0.11073119515E+03  0.00000000000E+00 0. -1.
         -2    1    3    3    0  502 -0.33345658872E+03 -0.47056919405E+03 -0.13018653496E+04  0.14238967840E+04  0.00000000000E+00 0.  1.
         11    1    5    5    0    0  0.42226282582E+03  0.24383041057E+02  0.22824875538E+04  0.23213465618E+04  0.00000000000E+00 0. -1.
        -11    1    5    5    0    0  0.33394878722E+02  0.26253409095E+02  0.16591048859E+03  0.17126222479E+03  0.00000000000E+00 0.  1.
          2    1    6    6  503    0 -0.76483666735E+02  0.25943902474E+03  0.31401466355E+03  0.41444368466E+03  0.00000000000E+00 0. -1.
         -2    1    6    6    0  503  0.10571461631E+01  0.19987063559E+03  0.32312020363E+03  0.37994217261E+03  0.00000000000E+00 0.  1.
<mgrwt>
<rscale>  0 0.45152396E+04</rscale>
<asrwt>0</asrwt>
<pdfrwt beam="1">  1        1 0.50099770E+00 0.45152396E+04</pdfrwt>
<pdfrwt beam="2">  1       -2 0.24079040E+00 0.45152396E+04</pdfrwt>
<totfact> 0.18641583E-02</totfact>
</mgrwt>
</event>
<event>
12    4  0.4381187E-008  0.1869792E+04  0.7818608E-02  0.8670040E-01
         -4   -1    0    0    0  501 -0.00000000000E+00  0.00000000000E+00  0.12290824095E+04  0.12290824095E+04  0.00000000000E+00 0.  1.
          3   -1    0    0  501    0  0.00000000000E+00 -0.00000000000E+00 -0.71112475586E+03  0.71112475586E+03  0.00000000000E+00 0. -1.
        -24    2    1    2    0    0 -0.47848163349E+02  0.28220362270E+03 -0.48143147634E+03  0.56525788839E+03  0.76235704039E+02 0.  0.
        254    2    1    2    0    0  0.47848163349E+02 -0.28220362270E+03  0.99938912995E+03  0.13749492769E+04  0.89987696363E+03 0.  0.
         23    2    4    4    0    0  0.41807290652E+03 -0.27443300511E+03  0.79272714194E+03  0.94122345673E+03  0.85946753764E+02 0.  0.
         23    2    4    4    0    0 -0.37022474317E+03 -0.77706175867E+01  0.20666198801E+03  0.43372582020E+03  0.91006411106E+02 0.  0.
          3    1    3    3  502    0  0.74866463171E+00  0.18649167999E+03 -0.33893449796E+03  0.38685436680E+03  0.00000000000E+00 0. -1.
         -4    1    3    3    0  502 -0.48596827981E+02  0.95711942709E+02 -0.14249697839E+03  0.17840352159E+03  0.00000000000E+00 0.  1.
         11    1    5    5    0    0  0.12236204307E+03 -0.76074856130E+02  0.16102420164E+03  0.21607555816E+03  0.00000000000E+00 0.  1.
        -11    1    5    5    0    0  0.29571086345E+03 -0.19835814898E+03  0.63170294029E+03  0.72514789857E+03  0.00000000000E+00 0. -1.
          3    1    6    6  503    0 -0.33161858008E+03  0.21836606991E+02  0.18622129650E+03  0.38095418534E+03  0.00000000000E+00 0. -1.
         -3    1    6    6    0  503 -0.38606163092E+02 -0.29607224578E+02  0.20440691513E+02  0.52771634856E+02  0.00000000000E+00 0.  1.
<mgrwt>
<rscale>  0 0.18697924E+04</rscale>
<asrwt>0</asrwt>
<pdfrwt beam="1">  1        3 0.10940381E+00 0.18697924E+04</pdfrwt>
<pdfrwt beam="2">  1       -4 0.18908960E+00 0.18697924E+04</pdfrwt>
<totfact> 0.23642285E-01</totfact>
</mgrwt>
</event>
<event>
12    4  0.4381187E-008  0.1865209E+04  0.7818608E-02  0.8672371E-01
         -2   -1    0    0    0  501 -0.00000000000E+00  0.00000000000E+00  0.82477054517E+03  0.82477054517E+03  0.00000000000E+00 0.  1.
          1   -1    0    0  501    0  0.00000000000E+00 -0.00000000000E+00 -0.10545367262E+04  0.10545367262E+04  0.00000000000E+00 0. -1.
        -24    2    1    2    0    0 -0.43061644661E+03  0.57158293699E+03 -0.19266656776E+03  0.74541657611E+03  0.79924261973E+02 0.  0.
        254    2    1    2    0    0  0.43061644661E+03 -0.57158293699E+03 -0.37099613234E+02  0.11338906952E+04  0.87874578204E+03 0.  0.
         23    2    4    4    0    0  0.31486405882E+03  0.12882324262E+03  0.16530967153E+03  0.38919957680E+03  0.91729055934E+02 0.  0.
         23    2    4    4    0    0  0.11575238779E+03 -0.70040617961E+03 -0.20240928476E+03  0.74469111843E+03  0.98121922061E+02 0.  0.
          3    1    3    3  502    0 -0.20472557369E+03  0.25174552475E+03 -0.12666804665E+03  0.34832910271E+03  0.00000000000E+00 0. -1.
         -4    1    3    3    0  502 -0.22589087292E+03  0.31983741224E+03 -0.65998521105E+02  0.39708747340E+03  0.00000000000E+00 0.  1.
         11    1    5    5    0    0  0.17344915702E+02 -0.49251045899E+01 -0.81056275655E+01  0.19768762080E+02  0.00000000000E+00 0.  1.
        -11    1    5    5    0    0  0.29751914312E+03  0.13374834721E+03  0.17341529909E+03  0.36943081472E+03  0.00000000000E+00 0. -1.
          3    1    6    6  503    0  0.69129509941E+02 -0.61891337651E+03 -0.17696423655E+03  0.64741717446E+03  0.00000000000E+00 0. -1.
         -3    1    6    6    0  503  0.46622877853E+02 -0.81492803106E+02 -0.25445048209E+02  0.97273943971E+02  0.00000000000E+00 0.  1.
<mgrwt>
<rscale>  0 0.18652087E+04</rscale>
<asrwt>0</asrwt>
<pdfrwt beam="1">  1        1 0.16223642E+00 0.18652087E+04</pdfrwt>
<pdfrwt beam="2">  1       -2 0.12688778E+00 0.18652087E+04</pdfrwt>
<totfact> 0.52154394E+00</totfact>
</mgrwt>
</event>
<event>
12    4  0.4381187E-008  0.1532296E+04  0.7818608E-02  0.8863256E-01
          1   -1    0    0  501    0  0.00000000000E+00  0.00000000000E+00  0.16197040295E+04  0.16197040295E+04  0.00000000000E+00 0. -1.
         -2   -1    0    0    0  501 -0.00000000000E+00 -0.00000000000E+00 -0.36240115228E+03  0.36240115228E+03  0.00000000000E+00 0.  1.
        -24    2    1    2    0    0  0.11126293166E+03  0.47851167846E+03  0.36304472915E+03  0.61610045840E+03  0.80158799170E+02 0.  0.
        254    2    1    2    0    0 -0.11126293166E+03 -0.47851167846E+03  0.89425814809E+03  0.13660047234E+04  0.90825018719E+03 0.  0.
         23    2    4    4    0    0 -0.24088749376E+03 -0.61498592292E+03  0.28854866832E+03  0.72630884656E+03  0.89608797374E+02 0.  0.
         23    2    4    4    0    0  0.12962456210E+03  0.13647424446E+03  0.60570947977E+03  0.63969587684E+03  0.83060787757E+02 0.  0.
          1    1    3    3  502    0  0.70618274492E+02  0.39267783913E+03  0.26134928616E+03  0.47695521321E+03  0.00000000000E+00 0. -1.
         -2    1    3    3    0  502  0.40644657168E+02  0.85833839327E+02  0.10169544300E+03  0.13914524518E+03  0.00000000000E+00 0.  1.
         11    1    5    5    0    0 -0.19461862345E+02 -0.19296958836E+02 -0.21005512935E+01  0.27487251991E+02  0.00000000000E+00 0. -1.
        -11    1    5    5    0    0 -0.22142563142E+03 -0.59568896408E+03  0.29064921962E+03  0.69882159457E+03  0.00000000000E+00 0.  1.
          4    1    6    6  503    0  0.45742201076E+02  0.26175046272E+00  0.13869352761E+03  0.14604215855E+03  0.00000000000E+00 0. -1.
         -4    1    6    6    0  503  0.83882361027E+02  0.13621249399E+03  0.46701595216E+03  0.49365371829E+03  0.00000000000E+00 0.  1.
<mgrwt>
<rscale>  0 0.15322958E+04</rscale>
<asrwt>0</asrwt>
<pdfrwt beam="1">  1        1 0.24918523E+00 0.15322958E+04</pdfrwt>
<pdfrwt beam="2">  1       -2 0.55754024E-01 0.15322958E+04</pdfrwt>
<totfact> 0.13840644E+01</totfact>
</mgrwt>
</event>
<event>
12    4  0.4381187E-008  0.1355769E+04  0.7818608E-02  0.8986472E-01
         -2   -1    0    0    0  501 -0.00000000000E+00  0.00000000000E+00  0.35455324105E+03  0.35455324105E+03  0.00000000000E+00 0.  1.
          1   -1    0    0  501    0  0.00000000000E+00 -0.00000000000E+00 -0.12960752002E+04  0.12960752002E+04  0.00000000000E+00 0. -1.
        -24    2    1    2    0    0 -0.11523975782E+03  0.30289103404E+03 -0.48180534349E+03  0.58605353168E+03  0.79367327650E+02 0.  0.
        254    2    1    2    0    0  0.11523975782E+03 -0.30289103404E+03 -0.45971661563E+03  0.10645749095E+04  0.90385684212E+03 0.  0.
         23    2    4    4    0    0 -0.13718715157E+03 -0.43886975536E+03  0.51432389663E+02  0.47175134229E+03  0.92070959190E+02 0.  0.
         23    2    4    4    0    0  0.25242690940E+03  0.13597872132E+03 -0.51114900529E+03  0.59282356725E+03  0.89201564052E+02 0.  0.
          3    1    3    3  502    0 -0.55364529111E+02  0.20036913628E+03 -0.36164079925E+03  0.41712958363E+03  0.00000000000E+00 0. -1.
         -4    1    3    3    0  502 -0.59875228714E+02  0.10252189775E+03 -0.12016454424E+03  0.16892394805E+03  0.00000000000E+00 0.  1.
         11    1    5    5    0    0 -0.32393704466E+02 -0.78390945363E+02  0.45607040702E+02  0.96304177301E+02  0.00000000000E+00 0.  1.
        -11    1    5    5    0    0 -0.10479344711E+03 -0.36047880999E+03  0.58253489608E+01  0.37544716499E+03  0.00000000000E+00 0. -1.
          2    1    6    6  503    0  0.13887225962E+02  0.10760391189E+02 -0.32083090042E+01  0.17858732041E+02  0.00000000000E+00 0. -1.
         -2    1    6    6    0  503  0.23853968343E+03  0.12521833013E+03 -0.50794069629E+03  0.57496483520E+03  0.00000000000E+00 0.  1.
<mgrwt>
<rscale>  0 0.13557694E+04</rscale>
<asrwt>0</asrwt>
<pdfrwt beam="1">  1        1 0.19939619E+00 0.13557694E+04</pdfrwt>
<pdfrwt beam="2">  1       -2 0.54546652E-01 0.13557694E+04</pdfrwt>
<totfact> 0.24712991E+01</totfact>
</mgrwt>
</event>
<event>
12    4  0.4381187E-008  0.2266871E+04  0.7818608E-02  0.8491099E-01
         -4   -1    0    0    0  501 -0.00000000000E+00  0.00000000000E+00  0.20712152997E+04  0.20712152997E+04  0.00000000000E+00 0.  1.
          1   -1    0    0  501    0  0.00000000000E+00 -0.00000000000E+00 -0.62025239532E+03  0.62025239532E+03  0.00000000000E+00 0. -1.
        -24    2    1    2    0    0  0.14731275578E+03  0.12488964728E+03  0.17282090610E+04  0.17408463895E+04  0.80877199951E+02 0.  0.
        254    2    1    2    0    0 -0.14731275578E+03 -0.12488964728E+03 -0.27724615660E+03  0.95062130548E+03  0.88854767068E+03 0.  0.
         23    2    4    4    0    0  0.26591924954E+03 -0.32905865186E+03 -0.72860996050E+02  0.43867111380E+03  0.90171934090E+02 0.  0.
         23    2    4    4    0    0 -0.41323200532E+03  0.20416900458E+03 -0.20438516055E+03  0.51195019168E+03  0.88735743941E+02 0.  0.
          1    1    3    3  502    0 -0.23736882798E+01  0.28888211374E+02  0.16180441766E+03  0.16438014700E+03  0.00000000000E+00 0. -1.
         -2    1    3    3    0  502  0.14968644406E+03  0.96001435908E+02  0.15664046433E+04  0.15764662425E+04  0.00000000000E+00 0.  1.
         11    1    5    5    0    0  0.11075162733E+03 -0.15544368048E+03 -0.76934899097E+02  0.20578542090E+03  0.00000000000E+00 0.  1.
        -11    1    5    5    0    0  0.15516762222E+03 -0.17361497138E+03  0.40739030473E+01  0.23288569290E+03  0.00000000000E+00 0. -1.
          1    1    6    6  503    0 -0.39113250686E+03  0.20871012562E+03 -0.20692417398E+03  0.48924653114E+03  0.00000000000E+00 0. -1.
         -1    1    6    6    0  503 -0.22099498464E+02 -0.45411210389E+01  0.25390134263E+01  0.22703660538E+02  0.00000000000E+00 0.  1.
<mgrwt>
<rscale>  0 0.22668712E+04</rscale>
<asrwt>0</asrwt>
<pdfrwt beam="1">  1        1 0.95423447E-01 0.22668712E+04</pdfrwt>
<pdfrwt beam="2">  1       -4 0.31864850E+00 0.22668712E+04</pdfrwt>
<totfact> 0.33313469E-01</totfact>
</mgrwt>
</event>
<event>
12    4  0.4381187E-008  0.1777726E+04  0.7818608E-02  0.8718235E-01
         -2   -1    0    0    0  501 -0.00000000000E+00  0.00000000000E+00  0.79861746342E+03  0.79861746342E+03  0.00000000000E+00 0.  1.
          1   -1    0    0  501    0  0.00000000000E+00 -0.00000000000E+00 -0.98930651170E+03  0.98930651170E+03  0.00000000000E+00 0. -1.
        -24    2    1    2    0    0 -0.37593188430E+03  0.34263241595E+03  0.34326120165E+03  0.61882440458E+03  0.79960221719E+02 0.  0.
        254    2    1    2    0    0  0.37593188430E+03 -0.34263241595E+03 -0.53395024992E+03  0.11690995705E+04  0.90717648907E+03 0.  0.
         23    2    4    4    0    0  0.44307310155E+03  0.19359789494E+03 -0.24657444497E+03  0.55021462885E+03  0.90240027963E+02 0.  0.
         23    2    4    4    0    0 -0.67141217247E+02 -0.53623031089E+03 -0.28737580495E+03  0.61888494168E+03  0.91557787218E+02 0.  0.
          1    1    3    3  502    0 -0.10036709643E+03  0.68415201517E+02  0.11888360370E+03  0.16996324624E+03  0.00000000000E+00 0. -1.
         -2    1    3    3    0  502 -0.27556478787E+03  0.27421721444E+03  0.22437759794E+03  0.44886115834E+03  0.00000000000E+00 0.  1.
         11    1    5    5    0    0  0.15608426156E+03  0.58932852021E+02 -0.13337044212E+03  0.21359553503E+03  0.00000000000E+00 0. -1.
        -11    1    5    5    0    0  0.28698883999E+03  0.13466504291E+03 -0.11320400285E+03  0.33661909382E+03  0.00000000000E+00 0.  1.
          4    1    6    6  503    0 -0.97265846940E+01 -0.34871554999E+02 -0.48621565356E+02  0.60619208305E+02  0.00000000000E+00 0. -1.
         -4    1    6    6    0  503 -0.57414632553E+02 -0.50135875589E+03 -0.23875423960E+03  0.55826573338E+03  0.00000000000E+00 0.  1.
<mgrwt>
<rscale>  0 0.17777260E+04</rscale>
<asrwt>0</asrwt>
<pdfrwt beam="1">  1        1 0.15220100E+00 0.17777260E+04</pdfrwt>
<pdfrwt beam="2">  1       -2 0.12286423E+00 0.17777260E+04</pdfrwt>
<totfact> 0.64001544E+00</totfact>
</mgrwt>
</event>
<event>
12    4  0.4381187E-008  0.1205166E+04  0.7818608E-02  0.9108347E-01
         -2   -1    0    0    0  501 -0.00000000000E+00  0.00000000000E+00  0.96308829501E+03  0.96308829501E+03  0.00000000000E+00 0.  1.
          1   -1    0    0  501    0  0.00000000000E+00 -0.00000000000E+00 -0.37702267941E+03  0.37702267941E+03  0.00000000000E+00 0. -1.
        -24    2    1    2    0    0 -0.22977564206E+03  0.22534308630E+02  0.25599173962E+03  0.35488045003E+03  0.84283582713E+02 0.  0.
        254    2    1    2    0    0  0.22977564206E+03 -0.22534308630E+02  0.33007387599E+03  0.98523052439E+03  0.89912500901E+03 0.  0.
         23    2    4    4    0    0  0.57092969106E+02  0.24274512226E+03  0.53519146085E+03  0.59735096443E+03  0.90628215441E+02 0.  0.
         23    2    4    4    0    0  0.17268267295E+03 -0.26527943089E+03 -0.20511758487E+03  0.38787955996E+03  0.90470146577E+02 0.  0.
          1    1    3    3  502    0 -0.13111652501E+03  0.14062617720E+02  0.83787651449E+02  0.15623594620E+03  0.00000000000E+00 0. -1.
         -2    1    3    3    0  502 -0.98659117045E+02  0.84716909101E+01  0.17220408817E+03  0.19864450384E+03  0.00000000000E+00 0.  1.
         11    1    5    5    0    0 -0.12373390861E+02  0.14136590550E+03  0.30545881884E+03  0.33681227716E+03  0.00000000000E+00 0. -1.
        -11    1    5    5    0    0  0.69466359967E+02  0.10137921676E+03  0.22973264201E+03  0.26053868727E+03  0.00000000000E+00 0.  1.
          2    1    6    6  503    0  0.15049351164E+03 -0.16291564946E+03 -0.11565099338E+03  0.25012988257E+03  0.00000000000E+00 0. -1.
         -2    1    6    6    0  503  0.22189161308E+02 -0.10236378143E+03 -0.89466591484E+02  0.13774967739E+03  0.00000000000E+00 0.  1.
<mgrwt>
<rscale>  0 0.12051658E+04</rscale>
<asrwt>0</asrwt>
<pdfrwt beam="1">  1        1 0.58003489E-01 0.12051658E+04</pdfrwt>
<pdfrwt beam="2">  1       -2 0.14816743E+00 0.12051658E+04</pdfrwt>
<totfact> 0.17345792E+01</totfact>
</mgrwt>
</event>
<event>
12    4  0.4381187E-008  0.9980961E+03  0.7818608E-02  0.9310635E-01
          1   -1    0    0  501    0  0.00000000000E+00  0.00000000000E+00  0.59086658515E+03  0.59086658515E+03  0.00000000000E+00 0. -1.
         -2   -1    0    0    0  501 -0.00000000000E+00 -0.00000000000E+00 -0.42149775802E+03  0.42149775802E+03  0.00000000000E+00 0.  1.
        -24    2    1    2    0    0 -0.38391259140E+02  0.22617370666E+02  0.51174229977E+02  0.10481532654E+03  0.79887524867E+02 0.  0.
        254    2    1    2    0    0  0.38391259140E+02 -0.22617370666E+02  0.11819459715E+03  0.90754901663E+03  0.89871565056E+03 0.  0.
         23    2    4    4    0    0  0.40434520759E+03  0.18834900803E+03  0.13698050930E+03  0.47482580903E+03  0.87894785189E+02 0.  0.
         23    2    4    4    0    0 -0.36595394845E+03 -0.21096637869E+03 -0.18785912151E+02  0.43272320760E+03  0.92018251299E+02 0.  0.
          1    1    3    3  502    0 -0.39789282070E+02  0.41113792403E+02  0.61159148054E+02  0.83749461396E+02  0.00000000000E+00 0. -1.
         -4    1    3    3    0  502  0.13980229302E+01 -0.18496421737E+02 -0.99849180772E+01  0.21065865142E+02  0.00000000000E+00 0.  1.
         11    1    5    5    0    0  0.56785570654E+02  0.35039639029E+02 -0.10079362918E+02  0.67483115626E+02  0.00000000000E+00 0.  1.
        -11    1    5    5    0    0  0.34755963694E+03  0.15330936900E+03  0.14705987222E+03  0.40734269340E+03  0.00000000000E+00 0. -1.
          1    1    6    6  503    0 -0.30396144051E+03 -0.16973908040E+03 -0.50524329155E+02  0.35179059193E+03  0.00000000000E+00 0. -1.
         -1    1    6    6    0  503 -0.61992507943E+02 -0.41227298291E+02  0.31738417003E+02  0.80932615671E+02  0.00000000000E+00 0.  1.
<mgrwt>
<rscale>  0 0.99809607E+03</rscale>
<asrwt>0</asrwt>
<pdfrwt beam="1">  1        1 0.90902552E-01 0.99809607E+03</pdfrwt>
<pdfrwt beam="2">  1       -2 0.64845809E-01 0.99809607E+03</pdfrwt>
<totfact> 0.67473535E+01</totfact>
</mgrwt>
</event>
<event>
12    4  0.4381187E-008  0.1531971E+04  0.7818608E-02  0.8863466E-01
         -2   -1    0    0    0  501 -0.00000000000E+00  0.00000000000E+00  0.74834235947E+03  0.74834235947E+03  0.00000000000E+00 0.  1.
          1   -1    0    0  501    0  0.00000000000E+00 -0.00000000000E+00 -0.78404481996E+03  0.78404481996E+03  0.00000000000E+00 0. -1.
        -24    2    1    2    0    0 -0.26537576300E+03 -0.21931661316E+03  0.34332038011E+03  0.49284084723E+03  0.80617274213E+02 0.  0.
        254    2    1    2    0    0  0.26537576300E+03  0.21931661316E+03 -0.37902284061E+03  0.10395463322E+04  0.90469563429E+03 0.  0.
         23    2    4    4    0    0  0.44825570177E+03 -0.15860508961E+03 -0.37148163887E+03  0.61026094013E+03  0.91274631803E+02 0.  0.
         23    2    4    4    0    0 -0.18287993877E+03  0.37792170277E+03 -0.75412017315E+01  0.42928539207E+03  0.89214307669E+02 0.  0.
          1    1    3    3  502    0 -0.85511012090E+02 -0.12039920835E+03  0.12912721415E+03  0.19616814215E+03  0.00000000000E+00 0. -1.
         -2    1    3    3    0  502 -0.17986475091E+03 -0.98917404808E+02  0.21419316596E+03  0.29667270508E+03  0.00000000000E+00 0.  1.
         11    1    5    5    0    0  0.21597750269E+03 -0.86695712643E+02 -0.23800724348E+03  0.33288117431E+03  0.00000000000E+00 0.  1.
        -11    1    5    5    0    0  0.23227819908E+03 -0.71909376967E+02 -0.13347439539E+03  0.27737976582E+03  0.00000000000E+00 0. -1.
          2    1    6    6  503    0 -0.12494760545E+03  0.29836146864E+03 -0.39356370366E+02  0.32585333199E+03  0.00000000000E+00 0. -1.
         -2    1    6    6    0  503 -0.57932333312E+02  0.79560234128E+02  0.31815168635E+02  0.10343206008E+03  0.00000000000E+00 0.  1.
<mgrwt>
<rscale>  0 0.15319712E+04</rscale>
<asrwt>0</asrwt>
<pdfrwt beam="1">  1        1 0.12062228E+00 0.15319712E+04</pdfrwt>
<pdfrwt beam="2">  1       -2 0.11512959E+00 0.15319712E+04</pdfrwt>
<totfact> 0.11347066E+01</totfact>
</mgrwt>
</event>
<event>
12    4  0.4381187E-008  0.1809346E+04  0.7818608E-02  0.8701345E-01
         -2   -1    0    0    0  501 -0.00000000000E+00  0.00000000000E+00  0.61073998356E+03  0.61073998356E+03  0.00000000000E+00 0.  1.
          1   -1    0    0  501    0  0.00000000000E+00 -0.00000000000E+00 -0.13400680754E+04  0.13400680754E+04  0.00000000000E+00 0. -1.
        -24    2    1    2    0    0  0.54919982925E+03 -0.16948140933E+03 -0.65562589876E+03  0.87519491731E+03  0.76002786923E+02 0.  0.
        254    2    1    2    0    0 -0.54919982925E+03  0.16948140933E+03 -0.73702193110E+02  0.10756131417E+04  0.90618277225E+03 0.  0.
         23    2    4    4    0    0 -0.31298853246E+03  0.47089430781E+03  0.18881747548E+03  0.60306605003E+03  0.91287190073E+02 0.  0.
         23    2    4    4    0    0 -0.23621129679E+03 -0.30141289848E+03 -0.26251966859E+03  0.47254709165E+03  0.87969684130E+02 0.  0.
          3    1    3    3  502    0  0.44786025840E+03 -0.12925426620E+03 -0.57141984839E+03  0.73743211180E+03  0.00000000000E+00 0. -1.
         -4    1    3    3    0  502  0.10133957085E+03 -0.40227143128E+02 -0.84206050364E+02  0.13776280551E+03  0.00000000000E+00 0.  1.
         11    1    5    5    0    0 -0.19880936759E+03  0.26580654187E+03  0.67061977235E+02  0.33863784658E+03  0.00000000000E+00 0.  1.
        -11    1    5    5    0    0 -0.11417916487E+03  0.20508776594E+03  0.12175549825E+03  0.26442820345E+03  0.00000000000E+00 0. -1.
          3    1    6    6  503    0 -0.18726845939E+03 -0.17168258963E+03 -0.17710545476E+03  0.30969457466E+03  0.00000000000E+00 0. -1.
         -3    1    6    6    0  503 -0.48942837401E+02 -0.12973030885E+03 -0.85414213827E+02  0.16285251699E+03  0.00000000000E+00 0.  1.
<mgrwt>
<rscale>  0 0.18093459E+04</rscale>
<asrwt>0</asrwt>
<pdfrwt beam="1">  1        1 0.20616432E+00 0.18093459E+04</pdfrwt>
<pdfrwt beam="2">  1       -2 0.93959998E-01 0.18093459E+04</pdfrwt>
<totfact> 0.67003657E+00</totfact>
</mgrwt>
</event>
<event>
12    4  0.4381187E-008  0.1868403E+04  0.7818608E-02  0.8670746E-01
         -2   -1    0    0    0  501 -0.00000000000E+00  0.00000000000E+00  0.59163275704E+03  0.59163275704E+03  0.00000000000E+00 0.  1.
          1   -1    0    0  501    0  0.00000000000E+00 -0.00000000000E+00 -0.14751256197E+04  0.14751256197E+04  0.00000000000E+00 0. -1.
        -24    2    1    2    0    0 -0.49119665059E+03  0.35034504101E+03  0.83358568046E+02  0.61411026848E+03  0.78530081378E+02 0.  0.
        254    2    1    2    0    0  0.49119665059E+03 -0.35034504101E+03 -0.96685143073E+03  0.14526481083E+04  0.90076025673E+03 0.  0.
         23    2    4    4    0    0  0.37155225509E+03 -0.63122940602E+03 -0.51553932493E+03  0.90014717871E+03  0.89344874026E+02 0.  0.
         23    2    4    4    0    0  0.11964439550E+03  0.28088436501E+03 -0.45131210580E+03  0.55250092958E+03  0.91454100290E+02 0.  0.
          1    1    3    3  502    0 -0.93725799228E+02  0.97532712082E+02 -0.24996261926E+01  0.13529007169E+03  0.00000000000E+00 0. -1.
         -2    1    3    3    0  502 -0.39747085136E+03  0.25281232893E+03  0.85858194238E+02  0.47882019679E+03  0.00000000000E+00 0.  1.
         11    1    5    5    0    0  0.17145903202E+03 -0.36744117781E+03 -0.31051781808E+03  0.51071766580E+03  0.00000000000E+00 0. -1.
        -11    1    5    5    0    0  0.20009322308E+03 -0.26378822820E+03 -0.20502150685E+03  0.38942951292E+03  0.00000000000E+00 0.  1.
          3    1    6    6  503    0  0.51149508260E+01  0.93296034234E+02 -0.18458209338E+03  0.20688369178E+03  0.00000000000E+00 0. -1.
         -3    1    6    6    0  503  0.11452944467E+03  0.18758833077E+03 -0.26673001242E+03  0.34561723780E+03  0.00000000000E+00 0.  1.
<mgrwt>
<rscale>  0 0.18684032E+04</rscale>
<asrwt>0</asrwt>
<pdfrwt beam="1">  1        1 0.22694240E+00 0.18684032E+04</pdfrwt>
<pdfrwt beam="2">  1       -2 0.91020424E-01 0.18684032E+04</pdfrwt>
<totfact> 0.57704129E+00</totfact>
</mgrwt>
</event>
<event>
12    4  0.4381187E-008  0.1782049E+04  0.7818608E-02  0.8715904E-01
          1   -1    0    0  501    0  0.00000000000E+00  0.00000000000E+00  0.10049253933E+04  0.10049253933E+04  0.00000000000E+00 0. -1.
         -2   -1    0    0    0  501 -0.00000000000E+00 -0.00000000000E+00 -0.79003373941E+03  0.79003373941E+03  0.00000000000E+00 0.  1.
        -24    2    1    2    0    0 -0.25820965008E+03  0.44276204162E+02  0.68895162097E+03  0.73885334268E+03  0.51159752672E+02 0.  0.
        254    2    1    2    0    0  0.25820965008E+03 -0.44276204162E+02 -0.47405996708E+03  0.10561057900E+04  0.90663883753E+03 0.  0.
         23    2    4    4    0    0  0.20966833527E+03  0.41215228962E+03 -0.18766402312E+03  0.50760279863E+03  0.92803528750E+02 0.  0.
         23    2    4    4    0    0  0.48541314816E+02 -0.45642849379E+03 -0.28639594395E+03  0.54850299140E+03  0.90275498783E+02 0.  0.
          1    1    3    3  502    0 -0.18827944742E+03  0.12134688759E+02  0.52093120601E+03  0.55404487398E+03  0.00000000000E+00 0. -1.
         -2    1    3    3    0  502 -0.69930202659E+02  0.32141515403E+02  0.16802041497E+03  0.18480846870E+03  0.00000000000E+00 0.  1.
         11    1    5    5    0    0  0.21364973181E+03  0.38625044460E+03 -0.16002274259E+03  0.46951346307E+03  0.00000000000E+00 0. -1.
        -11    1    5    5    0    0 -0.39813965429E+01  0.25901845022E+02 -0.27641280537E+02  0.38089335563E+02  0.00000000000E+00 0.  1.
          2    1    6    6  503    0  0.37179863796E+02 -0.23075616238E+03 -0.94711844410E+02  0.25219254989E+03  0.00000000000E+00 0.  1.
         -2    1    6    6    0  503  0.11361451020E+02 -0.22567233140E+03 -0.19168409954E+03  0.29631044151E+03  0.00000000000E+00 0. -1.
<mgrwt>
<rscale>  0 0.17820493E+04</rscale>
<asrwt>0</asrwt>
<pdfrwt beam="1">  1        1 0.15460391E+00 0.17820493E+04</pdfrwt>
<pdfrwt beam="2">  1       -2 0.12154365E+00 0.17820493E+04</pdfrwt>
<totfact> 0.63906253E+00</totfact>
</mgrwt>
</event>
<event>
12    4  0.4381187E-008  0.1532756E+04  0.7818608E-02  0.8862958E-01
         -2   -1    0    0    0  501 -0.00000000000E+00  0.00000000000E+00  0.85017393032E+03  0.85017393032E+03  0.00000000000E+00 0.  1.
          1   -1    0    0  501    0  0.00000000000E+00 -0.00000000000E+00 -0.69084101977E+03  0.69084101977E+03  0.00000000000E+00 0. -1.
        -24    2    1    2    0    0  0.66092917092E+02 -0.31190063041E+03  0.43229004948E+03  0.54312333695E+03  0.80361653290E+02 0.  0.
        254    2    1    2    0    0 -0.66092917092E+02  0.31190063041E+03 -0.27295713893E+03  0.99789161315E+03  0.90533518377E+03 0.  0.
         23    2    4    4    0    0  0.12632961979E+03 -0.16491695864E+03  0.19235786750E+03  0.29843518560E+03  0.94367551273E+02 0.  0.
         23    2    4    4    0    0 -0.19242253688E+03  0.47681758905E+03 -0.46531500643E+03  0.69945642755E+03  0.91322466597E+02 0.  0.
          3    1    3    3  502    0  0.14913360722E+02 -0.16257834590E+03  0.16124706105E+03  0.22946621011E+03  0.00000000000E+00 0. -1.
         -4    1    3    3    0  502  0.51179556370E+02 -0.14932228450E+03  0.27104298842E+03  0.31365712683E+03  0.00000000000E+00 0.  1.
         11    1    5    5    0    0  0.86242013286E+02 -0.41111327436E+02  0.10351865571E+03  0.14086851379E+03  0.00000000000E+00 0.  1.
        -11    1    5    5    0    0  0.40087606503E+02 -0.12380563120E+03  0.88839211797E+02  0.15756667181E+03  0.00000000000E+00 0. -1.
          4    1    6    6  503    0 -0.81716929206E+02  0.31998649327E+03 -0.29308859430E+03  0.44155400179E+03  0.00000000000E+00 0. -1.
         -4    1    6    6    0  503 -0.11070560767E+03  0.15683109578E+03 -0.17222641213E+03  0.25790242575E+03  0.00000000000E+00 0.  1.
<mgrwt>
<rscale>  0 0.15327557E+04</rscale>
<asrwt>0</asrwt>
<pdfrwt beam="1">  1        1 0.10628323E+00 0.15327557E+04</pdfrwt>
<pdfrwt beam="2">  1       -2 0.13079599E+00 0.15327557E+04</pdfrwt>
<totfact> 0.10036900E+01</totfact>
</mgrwt>
</event>
<event>
12    4  0.4381187E-008  0.1311125E+04  0.7818608E-02  0.9020789E-01
          1   -1    0    0  501    0  0.00000000000E+00  0.00000000000E+00  0.11817928018E+04  0.11817928018E+04  0.00000000000E+00 0. -1.
         -2   -1    0    0    0  501 -0.00000000000E+00 -0.00000000000E+00 -0.36365297222E+03  0.36365297222E+03  0.00000000000E+00 0.  1.
        -24    2    1    2    0    0  0.53646921787E+02  0.22183903383E+02 -0.18212776167E+03  0.20380902123E+03  0.70692841045E+02 0.  0.
        254    2    1    2    0    0 -0.53646921787E+02 -0.22183903383E+02  0.10002675912E+04  0.13416367528E+04  0.89223528541E+03 0.  0.
         23    2    4    4    0    0 -0.22133115939E+03  0.20295385545E+03  0.18037430147E+02  0.31602526468E+03  0.96792920570E+02 0.  0.
         23    2    4    4    0    0  0.16768423761E+03 -0.22513775883E+03  0.98223016107E+03  0.10256114881E+04  0.91092377096E+02 0.  0.
          3    1    3    3  502    0  0.57268429284E+02 -0.28107744464E+01 -0.78880692987E+02  0.97517881293E+02  0.00000000000E+00 0. -1.
         -4    1    3    3    0  502 -0.36215074975E+01  0.24994677830E+02 -0.10324706869E+03  0.10629113993E+03  0.00000000000E+00 0.  1.
         11    1    5    5    0    0 -0.52902656650E+02  0.47592837004E+02  0.46675987001E+02  0.85102391137E+02  0.00000000000E+00 0.  1.
        -11    1    5    5    0    0 -0.16842850274E+03  0.15536101844E+03 -0.28638556855E+02  0.23092287355E+03  0.00000000000E+00 0. -1.
          2    1    6    6  503    0  0.57990066756E+02 -0.15273970592E+03  0.56804353754E+03  0.59107167598E+03  0.00000000000E+00 0. -1.
         -2    1    6    6    0  503  0.10969417085E+03 -0.72398052911E+02  0.41418662354E+03  0.43453981210E+03  0.00000000000E+00 0.  1.
<mgrwt>
<rscale>  0 0.13111254E+04</rscale>
<asrwt>0</asrwt>
<pdfrwt beam="1">  1        1 0.18181427E+00 0.13111254E+04</pdfrwt>
<pdfrwt beam="2">  1       -2 0.55946612E-01 0.13111254E+04</pdfrwt>
<totfact> 0.28464308E+01</totfact>
</mgrwt>
</event>
<event>
12    4  0.4381187E-008  0.1117875E+04  0.7818608E-02  0.9187942E-01
         -2   -1    0    0    0  501 -0.00000000000E+00  0.00000000000E+00  0.20092944927E+03  0.20092944927E+03  0.00000000000E+00 0.  1.
          1   -1    0    0  501    0  0.00000000000E+00 -0.00000000000E+00 -0.15548308933E+04  0.15548308933E+04  0.00000000000E+00 0. -1.
        -24    2    1    2    0    0 -0.18520139725E+03  0.77582437985E+02 -0.62603354676E+03  0.66237542751E+03  0.80651181442E+02 0.  0.
        254    2    1    2    0    0  0.18520139725E+03 -0.77582437985E+02 -0.72786789727E+03  0.10933849151E+04  0.79080990407E+03 0.  0.
         23    2    4    4    0    0  0.76023365606E+02 -0.38072662858E+03 -0.15095547108E+03  0.42576298276E+03  0.88058193332E+02 0.  0.
         23    2    4    4    0    0  0.10917803164E+03  0.30314419059E+03 -0.57691242620E+03  0.66762193230E+03  0.95262028667E+02 0.  0.
          1    1    3    3  502    0 -0.17359486679E+03  0.41532102219E+02 -0.51298562918E+03  0.54315223376E+03  0.00000000000E+00 0. -1.
         -2    1    3    3    0  502 -0.11606530453E+02  0.36050335766E+02 -0.11304791758E+03  0.11922319375E+03  0.00000000000E+00 0.  1.
         11    1    5    5    0    0  0.71390278202E+02 -0.38512695795E+03 -0.14913706698E+03  0.41911956565E+03  0.00000000000E+00 0.  1.
        -11    1    5    5    0    0  0.46330874033E+01  0.44003293708E+01 -0.18184040974E+01  0.66434171117E+01  0.00000000000E+00 0. -1.
          4    1    6    6  503    0  0.12357864926E+02  0.40484097728E+02 -0.26025228637E+02  0.49688947665E+02  0.00000000000E+00 0. -1.
         -4    1    6    6    0  503  0.96820166713E+02  0.26266009286E+03 -0.55088719756E+03  0.61793298464E+03  0.00000000000E+00 0.  1.
<mgrwt>
<rscale>  0 0.11178753E+04</rscale>
<asrwt>0</asrwt>
<pdfrwt beam="1">  1        1 0.23920474E+00 0.11178753E+04</pdfrwt>
<pdfrwt beam="2">  1       -2 0.30912224E-01 0.11178753E+04</pdfrwt>
<totfact> 0.50763591E+01</totfact>
</mgrwt>
</event>
<event>
12    4  0.4381187E-008  0.1336660E+04  0.7818608E-02  0.9000988E-01
          1   -1    0    0  501    0  0.00000000000E+00  0.00000000000E+00  0.49885550975E+03  0.49885550975E+03  0.00000000000E+00 0. -1.
         -2   -1    0    0    0  501 -0.00000000000E+00 -0.00000000000E+00 -0.89537932214E+03  0.89537932214E+03  0.00000000000E+00 0.  1.
        -24    2    1    2    0    0  0.14039735603E+03  0.27828509671E+03 -0.36321538051E+03  0.48504598671E+03  0.78677722087E+02 0.  0.
        254    2    1    2    0    0 -0.14039735603E+03 -0.27828509671E+03 -0.33308431875E+02  0.90918884518E+03  0.85344062004E+03 0.  0.
         23    2    4    4    0    0  0.33822419606E+03 -0.83194703498E+02 -0.11589452618E+03  0.37800558502E+03  0.90220372545E+02 0.  0.
         23    2    4    4    0    0 -0.47862155208E+03 -0.19509039321E+03  0.82586094302E+02  0.53118326015E+03  0.90533647083E+02 0.  0.
          1    1    3    3  502    0  0.19493706956E+02  0.18971255101E+01 -0.18141273807E+02  0.26696619850E+02  0.00000000000E+00 0. -1.
         -2    1    3    3    0  502  0.12090364907E+03  0.27638797120E+03 -0.34507410671E+03  0.45834936686E+03  0.00000000000E+00 0.  1.
         11    1    5    5    0    0  0.29232529883E+03 -0.37311410586E+02 -0.99835575960E+02  0.31114845962E+03  0.00000000000E+00 0.  1.
        -11    1    5    5    0    0  0.45898897224E+02 -0.45883292912E+02 -0.16058950216E+02  0.66857125401E+02  0.00000000000E+00 0. -1.
          3    1    6    6  503    0 -0.72589814976E+02 -0.15910774744E+02  0.42399239545E+02  0.85557755378E+02  0.00000000000E+00 0. -1.
         -3    1    6    6    0  503 -0.40603173711E+03 -0.17917961847E+03  0.40186854757E+02  0.44562550478E+03  0.00000000000E+00 0.  1.
<mgrwt>
<rscale>  0 0.13366599E+04</rscale>
<asrwt>0</asrwt>
<pdfrwt beam="1">  1        1 0.76747003E-01 0.13366599E+04</pdfrwt>
<pdfrwt beam="2">  1       -2 0.13775066E+00 0.13366599E+04</pdfrwt>
<totfact> 0.14260819E+01</totfact>
</mgrwt>
</event>
<event>
12    4  0.4381187E-008  0.1337818E+04  0.7818608E-02  0.9000101E-01
         -2   -1    0    0    0  501 -0.00000000000E+00  0.00000000000E+00  0.74866339128E+03  0.74866339128E+03  0.00000000000E+00 0.  1.
          1   -1    0    0  501    0  0.00000000000E+00 -0.00000000000E+00 -0.59765085912E+03  0.59765085912E+03  0.00000000000E+00 0. -1.
        -24    2    1    2    0    0  0.14295732463E+03  0.27317130667E+03  0.23763863274E+03  0.39730009654E+03  0.79472558087E+02 0.  0.
        254    2    1    2    0    0 -0.14295732463E+03 -0.27317130667E+03 -0.86626100587E+02  0.94901415386E+03  0.89334451555E+03 0.  0.
         23    2    4    4    0    0 -0.48907870497E+03 -0.37016224575E+02 -0.13634618712E+03  0.51700073231E+03  0.90173687545E+02 0.  0.
         23    2    4    4    0    0  0.34612138034E+03 -0.23615508210E+03  0.49720086533E+02  0.43201342155E+03  0.92705321659E+02 0.  0.
          1    1    3    3  502    0  0.47983225908E+02  0.10696711587E+03  0.44580671427E+02  0.12542643306E+03  0.00000000000E+00 0. -1.
         -2    1    3    3    0  502  0.94974098725E+02  0.16620419080E+03  0.19305796131E+03  0.27187366348E+03  0.00000000000E+00 0.  1.
         11    1    5    5    0    0 -0.22606535209E+03 -0.33305581430E+02 -0.20000365689E+02  0.22937920524E+03  0.00000000000E+00 0. -1.
        -11    1    5    5    0    0 -0.26301335288E+03 -0.37106431455E+01 -0.11634582143E+03  0.28762152707E+03  0.00000000000E+00 0.  1.
          1    1    6    6  503    0  0.13214240533E+03 -0.11395492626E+03 -0.20749225894E+02  0.17572100295E+03  0.00000000000E+00 0. -1.
         -1    1    6    6    0  503  0.21397897501E+03 -0.12220015584E+03  0.70469312428E+02  0.25629241860E+03  0.00000000000E+00 0.  1.
<mgrwt>
<rscale>  0 0.13378181E+04</rscale>
<asrwt>0</asrwt>
<pdfrwt beam="1">  1        1 0.91946286E-01 0.13378181E+04</pdfrwt>
<pdfrwt beam="2">  1       -2 0.11517898E+00 0.13378181E+04</pdfrwt>
<totfact> 0.17343505E+01</totfact>
</mgrwt>
</event>
<event>
12    4  0.4381187E-008  0.1411155E+04  0.7818608E-02  0.8945783E-01
          1   -1    0    0  501    0  0.00000000000E+00  0.00000000000E+00  0.91630895791E+03  0.91630895791E+03  0.00000000000E+00 0. -1.
         -2   -1    0    0    0  501 -0.00000000000E+00 -0.00000000000E+00 -0.54331014089E+03  0.54331014089E+03  0.00000000000E+00 0.  1.
        -24    2    1    2    0    0  0.11648014798E+03 -0.38547315498E+03  0.20066330609E+03  0.45642292140E+03  0.76804574633E+02 0.  0.
        254    2    1    2    0    0 -0.11648014798E+03  0.38547315498E+03  0.17233551093E+03  0.10031961774E+04  0.90252194652E+03 0.  0.
         23    2    4    4    0    0  0.18115561872E+03  0.43196247937E+03 -0.19853717028E+03  0.51706526419E+03  0.92360909868E+02 0.  0.
         23    2    4    4    0    0 -0.29763576670E+03 -0.46489324388E+02  0.37087268122E+03  0.48613091322E+03  0.89601407444E+02 0.  0.
          1    1    3    3  502    0  0.87103378640E+02 -0.24654392891E+03  0.16773463533E+03  0.31065385132E+03  0.00000000000E+00 0. -1.
         -2    1    3    3    0  502  0.29376769341E+02 -0.13892922607E+03  0.32928670763E+02  0.14576907008E+03  0.00000000000E+00 0.  1.
         11    1    5    5    0    0  0.41427941552E+02  0.17689326139E+03 -0.11283494494E+03  0.21386730715E+03  0.00000000000E+00 0. -1.
        -11    1    5    5    0    0  0.13972767716E+03  0.25506921797E+03 -0.85702225344E+02  0.30319795704E+03  0.00000000000E+00 0.  1.
          1    1    6    6  503    0 -0.22945742992E+02  0.76871982875E+01  0.38423715600E+01  0.24502325566E+02  0.00000000000E+00 0. -1.
         -1    1    6    6    0  503 -0.27469002370E+03 -0.54176522676E+02  0.36703030966E+03  0.46162858765E+03  0.00000000000E+00 0.  1.
<mgrwt>
<rscale>  0 0.14111555E+04</rscale>
<asrwt>0</asrwt>
<pdfrwt beam="1">  1        1 0.14097061E+00 0.14111555E+04</pdfrwt>
<pdfrwt beam="2">  1       -2 0.83586176E-01 0.14111555E+04</pdfrwt>
<totfact> 0.18862299E+01</totfact>
</mgrwt>
</event>
<event>
12    4  0.4381187E-008  0.1449009E+04  0.7818608E-02  0.8919088E-01
         -2   -1    0    0    0  501 -0.00000000000E+00  0.00000000000E+00  0.11639768888E+04  0.11639768888E+04  0.00000000000E+00 0.  1.
          1   -1    0    0  501    0  0.00000000000E+00 -0.00000000000E+00 -0.45095956042E+03  0.45095956042E+03  0.00000000000E+00 0. -1.
        -24    2    1    2    0    0  0.20858603594E+03  0.59155599571E+02  0.63778677891E+03  0.67826089342E+03  0.79109701317E+02 0.  0.
        254    2    1    2    0    0 -0.20858603594E+03 -0.59155599571E+02  0.75230549505E+02  0.93667555584E+03  0.90812661121E+03 0.  0.
         23    2    4    4    0    0 -0.96273695046E+02 -0.40342007152E+03  0.28246180436E+03  0.51030253154E+03  0.92777283346E+02 0.  0.
         23    2    4    4    0    0 -0.11231234089E+03  0.34426447195E+03 -0.20723125486E+03  0.42637302431E+03  0.87846879880E+02 0.  0.
          3    1    3    3  502    0  0.86944289388E+02  0.64448041384E+02  0.32862298545E+03  0.34598544198E+03  0.00000000000E+00 0. -1.
         -4    1    3    3    0  502  0.12164174655E+03 -0.52924418131E+01  0.30916379346E+03  0.33227545144E+03  0.00000000000E+00 0.  1.
         11    1    5    5    0    0 -0.26310988779E+02 -0.28207228410E+03  0.20966543808E+03  0.35244380759E+03  0.00000000000E+00 0. -1.
        -11    1    5    5    0    0 -0.69962706267E+02 -0.12134778742E+03  0.72796366287E+02  0.15785872394E+03  0.00000000000E+00 0.  1.
          1    1    6    6  503    0 -0.11243961186E+03  0.34427014159E+03 -0.21329453557E+03  0.42030840535E+03  0.00000000000E+00 0. -1.
         -1    1    6    6    0  503  0.12727096726E+00 -0.56696375782E-02  0.60632807164E+01  0.60646189567E+01  0.00000000000E+00 0.  1.
<mgrwt>
<rscale>  0 0.14490086E+04</rscale>
<asrwt>0</asrwt>
<pdfrwt beam="1">  1        1 0.69378395E-01 0.14490086E+04</pdfrwt>
<pdfrwt beam="2">  1       -2 0.17907337E+00 0.14490086E+04</pdfrwt>
<totfact> 0.79701157E+00</totfact>
</mgrwt>
</event>
<event>
12    4  0.4381187E-008  0.1306059E+04  0.7818608E-02  0.9024774E-01
         -2   -1    0    0    0  501 -0.00000000000E+00  0.00000000000E+00  0.15478601489E+04  0.15478601489E+04  0.00000000000E+00 0.  1.
          1   -1    0    0  501    0  0.00000000000E+00 -0.00000000000E+00 -0.27550795468E+03  0.27550795468E+03  0.00000000000E+00 0. -1.
        -24    2    1    2    0    0  0.15734620429E+03 -0.29359904410E+03  0.25422828979E+03  0.43026706009E+03  0.97670327957E+02 0.  0.
        254    2    1    2    0    0 -0.15734620429E+03  0.29359904410E+03  0.10181239044E+04  0.13931010434E+04  0.89061552078E+03 0.  0.
         23    2    4    4    0    0 -0.46613955259E+03  0.47012218311E+02  0.28704136613E+03  0.55705347235E+03  0.91758345840E+02 0.  0.
         23    2    4    4    0    0  0.30879334830E+03  0.24658682579E+03  0.73108253826E+03  0.83604757109E+03  0.91298788422E+02 0.  0.
          3    1    3    3  502    0  0.77850398290E+02 -0.15045045976E+03  0.68655342494E+02  0.18278288051E+03  0.00000000000E+00 0. -1.
         -4    1    3    3    0  502  0.79495806004E+02 -0.14314858435E+03  0.18557294730E+03  0.24748417958E+03  0.00000000000E+00 0.  1.
         11    1    5    5    0    0 -0.59344345590E+02 -0.80287903513E+00  0.75566301589E+02  0.96086741563E+02  0.00000000000E+00 0.  1.
        -11    1    5    5    0    0 -0.40679520700E+03  0.47815097346E+02  0.21147506454E+03  0.46096673079E+03  0.00000000000E+00 0. -1.
          1    1    6    6  503    0  0.14431823571E+03  0.10271258283E+03  0.42055932569E+03  0.45634172969E+03  0.00000000000E+00 0. -1.
         -1    1    6    6    0  503  0.16447511259E+03  0.14387424296E+03  0.31052321257E+03  0.37970584140E+03  0.00000000000E+00 0.  1.
<mgrwt>
<rscale>  0 0.13060594E+04</rscale>
<asrwt>0</asrwt>
<pdfrwt beam="1">  1        1 0.42385840E-01 0.13060594E+04</pdfrwt>
<pdfrwt beam="2">  1       -2 0.23813233E+00 0.13060594E+04</pdfrwt>
<totfact> 0.63946670E+00</totfact>
</mgrwt>
</event>
<event>
12    4  0.4381187E-008  0.2183673E+04  0.7818608E-02  0.8525254E-01
         -2   -1    0    0    0  501 -0.00000000000E+00  0.00000000000E+00  0.12740007467E+04  0.12740007467E+04  0.00000000000E+00 0.  1.
          1   -1    0    0  501    0  0.00000000000E+00 -0.00000000000E+00 -0.93571958104E+03  0.93571958104E+03  0.00000000000E+00 0. -1.
        -24    2    1    2    0    0  0.77991974040E+03  0.43280155718E+03 -0.13259242798E+03  0.90508046877E+03  0.77446198303E+02 0.  0.
        254    2    1    2    0    0 -0.77991974040E+03 -0.43280155718E+03  0.47087359367E+03  0.13046398590E+04  0.82750905197E+03 0.  0.
         23    2    4    4    0    0 -0.78551757216E+03 -0.45214780888E+03  0.95718935893E+02  0.91584488361E+03  0.90190015498E+02 0.  0.
         23    2    4    4    0    0  0.55978317530E+01  0.19346251703E+02  0.37515465778E+03  0.38879497539E+03  0.10007448456E+03 0.  0.
          1    1    3    3  502    0  0.45039079195E+03  0.25222766542E+03 -0.11526481890E+03  0.52892025784E+03  0.00000000000E+00 0. -1.
         -2    1    3    3    0  502  0.32952894845E+03  0.18057389176E+03 -0.17327609074E+02  0.37616021093E+03  0.00000000000E+00 0.  1.
         11    1    5    5    0    0 -0.67185602879E+03 -0.42085566285E+03  0.77688516666E+02  0.79658365411E+03  0.00000000000E+00 0.  1.
        -11    1    5    5    0    0 -0.11366154336E+03 -0.31292146038E+02  0.18030419227E+02  0.11926122950E+03  0.00000000000E+00 0. -1.
          4    1    6    6  503    0 -0.33312279977E+02 -0.18338209929E+02  0.24320234761E+03  0.24615722582E+03  0.00000000000E+00 0. -1.
         -4    1    6    6    0  503  0.38910111730E+02  0.37684461633E+02  0.13195231017E+03  0.14263774957E+03  0.00000000000E+00 0.  1.
<mgrwt>
<rscale>  0 0.21836735E+04</rscale>
<asrwt>0</asrwt>
<pdfrwt beam="1">  1        1 0.14395686E+00 0.21836735E+04</pdfrwt>
<pdfrwt beam="2">  1       -2 0.19600012E+00 0.21836735E+04</pdfrwt>
<totfact> 0.19247995E+00</totfact>
</mgrwt>
</event>
<event>
12    4  0.4381187E-008  0.2369716E+04  0.7818608E-02  0.8450929E-01
         -2   -1    0    0    0  501 -0.00000000000E+00  0.00000000000E+00  0.53673354140E+03  0.53673354140E+03  0.00000000000E+00 0.  1.
          1   -1    0    0  501    0  0.00000000000E+00 -0.00000000000E+00 -0.26156157569E+04  0.26156157569E+04  0.00000000000E+00 0. -1.
        -24    2    1    2    0    0  0.15317139640E+02 -0.69356842214E+03  0.87961723932E+02  0.70399066757E+03  0.81202365638E+02 0.  0.
        254    2    1    2    0    0 -0.15317139640E+02  0.69356842214E+03 -0.21668439395E+04  0.24483586308E+04  0.90442001079E+03 0.  0.
         23    2    4    4    0    0 -0.16207078097E+02  0.90413555861E+03 -0.16643939223E+04  0.18964390968E+04  0.92468057548E+02 0.  0.
         23    2    4    4    0    0  0.88993845740E+00 -0.21056713646E+03 -0.50245001716E+03  0.55191953394E+03  0.88429866288E+02 0.  0.
          3    1    3    3  502    0 -0.19144488117E+02 -0.59507890141E+02  0.18584198045E+02  0.65215587334E+02  0.00000000000E+00 0. -1.
         -4    1    3    3    0  502  0.34461627757E+02 -0.63406053200E+03  0.69377525886E+02  0.63877508023E+03  0.00000000000E+00 0.  1.
         11    1    5    5    0    0 -0.21597907789E+02  0.24503636545E+03 -0.37754264181E+03  0.45060818502E+03  0.00000000000E+00 0.  1.
        -11    1    5    5    0    0  0.53908296920E+01  0.65909919316E+03 -0.12868512805E+04  0.14458309118E+04  0.00000000000E+00 0. -1.
          3    1    6    6  503    0  0.22593861639E+01 -0.94314815539E+02 -0.12272884569E+03  0.15479909179E+03  0.00000000000E+00 0. -1.
         -3    1    6    6    0  503 -0.13694477065E+01 -0.11625232092E+03 -0.37972117147E+03  0.39712044214E+03  0.00000000000E+00 0.  1.
<mgrwt>
<rscale>  0 0.23697162E+04</rscale>
<asrwt>0</asrwt>
<pdfrwt beam="1">  1        1 0.40240243E+00 0.23697162E+04</pdfrwt>
<pdfrwt beam="2">  1       -2 0.82574390E-01 0.23697162E+04</pdfrwt>
<totfact> 0.11434034E+00</totfact>
</mgrwt>
</event>
<event>
12    4  0.4381187E-008  0.1367285E+04  0.7818608E-02  0.8977846E-01
         -2   -1    0    0    0  501 -0.00000000000E+00  0.00000000000E+00  0.74684058173E+03  0.74684058173E+03  0.00000000000E+00 0.  1.
          1   -1    0    0  501    0  0.00000000000E+00 -0.00000000000E+00 -0.62579253942E+03  0.62579253942E+03  0.00000000000E+00 0. -1.
        -24    2    1    2    0    0  0.27846099487E+03 -0.11567381016E+03  0.27392497563E+03  0.41553336363E+03  0.81927577765E+02 0.  0.
        254    2    1    2    0    0 -0.27846099487E+03  0.11567381016E+03 -0.15287693331E+03  0.95709975752E+03  0.89540361463E+03 0.  0.
         23    2    4    4    0    0 -0.50251370206E+03  0.17761872929E+03  0.15192411512E+03  0.56317916445E+03  0.10010694666E+03 0.  0.
         23    2    4    4    0    0  0.22405270718E+03 -0.61944919132E+02 -0.30480104843E+03  0.39392059307E+03  0.90735692622E+02 0.  0.
          3    1    3    3  502    0  0.93539724498E+02 -0.34558495140E+02  0.14491656226E+03  0.17591128350E+03  0.00000000000E+00 0. -1.
         -4    1    3    3    0  502  0.18492127038E+03 -0.81115315016E+02  0.12900841336E+03  0.23962208013E+03  0.00000000000E+00 0.  1.
         11    1    5    5    0    0 -0.50655667018E+03  0.17839117678E+03  0.15382423345E+03  0.55864565411E+03  0.00000000000E+00 0. -1.
        -11    1    5    5    0    0  0.40429681248E+01 -0.77244749499E+00 -0.19001183257E+01  0.45335103443E+01  0.00000000000E+00 0.  1.
          4    1    6    6  503    0 -0.65408572307E+01 -0.11888042819E+02 -0.15947276455E+02  0.20938576879E+02  0.00000000000E+00 0.  1.
         -4    1    6    6    0  503  0.23059356441E+03 -0.50056876313E+02 -0.28885377198E+03  0.37298201619E+03  0.00000000000E+00 0. -1.
<mgrwt>
<rscale>  0 0.13672853E+04</rscale>
<asrwt>0</asrwt>
<pdfrwt beam="1">  1        1 0.96275775E-01 0.13672853E+04</pdfrwt>
<pdfrwt beam="2">  1       -2 0.11489855E+00 0.13672853E+04</pdfrwt>
<totfact> 0.16282509E+01</totfact>
</mgrwt>
</event>
<event>
12    4  0.4381187E-008  0.1644983E+04  0.7818608E-02  0.8793380E-01
          1   -1    0    0  501    0  0.00000000000E+00  0.00000000000E+00  0.83033129114E+03  0.83033129114E+03  0.00000000000E+00 0. -1.
         -2   -1    0    0    0  501 -0.00000000000E+00 -0.00000000000E+00 -0.81472590854E+03  0.81472590854E+03  0.00000000000E+00 0.  1.
        -24    2    1    2    0    0 -0.55930561206E+03 -0.90928832714E+02 -0.99468610136E+02  0.58076202885E+03  0.79370709036E+02 0.  0.
        254    2    1    2    0    0  0.55930561206E+03  0.90928832714E+02  0.11507399274E+03  0.10642951708E+04  0.89352748506E+03 0.  0.
         23    2    4    4    0    0  0.14844963367E+03 -0.21431203389E+03  0.38933081677E+03  0.47705140633E+03  0.89624872598E+02 0.  0.
         23    2    4    4    0    0  0.41085597839E+03  0.30524086661E+03 -0.27425682404E+03  0.58724376450E+03  0.87543199585E+02 0.  0.
          1    1    3    3  502    0 -0.41693429492E+02 -0.26851390977E+02  0.10401641430E+01  0.49602633011E+02  0.00000000000E+00 0. -1.
         -2    1    3    3    0  502 -0.51761218257E+03 -0.64077441737E+02 -0.10050877428E+03  0.53115939584E+03  0.00000000000E+00 0.  1.
         11    1    5    5    0    0  0.10621191795E+03 -0.85317016887E+02  0.15600812492E+03  0.20711953053E+03  0.00000000000E+00 0.  1.
        -11    1    5    5    0    0  0.42237715714E+02 -0.12899501700E+03  0.23332269186E+03  0.26993187581E+03  0.00000000000E+00 0. -1.
          4    1    6    6  503    0  0.36471194134E+03  0.27733828431E+03 -0.27291107922E+03  0.53330271072E+03  0.00000000000E+00 0. -1.
         -4    1    6    6    0  503  0.46144037054E+02  0.27902582294E+02 -0.13457448134E+01  0.53941053784E+02  0.00000000000E+00 0.  1.
<mgrwt>
<rscale>  0 0.16449832E+04</rscale>
<asrwt>0</asrwt>
<pdfrwt beam="1">  1        1 0.12774328E+00 0.16449832E+04</pdfrwt>
<pdfrwt beam="2">  1       -2 0.12534245E+00 0.16449832E+04</pdfrwt>
<totfact> 0.82999209E+00</totfact>
</mgrwt>
</event>
<event>
12    4  0.4381187E-008  0.2063144E+04  0.7818608E-02  0.8577655E-01
         -2   -1    0    0    0  501 -0.00000000000E+00  0.00000000000E+00  0.10360526996E+04  0.10360526996E+04  0.00000000000E+00 0.  1.
          1   -1    0    0  501    0  0.00000000000E+00 -0.00000000000E+00 -0.10271110308E+04  0.10271110308E+04  0.00000000000E+00 0. -1.
        -24    2    1    2    0    0 -0.63429816902E+03 -0.44195221682E+03  0.31676405123E+03  0.83932769561E+03  0.80471033872E+02 0.  0.
        254    2    1    2    0    0  0.63429816902E+03  0.44195221682E+03 -0.30782238244E+03  0.12238360348E+04  0.89742079974E+03 0.  0.
         23    2    4    4    0    0 -0.36987078051E+02  0.44080462134E+03  0.54765505120E+02  0.45541520537E+03  0.93418363272E+02 0.  0.
         23    2    4    4    0    0  0.67128524707E+03  0.11475954845E+01 -0.36258788756E+03  0.76842082945E+03  0.91517184270E+02 0.  0.
          3    1    3    3  502    0 -0.55905984320E+03 -0.38879814521E+03  0.30607890050E+03  0.74658971284E+03  0.00000000000E+00 0. -1.
         -4    1    3    3    0  502 -0.75238325827E+02 -0.53154071613E+02  0.10685150733E+02  0.92737982771E+02  0.00000000000E+00 0.  1.
         11    1    5    5    0    0 -0.16880258316E+02  0.51869481566E+02 -0.21378400671E+02  0.58586877831E+02  0.00000000000E+00 0.  1.
        -11    1    5    5    0    0 -0.20106819735E+02  0.38893513977E+03  0.76143905790E+02  0.39682832754E+03  0.00000000000E+00 0. -1.
          1    1    6    6  503    0  0.57614463060E+03  0.30741855751E+02 -0.32286159579E+03  0.66115603839E+03  0.00000000000E+00 0. -1.
         -1    1    6    6    0  503  0.95140616472E+02 -0.29594260267E+02 -0.39726291769E+02  0.10726479106E+03  0.00000000000E+00 0.  1.
<mgrwt>
<rscale>  0 0.20631444E+04</rscale>
<asrwt>0</asrwt>
<pdfrwt beam="1">  1        1 0.15801708E+00 0.20631444E+04</pdfrwt>
<pdfrwt beam="2">  1       -2 0.15939272E+00 0.20631444E+04</pdfrwt>
<totfact> 0.29670957E+00</totfact>
</mgrwt>
</event>
<event>
12    4  0.4381187E-008  0.1635554E+04  0.7818608E-02  0.8798999E-01
          1   -1    0    0  501    0  0.00000000000E+00  0.00000000000E+00  0.10082360859E+04  0.10082360859E+04  0.00000000000E+00 0. -1.
         -2   -1    0    0    0  501 -0.00000000000E+00 -0.00000000000E+00 -0.66329634917E+03  0.66329634917E+03  0.00000000000E+00 0.  1.
        -24    2    1    2    0    0 -0.36806872208E+03 -0.16205176220E+03 -0.27895677341E+03  0.49557750692E+03  0.77748479908E+02 0.  0.
        254    2    1    2    0    0  0.36806872208E+03  0.16205176220E+03  0.62389651019E+03  0.11759549282E+04  0.91207882330E+03 0.  0.
         23    2    4    4    0    0  0.29251822328E+03  0.47599869713E+03  0.62068369269E+03  0.84028106740E+03  0.93179156668E+02 0.  0.
         23    2    4    4    0    0  0.75550498800E+02 -0.31394693493E+03  0.32128175021E+01  0.33567386080E+03  0.91630032232E+02 0.  0.
          3    1    3    3  502    0 -0.71436649077E+02 -0.12920865198E+02 -0.82105920408E+02  0.10959710651E+03  0.00000000000E+00 0. -1.
         -4    1    3    3    0  502 -0.29663207301E+03 -0.14913089700E+03 -0.19685085300E+03  0.38598040041E+03  0.00000000000E+00 0.  1.
         11    1    5    5    0    0  0.88575523952E+02  0.12181922251E+03  0.22972202841E+03  0.27469575306E+03  0.00000000000E+00 0. -1.
        -11    1    5    5    0    0  0.20394269933E+03  0.35417947462E+03  0.39096166428E+03  0.56558531433E+03  0.00000000000E+00 0.  1.
          2    1    6    6  503    0  0.26044506424E+02 -0.14100884911E+02  0.11199448635E+02  0.31663526650E+02  0.00000000000E+00 0. -1.
         -2    1    6    6    0  503  0.49505992375E+02 -0.29984605002E+03 -0.79866311331E+01  0.30401033415E+03  0.00000000000E+00 0.  1.
<mgrwt>
<rscale>  0 0.16355541E+04</rscale>
<asrwt>0</asrwt>
<pdfrwt beam="1">  1        1 0.15511324E+00 0.16355541E+04</pdfrwt>
<pdfrwt beam="2">  1       -2 0.10204559E+00 0.16355541E+04</pdfrwt>
<totfact> 0.98421546E+00</totfact>
</mgrwt>
</event>
<event>
12    4  0.4381187E-008  0.1777624E+04  0.7818608E-02  0.8718290E-01
          1   -1    0    0  501    0  0.00000000000E+00  0.00000000000E+00  0.30731272727E+04  0.30731272727E+04  0.00000000000E+00 0. -1.
         -2   -1    0    0    0  501 -0.00000000000E+00 -0.00000000000E+00 -0.25706271313E+03  0.25706271313E+03  0.00000000000E+00 0.  1.
        -24    2    1    2    0    0 -0.26162966751E+03 -0.54672894392E+03  0.58112525192E+03  0.84351403094E+03  0.80291599327E+02 0.  0.
        254    2    1    2    0    0  0.26162966751E+03  0.54672894392E+03  0.22349393076E+04  0.24866759549E+04  0.90622346844E+03 0.  0.
         23    2    4    4    0    0  0.16061150114E+03  0.78862391995E+03  0.15840002508E+04  0.17790273639E+04  0.90320682750E+02 0.  0.
         23    2    4    4    0    0  0.10101816637E+03 -0.24189497602E+03  0.65093905685E+03  0.70764859095E+03  0.91252524239E+02 0.  0.
          3    1    3    3  502    0  0.26282124061E+01 -0.38355160041E+02  0.36268539730E+02  0.52852935362E+02  0.00000000000E+00 0. -1.
         -4    1    3    3    0  502 -0.26425787991E+03 -0.50837378388E+03  0.54485671219E+03  0.79066109558E+03  0.00000000000E+00 0.  1.
         11    1    5    5    0    0  0.16234504295E+03  0.71425002756E+03  0.14777796442E+04  0.16493458375E+04  0.00000000000E+00 0.  1.
        -11    1    5    5    0    0 -0.17335418189E+01  0.74373892384E+02  0.10622060652E+03  0.12968152638E+03  0.00000000000E+00 0. -1.
          2    1    6    6  503    0  0.19437978692E+02 -0.20494233018E+02  0.16562093218E+03  0.16801232627E+03  0.00000000000E+00 0. -1.
         -2    1    6    6    0  503  0.81580187679E+02 -0.22140074301E+03  0.48531812467E+03  0.53963626468E+03  0.00000000000E+00 0.  1.
<mgrwt>
<rscale>  0 0.17776236E+04</rscale>
<asrwt>0</asrwt>
<pdfrwt beam="1">  1        1 0.47278879E+00 0.17776236E+04</pdfrwt>
<pdfrwt beam="2">  1       -2 0.39548112E-01 0.17776236E+04</pdfrwt>
<totfact> 0.26627619E+00</totfact>
</mgrwt>
</event>
<event>
12    4  0.4381187E-008  0.1781957E+04  0.7818608E-02  0.8715954E-01
         -2   -1    0    0    0  501 -0.00000000000E+00  0.00000000000E+00  0.47849021860E+03  0.47849021860E+03  0.00000000000E+00 0.  1.
          1   -1    0    0  501    0  0.00000000000E+00 -0.00000000000E+00 -0.16590574619E+04  0.16590574619E+04  0.00000000000E+00 0. -1.
        -24    2    1    2    0    0  0.26501748955E+03 -0.37245320725E+03  0.13577285071E+03  0.48245717170E+03  0.73314351776E+02 0.  0.
        254    2    1    2    0    0 -0.26501748955E+03  0.37245320725E+03 -0.13163400940E+04  0.16550905088E+04  0.89309444508E+03 0.  0.
         23    2    4    4    0    0  0.13362982445E+02  0.58753919003E+03 -0.56404677319E+03  0.81977686165E+03  0.92219691125E+02 0.  0.
         23    2    4    4    0    0 -0.27838047200E+03 -0.21508598278E+03 -0.75229332081E+03  0.83531364713E+03  0.89699394508E+02 0.  0.
          3    1    3    3  502    0  0.10469691020E+03 -0.13928551091E+03  0.88969911510E+02  0.19564647124E+03  0.00000000000E+00 0. -1.
         -4    1    3    3    0  502  0.16032057936E+03 -0.23316769634E+03  0.46802939198E+02  0.28681070046E+03  0.00000000000E+00 0.  1.
         11    1    5    5    0    0  0.37208745272E+02  0.53936111101E+03 -0.50316987435E+03  0.73856267252E+03  0.00000000000E+00 0.  1.
        -11    1    5    5    0    0 -0.23845762828E+02  0.48178079019E+02 -0.60876898839E+02  0.81214189124E+02  0.00000000000E+00 0. -1.
          4    1    6    6  503    0 -0.33359676727E+01 -0.16386404208E+02 -0.85865730830E+02  0.87478949777E+02  0.00000000000E+00 0. -1.
         -4    1    6    6    0  503 -0.27504450432E+03 -0.19869957857E+03 -0.66642758998E+03  0.74783469735E+03  0.00000000000E+00 0.  1.
<mgrwt>
<rscale>  0 0.17819571E+04</rscale>
<asrwt>0</asrwt>
<pdfrwt beam="1">  1        1 0.25523962E+00 0.17819571E+04</pdfrwt>
<pdfrwt beam="2">  1       -2 0.73613878E-01 0.17819571E+04</pdfrwt>
<totfact> 0.70171057E+00</totfact>
</mgrwt>
</event>
<event>
12    4  0.4381187E-008  0.2930070E+04  0.7818608E-02  0.8263987E-01
         -2   -1    0    0    0  501 -0.00000000000E+00  0.00000000000E+00  0.22509973604E+04  0.22509973604E+04  0.00000000000E+00 0.  1.
          1   -1    0    0  501    0  0.00000000000E+00 -0.00000000000E+00 -0.95350079952E+03  0.95350079952E+03  0.00000000000E+00 0. -1.
        -24    2    1    2    0    0  0.10158848451E+04 -0.69827921369E+03  0.11206480208E+04  0.16677821268E+04  0.77648934792E+02 0.  0.
        254    2    1    2    0    0 -0.10158848451E+04  0.69827921369E+03  0.17684854007E+03  0.15367160331E+04  0.90033598252E+03 0.  0.
         23    2    4    4    0    0 -0.11087570986E+04  0.78787111793E+03  0.19398696408E+03  0.13769457686E+04  0.90914824269E+02 0.  0.
         23    2    4    4    0    0  0.92872253467E+02 -0.89591904232E+02 -0.17138424011E+02  0.15977026450E+03  0.92632861735E+02 0.  0.
          1    1    3    3  502    0  0.19212641398E+03 -0.16348219954E+03  0.20569578875E+03  0.32549922584E+03  0.00000000000E+00 0. -1.
         -2    1    3    3    0  502  0.82375843116E+03 -0.53479701415E+03  0.91495223203E+03  0.13422829009E+04  0.00000000000E+00 0.  1.
         11    1    5    5    0    0 -0.33610986069E+03  0.22008258615E+03  0.18477688202E+02  0.40217857743E+03  0.00000000000E+00 0. -1.
        -11    1    5    5    0    0 -0.77264723791E+03  0.56778853178E+03  0.17550927588E+03  0.97476719117E+03  0.00000000000E+00 0.  1.
          2    1    6    6  503    0  0.71835006019E+01 -0.17542768690E+02  0.32248339537E+02  0.37407309675E+02  0.00000000000E+00 0. -1.
         -2    1    6    6    0  503  0.85688752865E+02 -0.72049135543E+02 -0.49386763549E+02  0.12236295483E+03  0.00000000000E+00 0.  1.
<mgrwt>
<rscale>  0 0.29300702E+04</rscale>
<asrwt>0</asrwt>
<pdfrwt beam="1">  1        1 0.14669243E+00 0.29300702E+04</pdfrwt>
<pdfrwt beam="2">  1       -2 0.34630729E+00 0.29300702E+04</pdfrwt>
<totfact> 0.20301049E-01</totfact>
</mgrwt>
</event>
<event>
12    4  0.4381187E-008  0.1602001E+04  0.7818608E-02  0.8819320E-01
          1   -1    0    0  501    0  0.00000000000E+00  0.00000000000E+00  0.19648329758E+04  0.19648329758E+04  0.00000000000E+00 0. -1.
         -2   -1    0    0    0  501 -0.00000000000E+00 -0.00000000000E+00 -0.32654274365E+03  0.32654274365E+03  0.00000000000E+00 0.  1.
        -24    2    1    2    0    0 -0.18114781753E+03 -0.31773163589E+03 -0.14027474897E+02  0.37477579790E+03  0.80574216695E+02 0.  0.
        254    2    1    2    0    0  0.18114781753E+03  0.31773163589E+03  0.16523177071E+04  0.19165999216E+04  0.89968523944E+03 0.  0.
         23    2    4    4    0    0  0.20918227999E+03  0.60612821437E+03  0.93309469276E+03  0.11358914870E+04  0.91842942778E+02 0.  0.
         23    2    4    4    0    0 -0.28034462455E+02 -0.28839657847E+03  0.71922301432E+03  0.78070843456E+03  0.90914233802E+02 0.  0.
          1    1    3    3  502    0 -0.42431464388E+02 -0.15085306980E+03 -0.17986350183E+02  0.15773581277E+03  0.00000000000E+00 0. -1.
         -2    1    3    3    0  502 -0.13871635314E+03 -0.16687856610E+03  0.39588752859E+01  0.21703998513E+03  0.00000000000E+00 0.  1.
         11    1    5    5    0    0 -0.95151728958E+00  0.12073032681E+02  0.30552895376E+01  0.12489927839E+02  0.00000000000E+00 0. -1.
        -11    1    5    5    0    0  0.21013379728E+03  0.59405518168E+03  0.93003940322E+03  0.11234015592E+04  0.00000000000E+00 0.  1.
          3    1    6    6  503    0 -0.40027128324E+02 -0.97903218661E+02  0.34141250322E+03  0.35742091235E+03  0.00000000000E+00 0. -1.
         -3    1    6    6    0  503  0.11992665868E+02 -0.19049335981E+03  0.37781051109E+03  0.42328752221E+03  0.00000000000E+00 0.  1.
<mgrwt>
<rscale>  0 0.16020012E+04</rscale>
<asrwt>0</asrwt>
<pdfrwt beam="1">  1        1 0.30228199E+00 0.16020012E+04</pdfrwt>
<pdfrwt beam="2">  1       -2 0.50237346E-01 0.16020012E+04</pdfrwt>
<totfact> 0.99416866E+00</totfact>
</mgrwt>
</event>
<event>
12    4  0.4381187E-008  0.1377199E+04  0.7818608E-02  0.8970490E-01
         -4   -1    0    0    0  501 -0.00000000000E+00  0.00000000000E+00  0.11569407189E+04  0.11569407189E+04  0.00000000000E+00 0.  1.
          3   -1    0    0  501    0  0.00000000000E+00 -0.00000000000E+00 -0.40984778858E+03  0.40984778858E+03  0.00000000000E+00 0. -1.
        -24    2    1    2    0    0 -0.11006272913E+02 -0.52392011985E+02 -0.22179562429E+03  0.24333708224E+03  0.84578813392E+02 0.  0.
        254    2    1    2    0    0  0.11006272913E+02  0.52392011985E+02  0.96888855463E+03  0.13234514253E+04  0.89995143356E+03 0.  0.
         23    2    4    4    0    0  0.15781729062E+03  0.24738876400E+03  0.10141898604E+04  0.10595977156E+04  0.89770531291E+02 0.  0.
         23    2    4    4    0    0 -0.14681101771E+03 -0.19499675201E+03 -0.45301305765E+02  0.26385370962E+03  0.89383239823E+02 0.  0.
          3    1    3    3  502    0 -0.29676018668E+02 -0.47771464053E+02 -0.21607139874E+03  0.22327030303E+03  0.00000000000E+00 0. -1.
         -4    1    3    3    0  502  0.18669745755E+02 -0.46205479317E+01 -0.57242255548E+01  0.20066779212E+02  0.00000000000E+00 0.  1.
         11    1    5    5    0    0  0.18726712267E+02  0.85682064732E+02  0.20946870808E+03  0.22708862947E+03  0.00000000000E+00 0. -1.
        -11    1    5    5    0    0  0.13909057835E+03  0.16170669927E+03  0.80472115231E+03  0.83250908616E+03  0.00000000000E+00 0.  1.
          3    1    6    6  503    0 -0.89013171349E+02 -0.87851917154E+02 -0.64322587105E+02  0.14063676345E+03  0.00000000000E+00 0.  1.
         -3    1    6    6    0  503 -0.57797846358E+02 -0.10714483486E+03  0.19021281340E+02  0.12321694617E+03  0.00000000000E+00 0. -1.
<mgrwt>
<rscale>  0 0.13771995E+04</rscale>
<asrwt>0</asrwt>
<pdfrwt beam="1">  1        3 0.63053506E-01 0.13771995E+04</pdfrwt>
<pdfrwt beam="2">  1       -4 0.17799088E+00 0.13771995E+04</pdfrwt>
<totfact> 0.10117975E+00</totfact>
</mgrwt>
</event>
<event>
12    4  0.4381187E-008  0.1828201E+04  0.7818608E-02  0.8691445E-01
          1   -1    0    0  501    0  0.00000000000E+00  0.00000000000E+00  0.97058766970E+03  0.97058766970E+03  0.00000000000E+00 0. -1.
         -2   -1    0    0    0  501 -0.00000000000E+00 -0.00000000000E+00 -0.86090035779E+03  0.86090035779E+03  0.00000000000E+00 0.  1.
        -24    2    1    2    0    0  0.12522962502E+03  0.11785966253E+03 -0.63080400275E+03  0.65872703373E+03  0.80213814573E+02 0.  0.
        254    2    1    2    0    0 -0.12522962502E+03 -0.11785966253E+03  0.74049131466E+03  0.11727609938E+04  0.89301041560E+03 0.  0.
         23    2    4    4    0    0 -0.19529701171E+02 -0.43417997237E+03  0.11612874703E+03  0.45910934725E+03  0.91661601574E+02 0.  0.
         23    2    4    4    0    0 -0.10569992385E+03  0.31632030985E+03  0.62436256762E+03  0.71365164651E+03  0.90769181993E+02 0.  0.
          3    1    3    3  502    0  0.72616182936E+02  0.15034462729E+02 -0.23646547725E+03  0.24782063478E+03  0.00000000000E+00 0. -1.
         -4    1    3    3    0  502  0.52613442083E+02  0.10282519980E+03 -0.39433852550E+03  0.41090639895E+03  0.00000000000E+00 0.  1.
         11    1    5    5    0    0  0.28773548980E+02 -0.85985731613E+02  0.41633892756E+02  0.99773965482E+02  0.00000000000E+00 0.  1.
        -11    1    5    5    0    0 -0.48303250151E+02 -0.34819424076E+03  0.74494854277E+02  0.35933538176E+03  0.00000000000E+00 0. -1.
          1    1    6    6  503    0 -0.43625876505E+02  0.23187820481E+03  0.37358536839E+03  0.44185602456E+03  0.00000000000E+00 0. -1.
         -1    1    6    6    0  503 -0.62074047342E+02  0.84442105035E+02  0.25077719924E+03  0.27179562195E+03  0.00000000000E+00 0.  1.
<mgrwt>
<rscale>  0 0.18282005E+04</rscale>
<asrwt>0</asrwt>
<pdfrwt beam="1">  1        1 0.14932118E+00 0.18282005E+04</pdfrwt>
<pdfrwt beam="2">  1       -2 0.13244621E+00 0.18282005E+04</pdfrwt>
<totfact> 0.54545006E+00</totfact>
</mgrwt>
</event>
<event>
12    4  0.4381187E-008  0.1189598E+04  0.7818608E-02  0.9122010E-01
          1   -1    0    0  501    0  0.00000000000E+00  0.00000000000E+00  0.14997447304E+03  0.14997447304E+03  0.00000000000E+00 0. -1.
         -4   -1    0    0    0  501 -0.00000000000E+00 -0.00000000000E+00 -0.23589746251E+04  0.23589746251E+04  0.00000000000E+00 0.  1.
        -24    2    1    2    0    0 -0.15541440968E+03  0.54775014607E+02 -0.16860071167E+03  0.24863795154E+03  0.78998038006E+02 0.  0.
        254    2    1    2    0    0  0.15541440968E+03 -0.54775014607E+02 -0.20403994404E+04  0.22603111466E+04  0.95844804876E+03 0.  0.
         23    2    4    4    0    0  0.32946578528E+03 -0.33700679381E+03 -0.54701601169E+03  0.72783446310E+03  0.91625356142E+02 0.  0.
         23    2    4    4    0    0 -0.17405137560E+03  0.28223177921E+03 -0.14933834287E+04  0.15324766835E+04  0.91334888329E+02 0.  0.
          3    1    3    3  502    0 -0.62040474097E+02  0.62717520881E+02 -0.70074225310E+02  0.11266279290E+03  0.00000000000E+00 0. -1.
         -4    1    3    3    0  502 -0.93373935580E+02 -0.79425062740E+01 -0.98526486358E+02  0.13597515863E+03  0.00000000000E+00 0.  1.
         11    1    5    5    0    0  0.13689438144E+03 -0.78932042330E+02 -0.18700979652E+03  0.24483260193E+03  0.00000000000E+00 0. -1.
        -11    1    5    5    0    0  0.19257140384E+03 -0.25807475148E+03 -0.36000621517E+03  0.48300186117E+03  0.00000000000E+00 0.  1.
          3    1    6    6  503    0 -0.21458332265E+02  0.53975298994E+02 -0.44340138562E+03  0.44718964847E+03  0.00000000000E+00 0. -1.
         -3    1    6    6    0  503 -0.15259304333E+03  0.22825648021E+03 -0.10499820431E+04  0.10852870351E+04  0.00000000000E+00 0.  1.
<mgrwt>
<rscale>  0 0.11895982E+04</rscale>
<asrwt>0</asrwt>
<pdfrwt beam="1">  1        1 0.23072998E-01 0.11895982E+04</pdfrwt>
<pdfrwt beam="2">  1       -4 0.36291914E+00 0.11895982E+04</pdfrwt>
<totfact> 0.12529582E+00</totfact>
</mgrwt>
</event>
<event>
12    4  0.4381187E-008  0.1657824E+04  0.7818608E-02  0.8785791E-01
          1   -1    0    0  501    0  0.00000000000E+00  0.00000000000E+00  0.13563281330E+04  0.13563281330E+04  0.00000000000E+00 0. -1.
         -2   -1    0    0    0  501 -0.00000000000E+00 -0.00000000000E+00 -0.50658494086E+03  0.50658494086E+03  0.00000000000E+00 0.  1.
        -24    2    1    2    0    0  0.55078699625E+02  0.41086471566E+03  0.77622344034E+03  0.88382328449E+03  0.82324304640E+02 0.  0.
        254    2    1    2    0    0 -0.55078699625E+02 -0.41086471566E+03  0.73519751834E+02  0.97908978942E+03  0.88395032898E+03 0.  0.
         23    2    4    4    0    0  0.19445753737E+03 -0.33240179174E+03 -0.31196569472E+03  0.50398152581E+03  0.91488243416E+02 0.  0.
         23    2    4    4    0    0 -0.24953623699E+03 -0.78462923919E+02  0.38548544655E+03  0.47510826361E+03  0.93295598199E+02 0.  0.
          3    1    3    3  502    0  0.10807589315E+02  0.23660292862E+03  0.51321058610E+03  0.56522814465E+03  0.00000000000E+00 0. -1.
         -4    1    3    3    0  502  0.44271110310E+02  0.17426178704E+03  0.26301285424E+03  0.31859513984E+03  0.00000000000E+00 0.  1.
         11    1    5    5    0    0  0.43649686940E+02 -0.15256687912E+03 -0.98827450052E+02  0.18694601535E+03  0.00000000000E+00 0. -1.
        -11    1    5    5    0    0  0.15080785043E+03 -0.17983491263E+03 -0.21313824467E+03  0.31703551046E+03  0.00000000000E+00 0.  1.
          4    1    6    6  503    0 -0.50489781344E+02  0.16747267708E+02  0.10972277675E+03  0.12193759361E+03  0.00000000000E+00 0. -1.
         -4    1    6    6    0  503 -0.19904645565E+03 -0.95210191627E+02  0.27576266980E+03  0.35317067000E+03  0.00000000000E+00 0.  1.
<mgrwt>
<rscale>  0 0.16578244E+04</rscale>
<asrwt>0</asrwt>
<pdfrwt beam="1">  1        1 0.20866587E+00 0.16578244E+04</pdfrwt>
<pdfrwt beam="2">  1       -2 0.77936145E-01 0.16578244E+04</pdfrwt>
<totfact> 0.10129019E+01</totfact>
</mgrwt>
</event>
<event>
12    4  0.4381187E-008  0.1991095E+04  0.7818608E-02  0.8610796E-01
         -2   -1    0    0    0  501 -0.00000000000E+00  0.00000000000E+00  0.78904909824E+03  0.78904909824E+03  0.00000000000E+00 0.  1.
          1   -1    0    0  501    0  0.00000000000E+00 -0.00000000000E+00 -0.12560870599E+04  0.12560870599E+04  0.00000000000E+00 0. -1.
        -24    2    1    2    0    0 -0.26510822824E+02  0.77746991120E+03 -0.33279192439E+03  0.84974000735E+03  0.78392146283E+02 0.  0.
        254    2    1    2    0    0  0.26510822824E+02 -0.77746991120E+03 -0.13424603731E+03  0.11953961508E+04  0.89765676756E+03 0.  0.
         23    2    4    4    0    0  0.36301380481E+03 -0.42663004619E+03 -0.33787462697E+03  0.66058682018E+03  0.91779434720E+02 0.  0.
         23    2    4    4    0    0 -0.33650298199E+03 -0.35083986500E+03  0.20362858966E+03  0.53480933066E+03  0.90738910412E+02 0.  0.
          1    1    3    3  502    0 -0.39459978621E+02  0.75271176200E+03 -0.31747345118E+03  0.81787620015E+03  0.00000000000E+00 0. -1.
         -2    1    3    3    0  502  0.12949155797E+02  0.24758149198E+02 -0.15318473207E+02  0.31863807195E+02  0.00000000000E+00 0.  1.
         11    1    5    5    0    0  0.12874975782E+03 -0.22175257392E+03 -0.15426464170E+03  0.29924619272E+03  0.00000000000E+00 0.  1.
        -11    1    5    5    0    0  0.23426404699E+03 -0.20487747228E+03 -0.18360998527E+03  0.36134062746E+03  0.00000000000E+00 0. -1.
          4    1    6    6  503    0 -0.26171553471E+03 -0.31101658559E+03  0.14413363585E+03  0.43127814992E+03  0.00000000000E+00 0. -1.
         -4    1    6    6    0  503 -0.74787447283E+02 -0.39823279418E+02  0.59494953813E+02  0.10353118073E+03  0.00000000000E+00 0.  1.
<mgrwt>
<rscale>  0 0.19910945E+04</rscale>
<asrwt>0</asrwt>
<pdfrwt beam="1">  1        1 0.19324416E+00 0.19910945E+04</pdfrwt>
<pdfrwt beam="2">  1       -2 0.12139217E+00 0.19910945E+04</pdfrwt>
<totfact> 0.40879703E+00</totfact>
</mgrwt>
</event>
<event>
12    4  0.4381187E-008  0.1511813E+04  0.7818608E-02  0.8876635E-01
         -2   -1    0    0    0  501 -0.00000000000E+00  0.00000000000E+00  0.60608678055E+03  0.60608678055E+03  0.00000000000E+00 0.  1.
          1   -1    0    0  501    0  0.00000000000E+00 -0.00000000000E+00 -0.94276063630E+03  0.94276063630E+03  0.00000000000E+00 0. -1.
        -24    2    1    2    0    0  0.38366676547E+03 -0.17992263342E+03 -0.37949137542E+03  0.57586928202E+03  0.89662617647E+02 0.  0.
        254    2    1    2    0    0 -0.38366676547E+03  0.17992263342E+03  0.42817519665E+02  0.97297813483E+03  0.87480327499E+03 0.  0.
         23    2    4    4    0    0  0.21856554130E+03 -0.38873121841E+02  0.19210682203E+03  0.30780642071E+03  0.92508086752E+02 0.  0.
         23    2    4    4    0    0 -0.60223230677E+03  0.21879575526E+03 -0.14928930236E+03  0.66517171413E+03  0.98034583884E+02 0.  0.
          3    1    3    3  502    0  0.23719617833E+03 -0.13763986860E+03 -0.19478791315E+03  0.33637641349E+03  0.00000000000E+00 0. -1.
         -4    1    3    3    0  502  0.14647058714E+03 -0.42282764818E+02 -0.18470346227E+03  0.23949286852E+03  0.00000000000E+00 0.  1.
         11    1    5    5    0    0  0.16561601571E+03  0.46861833778E+01  0.10193750015E+03  0.19452989208E+03  0.00000000000E+00 0. -1.
        -11    1    5    5    0    0  0.52949525587E+02 -0.43559305219E+02  0.90169321874E+02  0.11327652863E+03  0.00000000000E+00 0.  1.
          4    1    6    6  503    0 -0.20100728920E+02 -0.74565668339E+01  0.46248467711E+01  0.21932371046E+02  0.00000000000E+00 0.  1.
         -4    1    6    6    0  503 -0.58213157785E+03  0.22625232210E+03 -0.15391414913E+03  0.64323934308E+03  0.00000000000E+00 0. -1.
<mgrwt>
<rscale>  0 0.15118132E+04</rscale>
<asrwt>0</asrwt>
<pdfrwt beam="1">  1        1 0.14504010E+00 0.15118132E+04</pdfrwt>
<pdfrwt beam="2">  1       -2 0.93244121E-01 0.15118132E+04</pdfrwt>
<totfact> 0.13852468E+01</totfact>
</mgrwt>
</event>
<event>
12    4  0.4381187E-008  0.2003854E+04  0.7818608E-02  0.8604821E-01
         -2   -1    0    0    0  501 -0.00000000000E+00  0.00000000000E+00  0.42583505502E+03  0.42583505502E+03  0.00000000000E+00 0.  1.
          1   -1    0    0  501    0  0.00000000000E+00 -0.00000000000E+00 -0.23573869152E+04  0.23573869152E+04  0.00000000000E+00 0. -1.
        -24    2    1    2    0    0  0.49663373815E+03  0.16642833279E+01 -0.16352572873E+04  0.17110017487E+04  0.82539375714E+02 0.  0.
        254    2    1    2    0    0 -0.49663373815E+03 -0.16642833279E+01 -0.29629457284E+03  0.10722202215E+04  0.90289417422E+03 0.  0.
         23    2    4    4    0    0 -0.51630264483E+03 -0.36462070903E+03 -0.88891734900E+02  0.64458930662E+03  0.89871859648E+02 0.  0.
         23    2    4    4    0    0  0.19668906682E+02  0.36295642570E+03 -0.20740283794E+03  0.42763091491E+03  0.87909210823E+02 0.  0.
          3    1    3    3  502    0  0.32120531911E+03  0.50092882454E+01 -0.91763874607E+03  0.97224421741E+03  0.00000000000E+00 0. -1.
         -4    1    3    3    0  502  0.17542841904E+03 -0.33450049175E+01 -0.71761854128E+03  0.73875753130E+03  0.00000000000E+00 0.  1.
         11    1    5    5    0    0 -0.20631131454E+03 -0.14451746779E+03 -0.80036636594E+02  0.26430194892E+03  0.00000000000E+00 0. -1.
        -11    1    5    5    0    0 -0.30999133029E+03 -0.22010324124E+03 -0.88550983061E+01  0.38028735770E+03  0.00000000000E+00 0.  1.
          2    1    6    6  503    0  0.92897967112E+01  0.24414999354E+03 -0.90267885273E+02  0.26046844488E+03  0.00000000000E+00 0. -1.
         -2    1    6    6    0  503  0.10379109971E+02  0.11880643216E+03 -0.11713495267E+03  0.16716247002E+03  0.00000000000E+00 0.  1.
<mgrwt>
<rscale>  0 0.20038543E+04</rscale>
<asrwt>0</asrwt>
<pdfrwt beam="1">  1        1 0.36267491E+00 0.20038543E+04</pdfrwt>
<pdfrwt beam="2">  1       -2 0.65513086E-01 0.20038543E+04</pdfrwt>
<totfact> 0.29728274E+00</totfact>
</mgrwt>
</event>
<event>
12    4  0.4381187E-008  0.1097374E+04  0.7818608E-02  0.9207755E-01
          1   -1    0    0  501    0  0.00000000000E+00  0.00000000000E+00  0.12513108416E+04  0.12513108416E+04  0.00000000000E+00 0. -1.
         -2   -1    0    0    0  501 -0.00000000000E+00 -0.00000000000E+00 -0.24059364196E+03  0.24059364196E+03  0.00000000000E+00 0.  1.
        -24    2    1    2    0    0 -0.11905063834E+03 -0.93314581714E+02  0.87817981832E+02  0.19200616385E+03  0.79206712944E+02 0.  0.
        254    2    1    2    0    0  0.11905063834E+03  0.93314581714E+02  0.92289921778E+03  0.12998983197E+04  0.90283553856E+03 0.  0.
         23    2    4    4    0    0 -0.25842562185E+03  0.21286243704E+03  0.80600726401E+03  0.87702142535E+03  0.86166418965E+02 0.  0.
         23    2    4    4    0    0  0.37747626019E+03 -0.11954785533E+03  0.11689195377E+03  0.42287689433E+03  0.91548469032E+02 0.  0.
          1    1    3    3  502    0 -0.16511121752E+01 -0.90716375154E+01  0.38091698100E+02  0.39191813466E+02  0.00000000000E+00 0. -1.
         -2    1    3    3    0  502 -0.11739952616E+03 -0.84242944198E+02  0.49726283732E+02  0.15281435039E+03  0.00000000000E+00 0.  1.
         11    1    5    5    0    0 -0.26003437361E+03  0.19743497292E+03  0.78961759702E+03  0.85445561237E+03  0.00000000000E+00 0.  1.
        -11    1    5    5    0    0  0.16087517589E+01  0.15427464117E+02  0.16389666984E+02  0.22565812973E+02  0.00000000000E+00 0. -1.
          2    1    6    6  503    0  0.28819335003E+03 -0.11886288921E+03  0.11869002464E+03  0.33357325339E+03  0.00000000000E+00 0.  1.
         -2    1    6    6    0  503  0.89282910162E+02 -0.68496611556E+00 -0.17980708660E+01  0.89303640936E+02  0.00000000000E+00 0. -1.
<mgrwt>
<rscale>  0 0.10973740E+04</rscale>
<asrwt>0</asrwt>
<pdfrwt beam="1">  1        1 0.19250936E+00 0.10973740E+04</pdfrwt>
<pdfrwt beam="2">  1       -2 0.37014407E-01 0.10973740E+04</pdfrwt>
<totfact> 0.58935277E+01</totfact>
</mgrwt>
</event>
<event>
12    4  0.4381187E-008  0.2799518E+04  0.7818608E-02  0.8303418E-01
          1   -1    0    0  501    0  0.00000000000E+00  0.00000000000E+00  0.16767186631E+04  0.16767186631E+04  0.00000000000E+00 0. -1.
         -2   -1    0    0    0  501 -0.00000000000E+00 -0.00000000000E+00 -0.11685471550E+04  0.11685471550E+04  0.00000000000E+00 0.  1.
        -24    2    1    2    0    0  0.43468954755E+03  0.87061204193E+02  0.14178844468E+04  0.14877309431E+04  0.80077454832E+02 0.  0.
        254    2    1    2    0    0 -0.43468954755E+03 -0.87061204193E+02 -0.90971293873E+03  0.13575348750E+04  0.90486941043E+03 0.  0.
         23    2    4    4    0    0 -0.51858828538E+03  0.21912786033E+03 -0.25430310762E+03  0.62422555319E+03  0.89647319026E+02 0.  0.
         23    2    4    4    0    0  0.83898737825E+02 -0.30618906452E+03 -0.65540983110E+03  0.73330932181E+03  0.85963790649E+02 0.  0.
          3    1    3    3  502    0  0.43478480516E+03  0.78390502160E+02  0.13928663336E+04  0.14612527231E+04  0.00000000000E+00 0. -1.
         -4    1    3    3    0  502 -0.95257604322E-01  0.86707020333E+01  0.25018113173E+02  0.26478220003E+02  0.00000000000E+00 0.  1.
         11    1    5    5    0    0 -0.43017294457E+03  0.17041914246E+03 -0.17079509421E+03  0.49321639324E+03  0.00000000000E+00 0. -1.
        -11    1    5    5    0    0 -0.88415340807E+02  0.48708717866E+02 -0.83508013414E+02  0.13100915995E+03  0.00000000000E+00 0.  1.
          2    1    6    6  503    0  0.71763673808E+02 -0.20848753260E+03 -0.52878280596E+03  0.57291215034E+03  0.00000000000E+00 0. -1.
         -2    1    6    6    0  503  0.12135064017E+02 -0.97701531921E+02 -0.12662702515E+03  0.16039717147E+03  0.00000000000E+00 0.  1.
<mgrwt>
<rscale>  0 0.27995177E+04</rscale>
<asrwt>0</asrwt>
<pdfrwt beam="1">  1        1 0.25795672E+00 0.27995177E+04</pdfrwt>
<pdfrwt beam="2">  1       -2 0.17977649E+00 0.27995177E+04</pdfrwt>
<totfact> 0.68430839E-01</totfact>
</mgrwt>
</event>
<event>
12    4  0.4381187E-008  0.2810637E+04  0.7818608E-02  0.8299974E-01
         -2   -1    0    0    0  501 -0.00000000000E+00  0.00000000000E+00  0.16368649221E+04  0.16368649221E+04  0.00000000000E+00 0.  1.
          1   -1    0    0  501    0  0.00000000000E+00 -0.00000000000E+00 -0.12065258327E+04  0.12065258327E+04  0.00000000000E+00 0. -1.
        -24    2    1    2    0    0  0.69398329301E+03 -0.71817290869E+03 -0.60144434454E+03  0.11681243717E+04  0.73444608404E+02 0.  0.
        254    2    1    2    0    0 -0.69398329301E+03  0.71817290869E+03  0.10317834339E+04  0.16752663831E+04  0.86287615687E+03 0.  0.
         23    2    4    4    0    0 -0.73775987501E+02 -0.34794843536E+02  0.58626890915E+03  0.59891745270E+03  0.91308837695E+02 0.  0.
         23    2    4    4    0    0 -0.62020730551E+03  0.75296775223E+03  0.44551452473E+03  0.10763489304E+04  0.91794828200E+02 0.  0.
          3    1    3    3  502    0  0.48128096009E+03 -0.45879269543E+03 -0.42452004175E+03  0.78888488753E+03  0.00000000000E+00 0. -1.
         -4    1    3    3    0  502  0.21270233292E+03 -0.25938021327E+03 -0.17692430279E+03  0.37923948420E+03  0.00000000000E+00 0.  1.
         11    1    5    5    0    0 -0.49070534257E+02 -0.58631756713E+02  0.26468627744E+03  0.27550757829E+03  0.00000000000E+00 0. -1.
        -11    1    5    5    0    0 -0.24705453244E+02  0.23836913178E+02  0.32158263171E+03  0.32340987441E+03  0.00000000000E+00 0.  1.
          3    1    6    6  503    0 -0.41838103789E+03  0.46071911500E+03  0.24779157013E+03  0.66985480368E+03  0.00000000000E+00 0. -1.
         -3    1    6    6    0  503 -0.20182626762E+03  0.29224863723E+03  0.19772295460E+03  0.40649412670E+03  0.00000000000E+00 0.  1.
<mgrwt>
<rscale>  0 0.28106368E+04</rscale>
<asrwt>0</asrwt>
<pdfrwt beam="1">  1        1 0.18561936E+00 0.28106368E+04</pdfrwt>
<pdfrwt beam="2">  1       -2 0.25182537E+00 0.28106368E+04</pdfrwt>
<totfact> 0.50240493E-01</totfact>
</mgrwt>
</event>
<event>
12    4  0.4381187E-008  0.3012995E+04  0.7818608E-02  0.8240030E-01
         -2   -1    0    0    0  501 -0.00000000000E+00  0.00000000000E+00  0.61331052416E+03  0.61331052416E+03  0.00000000000E+00 0.  1.
          1   -1    0    0  501    0  0.00000000000E+00 -0.00000000000E+00 -0.37004670297E+04  0.37004670297E+04  0.00000000000E+00 0. -1.
        -24    2    1    2    0    0 -0.59545001001E+03  0.10459315983E+04 -0.46500635159E+03  0.12929185891E+04  0.82909277336E+02 0.  0.
        254    2    1    2    0    0  0.59545001001E+03 -0.10459315983E+04 -0.26221501539E+04  0.30208589648E+04  0.89520044262E+03 0.  0.
         23    2    4    4    0    0  0.48219005100E+03 -0.96851931764E+03 -0.13236504961E+04  0.17119953468E+04  0.91326434855E+02 0.  0.
         23    2    4    4    0    0  0.11325995901E+03 -0.77412280645E+02 -0.12984996579E+04  0.13088636180E+04  0.90565608843E+02 0.  0.
          3    1    3    3  502    0 -0.53209012179E+03  0.90037073063E+03 -0.37923986676E+03  0.11124793152E+04  0.00000000000E+00 0. -1.
         -4    1    3    3    0  502 -0.63359888220E+02  0.14556086765E+03 -0.85766484831E+02  0.18043927385E+03  0.00000000000E+00 0.  1.
         11    1    5    5    0    0  0.13466988207E+03 -0.19004608693E+03 -0.26727208394E+03  0.35452483573E+03  0.00000000000E+00 0. -1.
        -11    1    5    5    0    0  0.34752016893E+03 -0.77847323071E+03 -0.10563784121E+04  0.13574705111E+04  0.00000000000E+00 0.  1.
          1    1    6    6  503    0  0.46013546656E+02 -0.81401388488E+02 -0.61740129650E+03  0.62444198565E+03  0.00000000000E+00 0. -1.
         -1    1    6    6    0  503  0.67246412352E+02  0.39891078432E+01 -0.68109836136E+03  0.68442163233E+03  0.00000000000E+00 0.  1.
<mgrwt>
<rscale>  0 0.30129954E+04</rscale>
<asrwt>0</asrwt>
<pdfrwt beam="1">  1        1 0.56930261E+00 0.30129954E+04</pdfrwt>
<pdfrwt beam="2">  1       -2 0.94355467E-01 0.30129954E+04</pdfrwt>
<totfact> 0.12204777E-01</totfact>
</mgrwt>
</event>
<event>
12    4  0.4381187E-008  0.1351195E+04  0.7818608E-02  0.8989924E-01
          1   -1    0    0  501    0  0.00000000000E+00  0.00000000000E+00  0.70625076976E+03  0.70625076976E+03  0.00000000000E+00 0. -1.
         -2   -1    0    0    0  501 -0.00000000000E+00 -0.00000000000E+00 -0.64627500200E+03  0.64627500200E+03  0.00000000000E+00 0.  1.
        -24    2    1    2    0    0 -0.57445426689E+02  0.65086076674E+02  0.37472880640E+03  0.39268059489E+03  0.78994916499E+02 0.  0.
        254    2    1    2    0    0  0.57445426689E+02 -0.65086076674E+02 -0.31475303864E+03  0.95984517687E+03  0.90260573553E+03 0.  0.
         23    2    4    4    0    0  0.43528624194E+03 -0.19799656135E+03 -0.10574670751E+03  0.49829946143E+03  0.91887084943E+02 0.  0.
         23    2    4    4    0    0 -0.37784081525E+03  0.13291048468E+03 -0.20900633113E+03  0.46154571545E+03  0.94402978699E+02 0.  0.
          1    1    3    3  502    0 -0.69347932918E+02  0.71852896395E+02  0.28669694049E+03  0.30359036580E+03  0.00000000000E+00 0. -1.
         -2    1    3    3    0  502  0.11902506229E+02 -0.67668197209E+01  0.88031865906E+02  0.89090229086E+02  0.00000000000E+00 0.  1.
         11    1    5    5    0    0  0.25847483968E+03 -0.15579473962E+03 -0.37435408274E+02  0.30410960760E+03  0.00000000000E+00 0.  1.
        -11    1    5    5    0    0  0.17681140225E+03 -0.42201821733E+02 -0.68311299237E+02  0.19418985382E+03  0.00000000000E+00 0. -1.
          1    1    6    6  503    0 -0.46469532327E+02 -0.72785714823E+01 -0.34494882808E+01  0.47162421555E+02  0.00000000000E+00 0. -1.
         -1    1    6    6    0  503 -0.33137128292E+03  0.14018905616E+03 -0.20555684285E+03  0.41438329389E+03  0.00000000000E+00 0.  1.
<mgrwt>
<rscale>  0 0.13511953E+04</rscale>
<asrwt>0</asrwt>
<pdfrwt beam="1">  1        1 0.10865396E+00 0.13511953E+04</pdfrwt>
<pdfrwt beam="2">  1       -2 0.99426923E-01 0.13511953E+04</pdfrwt>
<totfact> 0.19289120E+01</totfact>
</mgrwt>
</event>
<event>
12    4  0.6751623E-008  0.2273119E+04  0.7818608E-02  0.8488596E-01
          1   -1    0    0  501    0  0.00000000000E+00  0.00000000000E+00  0.11178242431E+04  0.11178242431E+04  0.00000000000E+00 0. -1.
         -2   -1    0    0    0  501 -0.00000000000E+00 -0.00000000000E+00 -0.11556091888E+04  0.11556091888E+04  0.00000000000E+00 0.  1.
        -24    2    1    2    0    0 -0.54925168860E+03  0.15555563894E+03  0.75048207385E+03  0.94633736650E+03  0.80349821559E+02 0.  0.
        254    2    1    2    0    0  0.54925168860E+03 -0.15555563894E+03 -0.78826701953E+03  0.13270960655E+04  0.90218850507E+03 0.  0.
         23    2    4    4    0    0  0.22392403813E+03  0.18932971924E+02  0.17044904539E+03  0.29561450715E+03  0.88513431117E+02 0.  0.
         23    2    4    4    0    0  0.32532765047E+03 -0.17448861087E+03 -0.95871606492E+03  0.10314815583E+04  0.92376168628E+02 0.  0.
          1    1    3    3  502    0 -0.53182115172E+03  0.15368594999E+03  0.74461840278E+03  0.92785218348E+03  0.00000000000E+00 0. -1.
         -2    1    3    3    0  502 -0.17430536876E+02  0.18696889549E+01  0.58636710731E+01  0.18485183013E+02  0.00000000000E+00 0.  1.
         11    1    5    5    0    0  0.20017387451E+03 -0.98620180882E+01  0.12264832921E+03  0.23496691702E+03  0.00000000000E+00 0.  1.
        -11    1    5    5    0    0  0.23750163622E+02  0.28794990012E+02  0.47800716178E+02  0.60647590133E+02  0.00000000000E+00 0. -1.
          2    1    6    6  503    0  0.22208251549E+03 -0.15237064898E+03 -0.76237156377E+03  0.80854675783E+03  0.00000000000E+00 0.  1.
         -2    1    6    6    0  503  0.10324513498E+03 -0.22117961891E+02 -0.19634450115E+03  0.22293480048E+03  0.00000000000E+00 0. -1.
<mgrwt>
<rscale>  0 0.22731194E+04</rscale>
<asrwt>0</asrwt>
<pdfrwt beam="1">  1        1 0.17197296E+00 0.22731194E+04</pdfrwt>
<pdfrwt beam="2">  1       -2 0.17778603E+00 0.22731194E+04</pdfrwt>
<totfact> 0.18350851E+00</totfact>
</mgrwt>
</event>
<event>
12    4  0.4381187E-008  0.1890782E+04  0.7818608E-02  0.8659458E-01
         -2   -1    0    0    0  501 -0.00000000000E+00  0.00000000000E+00  0.38473083876E+03  0.38473083876E+03  0.00000000000E+00 0.  1.
          1   -1    0    0  501    0  0.00000000000E+00 -0.00000000000E+00 -0.23230906230E+04  0.23230906230E+04  0.00000000000E+00 0. -1.
        -24    2    1    2    0    0  0.59572379797E+03  0.40411193784E+03 -0.92955007081E+03  0.11783196995E+04  0.78617289788E+02 0.  0.
        254    2    1    2    0    0 -0.59572379797E+03 -0.40411193784E+03 -0.10088097134E+04  0.15295017622E+04  0.89637341610E+03 0.  0.
         23    2    4    4    0    0  0.14282598184E+03 -0.31473197337E+03 -0.14714295256E+03  0.38733886158E+03  0.94471525115E+02 0.  0.
         23    2    4    4    0    0 -0.73854977981E+03 -0.89379964474E+02 -0.86166676083E+03  0.11421629007E+04  0.92854346244E+02 0.  0.
          1    1    3    3  502    0  0.46720127121E+03  0.27681903577E+03 -0.68536683139E+03  0.87443324499E+03  0.00000000000E+00 0. -1.
         -2    1    3    3    0  502  0.12852252677E+03  0.12729290207E+03 -0.24418323942E+03  0.30388645448E+03  0.00000000000E+00 0.  1.
         11    1    5    5    0    0  0.25098022795E+02 -0.16590943310E+03 -0.56594282419E+02  0.17708405784E+03  0.00000000000E+00 0.  1.
        -11    1    5    5    0    0  0.11772795904E+03 -0.14882254027E+03 -0.90548670141E+02  0.21025480374E+03  0.00000000000E+00 0. -1.
          3    1    6    6  503    0 -0.62243308380E+03 -0.56522461034E+02 -0.67527309954E+03  0.92011493378E+03  0.00000000000E+00 0. -1.
         -3    1    6    6    0  503 -0.11611669601E+03 -0.32857503440E+02 -0.18639366129E+03  0.22204796688E+03  0.00000000000E+00 0.  1.
<mgrwt>
<rscale>  0 0.18907825E+04</rscale>
<asrwt>0</asrwt>
<pdfrwt beam="1">  1        1 0.35739856E+00 0.18907825E+04</pdfrwt>
<pdfrwt beam="2">  1       -2 0.59189359E-01 0.18907825E+04</pdfrwt>
<totfact> 0.39354066E+00</totfact>
</mgrwt>
</event>
<event>
12    4  0.4381187E-008  0.1128511E+04  0.7818608E-02  0.9177840E-01
          1   -1    0    0  501    0  0.00000000000E+00  0.00000000000E+00  0.79496779128E+03  0.79496779128E+03  0.00000000000E+00 0. -1.
         -2   -1    0    0    0  501 -0.00000000000E+00 -0.00000000000E+00 -0.40049937778E+03  0.40049937778E+03  0.00000000000E+00 0.  1.
        -24    2    1    2    0    0  0.89670671893E+02  0.14489608457E+03 -0.76086870430E+02  0.20350754305E+03  0.81181300215E+02 0.  0.
        254    2    1    2    0    0 -0.89670671893E+02 -0.14489608457E+03  0.47055528392E+03  0.99195962601E+03  0.85646127739E+03 0.  0.
         23    2    4    4    0    0  0.21660263450E+03  0.12427482966E+03  0.50699733951E+03  0.57261289931E+03  0.92077660861E+02 0.  0.
         23    2    4    4    0    0 -0.30627330639E+03 -0.26917091423E+03 -0.36442055584E+02  0.41934672670E+03  0.90924883808E+02 0.  0.
          1    1    3    3  502    0  0.56628079963E+02  0.30978377441E+02 -0.39223467877E+01  0.64666715654E+02  0.00000000000E+00 0. -1.
         -2    1    3    3    0  502  0.33042591929E+02  0.11391770713E+03 -0.72164523643E+02  0.13884082740E+03  0.00000000000E+00 0.  1.
         11    1    5    5    0    0  0.18029525442E+03  0.63155416014E+02  0.41031731761E+03  0.45260941933E+03  0.00000000000E+00 0.  1.
        -11    1    5    5    0    0  0.36307380086E+02  0.61119413645E+02  0.96680021893E+02  0.12000347998E+03  0.00000000000E+00 0. -1.
          3    1    6    6  503    0 -0.43153917765E+02 -0.20829665179E+02 -0.31798039679E+02  0.57508702797E+02  0.00000000000E+00 0. -1.
         -3    1    6    6    0  503 -0.26311938863E+03 -0.24834124905E+03 -0.46440159048E+01  0.36183802390E+03  0.00000000000E+00 0.  1.
<mgrwt>
<rscale>  0 0.11285107E+04</rscale>
<asrwt>0</asrwt>
<pdfrwt beam="1">  1        1 0.12230274E+00 0.11285107E+04</pdfrwt>
<pdfrwt beam="2">  1       -2 0.61615289E-01 0.11285107E+04</pdfrwt>
<totfact> 0.47653215E+01</totfact>
</mgrwt>
</event>
<event>
12    4  0.4381187E-008  0.1390900E+04  0.7818608E-02  0.8960432E-01
         -2   -1    0    0    0  501 -0.00000000000E+00  0.00000000000E+00  0.79795686943E+03  0.79795686943E+03  0.00000000000E+00 0.  1.
          1   -1    0    0  501    0  0.00000000000E+00 -0.00000000000E+00 -0.60611132095E+03  0.60611132095E+03  0.00000000000E+00 0. -1.
        -24    2    1    2    0    0  0.30776907914E+03  0.11341876433E+03  0.28851391602E+03  0.44523726358E+03  0.86083209537E+02 0.  0.
        254    2    1    2    0    0 -0.30776907914E+03 -0.11341876433E+03 -0.96668367547E+02  0.95883092680E+03  0.89578253540E+03 0.  0.
         23    2    4    4    0    0  0.12666371884E+03 -0.30395557659E+03 -0.28076741875E+03  0.44171547772E+03  0.88597571181E+02 0.  0.
         23    2    4    4    0    0 -0.43443279798E+03  0.19053681226E+03  0.18409905120E+03  0.51711544908E+03  0.92085798244E+02 0.  0.
          3    1    3    3  502    0 -0.65834401671E+00  0.93698163157E+01 -0.12086072475E+01  0.94703540648E+01  0.00000000000E+00 0. -1.
         -4    1    3    3    0  502  0.30842742316E+03  0.10404894801E+03  0.28972252327E+03  0.43576690951E+03  0.00000000000E+00 0.  1.
         11    1    5    5    0    0 -0.22729312980E+01  0.14118779048E+01 -0.19426798431E+02  0.19610204313E+02  0.00000000000E+00 0.  1.
        -11    1    5    5    0    0  0.12893665013E+03 -0.30536745449E+03 -0.26134062032E+03  0.42210527341E+03  0.00000000000E+00 0. -1.
          4    1    6    6  503    0 -0.23028222537E+03  0.11577201272E+03  0.52688971161E+02  0.26307639562E+03  0.00000000000E+00 0. -1.
         -4    1    6    6    0  503 -0.20415057261E+03  0.74764799542E+02  0.13141008004E+03  0.25403905346E+03  0.00000000000E+00 0.  1.
<mgrwt>
<rscale>  0 0.13909000E+04</rscale>
<asrwt>0</asrwt>
<pdfrwt beam="1">  1        1 0.93247895E-01 0.13909000E+04</pdfrwt>
<pdfrwt beam="2">  1       -2 0.12276260E+00 0.13909000E+04</pdfrwt>
<totfact> 0.14453410E+01</totfact>
</mgrwt>
</event>
<event>
12    4  0.4381187E-008  0.3430097E+04  0.7818608E-02  0.8130559E-01
          1   -1    0    0  501    0  0.00000000000E+00  0.00000000000E+00  0.11700579841E+04  0.11700579841E+04  0.00000000000E+00 0. -1.
         -2   -1    0    0    0  501 -0.00000000000E+00 -0.00000000000E+00 -0.25138856910E+04  0.25138856910E+04  0.00000000000E+00 0.  1.
        -24    2    1    2    0    0 -0.69109275228E+03  0.14006102246E+04 -0.26670190953E+03  0.15864774884E+04  0.80391039566E+02 0.  0.
        254    2    1    2    0    0  0.69109275228E+03 -0.14006102246E+04 -0.10771257975E+04  0.20974661867E+04  0.89434122538E+03 0.  0.
         23    2    4    4    0    0  0.39430053786E+03 -0.87813094757E+03 -0.13540736494E+03  0.97672469774E+03  0.95231851119E+02 0.  0.
         23    2    4    4    0    0  0.29679221442E+03 -0.52247927700E+03 -0.94171843251E+03  0.11207414890E+04  0.90319795827E+02 0.  0.
          3    1    3    3  502    0 -0.27723013850E+03  0.61257727301E+03 -0.81457819300E+02  0.67730557463E+03  0.00000000000E+00 0. -1.
         -4    1    3    3    0  502 -0.41386261377E+03  0.78803295156E+03 -0.18524409023E+03  0.90917191377E+03  0.00000000000E+00 0.  1.
         11    1    5    5    0    0  0.67106063173E+02 -0.24962942550E+03 -0.45674938791E+02  0.26249623583E+03  0.00000000000E+00 0.  1.
        -11    1    5    5    0    0  0.32719447469E+03 -0.62850152207E+03 -0.89732426151E+02  0.71422846192E+03  0.00000000000E+00 0. -1.
          3    1    6    6  503    0  0.57931676278E+02 -0.18724409925E+03 -0.30036037329E+03  0.35865413097E+03  0.00000000000E+00 0. -1.
         -3    1    6    6    0  503  0.23886053814E+03 -0.33523517775E+03 -0.64135805922E+03  0.76208735799E+03  0.00000000000E+00 0.  1.
<mgrwt>
<rscale>  0 0.34300974E+04</rscale>
<asrwt>0</asrwt>
<pdfrwt beam="1">  1        1 0.18000892E+00 0.34300974E+04</pdfrwt>
<pdfrwt beam="2">  1       -2 0.38675164E+00 0.34300974E+04</pdfrwt>
<totfact> 0.73259319E-02</totfact>
</mgrwt>
</event>
<event>
12    4  0.4381187E-008  0.1252176E+04  0.7818608E-02  0.9068374E-01
          1   -1    0    0  501    0  0.00000000000E+00  0.00000000000E+00  0.12008738734E+04  0.12008738734E+04  0.00000000000E+00 0. -1.
         -2   -1    0    0    0  501 -0.00000000000E+00 -0.00000000000E+00 -0.32641765637E+03  0.32641765637E+03  0.00000000000E+00 0.  1.
        -24    2    1    2    0    0  0.54544140906E+02  0.15884033030E+03  0.53528596687E+03  0.56675555299E+03  0.80470346584E+02 0.  0.
        254    2    1    2    0    0 -0.54544140906E+02 -0.15884033030E+03  0.33917025015E+03  0.96053597676E+03  0.88282930980E+03 0.  0.
         23    2    4    4    0    0 -0.21895797565E+03 -0.47460363053E+03  0.18136520086E+03  0.56058987938E+03  0.90423866117E+02 0.  0.
         23    2    4    4    0    0  0.16441383475E+03  0.31576330024E+03  0.15780504929E+03  0.39994609738E+03  0.91192523811E+02 0.  0.
          3    1    3    3  502    0  0.25038437756E+01  0.44327944730E+01  0.12777270169E+03  0.12787408728E+03  0.00000000000E+00 0. -1.
         -4    1    3    3    0  502  0.52040297130E+02  0.15440753583E+03  0.40751326518E+03  0.43888146571E+03  0.00000000000E+00 0.  1.
         11    1    5    5    0    0 -0.91943810962E+02 -0.12145826862E+03  0.78933177296E+02  0.17156987460E+03  0.00000000000E+00 0.  1.
        -11    1    5    5    0    0 -0.12701416469E+03 -0.35314536191E+03  0.10243202357E+03  0.38902000478E+03  0.00000000000E+00 0. -1.
          4    1    6    6  503    0  0.12039306575E+03  0.28139962614E+03  0.15723602982E+03  0.34409796417E+03  0.00000000000E+00 0. -1.
         -4    1    6    6    0  503  0.44020768996E+02  0.34363674094E+02  0.56901947336E+00  0.55848133213E+02  0.00000000000E+00 0.  1.
<mgrwt>
<rscale>  0 0.12521764E+04</rscale>
<asrwt>0</asrwt>
<pdfrwt beam="1">  1        1 0.18474982E+00 0.12521764E+04</pdfrwt>
<pdfrwt beam="2">  1       -2 0.50218102E-01 0.12521764E+04</pdfrwt>
<totfact> 0.34603709E+01</totfact>
</mgrwt>
</event>
<event>
12    4  0.4381187E-008  0.1503298E+04  0.7818608E-02  0.8882263E-01
         -2   -1    0    0    0  501 -0.00000000000E+00  0.00000000000E+00  0.38257378603E+03  0.38257378603E+03  0.00000000000E+00 0.  1.
          1   -1    0    0  501    0  0.00000000000E+00 -0.00000000000E+00 -0.14767773306E+04  0.14767773306E+04  0.00000000000E+00 0. -1.
        -24    2    1    2    0    0 -0.30928353009E+03 -0.24516508771E+03 -0.32877000029E+02  0.40447557576E+03  0.82203236164E+02 0.  0.
        254    2    1    2    0    0  0.30928353009E+03  0.24516508771E+03 -0.10613265445E+04  0.14548755409E+04  0.91350237167E+03 0.  0.
         23    2    4    4    0    0  0.58400015020E+03  0.50093008236E+02 -0.42720627313E+03  0.73115373696E+03  0.92277312306E+02 0.  0.
         23    2    4    4    0    0 -0.27471662011E+03  0.19507207948E+03 -0.63412027141E+03  0.72372180391E+03  0.90235210892E+02 0.  0.
          1    1    3    3  502    0 -0.12500179145E+03 -0.74084327258E+02 -0.46746921185E+02  0.15264078764E+03  0.00000000000E+00 0. -1.
         -2    1    3    3    0  502 -0.18428173864E+03 -0.17108076045E+03  0.13869921156E+02  0.25183478812E+03  0.00000000000E+00 0.  1.
         11    1    5    5    0    0  0.69991997226E+01 -0.25405596012E+01 -0.24360684031E+02  0.25473244126E+02  0.00000000000E+00 0.  1.
        -11    1    5    5    0    0  0.57700095047E+03  0.52633567837E+02 -0.40284558910E+03  0.70568049283E+03  0.00000000000E+00 0. -1.
          1    1    6    6  503    0 -0.28156966802E+03  0.18787902045E+03 -0.60978336484E+03  0.69743512695E+03  0.00000000000E+00 0. -1.
         -1    1    6    6    0  503  0.68530479133E+01  0.71930590282E+01 -0.24336906576E+02  0.26286676959E+02  0.00000000000E+00 0.  1.
<mgrwt>
<rscale>  0 0.15032981E+04</rscale>
<asrwt>0</asrwt>
<pdfrwt beam="1">  1        1 0.22719651E+00 0.15032981E+04</pdfrwt>
<pdfrwt beam="2">  1       -2 0.58857507E-01 0.15032981E+04</pdfrwt>
<totfact> 0.15539351E+01</totfact>
</mgrwt>
</event>
<event>
12    4  0.4381187E-008  0.2126809E+04  0.7818608E-02  0.8549525E-01
          1   -1    0    0  501    0  0.00000000000E+00  0.00000000000E+00  0.31770105903E+04  0.31770105903E+04  0.00000000000E+00 0. -1.
         -2   -1    0    0    0  501 -0.00000000000E+00 -0.00000000000E+00 -0.35594134480E+03  0.35594134480E+03  0.00000000000E+00 0.  1.
        -24    2    1    2    0    0  0.22831665542E+03 -0.13689810984E+03 -0.21537560299E+03  0.35182708047E+03  0.80784011828E+02 0.  0.
        254    2    1    2    0    0 -0.22831665542E+03  0.13689810984E+03  0.30364448485E+04  0.31811248546E+04  0.91032325862E+03 0.  0.
         23    2    4    4    0    0  0.12546134969E+03 -0.26899805085E+03  0.18402286081E+04  0.18661739926E+04  0.89797209475E+02 0.  0.
         23    2    4    4    0    0 -0.35377800511E+03  0.40589616069E+03  0.11962162403E+04  0.13149508620E+04  0.90840000512E+02 0.  0.
          3    1    3    3  502    0  0.30687058531E+02 -0.29117006454E+02 -0.76240191612E+02  0.87189806991E+02  0.00000000000E+00 0. -1.
         -4    1    3    3    0  502  0.19762959689E+03 -0.10778110339E+03 -0.13913541138E+03  0.26463727347E+03  0.00000000000E+00 0.  1.
         11    1    5    5    0    0  0.40470210691E+02 -0.15581941510E+03  0.77182616099E+03  0.78843715721E+03  0.00000000000E+00 0.  1.
        -11    1    5    5    0    0  0.84991138996E+02 -0.11317863576E+03  0.10684024471E+04  0.10777368354E+04  0.00000000000E+00 0. -1.
          4    1    6    6  503    0 -0.18188622302E+03  0.14544331431E+03  0.55271458246E+03  0.59977476228E+03  0.00000000000E+00 0. -1.
         -4    1    6    6    0  503 -0.17189178209E+03  0.26045284638E+03  0.64350165786E+03  0.71517609972E+03  0.00000000000E+00 0.  1.
<mgrwt>
<rscale>  0 0.21268093E+04</rscale>
<asrwt>0</asrwt>
<pdfrwt beam="1">  1        1 0.48877084E+00 0.21268093E+04</pdfrwt>
<pdfrwt beam="2">  1       -2 0.54760209E-01 0.21268093E+04</pdfrwt>
<totfact> 0.11208804E+00</totfact>
</mgrwt>
</event>
<event>
12    4  0.4381187E-008  0.1309584E+04  0.7818608E-02  0.9022000E-01
          1   -1    0    0  501    0  0.00000000000E+00  0.00000000000E+00  0.31678340893E+04  0.31678340893E+04  0.00000000000E+00 0. -1.
         -2   -1    0    0    0  501 -0.00000000000E+00 -0.00000000000E+00 -0.13534556755E+03  0.13534556755E+03  0.00000000000E+00 0.  1.
        -24    2    1    2    0    0  0.40852706338E+02  0.17027037406E+03  0.15059454337E+04  0.15180478197E+04  0.77049268195E+02 0.  0.
        254    2    1    2    0    0 -0.40852706338E+02 -0.17027037406E+03  0.15265430880E+04  0.17851318371E+04  0.90868087488E+03 0.  0.
         23    2    4    4    0    0  0.30950557516E+03 -0.16046957700E+03  0.20435866475E+03  0.41424142179E+03  0.91045623024E+02 0.  0.
         23    2    4    4    0    0 -0.35035828150E+03 -0.98007970597E+01  0.13221844232E+04  0.13708904153E+04  0.91224451945E+02 0.  0.
          1    1    3    3  502    0  0.20935706295E+02  0.16817402981E+03  0.14005856578E+04  0.14108015427E+04  0.00000000000E+00 0. -1.
         -2    1    3    3    0  502  0.19917000043E+02  0.20963442572E+01  0.10535977594E+03  0.10724627702E+03  0.00000000000E+00 0.  1.
         11    1    5    5    0    0  0.31268395852E+03 -0.16286303170E+03  0.20757547008E+03  0.40912492077E+03  0.00000000000E+00 0.  1.
        -11    1    5    5    0    0 -0.31783833636E+01  0.23934546983E+01 -0.32168053324E+01  0.51165010256E+01  0.00000000000E+00 0. -1.
          4    1    6    6  503    0 -0.30641670765E+02 -0.28416735783E+02  0.14149222017E+03  0.14753464417E+03  0.00000000000E+00 0. -1.
         -4    1    6    6    0  503 -0.31971661073E+03  0.18615938723E+02  0.11806922031E+04  0.12233557711E+04  0.00000000000E+00 0.  1.
<mgrwt>
<rscale>  0 0.13095836E+04</rscale>
<asrwt>0</asrwt>
<pdfrwt beam="1">  1        1 0.48735904E+00 0.13095836E+04</pdfrwt>
<pdfrwt beam="2">  1       -2 0.20822397E-01 0.13095836E+04</pdfrwt>
<totfact> 0.78060402E+00</totfact>
</mgrwt>
</event>
<event>
12    4  0.4381187E-008  0.1072234E+04  0.7818608E-02  0.9232685E-01
         -2   -1    0    0    0  501 -0.00000000000E+00  0.00000000000E+00  0.52113888011E+03  0.52113888011E+03  0.00000000000E+00 0.  1.
          1   -1    0    0  501    0  0.00000000000E+00 -0.00000000000E+00 -0.55152584006E+03  0.55152584006E+03  0.00000000000E+00 0. -1.
        -24    2    1    2    0    0  0.73528889035E+02 -0.41977806824E+02 -0.11854901884E+03  0.16574397311E+03  0.79047839729E+02 0.  0.
        254    2    1    2    0    0 -0.73528889035E+02  0.41977806824E+02  0.88162058885E+02  0.90692074706E+03  0.89864568047E+03 0.  0.
         23    2    4    4    0    0  0.35880084377E+03 -0.13868039335E+03  0.15596588605E+03  0.42488308433E+03  0.90719241336E+02 0.  0.
         23    2    4    4    0    0 -0.43232973281E+03  0.18065820017E+03 -0.67803827166E+02  0.48203766273E+03  0.90645276475E+02 0.  0.
          3    1    3    3  502    0  0.37259331945E+02 -0.31987028284E+02 -0.11833877248E+03  0.12812295995E+03  0.00000000000E+00 0. -1.
         -4    1    3    3    0  502  0.36269557090E+02 -0.99907785403E+01 -0.21024636051E+00  0.37621013156E+02  0.00000000000E+00 0.  1.
         11    1    5    5    0    0  0.27330642213E+03 -0.72740865290E+02  0.14054857149E+03  0.31581883225E+03  0.00000000000E+00 0.  1.
        -11    1    5    5    0    0  0.85494421649E+02 -0.65939528057E+02  0.15417314562E+02  0.10906425208E+03  0.00000000000E+00 0. -1.
          1    1    6    6  503    0 -0.10650203703E+03  0.88308109827E+02 -0.26495788076E+02  0.14086530069E+03  0.00000000000E+00 0. -1.
         -1    1    6    6    0  503 -0.32582769578E+03  0.92350090344E+02 -0.41308039089E+02  0.34117236203E+03  0.00000000000E+00 0.  1.
<mgrwt>
<rscale>  0 0.10722342E+04</rscale>
<asrwt>0</asrwt>
<pdfrwt beam="1">  1        1 0.84850129E-01 0.10722342E+04</pdfrwt>
<pdfrwt beam="2">  1       -2 0.80175213E-01 0.10722342E+04</pdfrwt>
<totfact> 0.46442013E+01</totfact>
</mgrwt>
</event>
<event>
12    4  0.4381187E-008  0.3249797E+04  0.7818608E-02  0.8175788E-01
          1   -1    0    0  501    0  0.00000000000E+00  0.00000000000E+00  0.29590480943E+04  0.29590480943E+04  0.00000000000E+00 0. -1.
         -2   -1    0    0    0  501 -0.00000000000E+00 -0.00000000000E+00 -0.89227849597E+03  0.89227849597E+03  0.00000000000E+00 0.  1.
        -24    2    1    2    0    0  0.31659285204E+03 -0.77924948389E+03 -0.51750516385E+03  0.99080171240E+03  0.80097731342E+02 0.  0.
        254    2    1    2    0    0 -0.31659285204E+03  0.77924948389E+03  0.25842747621E+04  0.28605248778E+04  0.89256133590E+03 0.  0.
         23    2    4    4    0    0  0.26598880835E+03  0.30662923230E+03  0.13604765003E+04  0.14219578521E+04  0.79349185096E+02 0.  0.
         23    2    4    4    0    0 -0.58258166039E+03  0.47262025159E+03  0.12237982619E+04  0.14385670257E+04  0.94982147995E+02 0.  0.
          3    1    3    3  502    0  0.75808220592E+02 -0.12414721797E+03 -0.11216230440E+03  0.18368396927E+03  0.00000000000E+00 0. -1.
         -4    1    3    3    0  502  0.24078463145E+03 -0.65510226592E+03 -0.40534285945E+03  0.80711774313E+03  0.00000000000E+00 0.  1.
         11    1    5    5    0    0  0.21615685977E+03  0.22562310821E+03  0.11354837324E+04  0.11776896372E+04  0.00000000000E+00 0.  1.
        -11    1    5    5    0    0  0.49831948573E+02  0.81006124088E+02  0.22499276789E+03  0.24426821496E+03  0.00000000000E+00 0. -1.
          3    1    6    6  503    0 -0.14414404340E+03  0.69941324504E+02  0.28465357756E+03  0.32664499589E+03  0.00000000000E+00 0. -1.
         -3    1    6    6    0  503 -0.43843761699E+03  0.40267892709E+03  0.93914468430E+03  0.11119220298E+04  0.00000000000E+00 0.  1.
<mgrwt>
<rscale>  0 0.32497969E+04</rscale>
<asrwt>0</asrwt>
<pdfrwt beam="1">  1        1 0.45523816E+00 0.32497969E+04</pdfrwt>
<pdfrwt beam="2">  1       -2 0.13727362E+00 0.32497969E+04</pdfrwt>
<totfact> 0.17734999E-01</totfact>
</mgrwt>
</event>
<event>
12    4  0.4381187E-008  0.2123041E+04  0.7818608E-02  0.8551161E-01
          1   -1    0    0  501    0  0.00000000000E+00  0.00000000000E+00  0.18431342696E+04  0.18431342696E+04  0.00000000000E+00 0. -1.
         -4   -1    0    0    0  501 -0.00000000000E+00 -0.00000000000E+00 -0.61136393026E+03  0.61136393026E+03  0.00000000000E+00 0.  1.
        -24    2    1    2    0    0  0.60776576084E+03  0.48473314221E+03  0.94518412225E+03  0.12262341127E+04  0.77017108922E+02 0.  0.
        254    2    1    2    0    0 -0.60776576084E+03 -0.48473314221E+03  0.28658621710E+03  0.12282640871E+04  0.90672794636E+03 0.  0.
         23    2    4    4    0    0 -0.74128004537E+03 -0.14186465006E+03  0.12555638259E+02  0.76012518944E+03  0.89504049945E+02 0.  0.
         23    2    4    4    0    0  0.13351428454E+03 -0.34286849215E+03  0.27403057884E+03  0.46813889770E+03  0.93147207774E+02 0.  0.
          3    1    3    3  502    0  0.38987968210E+03  0.35682333487E+03  0.64449627212E+03  0.83348935421E+03  0.00000000000E+00 0. -1.
         -4    1    3    3    0  502  0.21788607874E+03  0.12790980735E+03  0.30068785013E+03  0.39274475851E+03  0.00000000000E+00 0.  1.
         11    1    5    5    0    0 -0.48434091729E+03 -0.89955398127E+02  0.50733780032E+02  0.49522925423E+03  0.00000000000E+00 0. -1.
        -11    1    5    5    0    0 -0.25693912808E+03 -0.51909251935E+02 -0.38178141773E+02  0.26489593520E+03  0.00000000000E+00 0.  1.
          2    1    6    6  503    0  0.13679868511E+03 -0.31052236843E+03  0.21786201755E+03  0.40323923450E+03  0.00000000000E+00 0.  1.
         -2    1    6    6    0  503 -0.32844005759E+01 -0.32346123716E+02  0.56168561290E+02  0.64899663204E+02  0.00000000000E+00 0. -1.
<mgrwt>
<rscale>  0 0.21230410E+04</rscale>
<asrwt>0</asrwt>
<pdfrwt beam="1">  1        1 0.28355912E+00 0.21230410E+04</pdfrwt>
<pdfrwt beam="2">  1       -4 0.94055990E-01 0.21230410E+04</pdfrwt>
<totfact> 0.16392348E+00</totfact>
</mgrwt>
</event>
<event>
12    4  0.4381187E-008  0.1601583E+04  0.7818608E-02  0.8819576E-01
         -2   -1    0    0    0  501 -0.00000000000E+00  0.00000000000E+00  0.32187518241E+03  0.32187518241E+03  0.00000000000E+00 0.  1.
          1   -1    0    0  501    0  0.00000000000E+00 -0.00000000000E+00 -0.19922835362E+04  0.19922835362E+04  0.00000000000E+00 0. -1.
        -24    2    1    2    0    0 -0.27965768601E+03 -0.34721940706E+03 -0.10100347581E+04  0.11067666396E+04  0.77410878374E+02 0.  0.
        254    2    1    2    0    0  0.27965768601E+03  0.34721940706E+03 -0.66037359573E+03  0.12073920790E+04  0.90715633079E+03 0.  0.
         23    2    4    4    0    0 -0.25407011729E+03  0.38397022204E+03 -0.28071986757E+03  0.54507599599E+03  0.79494914529E+02 0.  0.
         23    2    4    4    0    0  0.53372780330E+03 -0.36750814989E+02 -0.37965372816E+03  0.66231608300E+03  0.91157282095E+02 0.  0.
          1    1    3    3  502    0 -0.94745431389E+02 -0.11532870425E+03 -0.43244527064E+03  0.45747821685E+03  0.00000000000E+00 0. -1.
         -2    1    3    3    0  502 -0.18491225462E+03 -0.23189070281E+03 -0.57758948743E+03  0.64928842277E+03  0.00000000000E+00 0.  1.
         11    1    5    5    0    0 -0.20384131897E+03  0.29105641471E+03 -0.17675765423E+03  0.39687326464E+03  0.00000000000E+00 0. -1.
        -11    1    5    5    0    0 -0.50228798324E+02  0.92913807338E+02 -0.10396221334E+03  0.14820273134E+03  0.00000000000E+00 0.  1.
          4    1    6    6  503    0  0.14042040438E+03 -0.49486341439E+02 -0.94423939580E+02  0.17630277457E+03  0.00000000000E+00 0.  1.
         -4    1    6    6    0  503  0.39330739892E+03  0.12735526451E+02 -0.28522978858E+03  0.48601330843E+03  0.00000000000E+00 0. -1.
<mgrwt>
<rscale>  0 0.16015825E+04</rscale>
<asrwt>0</asrwt>
<pdfrwt beam="1">  1        1 0.30650516E+00 0.16015825E+04</pdfrwt>
<pdfrwt beam="2">  1       -2 0.49519259E-01 0.16015825E+04</pdfrwt>
<totfact> 0.98093964E+00</totfact>
</mgrwt>
</event>
<event>
12    4  0.4381187E-008  0.1660792E+04  0.7818608E-02  0.8784048E-01
         -2   -1    0    0    0  501 -0.00000000000E+00  0.00000000000E+00  0.50554875561E+03  0.50554875561E+03  0.00000000000E+00 0.  1.
          1   -1    0    0  501    0  0.00000000000E+00 -0.00000000000E+00 -0.13639782990E+04  0.13639782990E+04  0.00000000000E+00 0. -1.
        -24    2    1    2    0    0 -0.19776496519E+03 -0.22579757481E+03 -0.86339685844E+03  0.91704658099E+03  0.73653039873E+02 0.  0.
        254    2    1    2    0    0  0.19776496519E+03  0.22579757481E+03  0.49673150654E+01  0.95248047360E+03  0.90393520350E+03 0.  0.
         23    2    4    4    0    0  0.22013653574E+03  0.89204443051E+02  0.42746146142E+03  0.49628998531E+03  0.84634044512E+02 0.  0.
         23    2    4    4    0    0 -0.22371570543E+02  0.13659313176E+03 -0.42249414635E+03  0.45619048829E+03  0.10222664572E+03 0.  0.
          3    1    3    3  502    0 -0.16726065707E+03 -0.18417208923E+03 -0.78243627008E+03  0.82103715056E+03  0.00000000000E+00 0. -1.
         -4    1    3    3    0  502 -0.30504308121E+02 -0.41625485579E+02 -0.80960588363E+02  0.96009430431E+02  0.00000000000E+00 0.  1.
         11    1    5    5    0    0  0.19132940255E+03  0.86136095501E+02  0.41443860646E+03  0.46452742196E+03  0.00000000000E+00 0.  1.
        -11    1    5    5    0    0  0.28807133185E+02  0.30683475502E+01  0.13022854960E+02  0.31762563346E+02  0.00000000000E+00 0. -1.
          3    1    6    6  503    0 -0.42722802839E+02  0.10913719185E+02 -0.12693685740E+03  0.13437750153E+03  0.00000000000E+00 0. -1.
         -3    1    6    6    0  503  0.20351232295E+02  0.12567941257E+03 -0.29555728895E+03  0.32181298677E+03  0.00000000000E+00 0.  1.
<mgrwt>
<rscale>  0 0.16607920E+04</rscale>
<asrwt>0</asrwt>
<pdfrwt beam="1">  1        1 0.20984281E+00 0.16607920E+04</pdfrwt>
<pdfrwt beam="2">  1       -2 0.77776732E-01 0.16607920E+04</pdfrwt>
<totfact> 0.10047107E+01</totfact>
</mgrwt>
</event>
<event>
12    4  0.4381187E-008  0.1569068E+04  0.7818608E-02  0.8839779E-01
         -4   -1    0    0    0  501 -0.00000000000E+00  0.00000000000E+00  0.12192201486E+04  0.12192201486E+04  0.00000000000E+00 0.  1.
          3   -1    0    0  501    0  0.00000000000E+00 -0.00000000000E+00 -0.50482552008E+03  0.50482552008E+03  0.00000000000E+00 0. -1.
        -24    2    1    2    0    0 -0.18758739332E+03  0.14383076602E+03 -0.27125338564E+03  0.36862145299E+03  0.80168927875E+02 0.  0.
        254    2    1    2    0    0  0.18758739332E+03 -0.14383076602E+03  0.98564801417E+03  0.13554242157E+04  0.89988692472E+03 0.  0.
         23    2    4    4    0    0 -0.34187487363E+03 -0.37949543666E+02  0.55203313800E+03  0.65687954177E+03  0.91823471242E+02 0.  0.
         23    2    4    4    0    0  0.52946226695E+03 -0.10588122235E+03  0.43361487617E+03  0.69854467393E+03  0.91660652782E+02 0.  0.
          1    1    3    3  502    0 -0.17869475330E+03  0.11154797608E+03 -0.20275761512E+03  0.29237889170E+03  0.00000000000E+00 0. -1.
         -2    1    3    3    0  502 -0.88926400251E+01  0.32282789934E+02 -0.68495770517E+02  0.76242561285E+02  0.00000000000E+00 0.  1.
         11    1    5    5    0    0 -0.15663539395E+03  0.28194518905E+02  0.25709831272E+03  0.30237248542E+03  0.00000000000E+00 0.  1.
        -11    1    5    5    0    0 -0.18523947968E+03 -0.66144062571E+02  0.29493482528E+03  0.35450705635E+03  0.00000000000E+00 0. -1.
          1    1    6    6  503    0  0.21388386311E+03 -0.23112896782E+02  0.22500459075E+03  0.31129982132E+03  0.00000000000E+00 0. -1.
         -1    1    6    6    0  503  0.31557840384E+03 -0.82768325570E+02  0.20861028542E+03  0.38724485261E+03  0.00000000000E+00 0.  1.
<mgrwt>
<rscale>  0 0.15690678E+04</rscale>
<asrwt>0</asrwt>
<pdfrwt beam="1">  1        3 0.77665465E-01 0.15690678E+04</pdfrwt>
<pdfrwt beam="2">  1       -4 0.18757233E+00 0.15690678E+04</pdfrwt>
<totfact> 0.54472838E-01</totfact>
</mgrwt>
</event>
<event>
12    4  0.4381187E-008  0.1855423E+04  0.7818608E-02  0.8677369E-01
         -2   -1    0    0    0  501 -0.00000000000E+00  0.00000000000E+00  0.24686662294E+03  0.24686662294E+03  0.00000000000E+00 0.  1.
          1   -1    0    0  501    0  0.00000000000E+00 -0.00000000000E+00 -0.34862910270E+04  0.34862910270E+04  0.00000000000E+00 0. -1.
        -24    2    1    2    0    0 -0.56565093442E+03  0.42035216978E+03 -0.12402450742E+04  0.14287177665E+04  0.79810311923E+02 0.  0.
        254    2    1    2    0    0  0.56565093442E+03 -0.42035216978E+03 -0.19991793299E+04  0.23044398835E+04  0.90391828026E+03 0.  0.
         23    2    4    4    0    0  0.43352638515E+03 -0.59616254420E+03 -0.84150210701E+03  0.11225867501E+04  0.93382598265E+02 0.  0.
         23    2    4    4    0    0  0.13212454926E+03  0.17581037442E+03 -0.11576772229E+04  0.11818531334E+04  0.90521225735E+02 0.  0.
          3    1    3    3  502    0 -0.22813402041E+03  0.16566474128E+03 -0.57625044970E+03  0.64152515037E+03  0.00000000000E+00 0. -1.
         -4    1    3    3    0  502 -0.33751691401E+03  0.25468742850E+03 -0.66399462451E+03  0.78719261611E+03  0.00000000000E+00 0.  1.
         11    1    5    5    0    0  0.27317034242E+03 -0.36247240186E+03 -0.58419273331E+03  0.73979012411E+03  0.00000000000E+00 0. -1.
        -11    1    5    5    0    0  0.16035604274E+03 -0.23369014234E+03 -0.25730937370E+03  0.38279662598E+03  0.00000000000E+00 0.  1.
          4    1    6    6  503    0  0.66553546839E+02  0.23626264111E+02 -0.28828375900E+03  0.29680818832E+03  0.00000000000E+00 0.  1.
         -4    1    6    6    0  503  0.65571002425E+02  0.15218411030E+03 -0.86939346387E+03  0.88504494508E+03  0.00000000000E+00 0. -1.
<mgrwt>
<rscale>  0 0.18554233E+04</rscale>
<asrwt>0</asrwt>
<pdfrwt beam="1">  1        1 0.53635248E+00 0.18554233E+04</pdfrwt>
<pdfrwt beam="2">  1       -2 0.37979479E-01 0.18554233E+04</pdfrwt>
<totfact> 0.13910786E+00</totfact>
</mgrwt>
</event>
<event>
12    4  0.4381187E-008  0.1090129E+04  0.7818608E-02  0.9214867E-01
          1   -1    0    0  501    0  0.00000000000E+00  0.00000000000E+00  0.22186301514E+04  0.22186301514E+04  0.00000000000E+00 0. -1.
         -2   -1    0    0    0  501 -0.00000000000E+00 -0.00000000000E+00 -0.13390923224E+03  0.13390923224E+03  0.00000000000E+00 0.  1.
        -24    2    1    2    0    0  0.11007400466E+02 -0.14156528835E+03  0.20930280403E+03  0.26554593144E+03  0.80901694647E+02 0.  0.
        254    2    1    2    0    0 -0.11007400466E+02  0.14156528835E+03  0.18754181151E+04  0.20869934522E+04  0.90453671524E+03 0.  0.
         23    2    4    4    0    0  0.39200626944E+03  0.40302861250E+02  0.47577373114E+03  0.62388397457E+03  0.87047886697E+02 0.  0.
         23    2    4    4    0    0 -0.40301366991E+03  0.10126242710E+03  0.13996443840E+04  0.14631094776E+04  0.94925468678E+02 0.  0.
          3    1    3    3  502    0  0.19956081009E+02 -0.14194320353E+01  0.46019689523E+02  0.50180392389E+02  0.00000000000E+00 0. -1.
         -4    1    3    3    0  502 -0.89486805427E+01 -0.14014585632E+03  0.16328311451E+03  0.21536553905E+03  0.00000000000E+00 0.  1.
         11    1    5    5    0    0  0.31314134539E+03 -0.21035913593E+01  0.35225791686E+03  0.47132533062E+03  0.00000000000E+00 0.  1.
        -11    1    5    5    0    0  0.78864924048E+02  0.42406452609E+02  0.12351581428E+03  0.15255864395E+03  0.00000000000E+00 0. -1.
          2    1    6    6  503    0 -0.60002511382E+00  0.73934611067E+01  0.61377368471E+01  0.96278300191E+01  0.00000000000E+00 0. -1.
         -2    1    6    6    0  503 -0.40241364479E+03  0.93868965998E+02  0.13935066471E+04  0.14534816476E+04  0.00000000000E+00 0.  1.
<mgrwt>
<rscale>  0 0.10901285E+04</rscale>
<asrwt>0</asrwt>
<pdfrwt beam="1">  1        1 0.34132769E+00 0.10901285E+04</pdfrwt>
<pdfrwt beam="2">  1       -2 0.20601422E-01 0.10901285E+04</pdfrwt>
<totfact> 0.37775039E+01</totfact>
</mgrwt>
</event>
<event>
12    4  0.4381187E-008  0.1261084E+04  0.7818608E-02  0.9061008E-01
          1   -1    0    0  501    0  0.00000000000E+00  0.00000000000E+00  0.61905902379E+03  0.61905902379E+03  0.00000000000E+00 0. -1.
         -2   -1    0    0    0  501 -0.00000000000E+00 -0.00000000000E+00 -0.64223786994E+03  0.64223786994E+03  0.00000000000E+00 0.  1.
        -24    2    1    2    0    0 -0.93300807344E+02 -0.49415597033E+02  0.27763537249E+03  0.30733805724E+03  0.78919829492E+02 0.  0.
        254    2    1    2    0    0  0.93300807344E+02  0.49415597033E+02 -0.30081421864E+03  0.95395883650E+03  0.89911140896E+03 0.  0.
         23    2    4    4    0    0 -0.30836284072E+03 -0.23048277130E+03 -0.56888466902E+02  0.39974015984E+03  0.91356161911E+02 0.  0.
         23    2    4    4    0    0  0.40166364807E+03  0.27989836833E+03 -0.24392575173E+03  0.55421867665E+03  0.89340844063E+02 0.  0.
          3    1    3    3  502    0 -0.90210242489E+02 -0.28095758136E+02  0.26717565094E+03  0.28339034552E+03  0.00000000000E+00 0. -1.
         -4    1    3    3    0  502 -0.30905648552E+01 -0.21319838898E+02  0.10459721546E+02  0.23947711719E+02  0.00000000000E+00 0.  1.
         11    1    5    5    0    0 -0.24323979313E+03 -0.17355790600E+03 -0.49560775677E+01  0.29885198076E+03  0.00000000000E+00 0.  1.
        -11    1    5    5    0    0 -0.65123047593E+02 -0.56924865295E+02 -0.51932389335E+02  0.10088817908E+03  0.00000000000E+00 0. -1.
          4    1    6    6  503    0  0.23371714587E+03  0.13497612684E+03 -0.17605415450E+03  0.32223799343E+03  0.00000000000E+00 0. -1.
         -4    1    6    6    0  503  0.16794650220E+03  0.14492224149E+03 -0.67871597232E+02  0.23198068322E+03  0.00000000000E+00 0.  1.
<mgrwt>
<rscale>  0 0.12610839E+04</rscale>
<asrwt>0</asrwt>
<pdfrwt beam="1">  1        1 0.95239850E-01 0.12610839E+04</pdfrwt>
<pdfrwt beam="2">  1       -2 0.98805826E-01 0.12610839E+04</pdfrwt>
<totfact> 0.23987388E+01</totfact>
</mgrwt>
</event>
<event>
12    4  0.4381187E-008  0.2120672E+04  0.7818608E-02  0.8552191E-01
          1   -1    0    0  501    0  0.00000000000E+00  0.00000000000E+00  0.14962295079E+04  0.14962295079E+04  0.00000000000E+00 0. -1.
         -2   -1    0    0    0  501 -0.00000000000E+00 -0.00000000000E+00 -0.75143080924E+03  0.75143080924E+03  0.00000000000E+00 0.  1.
        -24    2    1    2    0    0  0.98862564114E+02  0.79579678561E+03 -0.40959538833E+02  0.80692147503E+03  0.79863962255E+02 0.  0.
        254    2    1    2    0    0 -0.98862564114E+02 -0.79579678561E+03  0.78575823752E+03  0.14407388421E+04  0.90290978111E+03 0.  0.
         23    2    4    4    0    0 -0.14397243062E+03 -0.97784279688E+03  0.68582237995E+03  0.12064332775E+04  0.90688037514E+02 0.  0.
         23    2    4    4    0    0  0.45109866509E+02  0.18204601127E+03  0.99935857573E+02  0.23430556458E+03  0.98672547815E+02 0.  0.
          3    1    3    3  502    0  0.63434002774E+02  0.23473037041E+03  0.12678814136E+01  0.24315391633E+03  0.00000000000E+00 0. -1.
         -4    1    3    3    0  502  0.35428561340E+02  0.56106641520E+03 -0.42227420246E+02  0.56376755870E+03  0.00000000000E+00 0.  1.
         11    1    5    5    0    0 -0.12787842570E+03 -0.92982916112E+03  0.67067521186E+03  0.11535772191E+04  0.00000000000E+00 0. -1.
        -11    1    5    5    0    0 -0.16094004918E+02 -0.48013635759E+02  0.15147168086E+02  0.52856058443E+02  0.00000000000E+00 0.  1.
          3    1    6    6  503    0  0.70481020222E+02  0.16627823622E+03  0.75634066666E+02  0.19579718612E+03  0.00000000000E+00 0. -1.
         -3    1    6    6    0  503 -0.25371153713E+02  0.15767775043E+02  0.24301790907E+02  0.38508378463E+02  0.00000000000E+00 0.  1.
<mgrwt>
<rscale>  0 0.21206725E+04</rscale>
<asrwt>0</asrwt>
<pdfrwt beam="1">  1        1 0.23018916E+00 0.21206725E+04</pdfrwt>
<pdfrwt beam="2">  1       -2 0.11560474E+00 0.21206725E+04</pdfrwt>
<totfact> 0.30874617E+00</totfact>
</mgrwt>
</event>
<event>
12    4  0.4381187E-008  0.1481991E+04  0.7818608E-02  0.8896518E-01
          1   -1    0    0  501    0  0.00000000000E+00  0.00000000000E+00  0.70459420572E+03  0.70459420572E+03  0.00000000000E+00 0. -1.
         -2   -1    0    0    0  501 -0.00000000000E+00 -0.00000000000E+00 -0.77927730684E+03  0.77927730684E+03  0.00000000000E+00 0.  1.
        -24    2    1    2    0    0 -0.41008851004E+03 -0.17216271008E+03  0.24524830385E+02  0.45285121217E+03  0.81609853888E+02 0.  0.
        254    2    1    2    0    0  0.41008851004E+03  0.17216271008E+03 -0.99207931511E+02  0.10310203004E+04  0.92485029131E+03 0.  0.
         23    2    4    4    0    0  0.66027908984E+03  0.25451770811E+02  0.87979906969E+02  0.67313931769E+03  0.93593845290E+02 0.  0.
         23    2    4    4    0    0 -0.25019057980E+03  0.14671093927E+03 -0.18718783848E+03  0.35788098270E+03  0.94446201497E+02 0.  0.
          3    1    3    3  502    0 -0.19992265279E+02  0.82880665204E+01  0.67593216675E+01  0.22673137124E+02  0.00000000000E+00 0. -1.
         -4    1    3    3    0  502 -0.39009624476E+03 -0.18045077660E+03  0.17765508717E+02  0.43017807505E+03  0.00000000000E+00 0.  1.
         11    1    5    5    0    0  0.56188104720E+03  0.20767368144E+02  0.10818768296E+03  0.57257852695E+03  0.00000000000E+00 0. -1.
        -11    1    5    5    0    0  0.98398042640E+02  0.46844026669E+01 -0.20207775993E+02  0.10056079074E+03  0.00000000000E+00 0.  1.
          1    1    6    6  503    0 -0.20125808977E+03  0.95167021093E+02 -0.18029701742E+03  0.28647616846E+03  0.00000000000E+00 0. -1.
         -1    1    6    6    0  503 -0.48932490028E+02  0.51543918179E+02 -0.68908210584E+01  0.71404814238E+02  0.00000000000E+00 0.  1.
<mgrwt>
<rscale>  0 0.14819909E+04</rscale>
<asrwt>0</asrwt>
<pdfrwt beam="1">  1        1 0.10839911E+00 0.14819909E+04</pdfrwt>
<pdfrwt beam="2">  1       -2 0.11988882E+00 0.14819909E+04</pdfrwt>
<totfact> 0.12175198E+01</totfact>
</mgrwt>
</event>
<event>
12    4  0.4381187E-008  0.1486922E+04  0.7818608E-02  0.8893196E-01
         -2   -1    0    0    0  501 -0.00000000000E+00  0.00000000000E+00  0.68635228831E+03  0.68635228831E+03  0.00000000000E+00 0.  1.
          1   -1    0    0  501    0  0.00000000000E+00 -0.00000000000E+00 -0.80532170007E+03  0.80532170007E+03  0.00000000000E+00 0. -1.
        -24    2    1    2    0    0  0.34559786175E+02  0.26547040626E+03  0.33838143689E+03  0.43932096737E+03  0.82655914013E+02 0.  0.
        254    2    1    2    0    0 -0.34559786175E+02 -0.26547040626E+03 -0.45735084865E+03  0.10523530210E+04  0.90917994185E+03 0.  0.
         23    2    4    4    0    0  0.15025636839E+03  0.10831740530E+03  0.18542848808E+03  0.28079720822E+03  0.10076562618E+03 0.  0.
         23    2    4    4    0    0 -0.18481615457E+03 -0.37378781155E+03 -0.64277933672E+03  0.77155581280E+03  0.90877706225E+02 0.  0.
          1    1    3    3  502    0  0.75276092214E+01  0.37328998800E+02  0.10563239512E+03  0.11228678440E+03  0.00000000000E+00 0. -1.
         -2    1    3    3    0  502  0.27032176954E+02  0.22814140746E+03  0.23274904177E+03  0.32703418297E+03  0.00000000000E+00 0.  1.
         11    1    5    5    0    0  0.16465540610E+03  0.94383055620E+02  0.17523738089E+03  0.25831706023E+03  0.00000000000E+00 0. -1.
        -11    1    5    5    0    0 -0.14399037704E+02  0.13934349679E+02  0.10191107188E+02  0.22480147987E+02  0.00000000000E+00 0.  1.
          3    1    6    6  503    0 -0.16422273541E+03 -0.35583935206E+03 -0.62863988301E+03  0.74079609462E+03  0.00000000000E+00 0. -1.
         -3    1    6    6    0  503 -0.20593419160E+02 -0.17948459495E+02 -0.14139453716E+02  0.30759718177E+02  0.00000000000E+00 0.  1.
<mgrwt>
<rscale>  0 0.14869222E+04</rscale>
<asrwt>0</asrwt>
<pdfrwt beam="1">  1        1 0.12389565E+00 0.14869222E+04</pdfrwt>
<pdfrwt beam="2">  1       -2 0.10559266E+00 0.14869222E+04</pdfrwt>
<totfact> 0.13457455E+01</totfact>
</mgrwt>
</event>
<event>
12    4  0.4381187E-008  0.1228275E+04  0.7818608E-02  0.9088461E-01
         -2   -1    0    0    0  501 -0.00000000000E+00  0.00000000000E+00  0.12384061554E+04  0.12384061554E+04  0.00000000000E+00 0.  1.
          1   -1    0    0  501    0  0.00000000000E+00 -0.00000000000E+00 -0.30455688991E+03  0.30455688991E+03  0.00000000000E+00 0. -1.
        -24    2    1    2    0    0 -0.15792905109E+03  0.12731127992E+03 -0.15480988874E+02  0.21875185535E+03  0.80392574473E+02 0.  0.
        254    2    1    2    0    0  0.15792905109E+03 -0.12731127992E+03  0.94933025434E+03  0.13242111899E+04  0.90064287960E+03 0.  0.
         23    2    4    4    0    0 -0.32912018152E+03  0.16431698112E+02  0.15264219355E+03  0.37479045335E+03  0.92618303154E+02 0.  0.
         23    2    4    4    0    0  0.48704923261E+03 -0.14374297803E+03  0.79668806078E+03  0.94942073658E+03  0.93855581311E+02 0.  0.
          1    1    3    3  502    0 -0.12938710676E+03  0.13659042406E+03 -0.14921026246E+02  0.18873421620E+03  0.00000000000E+00 0. -1.
         -2    1    3    3    0  502 -0.28541944325E+02 -0.92791441411E+01 -0.55996262728E+00  0.30017639147E+02  0.00000000000E+00 0.  1.
         11    1    5    5    0    0 -0.18153610833E+02  0.17861281621E+02 -0.52952400578E+01  0.26011892178E+02  0.00000000000E+00 0.  1.
        -11    1    5    5    0    0 -0.31096657069E+03 -0.14295835096E+01  0.15793743361E+03  0.34877856117E+03  0.00000000000E+00 0. -1.
          4    1    6    6  503    0  0.32682960176E+03 -0.12587308278E+03  0.48157112185E+03  0.59545979457E+03  0.00000000000E+00 0. -1.
         -4    1    6    6    0  503  0.16021963085E+03 -0.17869895254E+02  0.31511693894E+03  0.35396094201E+03  0.00000000000E+00 0.  1.
<mgrwt>
<rscale>  0 0.12282754E+04</rscale>
<asrwt>0</asrwt>
<pdfrwt beam="1">  1        1 0.46854907E-01 0.12282754E+04</pdfrwt>
<pdfrwt beam="2">  1       -2 0.19052402E+00 0.12282754E+04</pdfrwt>
<totfact> 0.11383961E+01</totfact>
</mgrwt>
</event>
<event>
12    4  0.4381187E-008  0.1243574E+04  0.7818608E-02  0.9075549E-01
          1   -1    0    0  501    0  0.00000000000E+00  0.00000000000E+00  0.14667856930E+04  0.14667856930E+04  0.00000000000E+00 0. -1.
         -2   -1    0    0    0  501 -0.00000000000E+00 -0.00000000000E+00 -0.26358250173E+03  0.26358250173E+03  0.00000000000E+00 0.  1.
        -24    2    1    2    0    0 -0.62153453330E+02 -0.22403948313E+03  0.11192288577E+03  0.26714195680E+03  0.69147313469E+02 0.  0.
        254    2    1    2    0    0  0.62153453330E+02  0.22403948313E+03  0.10912803055E+04  0.14632262379E+04  0.94661585474E+03 0.  0.
         23    2    4    4    0    0 -0.36985420159E+03  0.29927391313E+03  0.35468456363E+03  0.60053790668E+03  0.92128346167E+02 0.  0.
         23    2    4    4    0    0  0.43200765492E+03 -0.75234429999E+02  0.73659574189E+03  0.86268833126E+03  0.96783451922E+02 0.  0.
          3    1    3    3  502    0 -0.19129176072E+02 -0.64423763337E+02  0.69061940779E+02  0.96363366088E+02  0.00000000000E+00 0. -1.
         -4    1    3    3    0  502 -0.43024277259E+02 -0.15961571979E+03  0.42860944988E+02  0.17077859071E+03  0.00000000000E+00 0.  1.
         11    1    5    5    0    0 -0.12249850066E+02 -0.30530339537E-01  0.29729598601E+02  0.32154452129E+02  0.00000000000E+00 0. -1.
        -11    1    5    5    0    0 -0.35760435153E+03  0.29930444347E+03  0.32495496503E+03  0.56838345455E+03  0.00000000000E+00 0.  1.
          2    1    6    6  503    0  0.31101812467E+02 -0.11523447538E+02  0.18979911768E+02  0.38214521227E+02  0.00000000000E+00 0. -1.
         -2    1    6    6    0  503  0.40090584246E+03 -0.63710982461E+02  0.71761583012E+03  0.82447381004E+03  0.00000000000E+00 0.  1.
<mgrwt>
<rscale>  0 0.12435740E+04</rscale>
<asrwt>0</asrwt>
<pdfrwt beam="1">  1        1 0.22565933E+00 0.12435740E+04</pdfrwt>
<pdfrwt beam="2">  1       -2 0.40551155E-01 0.12435740E+04</pdfrwt>
<totfact> 0.34381078E+01</totfact>
</mgrwt>
</event>
<event>
12    4  0.4381187E-008  0.4265311E+04  0.7818608E-02  0.7953064E-01
          1   -1    0    0  501    0  0.00000000000E+00  0.00000000000E+00  0.39890978561E+04  0.39890978561E+04  0.00000000000E+00 0. -1.
         -2   -1    0    0    0  501 -0.00000000000E+00 -0.00000000000E+00 -0.11401625454E+04  0.11401625454E+04  0.00000000000E+00 0.  1.
        -24    2    1    2    0    0  0.13264189859E+04 -0.11881488128E+04  0.25508674837E+04  0.31119938704E+04  0.80597781639E+02 0.  0.
        254    2    1    2    0    0 -0.13264189859E+04  0.11881488128E+04  0.29806782700E+03  0.20172665311E+04  0.89968600116E+03 0.  0.
         23    2    4    4    0    0 -0.10220455216E+04  0.32658708945E+03  0.15370808546E+03  0.10876841049E+04  0.90522710699E+02 0.  0.
         23    2    4    4    0    0 -0.30437346426E+03  0.86156172332E+03  0.14435974154E+03  0.92958242626E+03  0.91388967638E+02 0.  0.
          3    1    3    3  502    0  0.11206164868E+04 -0.10360572118E+04  0.21581120931E+04  0.26432259955E+04  0.00000000000E+00 0. -1.
         -4    1    3    3    0  502  0.20580249907E+03 -0.15209160097E+03  0.39275539057E+03  0.46876787489E+03  0.00000000000E+00 0.  1.
         11    1    5    5    0    0 -0.38527118336E+03  0.16915264368E+03  0.54848835648E+02  0.42432875976E+03  0.00000000000E+00 0.  1.
        -11    1    5    5    0    0 -0.63677433827E+03  0.15743444577E+03  0.98859249815E+02  0.66335534510E+03  0.00000000000E+00 0. -1.
          3    1    6    6  503    0 -0.17944289203E+03  0.62554018661E+03  0.11610875455E+03  0.66104577712E+03  0.00000000000E+00 0. -1.
         -3    1    6    6    0  503 -0.12493057222E+03  0.23602153671E+03  0.28250986989E+02  0.26853664914E+03  0.00000000000E+00 0.  1.
<mgrwt>
<rscale>  0 0.42653112E+04</rscale>
<asrwt>0</asrwt>
<pdfrwt beam="1">  1        1 0.61370735E+00 0.42653112E+04</pdfrwt>
<pdfrwt beam="2">  1       -2 0.17540963E+00 0.42653112E+04</pdfrwt>
<totfact> 0.12884271E-02</totfact>
</mgrwt>
</event>
<event>
12    4  0.4381187E-008  0.2054014E+04  0.7818608E-02  0.8581776E-01
         -2   -1    0    0    0  501 -0.00000000000E+00  0.00000000000E+00  0.46080775363E+03  0.46080775363E+03  0.00000000000E+00 0.  1.
          1   -1    0    0  501    0  0.00000000000E+00 -0.00000000000E+00 -0.22889004465E+04  0.22889004465E+04  0.00000000000E+00 0. -1.
        -24    2    1    2    0    0  0.11996910348E+03  0.79094351201E+03 -0.98619490353E+03  0.12722652655E+04  0.78065952537E+02 0.  0.
        254    2    1    2    0    0 -0.11996910348E+03 -0.79094351201E+03 -0.84189778938E+03  0.14774429347E+04  0.91326968231E+03 0.  0.
         23    2    4    4    0    0 -0.10107733063E+03 -0.81969822973E+03 -0.23760108264E+03  0.86507975484E+03  0.98928727736E+02 0.  0.
         23    2    4    4    0    0 -0.18891772854E+02  0.28754717721E+02 -0.60429670674E+03  0.61236317989E+03  0.92900061535E+02 0.  0.
          3    1    3    3  502    0  0.10567887654E+03  0.49150306748E+03 -0.58277708578E+03  0.76965734063E+03  0.00000000000E+00 0. -1.
         -4    1    3    3    0  502  0.14290226940E+02  0.29944044453E+03 -0.40341781775E+03  0.50260792482E+03  0.00000000000E+00 0.  1.
         11    1    5    5    0    0 -0.11286424912E+03 -0.62455630364E+03 -0.20446058196E+03  0.66679310489E+03  0.00000000000E+00 0.  1.
        -11    1    5    5    0    0  0.11786918489E+02 -0.19514192609E+03 -0.33140500686E+02  0.19828664995E+03  0.00000000000E+00 0. -1.
          4    1    6    6  503    0  0.11393656392E+02  0.56456313820E+02 -0.32437307401E+03  0.32944653879E+03  0.00000000000E+00 0.  1.
         -4    1    6    6    0  503 -0.30285429246E+02 -0.27701596100E+02 -0.27992363273E+03  0.28291664110E+03  0.00000000000E+00 0. -1.
<mgrwt>
<rscale>  0 0.20540137E+04</rscale>
<asrwt>0</asrwt>
<pdfrwt beam="1">  1        1 0.35213852E+00 0.20540137E+04</pdfrwt>
<pdfrwt beam="2">  1       -2 0.70893502E-01 0.20540137E+04</pdfrwt>
<totfact> 0.27779046E+00</totfact>
</mgrwt>
</event>
<event>
12    4  0.4381187E-008  0.4003524E+04  0.7818608E-02  0.8003836E-01
         -2   -1    0    0    0  501 -0.00000000000E+00  0.00000000000E+00  0.22817089667E+04  0.22817089667E+04  0.00000000000E+00 0.  1.
          1   -1    0    0  501    0  0.00000000000E+00 -0.00000000000E+00 -0.17561622736E+04  0.17561622736E+04  0.00000000000E+00 0. -1.
        -24    2    1    2    0    0 -0.79980203162E+03  0.21659955104E+03  0.19555778090E+04  0.21254189393E+04  0.80761657924E+02 0.  0.
        254    2    1    2    0    0  0.79980203162E+03 -0.21659955104E+03 -0.14300311158E+04  0.19124523010E+04  0.96222978338E+03 0.  0.
         23    2    4    4    0    0  0.13381927093E+03  0.35092515919E+03 -0.37988956654E+03  0.54207032461E+03  0.92022222487E+02 0.  0.
         23    2    4    4    0    0  0.66598276069E+03 -0.56752471022E+03 -0.10501415493E+04  0.13703819764E+04  0.97632747568E+02 0.  0.
          1    1    3    3  502    0 -0.15356515062E+02 -0.57198589954E+01  0.27173854422E+02  0.31732596899E+02  0.00000000000E+00 0. -1.
         -4    1    3    3    0  502 -0.78444551656E+03  0.22231941003E+03  0.19284039545E+04  0.20936863424E+04  0.00000000000E+00 0.  1.
         11    1    5    5    0    0  0.19941213951E+02  0.32214608557E+02 -0.70653581635E+01  0.38540268607E+02  0.00000000000E+00 0.  1.
        -11    1    5    5    0    0  0.11387805698E+03  0.31871055063E+03 -0.37282420838E+03  0.50353005600E+03  0.00000000000E+00 0. -1.
          1    1    6    6  503    0  0.62311850242E+03 -0.51961472710E+03 -0.10059738342E+04  0.12923851933E+04  0.00000000000E+00 0. -1.
         -1    1    6    6    0  503  0.42864258267E+02 -0.47909983128E+02 -0.44167715083E+02  0.77996783111E+02  0.00000000000E+00 0.  1.
<mgrwt>
<rscale>  0 0.40035241E+04</rscale>
<asrwt>0</asrwt>
<pdfrwt beam="1">  1        1 0.27017881E+00 0.40035241E+04</pdfrwt>
<pdfrwt beam="2">  1       -2 0.35103215E+00 0.40035241E+04</pdfrwt>
<totfact> 0.45957165E-02</totfact>
</mgrwt>
</event>
<event>
12    4  0.4381187E-008  0.2072586E+04  0.7818608E-02  0.8573416E-01
          1   -1    0    0  501    0  0.00000000000E+00  0.00000000000E+00  0.10182439354E+04  0.10182439354E+04  0.00000000000E+00 0. -1.
         -2   -1    0    0    0  501 -0.00000000000E+00 -0.00000000000E+00 -0.10546621176E+04  0.10546621176E+04  0.00000000000E+00 0.  1.
        -24    2    1    2    0    0 -0.23906630274E+03  0.56718134017E+03  0.50629441701E+03  0.80091552114E+03  0.79273359657E+02 0.  0.
        254    2    1    2    0    0  0.23906630274E+03 -0.56718134017E+03 -0.54271259926E+03  0.12719905318E+04  0.97189278107E+03 0.  0.
         23    2    4    4    0    0  0.14679487766E+03 -0.80247559214E+03 -0.57317203631E+03  0.10010753934E+04  0.90055249653E+02 0.  0.
         23    2    4    4    0    0  0.92271425079E+02  0.23529425196E+03  0.30459437058E+02  0.27091513841E+03  0.92681357470E+02 0.  0.
          1    1    3    3  502    0 -0.17994125723E+03  0.39703748518E+03  0.40084750602E+03  0.59219620378E+03  0.00000000000E+00 0. -1.
         -2    1    3    3    0  502 -0.59125045504E+02  0.17014385500E+03  0.10544691100E+03  0.20871931736E+03  0.00000000000E+00 0.  1.
         11    1    5    5    0    0  0.63667290777E+02 -0.16767986737E+03 -0.14801713369E+03  0.23254920705E+03  0.00000000000E+00 0. -1.
        -11    1    5    5    0    0  0.83127586880E+02 -0.63479572477E+03 -0.42515490263E+03  0.76852618635E+03  0.00000000000E+00 0.  1.
          3    1    6    6  503    0  0.26992156916E+02  0.73175315189E+02  0.53577883139E+02  0.94624483353E+02  0.00000000000E+00 0. -1.
         -3    1    6    6    0  503  0.65279268163E+02  0.16211893677E+03 -0.23118446081E+02  0.17629065506E+03  0.00000000000E+00 0.  1.
<mgrwt>
<rscale>  0 0.20725861E+04</rscale>
<asrwt>0</asrwt>
<pdfrwt beam="1">  1        1 0.15665291E+00 0.20725861E+04</pdfrwt>
<pdfrwt beam="2">  1       -2 0.16225571E+00 0.20725861E+04</pdfrwt>
<totfact> 0.28689907E+00</totfact>
</mgrwt>
</event>
<event>
12    4  0.4381187E-008  0.2428821E+04  0.7818608E-02  0.8428791E-01
         -4   -1    0    0    0  501 -0.00000000000E+00  0.00000000000E+00  0.10064666976E+04  0.10064666976E+04  0.00000000000E+00 0.  1.
          3   -1    0    0  501    0  0.00000000000E+00 -0.00000000000E+00 -0.14653174534E+04  0.14653174534E+04  0.00000000000E+00 0. -1.
        -24    2    1    2    0    0  0.48756025822E+03 -0.29180927640E+03 -0.10918238765E+04  0.12334718157E+04  0.80657817826E+02 0.  0.
        254    2    1    2    0    0 -0.48756025822E+03  0.29180927640E+03  0.63297312075E+03  0.12383123353E+04  0.89994155866E+03 0.  0.
         23    2    4    4    0    0 -0.50530931614E+02  0.29550609102E+03 -0.14199464492E+03  0.34407784737E+03  0.91377573756E+02 0.  0.
         23    2    4    4    0    0 -0.43702932660E+03 -0.36968146218E+01  0.77496776567E+03  0.89423448794E+03  0.89844214321E+02 0.  0.
          1    1    3    3  502    0  0.42570296788E+03 -0.22041485387E+03 -0.91893442418E+03  0.10364584896E+04  0.00000000000E+00 0. -1.
         -2    1    3    3    0  502  0.61857290337E+02 -0.71394422536E+02 -0.17288945234E+03  0.19701332612E+03  0.00000000000E+00 0.  1.
         11    1    5    5    0    0  0.12203775589E+02  0.13475185315E+03 -0.30711129502E+02  0.13874497303E+03  0.00000000000E+00 0. -1.
        -11    1    5    5    0    0 -0.62734707203E+02  0.16075423787E+03 -0.11128351542E+03  0.20533287434E+03  0.00000000000E+00 0.  1.
          4    1    6    6  503    0 -0.11213757570E+03 -0.24496047021E+02  0.27041727834E+03  0.29376929150E+03  0.00000000000E+00 0.  1.
         -4    1    6    6    0  503 -0.32489175090E+03  0.20799232399E+02  0.50455048733E+03  0.60046519644E+03  0.00000000000E+00 0. -1.
<mgrwt>
<rscale>  0 0.24288213E+04</rscale>
<asrwt>0</asrwt>
<pdfrwt beam="1">  1        3 0.22543345E+00 0.24288213E+04</pdfrwt>
<pdfrwt beam="2">  1       -4 0.15484103E+00 0.24288213E+04</pdfrwt>
<totfact> 0.57664750E-02</totfact>
</mgrwt>
</event>
<event>
12    4  0.4381187E-008  0.2529602E+04  0.7818608E-02  0.8392515E-01
          1   -1    0    0  501    0  0.00000000000E+00  0.00000000000E+00  0.15448146637E+04  0.15448146637E+04  0.00000000000E+00 0. -1.
         -2   -1    0    0    0  501 -0.00000000000E+00 -0.00000000000E+00 -0.10355428960E+04  0.10355428960E+04  0.00000000000E+00 0.  1.
        -24    2    1    2    0    0 -0.40351574875E+03 -0.60250149577E+03 -0.62831256526E+03  0.96275807954E+03  0.79331129874E+02 0.  0.
        254    2    1    2    0    0  0.40351574875E+03  0.60250149577E+03  0.11375843330E+04  0.16175994802E+04  0.89257882114E+03 0.  0.
         23    2    4    4    0    0 -0.19404854640E+03 -0.79841393266E+02  0.15004502998E+03  0.27364567266E+03  0.91317888186E+02 0.  0.
         23    2    4    4    0    0  0.59756429515E+03  0.68234288904E+03  0.98753930297E+03  0.13439538076E+04  0.91121111224E+02 0.  0.
          3    1    3    3  502    0 -0.23070158670E+03 -0.37192024181E+03 -0.42532530520E+03  0.61028641113E+03  0.00000000000E+00 0. -1.
         -4    1    3    3    0  502 -0.17281416205E+03 -0.23058125396E+03 -0.20298726006E+03  0.35247166841E+03  0.00000000000E+00 0.  1.
         11    1    5    5    0    0 -0.62799503698E+02 -0.74380575227E+02  0.68487820430E+02  0.11902448985E+03  0.00000000000E+00 0. -1.
        -11    1    5    5    0    0 -0.13124904270E+03 -0.54608180387E+01  0.81557209551E+02  0.15462118281E+03  0.00000000000E+00 0.  1.
          2    1    6    6  503    0  0.96428706405E+02  0.15687065755E+03  0.22964506487E+03  0.29435311182E+03  0.00000000000E+00 0. -1.
         -2    1    6    6    0  503  0.50113558874E+03  0.52547223149E+03  0.75789423810E+03  0.10496006957E+04  0.00000000000E+00 0.  1.
<mgrwt>
<rscale>  0 0.25296022E+04</rscale>
<asrwt>0</asrwt>
<pdfrwt beam="1">  1        1 0.23766379E+00 0.25296022E+04</pdfrwt>
<pdfrwt beam="2">  1       -2 0.15931429E+00 0.25296022E+04</pdfrwt>
<totfact> 0.12079674E+00</totfact>
</mgrwt>
</event>
<event>
12    4  0.4381187E-008  0.1331676E+04  0.7818608E-02  0.9004816E-01
          1   -1    0    0  501    0  0.00000000000E+00  0.00000000000E+00  0.11598789015E+04  0.11598789015E+04  0.00000000000E+00 0. -1.
         -2   -1    0    0    0  501 -0.00000000000E+00 -0.00000000000E+00 -0.38222986547E+03  0.38222986547E+03  0.00000000000E+00 0.  1.
        -24    2    1    2    0    0  0.29999854574E+03 -0.55059925168E+02  0.43965816280E+03  0.54088989734E+03  0.78942118819E+02 0.  0.
        254    2    1    2    0    0 -0.29999854574E+03  0.55059925168E+02  0.33799087322E+03  0.10012188696E+04  0.89172342780E+03 0.  0.
         23    2    4    4    0    0  0.11124002831E+03 -0.23611610724E+03 -0.13130297854E+03  0.30677045276E+03  0.93501222010E+02 0.  0.
         23    2    4    4    0    0 -0.41123857405E+03  0.29117603241E+03  0.46929385177E+03  0.69444841686E+03  0.90117910213E+02 0.  0.
          3    1    3    3  502    0  0.25749031372E+03 -0.28108530733E+02  0.32441000705E+03  0.41513034560E+03  0.00000000000E+00 0. -1.
         -4    1    3    3    0  502  0.42508232017E+02 -0.26951394435E+02  0.11524815575E+03  0.12575955174E+03  0.00000000000E+00 0.  1.
         11    1    5    5    0    0  0.66929954833E+02 -0.22023194476E+03 -0.10937953749E+03  0.25484428887E+03  0.00000000000E+00 0.  1.
        -11    1    5    5    0    0  0.44310073473E+02 -0.15884162475E+02 -0.21923441051E+02  0.51926163889E+02  0.00000000000E+00 0. -1.
          2    1    6    6  503    0 -0.14059820249E+03  0.12664268759E+03  0.22789746911E+03  0.29621526174E+03  0.00000000000E+00 0. -1.
         -2    1    6    6    0  503 -0.27064037156E+03  0.16453334482E+03  0.24139638266E+03  0.39823315512E+03  0.00000000000E+00 0.  1.
<mgrwt>
<rscale>  0 0.13316762E+04</rscale>
<asrwt>0</asrwt>
<pdfrwt beam="1">  1        1 0.17844291E+00 0.13316762E+04</pdfrwt>
<pdfrwt beam="2">  1       -2 0.58804595E-01 0.13316762E+04</pdfrwt>
<totfact> 0.26569898E+01</totfact>
</mgrwt>
</event>
<event>
12    4  0.4381187E-008  0.1813934E+04  0.7818608E-02  0.8698924E-01
          1   -1    0    0  501    0  0.00000000000E+00  0.00000000000E+00  0.30981029095E+04  0.30981029095E+04  0.00000000000E+00 0. -1.
         -2   -1    0    0    0  501 -0.00000000000E+00 -0.00000000000E+00 -0.26551381373E+03  0.26551381373E+03  0.00000000000E+00 0.  1.
        -24    2    1    2    0    0  0.51248797100E+03 -0.33985858246E+03  0.16067272885E+04  0.17222066232E+04  0.79216772585E+02 0.  0.
        254    2    1    2    0    0 -0.51248797100E+03  0.33985858246E+03  0.12258618073E+04  0.16414101000E+04  0.90185484935E+03 0.  0.
         23    2    4    4    0    0 -0.49864414129E+03  0.10929763301E+03  0.12857650499E+04  0.13864112013E+04  0.91390937138E+02 0.  0.
         23    2    4    4    0    0 -0.13843829714E+02  0.23056094945E+03 -0.59903242577E+02  0.25499889870E+03  0.89922393408E+02 0.  0.
          1    1    3    3  502    0  0.21712966507E+03 -0.12101692674E+03  0.74406075498E+03  0.78448505091E+03  0.00000000000E+00 0. -1.
         -2    1    3    3    0  502  0.29535830593E+03 -0.21884165572E+03  0.86266653351E+03  0.93772157232E+03  0.00000000000E+00 0.  1.
         11    1    5    5    0    0 -0.44618393702E+03  0.88801081960E+02  0.10556802101E+04  0.11495331416E+04  0.00000000000E+00 0.  1.
        -11    1    5    5    0    0 -0.52460204264E+02  0.20496551051E+02  0.23008483981E+03  0.23687805966E+03  0.00000000000E+00 0. -1.
          4    1    6    6  503    0  0.20195568917E+02  0.24301572577E+02  0.12189816525E+02  0.33867669842E+02  0.00000000000E+00 0.  1.
         -4    1    6    6    0  503 -0.34039398631E+02  0.20625937687E+03 -0.72093059102E+02  0.22113122886E+03  0.00000000000E+00 0. -1.
<mgrwt>
<rscale>  0 0.18139340E+04</rscale>
<asrwt>0</asrwt>
<pdfrwt beam="1">  1        1 0.47663119E+00 0.18139340E+04</pdfrwt>
<pdfrwt beam="2">  1       -2 0.40848281E-01 0.18139340E+04</pdfrwt>
<totfact> 0.23873529E+00</totfact>
</mgrwt>
</event>
<event>
12    4  0.4381187E-008  0.2557914E+04  0.7818608E-02  0.8382639E-01
          1   -1    0    0  501    0  0.00000000000E+00  0.00000000000E+00  0.29732106650E+04  0.29732106650E+04  0.00000000000E+00 0. -1.
         -2   -1    0    0    0  501 -0.00000000000E+00 -0.00000000000E+00 -0.55015640025E+03  0.55015640025E+03  0.00000000000E+00 0.  1.
        -24    2    1    2    0    0  0.13333417880E+03 -0.10659824672E+04  0.14761352814E+04  0.18274905525E+04  0.81545858135E+02 0.  0.
        254    2    1    2    0    0 -0.13333417880E+03  0.10659824672E+04  0.94691898332E+03  0.16958765127E+04  0.90842994321E+03 0.  0.
         23    2    4    4    0    0 -0.11125785279E+03  0.12070326018E+04  0.91805190195E+03  0.15232484114E+04  0.90335023683E+02 0.  0.
         23    2    4    4    0    0 -0.22076326012E+02 -0.14105013457E+03  0.28867081371E+02  0.17262810133E+03  0.92653377432E+02 0.  0.
          3    1    3    3  502    0  0.93006656217E+02 -0.72325226934E+03  0.93598223746E+03  0.11865103590E+04  0.00000000000E+00 0. -1.
         -4    1    3    3    0  502  0.40327522586E+02 -0.34273019786E+03  0.54015304394E+03  0.64098019351E+03  0.00000000000E+00 0.  1.
         11    1    5    5    0    0 -0.22608525567E+02  0.90077636955E+02  0.47349928213E+02  0.10424558412E+03  0.00000000000E+00 0.  1.
        -11    1    5    5    0    0 -0.88649327224E+02  0.11169549648E+04  0.87070197374E+03  0.14190028272E+04  0.00000000000E+00 0. -1.
          3    1    6    6  503    0 -0.50743184128E+02 -0.87089126515E+02  0.43527671716E+02  0.10979091446E+03  0.00000000000E+00 0.  1.
         -3    1    6    6    0  503  0.28666858117E+02 -0.53961008058E+02 -0.14660590345E+02  0.62837186874E+02  0.00000000000E+00 0. -1.
<mgrwt>
<rscale>  0 0.25579139E+04</rscale>
<asrwt>0</asrwt>
<pdfrwt beam="1">  1        1 0.45741702E+00 0.25579139E+04</pdfrwt>
<pdfrwt beam="2">  1       -2 0.84639448E-01 0.25579139E+04</pdfrwt>
<totfact> 0.59123353E-01</totfact>
</mgrwt>
</event>
<event>
12    4  0.4381187E-008  0.1812518E+04  0.7818608E-02  0.8699671E-01
          1   -1    0    0  501    0  0.00000000000E+00  0.00000000000E+00  0.54353455943E+03  0.54353455943E+03  0.00000000000E+00 0. -1.
         -4   -1    0    0    0  501 -0.00000000000E+00 -0.00000000000E+00 -0.15110448851E+04  0.15110448851E+04  0.00000000000E+00 0.  1.
        -24    2    1    2    0    0 -0.29870097387E+03 -0.30250425816E+03 -0.89122819466E+03  0.99071242113E+03  0.80574862278E+02 0.  0.
        254    2    1    2    0    0  0.29870097387E+03  0.30250425816E+03 -0.76282131056E+02  0.10638670234E+04  0.97224635873E+03 0.  0.
         23    2    4    4    0    0 -0.18315020785E+03  0.17481171545E+03 -0.38541020471E+03  0.47034609937E+03  0.92635267621E+02 0.  0.
         23    2    4    4    0    0  0.48185118172E+03  0.12769254271E+03  0.30912807365E+03  0.59352092408E+03  0.90669590328E+02 0.  0.
          3    1    3    3  502    0 -0.33977868933E+02 -0.50216894267E+01 -0.77629325815E+02  0.84888309963E+02  0.00000000000E+00 0. -1.
         -4    1    3    3    0  502 -0.26472310494E+03 -0.29748256873E+03 -0.81359886884E+03  0.90582411116E+03  0.00000000000E+00 0.  1.
         11    1    5    5    0    0  0.60864815109E-01  0.45069053501E+02 -0.61715161273E+02  0.76419790755E+02  0.00000000000E+00 0. -1.
        -11    1    5    5    0    0 -0.18321107266E+03  0.12974266194E+03 -0.32369504343E+03  0.39392630861E+03  0.00000000000E+00 0.  1.
          1    1    6    6  503    0  0.18618776026E+03  0.41927275399E+01  0.11207943708E+03  0.21735975076E+03  0.00000000000E+00 0. -1.
         -1    1    6    6    0  503  0.29566342146E+03  0.12349981517E+03  0.19704863657E+03  0.37616117332E+03  0.00000000000E+00 0.  1.
<mgrwt>
<rscale>  0 0.18125177E+04</rscale>
<asrwt>0</asrwt>
<pdfrwt beam="1">  1        1 0.83620702E-01 0.18125177E+04</pdfrwt>
<pdfrwt beam="2">  1       -4 0.23246844E+00 0.18125177E+04</pdfrwt>
<totfact> 0.14458902E+00</totfact>
</mgrwt>
</event>
<event>
12    4  0.4381187E-008  0.1132581E+04  0.7818608E-02  0.9174006E-01
          1   -1    0    0  501    0  0.00000000000E+00  0.00000000000E+00  0.21466640334E+04  0.21466640334E+04  0.00000000000E+00 0. -1.
         -2   -1    0    0    0  501 -0.00000000000E+00 -0.00000000000E+00 -0.14938746944E+03  0.14938746944E+03  0.00000000000E+00 0.  1.
        -24    2    1    2    0    0  0.11204016726E+03 -0.89696487074E+02  0.99527889312E+02  0.19219795038E+03  0.80223391267E+02 0.  0.
        254    2    1    2    0    0 -0.11204016726E+03  0.89696487074E+02  0.18977486747E+04  0.21038535525E+04  0.89674482389E+03 0.  0.
         23    2    4    4    0    0 -0.20181602561E+03  0.45934595533E+03  0.12047520850E+04  0.13081772991E+04  0.90398256293E+02 0.  0.
         23    2    4    4    0    0  0.89775858348E+02 -0.36964946826E+03  0.69299658970E+03  0.79567625338E+03  0.90310535018E+02 0.  0.
          1    1    3    3  502    0  0.81313640032E+01 -0.15365075793E+02  0.53740888915E+02  0.56482632517E+02  0.00000000000E+00 0. -1.
         -2    1    3    3    0  502  0.10390880326E+03 -0.74331411282E+02  0.45787000397E+02  0.13571531786E+03  0.00000000000E+00 0.  1.
         11    1    5    5    0    0 -0.61124314011E+02  0.24720119477E+03  0.63421875594E+03  0.68343108127E+03  0.00000000000E+00 0. -1.
        -11    1    5    5    0    0 -0.14069171160E+03  0.21214476056E+03  0.57053332902E+03  0.62474621781E+03  0.00000000000E+00 0.  1.
          2    1    6    6  503    0  0.19147147754E+02 -0.25889507313E+03  0.46260651711E+03  0.53046966156E+03  0.00000000000E+00 0. -1.
         -2    1    6    6    0  503  0.70628710595E+02 -0.11075439513E+03  0.23039007259E+03  0.26520659183E+03  0.00000000000E+00 0.  1.
<mgrwt>
<rscale>  0 0.11325806E+04</rscale>
<asrwt>0</asrwt>
<pdfrwt beam="1">  1        1 0.33025598E+00 0.11325806E+04</pdfrwt>
<pdfrwt beam="2">  1       -2 0.22982689E-01 0.11325806E+04</pdfrwt>
<totfact> 0.34660884E+01</totfact>
</mgrwt>
</event>
<event>
12    4  0.4381187E-008  0.2334646E+04  0.7818608E-02  0.8464384E-01
         -2   -1    0    0    0  501 -0.00000000000E+00  0.00000000000E+00  0.11587471823E+04  0.11587471823E+04  0.00000000000E+00 0.  1.
          1   -1    0    0  501    0  0.00000000000E+00 -0.00000000000E+00 -0.11759627557E+04  0.11759627557E+04  0.00000000000E+00 0. -1.
        -24    2    1    2    0    0  0.78398125585E+03 -0.54757746082E+02  0.59728370867E+03  0.99033679217E+03  0.79963197865E+02 0.  0.
        254    2    1    2    0    0 -0.78398125585E+03  0.54757746082E+02 -0.61449928209E+03  0.13443731458E+04  0.90116855648E+03 0.  0.
         23    2    4    4    0    0 -0.64256986308E+03 -0.17843481857E+03 -0.76426741850E+03  0.10195856234E+04  0.10351397527E+03 0.  0.
         23    2    4    4    0    0 -0.14141139277E+03  0.23319256465E+03  0.14976813642E+03  0.32478752239E+03  0.93169124717E+02 0.  0.
          3    1    3    3  502    0  0.28969420195E+02  0.57692779020E+01  0.78120551650E+01  0.30553888130E+02  0.00000000000E+00 0. -1.
         -4    1    3    3    0  502  0.75501183565E+03 -0.60527023984E+02  0.58947165351E+03  0.95978290404E+03  0.00000000000E+00 0.  1.
         11    1    5    5    0    0 -0.63240824449E+03 -0.18162543611E+03 -0.76484630222E+03  0.10089191508E+04  0.00000000000E+00 0.  1.
        -11    1    5    5    0    0 -0.10161618592E+02  0.31906175467E+01  0.57888371346E+00  0.10666472664E+02  0.00000000000E+00 0. -1.
          3    1    6    6  503    0 -0.88167087486E+02  0.85929978189E+02  0.27586102336E+02  0.12616810021E+03  0.00000000000E+00 0. -1.
         -3    1    6    6    0  503 -0.53244305281E+02  0.14726258646E+03  0.12218203408E+03  0.19861942218E+03  0.00000000000E+00 0.  1.
<mgrwt>
<rscale>  0 0.23346465E+04</rscale>
<asrwt>0</asrwt>
<pdfrwt beam="1">  1        1 0.18091735E+00 0.23346465E+04</pdfrwt>
<pdfrwt beam="2">  1       -2 0.17826880E+00 0.23346465E+04</pdfrwt>
<totfact> 0.16401328E+00</totfact>
</mgrwt>
</event>
<event>
12    4  0.4381187E-008  0.1272160E+04  0.7818608E-02  0.9051939E-01
         -2   -1    0    0    0  501 -0.00000000000E+00  0.00000000000E+00  0.12576827480E+03  0.12576827480E+03  0.00000000000E+00 0.  1.
          1   -1    0    0  501    0  0.00000000000E+00 -0.00000000000E+00 -0.32170086922E+04  0.32170086922E+04  0.00000000000E+00 0. -1.
        -24    2    1    2    0    0  0.23006171256E+03 -0.69062442609E+02 -0.27416304723E+03  0.37316713600E+03  0.79939491867E+02 0.  0.
        254    2    1    2    0    0 -0.23006171256E+03  0.69062442609E+02 -0.28170773702E+04  0.29696098310E+04  0.90827288098E+03 0.  0.
         23    2    4    4    0    0 -0.38782679446E+03 -0.29932412553E+03 -0.11674297871E+04  0.12695281922E+04  0.93834792329E+02 0.  0.
         23    2    4    4    0    0  0.15776508189E+03  0.36838656814E+03 -0.16496475831E+04  0.17000816388E+04  0.91334253060E+02 0.  0.
          1    1    3    3  502    0  0.19152894618E+03 -0.32288428004E+02 -0.24429743008E+03  0.31210112808E+03  0.00000000000E+00 0. -1.
         -2    1    3    3    0  502  0.38532766381E+02 -0.36774014605E+02 -0.29865617146E+02  0.61066007914E+02  0.00000000000E+00 0.  1.
         11    1    5    5    0    0 -0.30253076466E+03 -0.27208771885E+03 -0.90549764537E+03  0.99271475061E+03  0.00000000000E+00 0. -1.
        -11    1    5    5    0    0 -0.85296029797E+02 -0.27236406685E+02 -0.26193214178E+03  0.27681344159E+03  0.00000000000E+00 0.  1.
          1    1    6    6  503    0  0.68215904836E+02  0.25617672697E+03 -0.98047557058E+03  0.10156831541E+04  0.00000000000E+00 0. -1.
         -1    1    6    6    0  503  0.89549177058E+02  0.11220984117E+03 -0.66917201247E+03  0.68439848469E+03  0.00000000000E+00 0.  1.
<mgrwt>
<rscale>  0 0.12721598E+04</rscale>
<asrwt>0</asrwt>
<pdfrwt beam="1">  1        1 0.49492439E+00 0.12721598E+04</pdfrwt>
<pdfrwt beam="2">  1       -2 0.19348966E-01 0.12721598E+04</pdfrwt>
<totfact> 0.81972738E+00</totfact>
</mgrwt>
</event>
<event>
12    4  0.4381187E-008  0.1928676E+04  0.7818608E-02  0.8640713E-01
         -2   -1    0    0    0  501 -0.00000000000E+00  0.00000000000E+00  0.41659062097E+03  0.41659062097E+03  0.00000000000E+00 0.  1.
          1   -1    0    0  501    0  0.00000000000E+00 -0.00000000000E+00 -0.22322816905E+04  0.22322816905E+04  0.00000000000E+00 0. -1.
        -24    2    1    2    0    0 -0.36313941766E+02 -0.57312824544E+03 -0.44931510693E+02  0.58141736203E+03  0.78946944960E+02 0.  0.
        254    2    1    2    0    0  0.36313941766E+02  0.57312824544E+03 -0.17707595588E+04  0.20674549495E+04  0.89943641505E+03 0.  0.
         23    2    4    4    0    0  0.36998683223E+03  0.79770266048E+02 -0.10942673368E+04  0.11618026866E+04  0.95451174251E+02 0.  0.
         23    2    4    4    0    0 -0.33367289046E+03  0.49335797940E+03 -0.67649222200E+03  0.90565226289E+03  0.88456775818E+02 0.  0.
          1    1    3    3  502    0 -0.80089403466E+00 -0.45280987260E+02  0.17820705676E+02  0.48668129092E+02  0.00000000000E+00 0. -1.
         -2    1    3    3    0  502 -0.35513047732E+02 -0.52784725818E+03 -0.62752216369E+02  0.53274923293E+03  0.00000000000E+00 0.  1.
         11    1    5    5    0    0 -0.29650957127E+01 -0.20720154427E+01 -0.46336304624E+02  0.46477286568E+02  0.00000000000E+00 0.  1.
        -11    1    5    5    0    0  0.37295192794E+03  0.81842281491E+02 -0.10479310322E+04  0.11153254000E+04  0.00000000000E+00 0. -1.
          4    1    6    6  503    0 -0.27266023451E+03  0.33471282933E+03 -0.50087765299E+03  0.66125237607E+03  0.00000000000E+00 0. -1.
         -4    1    6    6    0  503 -0.61012655951E+02  0.15864515007E+03 -0.17561456901E+03  0.24439988682E+03  0.00000000000E+00 0.  1.
<mgrwt>
<rscale>  0 0.19286758E+04</rscale>
<asrwt>0</asrwt>
<pdfrwt beam="1">  1        1 0.34342794E+00 0.19286758E+04</pdfrwt>
<pdfrwt beam="2">  1       -2 0.64090866E-01 0.19286758E+04</pdfrwt>
<totfact> 0.38205841E+00</totfact>
</mgrwt>
</event>
<event>
12    4  0.4381187E-008  0.1286686E+04  0.7818608E-02  0.9040190E-01
          1   -1    0    0  501    0  0.00000000000E+00  0.00000000000E+00  0.38536987945E+03  0.38536987945E+03  0.00000000000E+00 0. -1.
         -2   -1    0    0    0  501 -0.00000000000E+00 -0.00000000000E+00 -0.10740081197E+04  0.10740081197E+04  0.00000000000E+00 0.  1.
        -24    2    1    2    0    0 -0.27481963962E+03 -0.14305980984E+02 -0.36731317986E+03  0.46488174504E+03  0.73929489071E+02 0.  0.
        254    2    1    2    0    0  0.27481963962E+03  0.14305980984E+02 -0.32132506040E+03  0.99449625413E+03  0.90002361615E+03 0.  0.
         23    2    4    4    0    0 -0.58948597021E+02 -0.21405308098E+03  0.21083694106E+03  0.31974431797E+03  0.92144205406E+02 0.  0.
         23    2    4    4    0    0  0.33376823664E+03  0.22835906196E+03 -0.53216200146E+03  0.67475193616E+03  0.92437452281E+02 0.  0.
          3    1    3    3  502    0 -0.14548444926E+03 -0.70312782305E+01 -0.13348397200E+03  0.19756805063E+03  0.00000000000E+00 0. -1.
         -4    1    3    3    0  502 -0.12933519036E+03 -0.72747027536E+01 -0.23382920787E+03  0.26731369441E+03  0.00000000000E+00 0.  1.
         11    1    5    5    0    0  0.14224236187E+02 -0.45398072396E+02  0.12255124011E+02  0.49127405152E+02  0.00000000000E+00 0. -1.
        -11    1    5    5    0    0 -0.73172833208E+02 -0.16865500858E+03  0.19858181705E+03  0.27061691282E+03  0.00000000000E+00 0.  1.
          3    1    6    6  503    0  0.20307827354E+03  0.11606981305E+03 -0.37246911345E+03  0.43982522342E+03  0.00000000000E+00 0. -1.
         -3    1    6    6    0  503  0.13068996310E+03  0.11228924891E+03 -0.15969288801E+03  0.23492671274E+03  0.00000000000E+00 0.  1.
<mgrwt>
<rscale>  0 0.12866863E+04</rscale>
<asrwt>0</asrwt>
<pdfrwt beam="1">  1        1 0.59287675E-01 0.12866863E+04</pdfrwt>
<pdfrwt beam="2">  1       -2 0.16523202E+00 0.12866863E+04</pdfrwt>
<totfact> 0.12479483E+01</totfact>
</mgrwt>
</event>
<event>
12    4  0.4381187E-008  0.2394165E+04  0.7818608E-02  0.8441691E-01
          1   -1    0    0  501    0  0.00000000000E+00  0.00000000000E+00  0.78686233422E+03  0.78686233422E+03  0.00000000000E+00 0. -1.
         -2   -1    0    0    0  501 -0.00000000000E+00 -0.00000000000E+00 -0.18211658108E+04  0.18211658108E+04  0.00000000000E+00 0.  1.
        -24    2    1    2    0    0 -0.37583831298E+03 -0.83108998692E+03  0.67388538536E+02  0.91807893879E+03  0.79766652581E+02 0.  0.
        254    2    1    2    0    0  0.37583831298E+03  0.83108998692E+03 -0.11016920151E+04  0.16899492063E+04  0.90013222343E+03 0.  0.
         23    2    4    4    0    0  0.65141796371E+03  0.67170614550E+03 -0.90132117457E+03  0.13024676526E+04  0.92236744109E+02 0.  0.
         23    2    4    4    0    0 -0.27557965073E+03  0.15938384142E+03 -0.20037084056E+03  0.38748155367E+03  0.92984557226E+02 0.  0.
          1    1    3    3  502    0 -0.32845660617E+03 -0.77739878966E+03  0.64820988185E+02  0.84642446846E+03  0.00000000000E+00 0. -1.
         -2    1    3    3    0  502 -0.47381706806E+02 -0.53691197254E+02  0.25675503512E+01  0.71654470323E+02  0.00000000000E+00 0.  1.
         11    1    5    5    0    0  0.13902908266E+03  0.10627080939E+03 -0.13484672941E+03  0.22092127825E+03  0.00000000000E+00 0. -1.
        -11    1    5    5    0    0  0.51238888105E+03  0.56543533611E+03 -0.76647444517E+03  0.10815463743E+04  0.00000000000E+00 0.  1.
          4    1    6    6  503    0 -0.22091894816E+02  0.50726308725E+02 -0.25513244209E+02  0.60927299657E+02  0.00000000000E+00 0. -1.
         -4    1    6    6    0  503 -0.25348775592E+03  0.10865753269E+03 -0.17485759635E+03  0.32655425401E+03  0.00000000000E+00 0.  1.
<mgrwt>
<rscale>  0 0.23941652E+04</rscale>
<asrwt>0</asrwt>
<pdfrwt beam="1">  1        1 0.12105574E+00 0.23941652E+04</pdfrwt>
<pdfrwt beam="2">  1       -2 0.28017936E+00 0.23941652E+04</pdfrwt>
<totfact> 0.74964637E-01</totfact>
</mgrwt>
</event>
<event>
12    4  0.4381187E-008  0.1955400E+04  0.7818608E-02  0.8627761E-01
         -2   -1    0    0    0  501 -0.00000000000E+00  0.00000000000E+00  0.40508476552E+03  0.40508476552E+03  0.00000000000E+00 0.  1.
          1   -1    0    0  501    0  0.00000000000E+00 -0.00000000000E+00 -0.23597473721E+04  0.23597473721E+04  0.00000000000E+00 0. -1.
        -24    2    1    2    0    0  0.49652757863E+02  0.26929868560E+03 -0.17868295127E+04  0.18088786372E+04  0.65536542253E+02 0.  0.
        254    2    1    2    0    0 -0.49652757863E+02 -0.26929868560E+03 -0.16783309387E+03  0.95595350038E+03  0.90038434519E+03 0.  0.
         23    2    4    4    0    0  0.30616997976E+03  0.15132117686E+03  0.49778583345E+02  0.35681338736E+03  0.90552365885E+02 0.  0.
         23    2    4    4    0    0 -0.35582273762E+03 -0.42061986246E+03 -0.21761167722E+03  0.59914011302E+03  0.89906304960E+02 0.  0.
          3    1    3    3  502    0  0.65535973592E+02  0.23015684299E+03 -0.15102462242E+04  0.15290882231E+04  0.00000000000E+00 0. -1.
         -4    1    3    3    0  502 -0.15883215729E+02  0.39141842609E+02 -0.27658328851E+03  0.27979041418E+03  0.00000000000E+00 0.  1.
         11    1    5    5    0    0  0.30557024645E+03  0.15978836699E+03  0.48193901035E+02  0.34817833051E+03  0.00000000000E+00 0.  1.
        -11    1    5    5    0    0  0.59973330815E+00 -0.84671901299E+01  0.15846823097E+01  0.86350568475E+01  0.00000000000E+00 0. -1.
          3    1    6    6  503    0 -0.10306886948E+03 -0.10724123544E+03 -0.10168708029E+03  0.18017806951E+03  0.00000000000E+00 0. -1.
         -3    1    6    6    0  503 -0.25275386814E+03 -0.31337862702E+03 -0.11592459692E+03  0.41896204351E+03  0.00000000000E+00 0.  1.
<mgrwt>
<rscale>  0 0.19554004E+04</rscale>
<asrwt>0</asrwt>
<pdfrwt beam="1">  1        1 0.36303805E+00 0.19554004E+04</pdfrwt>
<pdfrwt beam="2">  1       -2 0.62320734E-01 0.19554004E+04</pdfrwt>
<totfact> 0.33105528E+00</totfact>
</mgrwt>
</event>
<event>
12    4  0.4381187E-008  0.1952212E+04  0.7818608E-02  0.8629295E-01
          1   -1    0    0  501    0  0.00000000000E+00  0.00000000000E+00  0.51815205822E+03  0.51815205822E+03  0.00000000000E+00 0. -1.
         -2   -1    0    0    0  501 -0.00000000000E+00 -0.00000000000E+00 -0.18388098783E+04  0.18388098783E+04  0.00000000000E+00 0.  1.
        -24    2    1    2    0    0 -0.22639738351E+03  0.56060433799E+03 -0.10887492971E+04  0.12479575628E+04  0.80560831896E+02 0.  0.
        254    2    1    2    0    0  0.22639738351E+03 -0.56060433799E+03 -0.23190852306E+03  0.11090043738E+04  0.90032002028E+03 0.  0.
         23    2    4    4    0    0  0.18344482751E+03  0.21140728060E+03 -0.13605944663E+03  0.32460490004E+03  0.92255759071E+02 0.  0.
         23    2    4    4    0    0  0.42952555999E+02 -0.77201161859E+03 -0.95849076433E+02  0.78439947372E+03  0.90821955553E+02 0.  0.
          1    1    3    3  502    0 -0.15328438530E+02  0.83195130242E+01 -0.46857220660E+02  0.49997744476E+02  0.00000000000E+00 0. -1.
         -2    1    3    3    0  502 -0.21106894498E+03  0.55228482497E+03 -0.10418920764E+04  0.11979598183E+04  0.00000000000E+00 0.  1.
         11    1    5    5    0    0  0.15525950250E+03  0.18746347635E+03 -0.77692471139E+02  0.25550770664E+03  0.00000000000E+00 0. -1.
        -11    1    5    5    0    0  0.28185325013E+02  0.23943804254E+02 -0.58366975489E+02  0.69097193402E+02  0.00000000000E+00 0.  1.
          2    1    6    6  503    0  0.25403245920E+02 -0.72429109070E+03 -0.72201089853E+02  0.72832403938E+03  0.00000000000E+00 0. -1.
         -2    1    6    6    0  503  0.17549310079E+02 -0.47720527897E+02 -0.23647986580E+02  0.56075434339E+02  0.00000000000E+00 0.  1.
<mgrwt>
<rscale>  0 0.19522122E+04</rscale>
<asrwt>0</asrwt>
<pdfrwt beam="1">  1        1 0.79715700E-01 0.19522122E+04</pdfrwt>
<pdfrwt beam="2">  1       -2 0.28289383E+00 0.19522122E+04</pdfrwt>
<totfact> 0.13915569E+00</totfact>
</mgrwt>
</event>
<event>
12    4  0.4381187E-008  0.1565669E+04  0.7818608E-02  0.8841921E-01
         -2   -1    0    0    0  501 -0.00000000000E+00  0.00000000000E+00  0.21889302355E+03  0.21889302355E+03  0.00000000000E+00 0.  1.
          1   -1    0    0  501    0  0.00000000000E+00 -0.00000000000E+00 -0.27996789806E+04  0.27996789806E+04  0.00000000000E+00 0. -1.
        -24    2    1    2    0    0  0.40925637131E+03 -0.30980383247E+03 -0.88170687907E+03  0.10253457925E+04  0.10226329551E+03 0.  0.
        254    2    1    2    0    0 -0.40925637131E+03  0.30980383247E+03 -0.16990790779E+04  0.19932262116E+04  0.90697950654E+03 0.  0.
         23    2    4    4    0    0  0.76984901740E+02 -0.16785518028E+03 -0.96782888928E+03  0.98953893850E+03  0.91610672069E+02 0.  0.
         23    2    4    4    0    0 -0.48624127305E+03  0.47765901275E+03 -0.73125018865E+03  0.10036872731E+04  0.89847624378E+02 0.  0.
          1    1    3    3  502    0  0.12719565375E+03 -0.98894555999E+02 -0.37616903901E+03  0.40922122801E+03  0.00000000000E+00 0. -1.
         -2    1    3    3    0  502  0.28206071756E+03 -0.21090927647E+03 -0.50553784006E+03  0.61612456454E+03  0.00000000000E+00 0.  1.
         11    1    5    5    0    0  0.52927116747E-01 -0.10894985820E+03 -0.53875140567E+03  0.54965730370E+03  0.00000000000E+00 0. -1.
        -11    1    5    5    0    0  0.76931974623E+02 -0.58905322077E+02 -0.42907748362E+03  0.43988163480E+03  0.00000000000E+00 0.  1.
          1    1    6    6  503    0 -0.47016432951E+03  0.46648416529E+03 -0.68194630960E+03  0.95063807118E+03  0.00000000000E+00 0. -1.
         -1    1    6    6    0  503 -0.16076943543E+02  0.11174847462E+02 -0.49303879051E+02  0.53049201869E+02  0.00000000000E+00 0.  1.
<mgrwt>
<rscale>  0 0.15656694E+04</rscale>
<asrwt>0</asrwt>
<pdfrwt beam="1">  1        1 0.43071982E+00 0.15656694E+04</pdfrwt>
<pdfrwt beam="2">  1       -2 0.33675852E-01 0.15656694E+04</pdfrwt>
<totfact> 0.58329998E+00</totfact>
</mgrwt>
</event>
<event>
12    4  0.4381187E-008  0.1216820E+04  0.7818608E-02  0.9098260E-01
          1   -1    0    0  501    0  0.00000000000E+00  0.00000000000E+00  0.12108239705E+04  0.12108239705E+04  0.00000000000E+00 0. -1.
         -2   -1    0    0    0  501 -0.00000000000E+00 -0.00000000000E+00 -0.30571122983E+03  0.30571122983E+03  0.00000000000E+00 0.  1.
        -24    2    1    2    0    0  0.84551546294E+02  0.22650354593E+03  0.32219009820E+03  0.41611754033E+03  0.10437685421E+03 0.  0.
        254    2    1    2    0    0 -0.84551546294E+02 -0.22650354593E+03  0.58292264244E+03  0.11004176600E+04  0.90148067035E+03 0.  0.
         23    2    4    4    0    0 -0.36224346397E+03 -0.16903712968E+03 -0.37963870657E+02  0.41176083375E+03  0.91169349780E+02 0.  0.
         23    2    4    4    0    0  0.27769191767E+03 -0.57466416250E+02  0.62088651310E+03  0.68865682623E+03  0.91285113941E+02 0.  0.
          1    1    3    3  502    0  0.25517890017E+02  0.12114986299E+03  0.23995126236E+03  0.27000937081E+03  0.00000000000E+00 0. -1.
         -2    1    3    3    0  502  0.59033656277E+02  0.10535368294E+03  0.82238835833E+02  0.14610816952E+03  0.00000000000E+00 0.  1.
         11    1    5    5    0    0 -0.50247138584E+02  0.40455872080E-01 -0.26278229038E+02  0.56703808460E+02  0.00000000000E+00 0.  1.
        -11    1    5    5    0    0 -0.31199632538E+03 -0.16907758555E+03 -0.11685641619E+02  0.35505702529E+03  0.00000000000E+00 0. -1.
          3    1    6    6  503    0  0.16244092072E+03 -0.42045178176E+02  0.46378206381E+03  0.49320244570E+03  0.00000000000E+00 0. -1.
         -3    1    6    6    0  503  0.11525099695E+03 -0.15421238074E+02  0.15710444929E+03  0.19545438053E+03  0.00000000000E+00 0.  1.
<mgrwt>
<rscale>  0 0.12168196E+04</rscale>
<asrwt>0</asrwt>
<pdfrwt beam="1">  1        1 0.18628061E+00 0.12168196E+04</pdfrwt>
<pdfrwt beam="2">  1       -2 0.47032498E-01 0.12168196E+04</pdfrwt>
<totfact> 0.38974675E+01</totfact>
</mgrwt>
</event>
<event>
12    4  0.4381187E-008  0.3992063E+04  0.7818608E-02  0.8006150E-01
          1   -1    0    0  501    0  0.00000000000E+00  0.00000000000E+00  0.19235242032E+04  0.19235242032E+04  0.00000000000E+00 0. -1.
         -2   -1    0    0    0  501 -0.00000000000E+00 -0.00000000000E+00 -0.20712717502E+04  0.20712717502E+04  0.00000000000E+00 0.  1.
        -24    2    1    2    0    0 -0.52243315353E+03  0.17491831276E+04  0.42963511220E+03  0.18771932927E+04  0.81794342524E+02 0.  0.
        254    2    1    2    0    0  0.52243315353E+03 -0.17491831276E+04 -0.57738265928E+03  0.21176026607E+04  0.90459509152E+03 0.  0.
         23    2    4    4    0    0 -0.15853949930E+03 -0.32268594042E+02 -0.83376809936E+02  0.20329422245E+03  0.90558342777E+02 0.  0.
         23    2    4    4    0    0  0.68097265284E+03 -0.17169145336E+04 -0.49400584935E+03  0.19143084383E+04  0.94951293458E+02 0.  0.
          1    1    3    3  502    0 -0.45850471022E+03  0.15986434056E+04  0.37597804510E+03  0.17050650422E+04  0.00000000000E+00 0. -1.
         -2    1    3    3    0  502 -0.63928443309E+02  0.15053972202E+03  0.53657067097E+02  0.17212825049E+03  0.00000000000E+00 0.  1.
         11    1    5    5    0    0 -0.37485082372E+02 -0.35994637071E+02  0.66429745199E+01  0.52391549021E+02  0.00000000000E+00 0.  1.
        -11    1    5    5    0    0 -0.12105441693E+03  0.37260430290E+01 -0.90019784456E+02  0.15090267343E+03  0.00000000000E+00 0. -1.
          4    1    6    6  503    0  0.46674653278E+03 -0.11226417465E+04 -0.36672240056E+03  0.12699063493E+04  0.00000000000E+00 0. -1.
         -4    1    6    6    0  503  0.21422612005E+03 -0.59427278705E+03 -0.12728344879E+03  0.64440208898E+03  0.00000000000E+00 0.  1.
<mgrwt>
<rscale>  0 0.39920628E+04</rscale>
<asrwt>0</asrwt>
<pdfrwt beam="1">  1        1 0.29592680E+00 0.39920628E+04</pdfrwt>
<pdfrwt beam="2">  1       -2 0.31865720E+00 0.39920628E+04</pdfrwt>
<totfact> 0.56406030E-02</totfact>
</mgrwt>
</event>
<event>
12    4  0.4381187E-008  0.1633774E+04  0.7818608E-02  0.8800064E-01
          1   -1    0    0  501    0  0.00000000000E+00  0.00000000000E+00  0.11861534241E+04  0.11861534241E+04  0.00000000000E+00 0. -1.
         -2   -1    0    0    0  501 -0.00000000000E+00 -0.00000000000E+00 -0.56257828837E+03  0.56257828837E+03  0.00000000000E+00 0.  1.
        -24    2    1    2    0    0 -0.19939398115E+03 -0.48236682466E+01 -0.34779038081E+03  0.40858272142E+03  0.78743023579E+02 0.  0.
        254    2    1    2    0    0  0.19939398115E+03  0.48236682466E+01  0.97136551654E+03  0.13401489911E+04  0.90148051783E+03 0.  0.
         23    2    4    4    0    0  0.26129768600E+03  0.70349454812E+02  0.11129944858E+04  0.11488349256E+04  0.88540580535E+02 0.  0.
         23    2    4    4    0    0 -0.61903704846E+02 -0.65525786566E+02 -0.14162896928E+03  0.19131406542E+03  0.91742080348E+02 0.  0.
          3    1    3    3  502    0 -0.84179890864E+02 -0.15749345925E+02 -0.81463211014E+02  0.11819708402E+03  0.00000000000E+00 0. -1.
         -4    1    3    3    0  502 -0.11521409029E+03  0.10925677678E+02 -0.26632716979E+03  0.29038563739E+03  0.00000000000E+00 0.  1.
         11    1    5    5    0    0  0.19079633670E+03  0.71916146055E+02  0.94303384514E+03  0.96482537656E+03  0.00000000000E+00 0.  1.
        -11    1    5    5    0    0  0.70501349300E+02 -0.15666912432E+01  0.16996064069E+03  0.18400954909E+03  0.00000000000E+00 0. -1.
          4    1    6    6  503    0  0.10843001925E+02 -0.51362503729E+02 -0.75702342245E+02  0.92122321407E+02  0.00000000000E+00 0.  1.
         -4    1    6    6    0  503 -0.72746706771E+02 -0.14163282837E+02 -0.65926627040E+02  0.99191744009E+02  0.00000000000E+00 0. -1.
<mgrwt>
<rscale>  0 0.16337737E+04</rscale>
<asrwt>0</asrwt>
<pdfrwt beam="1">  1        1 0.18248514E+00 0.16337737E+04</pdfrwt>
<pdfrwt beam="2">  1       -2 0.86550506E-01 0.16337737E+04</pdfrwt>
<totfact> 0.10613746E+01</totfact>
</mgrwt>
</event>
<event>
12    4  0.4381187E-008  0.1874301E+04  0.7818608E-02  0.8667755E-01
         -2   -1    0    0    0  501 -0.00000000000E+00  0.00000000000E+00  0.73290284501E+03  0.73290284501E+03  0.00000000000E+00 0.  1.
          1   -1    0    0  501    0  0.00000000000E+00 -0.00000000000E+00 -0.11983190854E+04  0.11983190854E+04  0.00000000000E+00 0. -1.
        -24    2    1    2    0    0  0.39353358974E+03  0.23209412265E+03  0.39067111003E+03  0.60706016577E+03  0.84627186168E+02 0.  0.
        254    2    1    2    0    0 -0.39353358974E+03 -0.23209412265E+03 -0.85608735041E+03  0.13241617646E+04  0.90098971102E+03 0.  0.
         23    2    4    4    0    0 -0.65897191948E+03 -0.90787515027E+02 -0.71118474112E+03  0.97807627329E+03  0.91449968992E+02 0.  0.
         23    2    4    4    0    0  0.26543832975E+03 -0.14130660762E+03 -0.14490260928E+03  0.34608549133E+03  0.91396591169E+02 0.  0.
          1    1    3    3  502    0  0.15685185892E+02  0.31081752291E+01 -0.18074111505E+01  0.16092002511E+02  0.00000000000E+00 0. -1.
         -2    1    3    3    0  502  0.37784840384E+03  0.22898594742E+03  0.39247852118E+03  0.59096816326E+03  0.00000000000E+00 0.  1.
         11    1    5    5    0    0 -0.22747824716E+03 -0.46610194779E+02 -0.19014815729E+03  0.30012528202E+03  0.00000000000E+00 0. -1.
        -11    1    5    5    0    0 -0.43149367233E+03 -0.44177320248E+02 -0.52103658383E+03  0.67795099127E+03  0.00000000000E+00 0.  1.
          4    1    6    6  503    0  0.24293110972E+03 -0.91452846015E+02 -0.11833490631E+03  0.28527582647E+03  0.00000000000E+00 0.  1.
         -4    1    6    6    0  503  0.22507220023E+02 -0.49853761608E+02 -0.26567702979E+02  0.60809664866E+02  0.00000000000E+00 0. -1.
<mgrwt>
<rscale>  0 0.18743014E+04</rscale>
<asrwt>0</asrwt>
<pdfrwt beam="1">  1        1 0.18435678E+00 0.18743014E+04</pdfrwt>
<pdfrwt beam="2">  1       -2 0.11275428E+00 0.18743014E+04</pdfrwt>
<totfact> 0.54531571E+00</totfact>
</mgrwt>
</event>
<event>
12    4  0.4381187E-008  0.1627808E+04  0.7818608E-02  0.8803645E-01
          1   -1    0    0  501    0  0.00000000000E+00  0.00000000000E+00  0.93588855989E+03  0.93588855989E+03  0.00000000000E+00 0. -1.
         -2   -1    0    0    0  501 -0.00000000000E+00 -0.00000000000E+00 -0.70781860718E+03  0.70781860718E+03  0.00000000000E+00 0.  1.
        -24    2    1    2    0    0 -0.10120020547E+03 -0.60240720622E+02  0.63296177822E+03  0.64876962305E+03  0.79943637053E+02 0.  0.
        254    2    1    2    0    0  0.10120020547E+03  0.60240720622E+02 -0.40489182550E+03  0.99493754402E+03  0.90116197220E+03 0.  0.
         23    2    4    4    0    0 -0.12475611613E+03  0.49003035876E+02  0.24933865295E+03  0.29682336240E+03  0.89269023598E+02 0.  0.
         23    2    4    4    0    0  0.22595632160E+03  0.11237684746E+02 -0.65423047846E+03  0.69811418162E+03  0.90351241317E+02 0.  0.
          3    1    3    3  502    0 -0.13342297034E+02 -0.15410913655E+02  0.31964189838E+03  0.32029120555E+03  0.00000000000E+00 0. -1.
         -4    1    3    3    0  502 -0.87857908436E+02 -0.44829806967E+02  0.31331987983E+03  0.32847841751E+03  0.00000000000E+00 0.  1.
         11    1    5    5    0    0 -0.11516873706E+03  0.70217492998E+02  0.22965199728E+03  0.26633507875E+03  0.00000000000E+00 0. -1.
        -11    1    5    5    0    0 -0.95873790755E+01 -0.21214457122E+02  0.19686655677E+02  0.30488283656E+02  0.00000000000E+00 0.  1.
          4    1    6    6  503    0  0.51935374308E+02  0.41580688656E+02 -0.19808578274E+03  0.20895983848E+03  0.00000000000E+00 0.  1.
         -4    1    6    6    0  503  0.17402094730E+03 -0.30343003909E+02 -0.45614469572E+03  0.48915434315E+03  0.00000000000E+00 0. -1.
<mgrwt>
<rscale>  0 0.16278075E+04</rscale>
<asrwt>0</asrwt>
<pdfrwt beam="1">  1        1 0.14398286E+00 0.16278075E+04</pdfrwt>
<pdfrwt beam="2">  1       -2 0.10889517E+00 0.16278075E+04</pdfrwt>
<totfact> 0.96110211E+00</totfact>
</mgrwt>
</event>
<event>
12    4  0.4381187E-008  0.1491385E+04  0.7818608E-02  0.8890202E-01
         -2   -1    0    0    0  501 -0.00000000000E+00  0.00000000000E+00  0.11936604511E+04  0.11936604511E+04  0.00000000000E+00 0.  1.
          1   -1    0    0  501    0  0.00000000000E+00 -0.00000000000E+00 -0.46584185863E+03  0.46584185863E+03  0.00000000000E+00 0. -1.
        -24    2    1    2    0    0 -0.16339055592E+03 -0.41650856737E+03  0.35966848122E+03  0.57955468915E+03  0.79664050089E+02 0.  0.
        254    2    1    2    0    0  0.16339055592E+03  0.41650856737E+03  0.36815011128E+03  0.10799476206E+04  0.91135969757E+03 0.  0.
         23    2    4    4    0    0  0.29320930853E+03 -0.11193812780E+02  0.51581784639E+03  0.60055279773E+03  0.92187917600E+02 0.  0.
         23    2    4    4    0    0 -0.12981875261E+03  0.42770238015E+03 -0.14766773511E+03  0.47939482287E+03  0.90727072496E+02 0.  0.
          3    1    3    3  502    0 -0.10525680363E+02 -0.13505633955E+02  0.38177371090E+02  0.41841412010E+02  0.00000000000E+00 0. -1.
         -4    1    3    3    0  502 -0.15286487556E+03 -0.40300293342E+03  0.32149111013E+03  0.53771327714E+03  0.00000000000E+00 0.  1.
         11    1    5    5    0    0  0.78770941024E+02  0.20209653950E+02  0.21442659897E+03  0.22932958293E+03  0.00000000000E+00 0. -1.
        -11    1    5    5    0    0  0.21443836751E+03 -0.31403466730E+02  0.30139124742E+03  0.37122321480E+03  0.00000000000E+00 0.  1.
          1    1    6    6  503    0 -0.69031823010E+02  0.35339659829E+03 -0.11768745438E+03  0.37882038645E+03  0.00000000000E+00 0. -1.
         -1    1    6    6    0  503 -0.60786929601E+02  0.74305781861E+02 -0.29980280739E+02  0.10057443642E+03  0.00000000000E+00 0.  1.
<mgrwt>
<rscale>  0 0.14913846E+04</rscale>
<asrwt>0</asrwt>
<pdfrwt beam="1">  1        1 0.71667979E-01 0.14913846E+04</pdfrwt>
<pdfrwt beam="2">  1       -2 0.18364007E+00 0.14913846E+04</pdfrwt>
<totfact> 0.70701769E+00</totfact>
</mgrwt>
</event>
<event>
12    4  0.4381187E-008  0.2037680E+04  0.7818608E-02  0.8589204E-01
         -2   -1    0    0    0  501 -0.00000000000E+00  0.00000000000E+00  0.57309488185E+03  0.57309488185E+03  0.00000000000E+00 0.  1.
          1   -1    0    0  501    0  0.00000000000E+00 -0.00000000000E+00 -0.18112801641E+04  0.18112801641E+04  0.00000000000E+00 0. -1.
        -24    2    1    2    0    0  0.21370086928E+03  0.71917168179E+03 -0.87732701994E+03  0.11570429928E+04  0.78548187837E+02 0.  0.
        254    2    1    2    0    0 -0.21370086928E+03 -0.71917168179E+03 -0.36085826232E+03  0.12273320532E+04  0.90180336761E+03 0.  0.
         23    2    4    4    0    0 -0.44654356463E+03 -0.26968587828E+03 -0.46177530725E+03  0.70307757735E+03  0.94604531253E+02 0.  0.
         23    2    4    4    0    0  0.23284269535E+03 -0.44948580351E+03  0.10091704493E+03  0.52425447582E+03  0.91680407513E+02 0.  0.
          3    1    3    3  502    0  0.86696706587E+02  0.40131542747E+03 -0.44212638292E+03  0.60336235359E+03  0.00000000000E+00 0. -1.
         -4    1    3    3    0  502  0.12700416270E+03  0.31785625431E+03 -0.43520063702E+03  0.55368063919E+03  0.00000000000E+00 0.  1.
         11    1    5    5    0    0 -0.34645319294E+03 -0.22734973893E+03 -0.31536981530E+03  0.52074546478E+03  0.00000000000E+00 0.  1.
        -11    1    5    5    0    0 -0.10009037169E+03 -0.42336139348E+02 -0.14640549196E+03  0.18233211257E+03  0.00000000000E+00 0. -1.
          3    1    6    6  503    0  0.67358666521E+01 -0.20269882106E+02  0.25555396515E+02  0.33306430477E+02  0.00000000000E+00 0. -1.
         -3    1    6    6    0  503  0.22610682870E+03 -0.42921592140E+03  0.75361648419E+02  0.49094804534E+03  0.00000000000E+00 0.  1.
<mgrwt>
<rscale>  0 0.20376804E+04</rscale>
<asrwt>0</asrwt>
<pdfrwt beam="1">  1        1 0.27865849E+00 0.20376804E+04</pdfrwt>
<pdfrwt beam="2">  1       -2 0.88168444E-01 0.20376804E+04</pdfrwt>
<totfact> 0.36010557E+00</totfact>
</mgrwt>
</event>
<event>
12    4  0.4381187E-008  0.1404628E+04  0.7818608E-02  0.8950475E-01
          1   -1    0    0  501    0  0.00000000000E+00  0.00000000000E+00  0.15111392424E+04  0.15111392424E+04  0.00000000000E+00 0. -1.
         -2   -1    0    0    0  501 -0.00000000000E+00 -0.00000000000E+00 -0.32640605542E+03  0.32640605542E+03  0.00000000000E+00 0.  1.
        -24    2    1    2    0    0 -0.36437549790E+03 -0.14357663547E+03  0.20417875774E+03  0.44848654154E+03  0.77893896525E+02 0.  0.
        254    2    1    2    0    0  0.36437549790E+03  0.14357663547E+03  0.98055442922E+03  0.13890587563E+04  0.90255940854E+03 0.  0.
         23    2    4    4    0    0  0.16436204436E+03 -0.14914330156E+03 -0.91006106895E+02  0.25662213011E+03  0.91182235916E+02 0.  0.
         23    2    4    4    0    0  0.20001345354E+03  0.29271993703E+03  0.10715605361E+04  0.11324366261E+04  0.92089014145E+02 0.  0.
          1    1    3    3  502    0 -0.15330177002E+02  0.93372053267E+01  0.12889792339E+02  0.22098517524E+02  0.00000000000E+00 0. -1.
         -2    1    3    3    0  502 -0.34904532089E+03 -0.15291384079E+03  0.19128896540E+03  0.42638802402E+03  0.00000000000E+00 0.  1.
         11    1    5    5    0    0  0.20434738681E+02 -0.37070067536E+02  0.15866128999E+02  0.45205115877E+02  0.00000000000E+00 0.  1.
        -11    1    5    5    0    0  0.14392730567E+03 -0.11207323403E+03 -0.10687223589E+03  0.21141701424E+03  0.00000000000E+00 0. -1.
          3    1    6    6  503    0  0.11662736904E+03  0.22383213448E+03  0.83521293784E+03  0.87251556959E+03  0.00000000000E+00 0. -1.
         -3    1    6    6    0  503  0.83386084500E+02  0.68887802546E+02  0.23634759828E+03  0.25992105656E+03  0.00000000000E+00 0.  1.
<mgrwt>
<rscale>  0 0.14046281E+04</rscale>
<asrwt>0</asrwt>
<pdfrwt beam="1">  1        1 0.23248296E+00 0.14046281E+04</pdfrwt>
<pdfrwt beam="2">  1       -2 0.50216317E-01 0.14046281E+04</pdfrwt>
<totfact> 0.20616192E+01</totfact>
</mgrwt>
</event>
<event>
12    4  0.4381187E-008  0.1488894E+04  0.7818608E-02  0.8891872E-01
         -2   -1    0    0    0  501 -0.00000000000E+00  0.00000000000E+00  0.84901111922E+03  0.84901111922E+03  0.00000000000E+00 0.  1.
          1   -1    0    0  501    0  0.00000000000E+00 -0.00000000000E+00 -0.65276095509E+03  0.65276095509E+03  0.00000000000E+00 0. -1.
        -24    2    1    2    0    0  0.22311061645E+03 -0.36650725786E+03 -0.13453318549E+03  0.45689462798E+03  0.80917277773E+02 0.  0.
        254    2    1    2    0    0 -0.22311061645E+03  0.36650725786E+03  0.33078334963E+03  0.10448774463E+04  0.89344576568E+03 0.  0.
         23    2    4    4    0    0  0.15016978501E+03  0.18461210897E+03 -0.22894736769E+03  0.34244598887E+03  0.90662908697E+02 0.  0.
         23    2    4    4    0    0 -0.37328040146E+03  0.18189514889E+03  0.55973071731E+03  0.70243145746E+03  0.87677666614E+02 0.  0.
          3    1    3    3  502    0  0.17654240449E+03 -0.29782726579E+03 -0.73627221351E+02  0.35396224170E+03  0.00000000000E+00 0. -1.
         -4    1    3    3    0  502  0.46568211969E+02 -0.68679992069E+02 -0.60905964141E+02  0.10293238628E+03  0.00000000000E+00 0.  1.
         11    1    5    5    0    0  0.85719212695E+02  0.77123459984E+02 -0.54224589874E+02  0.12742102516E+03  0.00000000000E+00 0.  1.
        -11    1    5    5    0    0  0.64450572312E+02  0.10748864899E+03 -0.17472277781E+03  0.21502496371E+03  0.00000000000E+00 0. -1.
          4    1    6    6  503    0 -0.25875274330E+03  0.16084783280E+03  0.44207937142E+03  0.53689773525E+03  0.00000000000E+00 0. -1.
         -4    1    6    6    0  503 -0.11452765816E+03  0.21047316087E+02  0.11765134589E+03  0.16553372221E+03  0.00000000000E+00 0.  1.
<mgrwt>
<rscale>  0 0.14888940E+04</rscale>
<asrwt>0</asrwt>
<pdfrwt beam="1">  1        1 0.10042476E+00 0.14888940E+04</pdfrwt>
<pdfrwt beam="2">  1       -2 0.13061710E+00 0.14888940E+04</pdfrwt>
<totfact> 0.11003244E+01</totfact>
</mgrwt>
</event>
<event>
12    4  0.4381187E-008  0.1288329E+04  0.7818608E-02  0.9038872E-01
          3   -1    0    0  501    0  0.00000000000E+00  0.00000000000E+00  0.19929234865E+03  0.19929234865E+03  0.00000000000E+00 0. -1.
         -4   -1    0    0    0  501 -0.00000000000E+00 -0.00000000000E+00 -0.20821078278E+04  0.20821078278E+04  0.00000000000E+00 0.  1.
        -24    2    1    2    0    0 -0.15095370753E+03  0.16471745279E+03 -0.76573399062E+02  0.24930889786E+03  0.79828441270E+02 0.  0.
        254    2    1    2    0    0  0.15095370753E+03 -0.16471745279E+03 -0.18062420801E+04  0.20320912786E+04  0.90386152233E+03 0.  0.
         23    2    4    4    0    0  0.16415748396E+03 -0.34415294545E+03 -0.17874945710E+04  0.18299393763E+04  0.90290365927E+02 0.  0.
         23    2    4    4    0    0 -0.13203776432E+02  0.17943549266E+03 -0.18747509098E+02  0.20215190230E+03  0.90235728886E+02 0.  0.
          3    1    3    3  502    0 -0.26975230485E+02  0.58993120310E+02  0.86301776378E+01  0.65439523758E+02  0.00000000000E+00 0. -1.
         -4    1    3    3    0  502 -0.12397847705E+03  0.10572433248E+03 -0.85203576700E+02  0.18386937410E+03  0.00000000000E+00 0.  1.
         11    1    5    5    0    0  0.11799185511E+03 -0.27160036128E+03 -0.11901348948E+04  0.12264215841E+04  0.00000000000E+00 0. -1.
        -11    1    5    5    0    0  0.46165628855E+02 -0.72552584173E+02 -0.59735967618E+03  0.60351779219E+03  0.00000000000E+00 0.  1.
          2    1    6    6  503    0  0.16239730815E+02  0.15268726376E+03 -0.37669469760E+02  0.15810160759E+03  0.00000000000E+00 0. -1.
         -2    1    6    6    0  503 -0.29443507247E+02  0.26748228895E+02  0.18921960662E+02  0.44050294702E+02  0.00000000000E+00 0.  1.
<mgrwt>
<rscale>  0 0.12883294E+04</rscale>
<asrwt>0</asrwt>
<pdfrwt beam="1">  1        3 0.30660362E-01 0.12883294E+04</pdfrwt>
<pdfrwt beam="2">  1       -4 0.32032427E+00 0.12883294E+04</pdfrwt>
<totfact> 0.54383169E-01</totfact>
</mgrwt>
</event>
<event>
12    4  0.4381187E-008  0.2921517E+04  0.7818608E-02  0.8266504E-01
          1   -1    0    0  501    0  0.00000000000E+00  0.00000000000E+00  0.21012093712E+04  0.21012093712E+04  0.00000000000E+00 0. -1.
         -2   -1    0    0    0  501 -0.00000000000E+00 -0.00000000000E+00 -0.10155180220E+04  0.10155180220E+04  0.00000000000E+00 0.  1.
        -24    2    1    2    0    0 -0.48497481006E+03  0.98981819775E+03 -0.28354379874E+03  0.11409415435E+04  0.80061781494E+02 0.  0.
        254    2    1    2    0    0  0.48497481006E+03 -0.98981819775E+03  0.13692351479E+04  0.19757858498E+04  0.90221073082E+03 0.  0.
         23    2    4    4    0    0  0.29127013139E+02 -0.61727596391E+03  0.18822191332E+03  0.65268571431E+03  0.93237087572E+02 0.  0.
         23    2    4    4    0    0  0.45584779693E+03 -0.37254223384E+03  0.11810132346E+04  0.13231001355E+04  0.96004052815E+02 0.  0.
          1    1    3    3  502    0 -0.20048448095E+03  0.39217841600E+03 -0.15318165079E+03  0.46632880591E+03  0.00000000000E+00 0. -1.
         -2    1    3    3    0  502 -0.28449032911E+03  0.59763978175E+03 -0.13036214795E+03  0.67461273758E+03  0.00000000000E+00 0.  1.
         11    1    5    5    0    0 -0.14959581813E+02 -0.46431691822E+03  0.12227302904E+03  0.48037972820E+03  0.00000000000E+00 0.  1.
        -11    1    5    5    0    0  0.44086594953E+02 -0.15295904569E+03  0.65948884284E+02  0.17230598611E+03  0.00000000000E+00 0. -1.
          2    1    6    6  503    0  0.31961913765E+03 -0.20539720716E+03  0.71729410247E+03  0.81169898072E+03  0.00000000000E+00 0. -1.
         -2    1    6    6    0  503  0.13622865928E+03 -0.16714502668E+03  0.46371913214E+03  0.51140115474E+03  0.00000000000E+00 0.  1.
<mgrwt>
<rscale>  0 0.29215174E+04</rscale>
<asrwt>0</asrwt>
<pdfrwt beam="1">  1        1 0.32326298E+00 0.29215174E+04</pdfrwt>
<pdfrwt beam="2">  1       -2 0.15623354E+00 0.29215174E+04</pdfrwt>
<totfact> 0.51487916E-01</totfact>
</mgrwt>
</event>
<event>
12    4  0.4381187E-008  0.1385941E+04  0.7818608E-02  0.8964058E-01
          1   -1    0    0  501    0  0.00000000000E+00  0.00000000000E+00  0.20196620470E+04  0.20196620470E+04  0.00000000000E+00 0. -1.
         -2   -1    0    0    0  501 -0.00000000000E+00 -0.00000000000E+00 -0.23776656369E+03  0.23776656369E+03  0.00000000000E+00 0.  1.
        -24    2    1    2    0    0  0.19098210888E+03 -0.13478464102E+02 -0.46936934667E+02  0.21261659411E+03  0.79667467324E+02 0.  0.
        254    2    1    2    0    0 -0.19098210888E+03  0.13478464102E+02  0.18288324180E+04  0.20448120166E+04  0.89441172577E+03 0.  0.
         23    2    4    4    0    0 -0.53702549536E+03  0.54326778706E+02  0.97704786314E+03  0.11199384336E+04  0.91059248428E+02 0.  0.
         23    2    4    4    0    0  0.34604338648E+03 -0.40848314604E+02  0.85178455485E+03  0.92487358295E+03  0.91867330552E+02 0.  0.
          1    1    3    3  502    0  0.16446172512E+03 -0.39403871421E+02 -0.29639436991E+02  0.17169397292E+03  0.00000000000E+00 0. -1.
         -2    1    3    3    0  502  0.26520383762E+02  0.25925407319E+02 -0.17297497676E+02  0.40922621194E+02  0.00000000000E+00 0.  1.
         11    1    5    5    0    0 -0.50251276396E+03  0.38952526699E+02  0.85854290538E+03  0.99555627548E+03  0.00000000000E+00 0. -1.
        -11    1    5    5    0    0 -0.34512731404E+02  0.15374252007E+02  0.11850495777E+03  0.12438215816E+03  0.00000000000E+00 0.  1.
          3    1    6    6  503    0  0.34066532455E+03 -0.27011074098E+02  0.83627667496E+03  0.90340530138E+03  0.00000000000E+00 0. -1.
         -3    1    6    6    0  503  0.53780619328E+01 -0.13837240507E+02  0.15507879891E+02  0.21468281573E+02  0.00000000000E+00 0.  1.
<mgrwt>
<rscale>  0 0.13859410E+04</rscale>
<asrwt>0</asrwt>
<pdfrwt beam="1">  1        1 0.31071723E+00 0.13859410E+04</pdfrwt>
<pdfrwt beam="2">  1       -2 0.36579473E-01 0.13859410E+04</pdfrwt>
<totfact> 0.17445085E+01</totfact>
</mgrwt>
</event>
<event>
12    4  0.4381187E-008  0.1309724E+04  0.7818608E-02  0.9021890E-01
          1   -1    0    0  501    0  0.00000000000E+00  0.00000000000E+00  0.10728101071E+04  0.10728101071E+04  0.00000000000E+00 0. -1.
         -2   -1    0    0    0  501 -0.00000000000E+00 -0.00000000000E+00 -0.39973901514E+03  0.39973901514E+03  0.00000000000E+00 0.  1.
        -24    2    1    2    0    0 -0.22837445791E+03 -0.76284326028E+02 -0.58842714446E+02  0.26121658717E+03  0.82446643017E+02 0.  0.
        254    2    1    2    0    0  0.22837445791E+03  0.76284326028E+02  0.73191380643E+03  0.12113325351E+04  0.93469486953E+03 0.  0.
         23    2    4    4    0    0 -0.32346698270E+03  0.74383633495E+01  0.71744696900E+02  0.34374550240E+03  0.91254866934E+02 0.  0.
         23    2    4    4    0    0  0.55184144060E+03  0.68845962678E+02  0.66016910953E+03  0.86758703270E+03  0.87265479990E+02 0.  0.
          1    1    3    3  502    0 -0.63431887896E+02 -0.12307294697E+02  0.19841250710E+02  0.67592522771E+02  0.00000000000E+00 0. -1.
         -2    1    3    3    0  502 -0.16494257001E+03 -0.63977031331E+02 -0.78683965156E+02  0.19362406439E+03  0.00000000000E+00 0.  1.
         11    1    5    5    0    0 -0.30207592703E+03  0.31690409853E+02  0.62306810814E+02  0.31005852099E+03  0.00000000000E+00 0. -1.
        -11    1    5    5    0    0 -0.21391055670E+02 -0.24252046504E+02  0.94378860861E+01  0.33686981403E+02  0.00000000000E+00 0.  1.
          1    1    6    6  503    0  0.42712204063E+03  0.49910830679E+02  0.56250504917E+03  0.70805102849E+03  0.00000000000E+00 0. -1.
         -1    1    6    6    0  503  0.12471939998E+03  0.18935131999E+02  0.97664060360E+02  0.15953600421E+03  0.00000000000E+00 0.  1.
<mgrwt>
<rscale>  0 0.13097237E+04</rscale>
<asrwt>0</asrwt>
<pdfrwt beam="1">  1        1 0.16504771E+00 0.13097237E+04</pdfrwt>
<pdfrwt beam="2">  1       -2 0.61498310E-01 0.13097237E+04</pdfrwt>
<totfact> 0.28130662E+01</totfact>
</mgrwt>
</event>
<event>
12    4  0.4381187E-008  0.1484684E+04  0.7818608E-02  0.8894702E-01
         -2   -1    0    0    0  501 -0.00000000000E+00  0.00000000000E+00  0.92628794126E+03  0.92628794126E+03  0.00000000000E+00 0.  1.
          1   -1    0    0  501    0  0.00000000000E+00 -0.00000000000E+00 -0.59492491279E+03  0.59492491279E+03  0.00000000000E+00 0. -1.
        -24    2    1    2    0    0  0.16340769327E+03  0.43695649332E+03  0.14050524665E+02  0.47354909941E+03  0.80114175025E+02 0.  0.
        254    2    1    2    0    0 -0.16340769327E+03 -0.43695649332E+03  0.31731250381E+03  0.10476637546E+04  0.88276784402E+03 0.  0.
         23    2    4    4    0    0 -0.28450301047E+03 -0.26919779023E+03 -0.22404879156E+03  0.46074836805E+03  0.93176093693E+02 0.  0.
         23    2    4    4    0    0  0.12109531720E+03 -0.16775870309E+03  0.54136129537E+03  0.58691538658E+03  0.92685276990E+02 0.  0.
          3    1    3    3  502    0  0.17142662627E+03  0.41627644317E+03  0.69020507061E+01  0.45024527053E+03  0.00000000000E+00 0. -1.
         -4    1    3    3    0  502 -0.80189330013E+01  0.20680050149E+02  0.71484739585E+01  0.23303828883E+02  0.00000000000E+00 0.  1.
         11    1    5    5    0    0 -0.46826196705E+02 -0.78089914838E+01 -0.41636169229E+02  0.63144624743E+02  0.00000000000E+00 0.  1.
        -11    1    5    5    0    0 -0.23767681376E+03 -0.26138879874E+03 -0.18241262233E+03  0.39760374331E+03  0.00000000000E+00 0. -1.
          1    1    6    6  503    0  0.51854149571E+02 -0.14455082171E+03  0.37546673092E+03  0.40565879618E+03  0.00000000000E+00 0. -1.
         -1    1    6    6    0  503  0.69241167627E+02 -0.23207881384E+02  0.16589456445E+03  0.18125659041E+03  0.00000000000E+00 0.  1.
<mgrwt>
<rscale>  0 0.14846842E+04</rscale>
<asrwt>0</asrwt>
<pdfrwt beam="1">  1        1 0.91526910E-01 0.14846842E+04</pdfrwt>
<pdfrwt beam="2">  1       -2 0.14250584E+00 0.14846842E+04</pdfrwt>
<totfact> 0.10071178E+01</totfact>
</mgrwt>
</event>
<event>
12    4  0.4381187E-008  0.2125403E+04  0.7818608E-02  0.8550135E-01
          1   -1    0    0  501    0  0.00000000000E+00  0.00000000000E+00  0.29244046930E+04  0.29244046930E+04  0.00000000000E+00 0. -1.
         -2   -1    0    0    0  501 -0.00000000000E+00 -0.00000000000E+00 -0.38617587832E+03  0.38617587832E+03  0.00000000000E+00 0.  1.
        -24    2    1    2    0    0  0.28486931225E+03  0.54124040921E+03  0.56273335809E+02  0.61936277072E+03  0.79698480581E+02 0.  0.
        254    2    1    2    0    0 -0.28486931225E+03 -0.54124040921E+03  0.24819554789E+04  0.26912178006E+04  0.84169979535E+03 0.  0.
         23    2    4    4    0    0 -0.55971755300E+03 -0.45608353031E+03  0.15671088837E+04  0.17279255442E+04  0.92738920738E+02 0.  0.
         23    2    4    4    0    0  0.27484824075E+03 -0.85156878900E+02  0.91484659523E+03  0.96329225637E+03  0.90523084989E+02 0.  0.
          1    1    3    3  502    0  0.12327203445E+03  0.30467326796E+03  0.75244361628E+01  0.32875281266E+03  0.00000000000E+00 0. -1.
         -2    1    3    3    0  502  0.16159727780E+03  0.23656714125E+03  0.48748899646E+02  0.29060995806E+03  0.00000000000E+00 0.  1.
         11    1    5    5    0    0 -0.45403725660E+03 -0.37193526895E+03  0.11797368265E+04  0.13176739561E+04  0.00000000000E+00 0.  1.
        -11    1    5    5    0    0 -0.10568029641E+03 -0.84148261361E+02  0.38737205712E+03  0.41025158815E+03  0.00000000000E+00 0. -1.
          3    1    6    6  503    0  0.23047502062E+02  0.14048155607E+02  0.13901469079E+03  0.14161081273E+03  0.00000000000E+00 0. -1.
         -3    1    6    6    0  503  0.25180073869E+03 -0.99205034507E+02  0.77583190443E+03  0.82168144363E+03  0.00000000000E+00 0.  1.
<mgrwt>
<rscale>  0 0.21254031E+04</rscale>
<asrwt>0</asrwt>
<pdfrwt beam="1">  1        1 0.44990840E+00 0.21254031E+04</pdfrwt>
<pdfrwt beam="2">  1       -2 0.59411676E-01 0.21254031E+04</pdfrwt>
<totfact> 0.14480855E+00</totfact>
</mgrwt>
</event>
<event>
12    4  0.4381187E-008  0.1787589E+04  0.7818608E-02  0.8712927E-01
         -2   -1    0    0    0  501 -0.00000000000E+00  0.00000000000E+00  0.85139133939E+03  0.85139133939E+03  0.00000000000E+00 0.  1.
          1   -1    0    0  501    0  0.00000000000E+00 -0.00000000000E+00 -0.93830984962E+03  0.93830984962E+03  0.00000000000E+00 0. -1.
        -24    2    1    2    0    0 -0.47876271493E+03  0.23680449373E+03  0.35707838178E+03  0.64741466272E+03  0.79691086756E+02 0.  0.
        254    2    1    2    0    0  0.47876271493E+03 -0.23680449373E+03 -0.44399689201E+03  0.11422865263E+04  0.90686005677E+03 0.  0.
         23    2    4    4    0    0 -0.23276022342E+03  0.86423634458E+02 -0.13716261476E+03  0.29793874601E+03  0.91145747477E+02 0.  0.
         23    2    4    4    0    0  0.71152293836E+03 -0.32322812819E+03 -0.30683427725E+03  0.84434778028E+03  0.89635850588E+02 0.  0.
          1    1    3    3  502    0 -0.37071379871E+03  0.20616903691E+03  0.25074975796E+03  0.49275737788E+03  0.00000000000E+00 0. -1.
         -2    1    3    3    0  502 -0.10804891622E+03  0.30635456820E+02  0.10632862382E+03  0.15465728484E+03  0.00000000000E+00 0.  1.
         11    1    5    5    0    0 -0.16763959047E+03  0.48077232964E+02 -0.13795157868E+03  0.22236252086E+03  0.00000000000E+00 0.  1.
        -11    1    5    5    0    0 -0.65120632953E+02  0.38346401494E+02  0.78896391637E+00  0.75576225150E+02  0.00000000000E+00 0. -1.
          4    1    6    6  503    0  0.37405428977E+03 -0.21695995769E+03 -0.18208082237E+03  0.46919256261E+03  0.00000000000E+00 0. -1.
         -4    1    6    6    0  503  0.33746864859E+03 -0.10626817050E+03 -0.12475345488E+03  0.37515521767E+03  0.00000000000E+00 0.  1.
<mgrwt>
<rscale>  0 0.17875893E+04</rscale>
<asrwt>0</asrwt>
<pdfrwt beam="1">  1        1 0.14435536E+00 0.17875893E+04</pdfrwt>
<pdfrwt beam="2">  1       -2 0.13098328E+00 0.17875893E+04</pdfrwt>
<totfact> 0.59738664E+00</totfact>
</mgrwt>
</event>
<event>
12    4  0.4381187E-008  0.1239415E+04  0.7818608E-02  0.9079039E-01
         -2   -1    0    0    0  501 -0.00000000000E+00  0.00000000000E+00  0.12623302341E+04  0.12623302341E+04  0.00000000000E+00 0.  1.
          1   -1    0    0  501    0  0.00000000000E+00 -0.00000000000E+00 -0.30422897559E+03  0.30422897559E+03  0.00000000000E+00 0. -1.
        -24    2    1    2    0    0  0.23477349380E+02  0.18190805833E+03 -0.45358588194E+02  0.20489619844E+03  0.79267414455E+02 0.  0.
        254    2    1    2    0    0 -0.23477349380E+02 -0.18190805833E+03  0.10034598467E+04  0.13616630112E+04  0.90197159857E+03 0.  0.
         23    2    4    4    0    0  0.19946086358E+03  0.12600983344E+03 -0.31966145553E+02  0.25494113326E+03  0.91159381001E+02 0.  0.
         23    2    4    4    0    0 -0.22293821296E+03 -0.30791789177E+03  0.10354259922E+04  0.11067218780E+04  0.90617078439E+02 0.  0.
          3    1    3    3  502    0  0.53071917567E+02  0.11579170814E+03 -0.29000536304E+02  0.13063452536E+03  0.00000000000E+00 0. -1.
         -4    1    3    3    0  502 -0.29594568187E+02  0.66116350186E+02 -0.16358051890E+02  0.74261673087E+02  0.00000000000E+00 0.  1.
         11    1    5    5    0    0  0.19115897094E+03  0.84489311460E+02 -0.37178545680E+02  0.21227915626E+03  0.00000000000E+00 0.  1.
        -11    1    5    5    0    0  0.83018926370E+01  0.41520521981E+02  0.52124001270E+01  0.42661977006E+02  0.00000000000E+00 0. -1.
          4    1    6    6  503    0 -0.34136015046E+02 -0.10248314904E+03  0.36229696461E+03  0.37805707760E+03  0.00000000000E+00 0. -1.
         -4    1    6    6    0  503 -0.18880219791E+03 -0.20543474274E+03  0.67312902763E+03  0.72866480037E+03  0.00000000000E+00 0.  1.
<mgrwt>
<rscale>  0 0.12394151E+04</rscale>
<asrwt>0</asrwt>
<pdfrwt beam="1">  1        1 0.46804458E-01 0.12394151E+04</pdfrwt>
<pdfrwt beam="2">  1       -2 0.19420465E+00 0.12394151E+04</pdfrwt>
<totfact> 0.10764103E+01</totfact>
</mgrwt>
</event>
<event>
12    4  0.4381187E-008  0.2622840E+04  0.7818608E-02  0.8360484E-01
         -2   -1    0    0    0  501 -0.00000000000E+00  0.00000000000E+00  0.23897517135E+04  0.23897517135E+04  0.00000000000E+00 0.  1.
          1   -1    0    0  501    0  0.00000000000E+00 -0.00000000000E+00 -0.71966588592E+03  0.71966588592E+03  0.00000000000E+00 0. -1.
        -24    2    1    2    0    0  0.52261589103E+03  0.78649663601E+03 -0.50174606613E+02  0.94907180507E+03  0.80718473825E+02 0.  0.
        254    2    1    2    0    0 -0.52261589103E+03 -0.78649663601E+03  0.17202604342E+04  0.21603457944E+04  0.90337902438E+03 0.  0.
         23    2    4    4    0    0 -0.52019995798E+03 -0.82524546799E+02  0.10768018490E+04  0.12021676101E+04  0.91029904564E+02 0.  0.
         23    2    4    4    0    0 -0.24159330580E+01 -0.70397208921E+03  0.64345858523E+03  0.95817818433E+03  0.92108321583E+02 0.  0.
          1    1    3    3  502    0  0.50481983391E+03  0.74952606287E+03 -0.32129115244E+02  0.90424812064E+03  0.00000000000E+00 0. -1.
         -2    1    3    3    0  502  0.17796057124E+02  0.36970573138E+02 -0.18045491369E+02  0.44823684432E+02  0.00000000000E+00 0.  1.
         11    1    5    5    0    0 -0.10587404104E+03 -0.36602441120E+02  0.30603736379E+03  0.32589556502E+03  0.00000000000E+00 0.  1.
        -11    1    5    5    0    0 -0.41432591693E+03 -0.45922105679E+02  0.77076448523E+03  0.87627204504E+03  0.00000000000E+00 0. -1.
          3    1    6    6  503    0  0.30110855467E+02 -0.57193192628E+03  0.49674884380E+03  0.75813732644E+03  0.00000000000E+00 0. -1.
         -3    1    6    6    0  503 -0.32526788525E+02 -0.13204016293E+03  0.14670974143E+03  0.20004085790E+03  0.00000000000E+00 0.  1.
<mgrwt>
<rscale>  0 0.26228403E+04</rscale>
<asrwt>0</asrwt>
<pdfrwt beam="1">  1        1 0.11071783E+00 0.26228403E+04</pdfrwt>
<pdfrwt beam="2">  1       -2 0.36765411E+00 0.26228403E+04</pdfrwt>
<totfact> 0.24190421E-01</totfact>
</mgrwt>
</event>
<event>
12    4  0.4381187E-008  0.1266695E+04  0.7818608E-02  0.9056401E-01
         -2   -1    0    0    0  501 -0.00000000000E+00  0.00000000000E+00  0.28793453747E+03  0.28793453747E+03  0.00000000000E+00 0.  1.
          1   -1    0    0  501    0  0.00000000000E+00 -0.00000000000E+00 -0.13931256811E+04  0.13931256811E+04  0.00000000000E+00 0. -1.
        -24    2    1    2    0    0 -0.27980647624E+03  0.78122816077E+02 -0.43050136357E+03  0.52537488829E+03  0.79325347000E+02 0.  0.
        254    2    1    2    0    0  0.27980647624E+03 -0.78122816077E+02 -0.67468978006E+03  0.11556853303E+04  0.89219249312E+03 0.  0.
         23    2    4    4    0    0 -0.16783771310E+03 -0.28770511293E+03 -0.41863842000E+02  0.34746352407E+03  0.89635870863E+02 0.  0.
         23    2    4    4    0    0  0.44764418934E+03  0.20958229685E+03 -0.63282593806E+03  0.80822180622E+03  0.91889938284E+02 0.  0.
          3    1    3    3  502    0 -0.14806059416E+03  0.52553544223E+02 -0.16471888048E+03  0.22763155348E+03  0.00000000000E+00 0. -1.
         -4    1    3    3    0  502 -0.13174588208E+03  0.25569271853E+02 -0.26578248309E+03  0.29774333481E+03  0.00000000000E+00 0.  1.
         11    1    5    5    0    0 -0.12937401616E+03 -0.21589125518E+03 -0.70059060695E+02  0.26125646806E+03  0.00000000000E+00 0.  1.
        -11    1    5    5    0    0 -0.38463696944E+02 -0.71813857752E+02  0.28195218695E+02  0.86207056005E+02  0.00000000000E+00 0. -1.
          3    1    6    6  503    0  0.11658356573E+03  0.48678340199E+02 -0.23096034790E+03  0.26325651161E+03  0.00000000000E+00 0. -1.
         -3    1    6    6    0  503  0.33106062361E+03  0.16090395665E+03 -0.40186559017E+03  0.54496529461E+03  0.00000000000E+00 0.  1.
<mgrwt>
<rscale>  0 0.12666949E+04</rscale>
<asrwt>0</asrwt>
<pdfrwt beam="1">  1        1 0.21432703E+00 0.12666949E+04</pdfrwt>
<pdfrwt beam="2">  1       -2 0.44297621E-01 0.12666949E+04</pdfrwt>
<totfact> 0.32439342E+01</totfact>
</mgrwt>
</event>
<event>
12    4  0.4381187E-008  0.1858941E+04  0.7818608E-02  0.8675568E-01
          1   -1    0    0  501    0  0.00000000000E+00  0.00000000000E+00  0.38088551261E+04  0.38088551261E+04  0.00000000000E+00 0. -1.
         -2   -1    0    0    0  501 -0.00000000000E+00 -0.00000000000E+00 -0.22681754533E+03  0.22681754533E+03  0.00000000000E+00 0.  1.
        -24    2    1    2    0    0 -0.41415979032E+03 -0.29605398911E+03  0.30717978431E+03  0.59961508434E+03  0.77476016276E+02 0.  0.
        254    2    1    2    0    0  0.41415979032E+03  0.29605398911E+03  0.32748577965E+04  0.34360575871E+04  0.90698503754E+03 0.  0.
         23    2    4    4    0    0  0.22931654775E+03 -0.67373704884E+02  0.17955998430E+03  0.31258703306E+03  0.91343144753E+02 0.  0.
         23    2    4    4    0    0  0.18484324257E+03  0.36342769399E+03  0.30952978122E+04  0.31234705540E+04  0.94620520117E+02 0.  0.
          3    1    3    3  502    0 -0.11740737349E+03 -0.70984758964E+02  0.12234146920E+03  0.18382263854E+03  0.00000000000E+00 0. -1.
         -4    1    3    3    0  502 -0.29675241683E+03 -0.22506923014E+03  0.18483831511E+03  0.41579244580E+03  0.00000000000E+00 0.  1.
         11    1    5    5    0    0  0.22965415885E+02 -0.38699008125E+02  0.49928529426E+02  0.67215188814E+02  0.00000000000E+00 0. -1.
        -11    1    5    5    0    0  0.20635113186E+03 -0.28674696759E+02  0.12963145488E+03  0.24537184424E+03  0.00000000000E+00 0.  1.
          3    1    6    6  503    0  0.97835314393E+02  0.22218357928E+03  0.14931598335E+04  0.15127668624E+04  0.00000000000E+00 0. -1.
         -3    1    6    6    0  503  0.87007928179E+02  0.14124411471E+03  0.16021379786E+04  0.16107036916E+04  0.00000000000E+00 0.  1.
<mgrwt>
<rscale>  0 0.18589407E+04</rscale>
<asrwt>0</asrwt>
<pdfrwt beam="1">  1        1 0.58597766E+00 0.18589407E+04</pdfrwt>
<pdfrwt beam="2">  1       -2 0.34895010E-01 0.18589407E+04</pdfrwt>
<totfact> 0.89795762E-01</totfact>
</mgrwt>
</event>
<event>
12    4  0.4381187E-008  0.1611946E+04  0.7818608E-02  0.8813242E-01
         -2   -1    0    0    0  501 -0.00000000000E+00  0.00000000000E+00  0.30739870531E+03  0.30739870531E+03  0.00000000000E+00 0.  1.
          1   -1    0    0  501    0  0.00000000000E+00 -0.00000000000E+00 -0.21131928949E+04  0.21131928949E+04  0.00000000000E+00 0. -1.
        -24    2    1    2    0    0 -0.26259317263E+03 -0.57875111370E+02  0.98565501773E+02  0.29879547531E+03  0.85199032242E+02 0.  0.
        254    2    1    2    0    0  0.26259317263E+03  0.57875111370E+02 -0.19043596914E+04  0.21217961250E+04  0.89617423461E+03 0.  0.
         23    2    4    4    0    0 -0.76716350695E+02  0.19722468254E+03 -0.56891976446E+02  0.23605202011E+03  0.87754688455E+02 0.  0.
         23    2    4    4    0    0  0.33930952333E+03 -0.13934957117E+03 -0.18474677150E+04  0.18857441048E+04  0.91348867168E+02 0.  0.
          1    1    3    3  502    0 -0.70417850465E+02 -0.51854349164E+02  0.48989089801E+02  0.10023710945E+03  0.00000000000E+00 0. -1.
         -2    1    3    3    0  502 -0.19217532217E+03 -0.60207622052E+01  0.49576411972E+02  0.19855836586E+03  0.00000000000E+00 0.  1.
         11    1    5    5    0    0 -0.38300692937E+01  0.53677608221E+01 -0.28032573725E+02  0.28797699156E+02  0.00000000000E+00 0.  1.
        -11    1    5    5    0    0 -0.72886281402E+02  0.19185692172E+03 -0.28859402721E+02  0.20725432095E+03  0.00000000000E+00 0. -1.
          3    1    6    6  503    0  0.34099701910E+03 -0.14612202315E+03 -0.18090962001E+04  0.18467429907E+04  0.00000000000E+00 0. -1.
         -3    1    6    6    0  503 -0.16874957682E+01  0.67724519763E+01 -0.38371514892E+02  0.39001114123E+02  0.00000000000E+00 0.  1.
<mgrwt>
<rscale>  0 0.16119464E+04</rscale>
<asrwt>0</asrwt>
<pdfrwt beam="1">  1        1 0.32510660E+00 0.16119464E+04</pdfrwt>
<pdfrwt beam="2">  1       -2 0.47292108E-01 0.16119464E+04</pdfrwt>
<totfact> 0.89092413E+00</totfact>
</mgrwt>
</event>
<event>
12    4  0.4381187E-008  0.2374150E+04  0.7818608E-02  0.8449245E-01
         -2   -1    0    0    0  501 -0.00000000000E+00  0.00000000000E+00  0.11801897621E+04  0.11801897621E+04  0.00000000000E+00 0.  1.
          1   -1    0    0  501    0  0.00000000000E+00 -0.00000000000E+00 -0.11940005879E+04  0.11940005879E+04  0.00000000000E+00 0. -1.
        -24    2    1    2    0    0 -0.31430867773E+03 -0.71119892674E+03 -0.73264981420E+03  0.10715316729E+04  0.82525859588E+02 0.  0.
        254    2    1    2    0    0  0.31430867773E+03  0.71119892674E+03  0.71883898840E+03  0.13026586770E+04  0.75868061748E+03 0.  0.
         23    2    4    4    0    0 -0.15209461983E+03  0.63369115039E+02  0.39336245518E+03  0.43611433180E+03  0.91177141517E+02 0.  0.
         23    2    4    4    0    0  0.46640329756E+03  0.64782981170E+03  0.32547653322E+03  0.86654434524E+03  0.88026289755E+02 0.  0.
          1    1    3    3  502    0 -0.23785679839E+03 -0.59641566901E+03 -0.57331671739E+03  0.86080169913E+03  0.00000000000E+00 0. -1.
         -2    1    3    3    0  502 -0.76451879342E+02 -0.11478325773E+03 -0.15933309681E+03  0.21072997378E+03  0.00000000000E+00 0.  1.
         11    1    5    5    0    0 -0.26864906531E+01  0.33662287418E+02  0.48420669493E+02  0.59033279262E+02  0.00000000000E+00 0. -1.
        -11    1    5    5    0    0 -0.14940812918E+03  0.29706827621E+02  0.34494178569E+03  0.37708105254E+03  0.00000000000E+00 0.  1.
          3    1    6    6  503    0  0.41141144203E+03  0.54220415426E+03  0.24760678965E+03  0.72426089347E+03  0.00000000000E+00 0. -1.
         -3    1    6    6    0  503  0.54991855537E+02  0.10562565745E+03  0.77869743566E+02  0.14228345178E+03  0.00000000000E+00 0.  1.
<mgrwt>
<rscale>  0 0.23741502E+04</rscale>
<asrwt>0</asrwt>
<pdfrwt beam="1">  1        1 0.18369240E+00 0.23741502E+04</pdfrwt>
<pdfrwt beam="2">  1       -2 0.18156766E+00 0.23741502E+04</pdfrwt>
<totfact> 0.15043563E+00</totfact>
</mgrwt>
</event>
<event>
12    4  0.4381187E-008  0.2765395E+04  0.7818608E-02  0.8314093E-01
          3   -1    0    0  501    0  0.00000000000E+00  0.00000000000E+00  0.10264528473E+04  0.10264528473E+04  0.00000000000E+00 0. -1.
         -4   -1    0    0    0  501 -0.00000000000E+00 -0.00000000000E+00 -0.18625822863E+04  0.18625822863E+04  0.00000000000E+00 0.  1.
        -24    2    1    2    0    0 -0.12209258864E+04  0.67583583578E+02 -0.55593342225E+03  0.13456714533E+04  0.80883430201E+02 0.  0.
        254    2    1    2    0    0  0.12209258864E+04 -0.67583583578E+02 -0.28019601669E+03  0.15433636803E+04  0.89901839862E+03 0.  0.
         23    2    4    4    0    0  0.25072535808E+03 -0.65774471506E+02  0.30164765336E+03  0.40838146446E+03  0.92707213604E+02 0.  0.
         23    2    4    4    0    0  0.97020052836E+03 -0.18091120718E+01 -0.58184367005E+03  0.11349822159E+04  0.91379624877E+02 0.  0.
          1    1    3    3  502    0 -0.11434423554E+04  0.44323955954E+02 -0.51214493640E+03  0.12536815661E+04  0.00000000000E+00 0. -1.
         -4    1    3    3    0  502 -0.77483530990E+02  0.23259627623E+02 -0.43788485845E+02  0.91989887186E+02  0.00000000000E+00 0.  1.
         11    1    5    5    0    0 -0.67135017622E+00 -0.15684028923E+02  0.35740310702E+02  0.39035999839E+02  0.00000000000E+00 0. -1.
        -11    1    5    5    0    0  0.25139670826E+03 -0.50090442583E+02  0.26590734266E+03  0.36934546463E+03  0.00000000000E+00 0.  1.
          1    1    6    6  503    0  0.58783379805E+02  0.15936931027E+02 -0.19753566659E+02  0.64028703779E+02  0.00000000000E+00 0. -1.
         -1    1    6    6    0  503  0.91141714855E+03 -0.17746043098E+02 -0.56209010340E+03  0.10709535121E+04  0.00000000000E+00 0.  1.
<mgrwt>
<rscale>  0 0.27653954E+04</rscale>
<asrwt>0</asrwt>
<pdfrwt beam="1">  1        3 0.15791582E+00 0.27653954E+04</pdfrwt>
<pdfrwt beam="2">  1       -4 0.28655112E+00 0.27653954E+04</pdfrwt>
<totfact> 0.20999355E-02</totfact>
</mgrwt>
</event>
<event>
12    4  0.4381187E-008  0.1302430E+04  0.7818608E-02  0.9027640E-01
         -4   -1    0    0    0  501 -0.00000000000E+00  0.00000000000E+00  0.58905999333E+03  0.58905999333E+03  0.00000000000E+00 0.  1.
          3   -1    0    0  501    0  0.00000000000E+00 -0.00000000000E+00 -0.71992867834E+03  0.71992867834E+03  0.00000000000E+00 0. -1.
        -24    2    1    2    0    0  0.19663536705E+03  0.25002195434E+03 -0.11826423926E+03  0.34891204943E+03  0.81097119041E+02 0.  0.
        254    2    1    2    0    0 -0.19663536705E+03 -0.25002195434E+03 -0.12604445753E+02  0.96007662225E+03  0.90576586561E+03 0.  0.
         23    2    4    4    0    0 -0.21819168729E+02  0.33059950387E+03 -0.44365368482E+02  0.34613970232E+03  0.89845976647E+02 0.  0.
         23    2    4    4    0    0 -0.17481619833E+03 -0.58062145821E+03  0.31760922729E+02  0.61393691993E+03  0.90707246217E+02 0.  0.
          3    1    3    3  502    0  0.15609091027E+03  0.15428052073E+03 -0.10750222294E+03  0.24438408149E+03  0.00000000000E+00 0. -1.
         -4    1    3    3    0  502  0.40544456781E+02  0.95741433615E+02 -0.10762016315E+02  0.10452796794E+03  0.00000000000E+00 0.  1.
         11    1    5    5    0    0 -0.14954187936E+02  0.14781508422E+02  0.13504880944E+02  0.24990048767E+02  0.00000000000E+00 0. -1.
        -11    1    5    5    0    0 -0.68649807926E+01  0.31581799544E+03 -0.57870249426E+02  0.32114965355E+03  0.00000000000E+00 0.  1.
          2    1    6    6  503    0 -0.16150589337E+03 -0.55069951884E+03  0.50661000517E+02  0.57612555109E+03  0.00000000000E+00 0.  1.
         -2    1    6    6    0  503 -0.13310304957E+02 -0.29921939369E+02 -0.18900077788E+02  0.37811368846E+02  0.00000000000E+00 0. -1.
<mgrwt>
<rscale>  0 0.13024303E+04</rscale>
<asrwt>0</asrwt>
<pdfrwt beam="1">  1        3 0.11075826E+00 0.13024303E+04</pdfrwt>
<pdfrwt beam="2">  1       -4 0.90624615E-01 0.13024303E+04</pdfrwt>
<totfact> 0.16048405E+00</totfact>
</mgrwt>
</event>
<event>
12    4  0.4381187E-008  0.3403848E+04  0.7818608E-02  0.8136963E-01
         -2   -1    0    0    0  501 -0.00000000000E+00  0.00000000000E+00  0.31022849311E+04  0.31022849311E+04  0.00000000000E+00 0.  1.
          1   -1    0    0  501    0  0.00000000000E+00 -0.00000000000E+00 -0.93368121981E+03  0.93368121981E+03  0.00000000000E+00 0. -1.
        -24    2    1    2    0    0  0.35099565775E+03 -0.39930431197E+02 -0.81943920516E+03  0.89602060270E+03  0.81116696238E+02 0.  0.
        254    2    1    2    0    0 -0.35099565775E+03  0.39930431197E+02  0.29880429165E+04  0.31399455482E+04  0.89781132990E+03 0.  0.
         23    2    4    4    0    0 -0.10572603679E+03  0.32511181451E+03  0.44830599552E+03  0.57086199271E+03  0.89607267075E+02 0.  0.
         23    2    4    4    0    0 -0.24526962096E+03 -0.28518138331E+03  0.25397369210E+04  0.25690835555E+04  0.91875346353E+02 0.  0.
          3    1    3    3  502    0  0.21184643293E+03 -0.52667402020E+02 -0.42929579844E+03  0.48160943610E+03  0.00000000000E+00 0. -1.
         -4    1    3    3    0  502  0.13914922482E+03  0.12736970823E+02 -0.39014340673E+03  0.41441116660E+03  0.00000000000E+00 0.  1.
         11    1    5    5    0    0 -0.88179550389E+02  0.15200157980E+03  0.18407531397E+03  0.25448739572E+03  0.00000000000E+00 0. -1.
        -11    1    5    5    0    0 -0.17546486401E+02  0.17311023470E+03  0.26423068155E+03  0.31637459699E+03  0.00000000000E+00 0.  1.
          3    1    6    6  503    0 -0.89888625015E+02 -0.54399701560E+02  0.87086339842E+03  0.87717863126E+03  0.00000000000E+00 0. -1.
         -3    1    6    6    0  503 -0.15538099595E+03 -0.23078168175E+03  0.16688735225E+04  0.16919049243E+04  0.00000000000E+00 0.  1.
<mgrwt>
<rscale>  0 0.34038479E+04</rscale>
<asrwt>0</asrwt>
<pdfrwt beam="1">  1        1 0.14364327E+00 0.34038479E+04</pdfrwt>
<pdfrwt beam="2">  1       -2 0.47727460E+00 0.34038479E+04</pdfrwt>
<totfact> 0.28309878E-02</totfact>
</mgrwt>
</event>
<event>
12    4  0.4381187E-008  0.2057899E+04  0.7818608E-02  0.8580019E-01
         -2   -1    0    0    0  501 -0.00000000000E+00  0.00000000000E+00  0.21999922636E+04  0.21999922636E+04  0.00000000000E+00 0.  1.
          1   -1    0    0  501    0  0.00000000000E+00 -0.00000000000E+00 -0.48124590814E+03  0.48124590814E+03  0.00000000000E+00 0. -1.
        -24    2    1    2    0    0  0.69575074032E+03 -0.34279896326E+02  0.11204047279E+03  0.71002055758E+03  0.79573366747E+02 0.  0.
        254    2    1    2    0    0 -0.69575074032E+03  0.34279896326E+02  0.16067058827E+04  0.19712176142E+04  0.90495905157E+03 0.  0.
         23    2    4    4    0    0 -0.50849270947E+03  0.30928233605E+03  0.14908804699E+04  0.16075739950E+04  0.85727328435E+02 0.  0.
         23    2    4    4    0    0 -0.18725803085E+03 -0.27500243972E+03  0.11582541283E+03  0.36364361922E+03  0.90162317931E+02 0.  0.
          3    1    3    3  502    0  0.54890081125E+03 -0.23966114301E+02  0.12080554330E+03  0.56254817973E+03  0.00000000000E+00 0. -1.
         -4    1    3    3    0  502  0.14684992907E+03 -0.10313782026E+02 -0.87650705118E+01  0.14747237785E+03  0.00000000000E+00 0.  1.
         11    1    5    5    0    0 -0.39162313952E+03  0.26034940273E+03  0.12473987894E+04  0.13330994842E+04  0.00000000000E+00 0. -1.
        -11    1    5    5    0    0 -0.11686956996E+03  0.48932933313E+02  0.24348168048E+03  0.27447451079E+03  0.00000000000E+00 0.  1.
          1    1    6    6  503    0 -0.14082749581E+03 -0.13847523755E+03  0.43163772408E+02  0.20216549220E+03  0.00000000000E+00 0. -1.
         -1    1    6    6    0  503 -0.46430535042E+02 -0.13652720217E+03  0.72661640420E+02  0.16147812702E+03  0.00000000000E+00 0.  1.
<mgrwt>
<rscale>  0 0.20578992E+04</rscale>
<asrwt>0</asrwt>
<pdfrwt beam="1">  1        1 0.74037833E-01 0.20578992E+04</pdfrwt>
<pdfrwt beam="2">  1       -2 0.33846034E+00 0.20578992E+04</pdfrwt>
<totfact> 0.69529946E-01</totfact>
</mgrwt>
</event>
<event>
12    4  0.4381187E-008  0.2503186E+04  0.7818608E-02  0.8401851E-01
          1   -1    0    0  501    0  0.00000000000E+00  0.00000000000E+00  0.24888648670E+04  0.24888648670E+04  0.00000000000E+00 0. -1.
         -2   -1    0    0    0  501 -0.00000000000E+00 -0.00000000000E+00 -0.62939757922E+03  0.62939757922E+03  0.00000000000E+00 0.  1.
        -24    2    1    2    0    0 -0.78853104733E+03  0.16274518671E+02 -0.12368027594E+03  0.80203499534E+03  0.76923666978E+02 0.  0.
        254    2    1    2    0    0  0.78853104733E+03 -0.16274518671E+02  0.19831475637E+04  0.23162274509E+04  0.89999404005E+03 0.  0.
         23    2    4    4    0    0 -0.21354787092E+02  0.18096291474E+03  0.52358105250E+02  0.21120920252E+03  0.93082504266E+02 0.  0.
         23    2    4    4    0    0  0.80988583442E+03 -0.19723743341E+03  0.19307894585E+04  0.21050182484E+04  0.91302919092E+02 0.  0.
          1    1    3    3  502    0 -0.18257870705E+03  0.20439505722E+02 -0.72905120695E+00  0.18372068250E+03  0.00000000000E+00 0. -1.
         -2    1    3    3    0  502 -0.60595234028E+03 -0.41649870517E+01 -0.12295122473E+03  0.61831431284E+03  0.00000000000E+00 0.  1.
         11    1    5    5    0    0  0.36112628509E+01  0.73094682716E+02  0.67375982774E+02  0.99475609651E+02  0.00000000000E+00 0.  1.
        -11    1    5    5    0    0 -0.24966049943E+02  0.10786823202E+03 -0.15017877525E+02  0.11173359287E+03  0.00000000000E+00 0. -1.
          3    1    6    6  503    0  0.61015842022E+03 -0.12020197816E+03  0.15056546087E+04  0.16290296541E+04  0.00000000000E+00 0. -1.
         -3    1    6    6    0  503  0.19972741420E+03 -0.77035455248E+02  0.42513484980E+03  0.47598859426E+03  0.00000000000E+00 0.  1.
<mgrwt>
<rscale>  0 0.25031864E+04</rscale>
<asrwt>0</asrwt>
<pdfrwt beam="1">  1        1 0.38290228E+00 0.25031864E+04</pdfrwt>
<pdfrwt beam="2">  1       -2 0.96830398E-01 0.25031864E+04</pdfrwt>
<totfact> 0.95945408E-01</totfact>
</mgrwt>
</event>
<event>
12    4  0.4381187E-008  0.3875811E+04  0.7818608E-02  0.8030079E-01
          1   -1    0    0  501    0  0.00000000000E+00  0.00000000000E+00  0.24362816826E+04  0.24362816826E+04  0.00000000000E+00 0. -1.
         -2   -1    0    0    0  501 -0.00000000000E+00 -0.00000000000E+00 -0.15414795098E+04  0.15414795098E+04  0.00000000000E+00 0.  1.
        -24    2    1    2    0    0  0.43158416216E+03  0.53764819889E+03 -0.13171802353E+04  0.14889310228E+04  0.81371639645E+02 0.  0.
        254    2    1    2    0    0 -0.43158416216E+03 -0.53764819889E+03  0.22119824081E+04  0.24888301696E+04  0.90888886279E+03 0.  0.
         23    2    4    4    0    0 -0.15707719137E+03  0.15660963199E+03  0.12227351549E+04  0.12461424099E+04  0.92681312932E+02 0.  0.
         23    2    4    4    0    0 -0.27450697078E+03 -0.69425783088E+03  0.98924725315E+03  0.12426877598E+04  0.91185128304E+02 0.  0.
          3    1    3    3  502    0  0.22263983573E+01 -0.41862847877E+00  0.45919009327E+00  0.23114832880E+01  0.00000000000E+00 0. -1.
         -4    1    3    3    0  502  0.42935776380E+03  0.53806682737E+03 -0.13176394254E+04  0.14866195395E+04  0.00000000000E+00 0.  1.
         11    1    5    5    0    0 -0.72029963998E+01  0.11022004645E+02  0.28964268044E+03  0.28994180464E+03  0.00000000000E+00 0. -1.
        -11    1    5    5    0    0 -0.14987419497E+03  0.14558762735E+03  0.93309247447E+03  0.95620060524E+03  0.00000000000E+00 0.  1.
          4    1    6    6  503    0 -0.18304656924E+02 -0.16847222656E+02  0.56865177787E+02  0.62068815206E+02  0.00000000000E+00 0. -1.
         -4    1    6    6    0  503 -0.25620231386E+03 -0.67741060822E+03  0.93238207537E+03  0.11806189445E+04  0.00000000000E+00 0.  1.
<mgrwt>
<rscale>  0 0.38758113E+04</rscale>
<asrwt>0</asrwt>
<pdfrwt beam="1">  1        1 0.37481257E+00 0.38758113E+04</pdfrwt>
<pdfrwt beam="2">  1       -2 0.23715069E+00 0.38758113E+04</pdfrwt>
<totfact> 0.80486031E-02</totfact>
</mgrwt>
</event>
<event>
12    4  0.4381187E-008  0.1982355E+04  0.7818608E-02  0.8614915E-01
          1   -1    0    0  501    0  0.00000000000E+00  0.00000000000E+00  0.17871714036E+04  0.17871714036E+04  0.00000000000E+00 0. -1.
         -2   -1    0    0    0  501 -0.00000000000E+00 -0.00000000000E+00 -0.54971380367E+03  0.54971380367E+03  0.00000000000E+00 0.  1.
        -24    2    1    2    0    0 -0.27082537417E+03 -0.73616596968E+03  0.53664585790E+03  0.95357886688E+03  0.77699165754E+02 0.  0.
        254    2    1    2    0    0  0.27082537417E+03  0.73616596968E+03  0.70081174199E+03  0.13833063403E+04  0.89839446530E+03 0.  0.
         23    2    4    4    0    0  0.93309651689E+02  0.87252446845E+03  0.33235382148E+03  0.94270191321E+03  0.90676322025E+02 0.  0.
         23    2    4    4    0    0  0.17751572248E+03 -0.13635849877E+03  0.36845792051E+03  0.44060442712E+03  0.90915070810E+02 0.  0.
          3    1    3    3  502    0 -0.18884414988E+03 -0.46090349535E+03  0.30020375499E+03  0.58156378797E+03  0.00000000000E+00 0. -1.
         -4    1    3    3    0  502 -0.81981224291E+02 -0.27526247433E+03  0.23644210291E+03  0.37201507891E+03  0.00000000000E+00 0.  1.
         11    1    5    5    0    0 -0.43559732489E+00  0.31616034579E+02  0.31651928776E+02  0.44739333732E+02  0.00000000000E+00 0. -1.
        -11    1    5    5    0    0  0.93745249014E+02  0.84090843387E+03  0.30070189271E+03  0.89796257948E+03  0.00000000000E+00 0.  1.
          3    1    6    6  503    0  0.65137878846E+01 -0.39783103400E+02  0.10132426189E+03  0.10904921273E+03  0.00000000000E+00 0. -1.
         -3    1    6    6    0  503  0.17100193460E+03 -0.96575395368E+02  0.26713365862E+03  0.33155521439E+03  0.00000000000E+00 0.  1.
<mgrwt>
<rscale>  0 0.19823550E+04</rscale>
<asrwt>0</asrwt>
<pdfrwt beam="1">  1        1 0.27494944E+00 0.19823550E+04</pdfrwt>
<pdfrwt beam="2">  1       -2 0.84571355E-01 0.19823550E+04</pdfrwt>
<totfact> 0.41327744E+00</totfact>
</mgrwt>
</event>
<event>
12    4  0.4381187E-008  0.1469419E+04  0.7818608E-02  0.8905047E-01
          1   -1    0    0  501    0  0.00000000000E+00  0.00000000000E+00  0.77622907559E+03  0.77622907559E+03  0.00000000000E+00 0. -1.
         -2   -1    0    0    0  501 -0.00000000000E+00 -0.00000000000E+00 -0.69541089181E+03  0.69541089181E+03  0.00000000000E+00 0.  1.
        -24    2    1    2    0    0  0.23926791624E+03  0.28064900624E+03  0.29606837971E+03  0.47952318058E+03  0.79202239911E+02 0.  0.
        254    2    1    2    0    0 -0.23926791624E+03 -0.28064900624E+03 -0.21525019592E+03  0.99211678681E+03  0.89551665053E+03 0.  0.
         23    2    4    4    0    0 -0.36911128144E+03  0.17774926930E+03  0.74899364245E+02  0.42684247864E+03  0.93523505023E+02 0.  0.
         23    2    4    4    0    0  0.12984336520E+03 -0.45839827554E+03 -0.29014956017E+03  0.56527430817E+03  0.91433023064E+02 0.  0.
          1    1    3    3  502    0  0.14087665584E+03  0.17923660137E+03  0.13372099026E+03  0.26429773868E+03  0.00000000000E+00 0. -1.
         -2    1    3    3    0  502  0.98391260402E+02  0.10141240487E+03  0.16234738944E+03  0.21522544191E+03  0.00000000000E+00 0.  1.
         11    1    5    5    0    0 -0.52965547775E+02  0.44434759986E+00 -0.11534208401E+02  0.54208713869E+02  0.00000000000E+00 0.  1.
        -11    1    5    5    0    0 -0.31614573366E+03  0.17730492170E+03  0.86433572646E+02  0.37263376478E+03  0.00000000000E+00 0. -1.
          3    1    6    6  503    0  0.81769345750E+02 -0.32963095081E+03 -0.15789954382E+03  0.37453311679E+03  0.00000000000E+00 0. -1.
         -3    1    6    6    0  503  0.48074019445E+02 -0.12876732473E+03 -0.13225001634E+03  0.19074119137E+03  0.00000000000E+00 0.  1.
<mgrwt>
<rscale>  0 0.14694191E+04</rscale>
<asrwt>0</asrwt>
<pdfrwt beam="1">  1        1 0.11941986E+00 0.14694191E+04</pdfrwt>
<pdfrwt beam="2">  1       -2 0.10698629E+00 0.14694191E+04</pdfrwt>
<totfact> 0.13847604E+01</totfact>
</mgrwt>
</event>
<event>
12    4  0.4381187E-008  0.1594004E+04  0.7818608E-02  0.8824240E-01
         -2   -1    0    0    0  501 -0.00000000000E+00  0.00000000000E+00  0.28669058093E+03  0.28669058093E+03  0.00000000000E+00 0.  1.
          1   -1    0    0  501    0  0.00000000000E+00 -0.00000000000E+00 -0.22156729852E+04  0.22156729852E+04  0.00000000000E+00 0. -1.
        -24    2    1    2    0    0  0.18832627380E+02  0.51113561369E+02 -0.14921170976E+04  0.14952319684E+04  0.79611193913E+02 0.  0.
        254    2    1    2    0    0 -0.18832627380E+02 -0.51113561369E+02 -0.43686530662E+03  0.10071315977E+04  0.90581206385E+03 0.  0.
         23    2    4    4    0    0  0.22155470634E+03 -0.39521445361E+03 -0.13178617770E+03  0.48043077082E+03  0.90361367153E+02 0.  0.
         23    2    4    4    0    0 -0.24038733372E+03  0.34410089224E+03 -0.30507912892E+03  0.52670082692E+03  0.90271766990E+02 0.  0.
          1    1    3    3  502    0 -0.16624397424E+02  0.37878736957E+02 -0.11947816211E+04  0.11954975079E+04  0.00000000000E+00 0. -1.
         -2    1    3    3    0  502  0.35457024804E+02  0.13234824412E+02 -0.29733547648E+03  0.29973446041E+03  0.00000000000E+00 0.  1.
         11    1    5    5    0    0  0.94984938045E+02 -0.10825306019E+03 -0.11337105493E+02  0.14446242922E+03  0.00000000000E+00 0.  1.
        -11    1    5    5    0    0  0.12656976830E+03 -0.28696139342E+03 -0.12044907221E+03  0.33596834160E+03  0.00000000000E+00 0. -1.
          2    1    6    6  503    0 -0.15227148388E+03  0.24785906892E+03 -0.16163695760E+03  0.33278706241E+03  0.00000000000E+00 0. -1.
         -2    1    6    6    0  503 -0.88115849845E+02  0.96241823324E+02 -0.14344217132E+03  0.19391376450E+03  0.00000000000E+00 0.  1.
<mgrwt>
<rscale>  0 0.15940045E+04</rscale>
<asrwt>0</asrwt>
<pdfrwt beam="1">  1        1 0.34087278E+00 0.15940045E+04</pdfrwt>
<pdfrwt beam="2">  1       -2 0.44106242E-01 0.15940045E+04</pdfrwt>
<totfact> 0.87425398E+00</totfact>
</mgrwt>
</event>
<event>
12    4  0.4381187E-008  0.1250760E+04  0.7818608E-02  0.9069551E-01
         -2   -1    0    0    0  501 -0.00000000000E+00  0.00000000000E+00  0.69916353954E+03  0.69916353954E+03  0.00000000000E+00 0.  1.
          1   -1    0    0  501    0  0.00000000000E+00 -0.00000000000E+00 -0.55938310611E+03  0.55938310611E+03  0.00000000000E+00 0. -1.
        -24    2    1    2    0    0  0.10311665250E+03 -0.18714064221E+03 -0.18073683713E+03  0.29033557653E+03  0.77293458432E+02 0.  0.
        254    2    1    2    0    0 -0.10311665250E+03  0.18714064221E+03  0.32051727056E+03  0.96821106912E+03  0.88828300087E+03 0.  0.
         23    2    4    4    0    0  0.34438530499E+03 -0.33477785253E+02  0.28977213126E+03  0.45901091598E+03  0.83672770608E+02 0.  0.
         23    2    4    4    0    0 -0.44750195749E+03  0.22061842746E+03  0.30745139306E+02  0.50920015313E+03  0.97000205518E+02 0.  0.
          3    1    3    3  502    0  0.13971014275E+02 -0.38911631535E+02 -0.80303685416E+02  0.90321571067E+02  0.00000000000E+00 0. -1.
         -4    1    3    3    0  502  0.89145638223E+02 -0.14822901067E+03 -0.10043315171E+03  0.20001400546E+03  0.00000000000E+00 0.  1.
         11    1    5    5    0    0  0.11024462097E+03 -0.23622225500E+02  0.14452554553E+03  0.18330171658E+03  0.00000000000E+00 0. -1.
        -11    1    5    5    0    0  0.23414068402E+03 -0.98555597531E+01  0.14524658573E+03  0.27570919940E+03  0.00000000000E+00 0.  1.
          2    1    6    6  503    0 -0.29246079716E+03  0.18712298462E+03 -0.21480577122E+01  0.34720734929E+03  0.00000000000E+00 0. -1.
         -2    1    6    6    0  503 -0.15504116033E+03  0.33495442836E+02  0.32893197018E+02  0.16199280384E+03  0.00000000000E+00 0.  1.
<mgrwt>
<rscale>  0 0.12507602E+04</rscale>
<asrwt>0</asrwt>
<pdfrwt beam="1">  1        1 0.86058939E-01 0.12507602E+04</pdfrwt>
<pdfrwt beam="2">  1       -2 0.10756362E+00 0.12507602E+04</pdfrwt>
<totfact> 0.22661079E+01</totfact>
</mgrwt>
</event>
<event>
12    4  0.4381187E-008  0.1773924E+04  0.7818608E-02  0.8720290E-01
          1   -1    0    0  501    0  0.00000000000E+00  0.00000000000E+00  0.88452711239E+03  0.88452711239E+03  0.00000000000E+00 0. -1.
         -2   -1    0    0    0  501 -0.00000000000E+00 -0.00000000000E+00 -0.88940382190E+03  0.88940382190E+03  0.00000000000E+00 0.  1.
        -24    2    1    2    0    0  0.35846276246E+03 -0.50804424199E+03  0.21703268392E+03  0.66338028692E+03  0.79785432862E+02 0.  0.
        254    2    1    2    0    0 -0.35846276246E+03  0.50804424199E+03 -0.22190939343E+03  0.11105506474E+04  0.89301425386E+03 0.  0.
         23    2    4    4    0    0 -0.35872264561E+03  0.67413212267E+03 -0.38627492966E+03  0.86069651726E+03  0.91946279143E+02 0.  0.
         23    2    4    4    0    0  0.25988314833E+00 -0.16608788069E+03  0.16436553623E+03  0.24985413011E+03  0.88463581120E+02 0.  0.
          1    1    3    3  502    0  0.13610195453E+02 -0.42459230610E+02  0.32980472028E+02  0.55459311386E+02  0.00000000000E+00 0. -1.
         -2    1    3    3    0  502  0.34485256701E+03 -0.46558501138E+03  0.18405221189E+03  0.60792097553E+03  0.00000000000E+00 0.  1.
         11    1    5    5    0    0 -0.28348563927E+03  0.57621029690E+03 -0.29254901584E+03  0.70566801019E+03  0.00000000000E+00 0.  1.
        -11    1    5    5    0    0 -0.75237006339E+02  0.97921825768E+02 -0.93725913814E+02  0.15502850707E+03  0.00000000000E+00 0. -1.
          1    1    6    6  503    0 -0.10110810099E+02  0.56715628967E+01  0.27980354629E+02  0.30286884153E+02  0.00000000000E+00 0. -1.
         -1    1    6    6    0  503  0.10370693247E+02 -0.17175944358E+03  0.13638518160E+03  0.21956724596E+03  0.00000000000E+00 0.  1.
<mgrwt>
<rscale>  0 0.17739242E+04</rscale>
<asrwt>0</asrwt>
<pdfrwt beam="1">  1        1 0.13608109E+00 0.17739242E+04</pdfrwt>
<pdfrwt beam="2">  1       -2 0.13683136E+00 0.17739242E+04</pdfrwt>
<totfact> 0.59174283E+00</totfact>
</mgrwt>
</event>
<event>
12    4  0.4381187E-008  0.1556159E+04  0.7818608E-02  0.8847943E-01
         -2   -1    0    0    0  501 -0.00000000000E+00  0.00000000000E+00  0.22691542568E+03  0.22691542568E+03  0.00000000000E+00 0.  1.
          1   -1    0    0  501    0  0.00000000000E+00 -0.00000000000E+00 -0.26679886006E+04  0.26679886006E+04  0.00000000000E+00 0. -1.
        -24    2    1    2    0    0  0.21190880118E+03  0.18549680893E+03 -0.19921267381E+02  0.29352755314E+03  0.80294217827E+02 0.  0.
        254    2    1    2    0    0 -0.21190880118E+03 -0.18549680893E+03 -0.24211519076E+04  0.26013764732E+04  0.90877312320E+03 0.  0.
         23    2    4    4    0    0 -0.54962174646E+03 -0.22247495035E+03 -0.15152445669E+04  0.16296052141E+04  0.89821427114E+02 0.  0.
         23    2    4    4    0    0  0.33771294528E+03  0.36978141417E+02 -0.90590734070E+03  0.97177125904E+03  0.90850721521E+02 0.  0.
          3    1    3    3  502    0  0.91960941926E+02  0.64612412098E+02 -0.45634891216E+02  0.12130178042E+03  0.00000000000E+00 0. -1.
         -4    1    3    3    0  502  0.11994785925E+03  0.12088439684E+03  0.25713623835E+02  0.17222577272E+03  0.00000000000E+00 0.  1.
         11    1    5    5    0    0 -0.13502419555E+03 -0.91555031341E+02 -0.35937695658E+03  0.39467157748E+03  0.00000000000E+00 0. -1.
        -11    1    5    5    0    0 -0.41459755091E+03 -0.13091991901E+03 -0.11558676103E+04  0.12349336366E+04  0.00000000000E+00 0.  1.
          4    1    6    6  503    0  0.10098745826E+03  0.46132031407E+02 -0.35855224347E+03  0.37534829471E+03  0.00000000000E+00 0. -1.
         -4    1    6    6    0  503  0.23672548701E+03 -0.91538899901E+01 -0.54735509724E+03  0.59642296433E+03  0.00000000000E+00 0.  1.
<mgrwt>
<rscale>  0 0.15561591E+04</rscale>
<asrwt>0</asrwt>
<pdfrwt beam="1">  1        1 0.41045978E+00 0.15561591E+04</pdfrwt>
<pdfrwt beam="2">  1       -2 0.34910066E-01 0.15561591E+04</pdfrwt>
<totfact> 0.67512120E+00</totfact>
</mgrwt>
</event>
<event>
12    4  0.4381187E-008  0.1744498E+04  0.7818608E-02  0.8736385E-01
         -2   -1    0    0    0  501 -0.00000000000E+00  0.00000000000E+00  0.43016440047E+03  0.43016440047E+03  0.00000000000E+00 0.  1.
          1   -1    0    0  501    0  0.00000000000E+00 -0.00000000000E+00 -0.17686685309E+04  0.17686685309E+04  0.00000000000E+00 0. -1.
        -24    2    1    2    0    0 -0.22186255813E+03  0.80771734860E+02  0.25325810922E+03  0.35527948651E+03  0.79603867950E+02 0.  0.
        254    2    1    2    0    0  0.22186255813E+03 -0.80771734860E+02 -0.15917622396E+04  0.18435534448E+04  0.89957501557E+03 0.  0.
         23    2    4    4    0    0  0.19268920233E+03  0.38825367921E+03 -0.64758679721E+03  0.78504497849E+03  0.95167800267E+02 0.  0.
         23    2    4    4    0    0  0.29173355797E+02 -0.46902541407E+03 -0.94417544242E+03  0.10585084664E+04  0.90205230166E+02 0.  0.
          3    1    3    3  502    0  0.15690615084E+01  0.12097210361E+02  0.28517234140E+02  0.31016722837E+02  0.00000000000E+00 0. -1.
         -4    1    3    3    0  502 -0.22343161964E+03  0.68674524499E+02  0.22474087508E+03  0.32426276367E+03  0.00000000000E+00 0.  1.
         11    1    5    5    0    0  0.44797165069E+02  0.93533227832E+02 -0.90303138795E+02  0.13751329966E+03  0.00000000000E+00 0. -1.
        -11    1    5    5    0    0  0.14789203727E+03  0.29472045138E+03 -0.55728365842E+03  0.64753167883E+03  0.00000000000E+00 0.  1.
          1    1    6    6  503    0  0.92993054786E+01 -0.31311181283E+03 -0.71505271192E+03  0.78065732895E+03  0.00000000000E+00 0. -1.
         -1    1    6    6    0  503  0.19874050318E+02 -0.15591360124E+03 -0.22912273050E+03  0.27785113741E+03  0.00000000000E+00 0.  1.
<mgrwt>
<rscale>  0 0.17444979E+04</rscale>
<asrwt>0</asrwt>
<pdfrwt beam="1">  1        1 0.27210286E+00 0.17444979E+04</pdfrwt>
<pdfrwt beam="2">  1       -2 0.66179137E-01 0.17444979E+04</pdfrwt>
<totfact> 0.74789769E+00</totfact>
</mgrwt>
</event>
<event>
12    4  0.4381187E-008  0.2103839E+04  0.7818608E-02  0.8559554E-01
         -2   -1    0    0    0  501 -0.00000000000E+00  0.00000000000E+00  0.45478262617E+03  0.45478262617E+03  0.00000000000E+00 0.  1.
          1   -1    0    0  501    0  0.00000000000E+00 -0.00000000000E+00 -0.24331059273E+04  0.24331059273E+04  0.00000000000E+00 0. -1.
        -24    2    1    2    0    0 -0.66597175012E+03 -0.34520358338E+03 -0.13941612855E+04  0.15851923711E+04  0.80406950200E+02 0.  0.
        254    2    1    2    0    0  0.66597175012E+03  0.34520358338E+03 -0.58416201562E+03  0.13026961823E+04  0.89055499378E+03 0.  0.
         23    2    4    4    0    0  0.72549723140E+03  0.41174186509E+03 -0.15379054690E+03  0.85302471588E+03  0.90122346523E+02 0.  0.
         23    2    4    4    0    0 -0.59525481280E+02 -0.66538281711E+02 -0.43037146872E+03  0.44967146642E+03  0.94943144943E+02 0.  0.
          3    1    3    3  502    0 -0.64384789307E+03 -0.34720914958E+03 -0.13635082956E+04  0.15473361545E+04  0.00000000000E+00 0. -1.
         -4    1    3    3    0  502 -0.22123857059E+02  0.20055662054E+01 -0.30652989889E+02  0.37856216611E+02  0.00000000000E+00 0.  1.
         11    1    5    5    0    0  0.42770766647E+03  0.20000668409E+03 -0.61424051795E+02  0.47614014300E+03  0.00000000000E+00 0.  1.
        -11    1    5    5    0    0  0.29778956493E+03  0.21173518099E+03 -0.92366495103E+02  0.37688457287E+03  0.00000000000E+00 0. -1.
          1    1    6    6  503    0 -0.18610103818E+02 -0.81246830239E+02 -0.23000687114E+03  0.24464370861E+03  0.00000000000E+00 0. -1.
         -1    1    6    6    0  503 -0.40915377462E+02  0.14708548528E+02 -0.20036459757E+03  0.20502775781E+03  0.00000000000E+00 0.  1.
<mgrwt>
<rscale>  0 0.21038387E+04</rscale>
<asrwt>0</asrwt>
<pdfrwt beam="1">  1        1 0.37432399E+00 0.21038387E+04</pdfrwt>
<pdfrwt beam="2">  1       -2 0.69966558E-01 0.21038387E+04</pdfrwt>
<totfact> 0.22659471E+00</totfact>
</mgrwt>
</event>
<event>
12    4  0.4381187E-008  0.1837288E+04  0.7818608E-02  0.8686718E-01
         -2   -1    0    0    0  501 -0.00000000000E+00  0.00000000000E+00  0.12066430766E+04  0.12066430766E+04  0.00000000000E+00 0.  1.
          1   -1    0    0  501    0  0.00000000000E+00 -0.00000000000E+00 -0.69938420471E+03  0.69938420471E+03  0.00000000000E+00 0. -1.
        -24    2    1    2    0    0  0.69078081720E+03  0.10869696751E+02  0.91666774590E+02  0.70107932686E+03  0.76243932595E+02 0.  0.
        254    2    1    2    0    0 -0.69078081720E+03 -0.10869696751E+02  0.41559209731E+03  0.12049479545E+04  0.89548115217E+03 0.  0.
         23    2    4    4    0    0 -0.87320122893E+03  0.32337250071E+02  0.19074100125E+03  0.89950523043E+03  0.95924168383E+02 0.  0.
         23    2    4    4    0    0  0.18242041172E+03 -0.43206946821E+02  0.22485109606E+03  0.30544272402E+03  0.87138943041E+02 0.  0.
          3    1    3    3  502    0  0.63925697370E+03  0.15020204421E+02  0.10425796097E+03  0.64787715455E+03  0.00000000000E+00 0. -1.
         -4    1    3    3    0  502  0.51523843504E+02 -0.41505076705E+01 -0.12591186383E+02  0.53202172304E+02  0.00000000000E+00 0.  1.
         11    1    5    5    0    0 -0.59617724014E+03  0.11971984675E+02  0.17429051057E+03  0.62124698161E+03  0.00000000000E+00 0. -1.
        -11    1    5    5    0    0 -0.27702398878E+03  0.20365265396E+02  0.16450490676E+02  0.27825824883E+03  0.00000000000E+00 0.  1.
          4    1    6    6  503    0  0.15341298545E+03  0.40462829381E+00  0.15443825464E+03  0.21768528274E+03  0.00000000000E+00 0.  1.
         -4    1    6    6    0  503  0.29007426276E+02 -0.43611575115E+02  0.70412841421E+02  0.87757441281E+02  0.00000000000E+00 0. -1.
<mgrwt>
<rscale>  0 0.18372883E+04</rscale>
<asrwt>0</asrwt>
<pdfrwt beam="1">  1        1 0.10759757E+00 0.18372883E+04</pdfrwt>
<pdfrwt beam="2">  1       -2 0.18563740E+00 0.18372883E+04</pdfrwt>
<totfact> 0.37254030E+00</totfact>
</mgrwt>
</event>
<event>
12    4  0.4381187E-008  0.1823885E+04  0.7818608E-02  0.8693700E-01
         -2   -1    0    0    0  501 -0.00000000000E+00  0.00000000000E+00  0.12228351892E+04  0.12228351892E+04  0.00000000000E+00 0.  1.
          1   -1    0    0  501    0  0.00000000000E+00 -0.00000000000E+00 -0.68009087850E+03  0.68009087850E+03  0.00000000000E+00 0. -1.
        -24    2    1    2    0    0  0.58779896327E+03 -0.45214798117E+02  0.59912307351E+03  0.84428270440E+03  0.79453310455E+02 0.  0.
        254    2    1    2    0    0 -0.58779896327E+03  0.45214798117E+02 -0.56378762793E+02  0.10586433633E+04  0.87749370745E+03 0.  0.
         23    2    4    4    0    0 -0.56321058119E+03  0.23148686134E+03  0.26902442673E+03  0.67184201416E+03  0.90582691986E+02 0.  0.
         23    2    4    4    0    0 -0.24588382080E+02 -0.18627206322E+03 -0.32540318952E+03  0.38680134916E+03  0.91794214900E+02 0.  0.
          3    1    3    3  502    0  0.18753968477E+03 -0.35054806750E+02  0.23859800846E+03  0.30549792549E+03  0.00000000000E+00 0. -1.
         -4    1    3    3    0  502  0.40025927849E+03 -0.10159991367E+02  0.36052506506E+03  0.53878477890E+03  0.00000000000E+00 0.  1.
         11    1    5    5    0    0 -0.26773874825E+03  0.14007707119E+03  0.17200185662E+03  0.34769276937E+03  0.00000000000E+00 0. -1.
        -11    1    5    5    0    0 -0.29547183293E+03  0.91409790144E+02  0.97022570107E+02  0.32414924480E+03  0.00000000000E+00 0.  1.
          4    1    6    6  503    0 -0.38403273952E+02 -0.19066550959E+03 -0.30602093700E+03  0.36259752051E+03  0.00000000000E+00 0. -1.
         -4    1    6    6    0  503  0.13814891872E+02  0.43934463673E+01 -0.19382252520E+02  0.24203828647E+02  0.00000000000E+00 0.  1.
<mgrwt>
<rscale>  0 0.18238849E+04</rscale>
<asrwt>0</asrwt>
<pdfrwt beam="1">  1        1 0.10462937E+00 0.18238849E+04</pdfrwt>
<pdfrwt beam="2">  1       -2 0.18812849E+00 0.18238849E+04</pdfrwt>
<totfact> 0.37424411E+00</totfact>
</mgrwt>
</event>
<event>
12    4  0.4381187E-008  0.2884987E+04  0.7818608E-02  0.8277358E-01
          1   -1    0    0  501    0  0.00000000000E+00  0.00000000000E+00  0.25287916768E+04  0.25287916768E+04  0.00000000000E+00 0. -1.
         -2   -1    0    0    0  501 -0.00000000000E+00 -0.00000000000E+00 -0.82283865121E+03  0.82283865121E+03  0.00000000000E+00 0.  1.
        -24    2    1    2    0    0  0.37816747305E+03  0.31875090181E+03  0.21320917849E+04  0.21901180778E+04  0.78670455687E+02 0.  0.
        254    2    1    2    0    0 -0.37816747305E+03 -0.31875090181E+03 -0.42613875929E+03  0.11615122502E+04  0.96067876530E+03 0.  0.
         23    2    4    4    0    0 -0.69910347077E+02 -0.26220589957E+03 -0.68660113145E+03  0.74390476153E+03  0.91289594798E+02 0.  0.
         23    2    4    4    0    0 -0.30825712597E+03 -0.56545002242E+02  0.26046237216E+03  0.41760748866E+03  0.91299366264E+02 0.  0.
          1    1    3    3  502    0  0.24716314926E+03  0.25314368657E+03  0.15509914660E+04  0.15908318189E+04  0.00000000000E+00 0. -1.
         -2    1    3    3    0  502  0.13100432380E+03  0.65607215237E+02  0.58110031886E+03  0.59928625892E+03  0.00000000000E+00 0.  1.
         11    1    5    5    0    0 -0.45895488678E+02 -0.18465124611E+03 -0.35798532094E+03  0.40540839728E+03  0.00000000000E+00 0.  1.
        -11    1    5    5    0    0 -0.24014858398E+02 -0.77554653458E+02 -0.32861581050E+03  0.33849636425E+03  0.00000000000E+00 0. -1.
          2    1    6    6  503    0 -0.22801825089E+03 -0.81709862964E+02  0.18835641512E+03  0.30683377187E+03  0.00000000000E+00 0. -1.
         -2    1    6    6    0  503 -0.80238875081E+02  0.25164860723E+02  0.72105957043E+02  0.11077371679E+03  0.00000000000E+00 0.  1.
<mgrwt>
<rscale>  0 0.28849870E+04</rscale>
<asrwt>0</asrwt>
<pdfrwt beam="1">  1        1 0.38904487E+00 0.28849870E+04</pdfrwt>
<pdfrwt beam="2">  1       -2 0.12659056E+00 0.28849870E+04</pdfrwt>
<totfact> 0.45413696E-01</totfact>
</mgrwt>
</event>
<event>
12    4  0.4381187E-008  0.1231887E+04  0.7818608E-02  0.9085395E-01
          1   -1    0    0  501    0  0.00000000000E+00  0.00000000000E+00  0.68140016237E+03  0.68140016237E+03  0.00000000000E+00 0. -1.
         -2   -1    0    0    0  501 -0.00000000000E+00 -0.00000000000E+00 -0.55677465347E+03  0.55677465347E+03  0.00000000000E+00 0.  1.
        -24    2    1    2    0    0  0.29468302248E+02 -0.20248981514E+03 -0.19909539970E+03  0.29692970032E+03  0.81595114293E+02 0.  0.
        254    2    1    2    0    0 -0.29468302248E+02  0.20248981514E+03  0.32372090860E+03  0.94124511552E+03  0.85981197640E+03 0.  0.
         23    2    4    4    0    0  0.10669504852E+03  0.29879896391E+02 -0.26705686378E+03  0.30333149115E+03  0.91727768121E+02 0.  0.
         23    2    4    4    0    0 -0.13616335077E+03  0.17260991875E+03  0.59077777238E+03  0.63791362437E+03  0.97881426620E+02 0.  0.
          1    1    3    3  502    0 -0.12937665659E+02 -0.27528273557E+01 -0.26299438777E+02  0.29438439686E+02  0.00000000000E+00 0. -1.
         -2    1    3    3    0  502  0.42405967907E+02 -0.19973698778E+03 -0.17279596092E+03  0.26749126063E+03  0.00000000000E+00 0.  1.
         11    1    5    5    0    0  0.27067441890E+02 -0.32566721118E+01 -0.53545500918E+01  0.27783511845E+02  0.00000000000E+00 0. -1.
        -11    1    5    5    0    0  0.79627606630E+02  0.33136568503E+02 -0.26170231369E+03  0.27554797931E+03  0.00000000000E+00 0.  1.
          4    1    6    6  503    0 -0.12616061376E+03  0.18541709010E+03  0.54513765112E+03  0.58946675601E+03  0.00000000000E+00 0.  1.
         -4    1    6    6    0  503 -0.10002737006E+02 -0.12807171356E+02  0.45640121259E+02  0.48446868364E+02  0.00000000000E+00 0. -1.
<mgrwt>
<rscale>  0 0.12318869E+04</rscale>
<asrwt>0</asrwt>
<pdfrwt beam="1">  1        1 0.10483079E+00 0.12318869E+04</pdfrwt>
<pdfrwt beam="2">  1       -2 0.85657639E-01 0.12318869E+04</pdfrwt>
<totfact> 0.29057558E+01</totfact>
</mgrwt>
</event>
<event>
12    4  0.4381187E-008  0.1659762E+04  0.7818608E-02  0.8784652E-01
          1   -1    0    0  501    0  0.00000000000E+00  0.00000000000E+00  0.29879356993E+04  0.29879356993E+04  0.00000000000E+00 0. -1.
         -2   -1    0    0    0  501 -0.00000000000E+00 -0.00000000000E+00 -0.23049448812E+03  0.23049448812E+03  0.00000000000E+00 0.  1.
        -24    2    1    2    0    0  0.34690983564E+03 -0.15287929997E+03  0.18293225931E+04  0.18698271875E+04  0.78192372405E+02 0.  0.
        254    2    1    2    0    0 -0.34690983564E+03  0.15287929997E+03  0.92811861802E+03  0.13486029999E+04  0.90200186678E+03 0.  0.
         23    2    4    4    0    0 -0.26330498431E+02  0.32259840712E+03  0.91419672613E+03  0.97420600382E+03  0.92513006620E+02 0.  0.
         23    2    4    4    0    0 -0.32057933721E+03 -0.16971910715E+03  0.13921891893E+02  0.37439699603E+03  0.91671177499E+02 0.  0.
          3    1    3    3  502    0  0.20754958594E+03 -0.86777118099E+02  0.89384623027E+03  0.92172022991E+03  0.00000000000E+00 0. -1.
         -4    1    3    3    0  502  0.13936024970E+03 -0.66102181872E+02  0.93547636285E+03  0.94810695763E+03  0.00000000000E+00 0.  1.
         11    1    5    5    0    0  0.20744263655E+02  0.12034754649E+03  0.43789949686E+03  0.45460953111E+03  0.00000000000E+00 0.  1.
        -11    1    5    5    0    0 -0.47074762086E+02  0.20225086063E+03  0.47629722927E+03  0.51959647272E+03  0.00000000000E+00 0. -1.
          2    1    6    6  503    0 -0.64389907348E+02  0.40844849026E+01  0.43973739185E+01  0.64669004033E+02  0.00000000000E+00 0. -1.
         -2    1    6    6    0  503 -0.25618942986E+03 -0.17380359206E+03  0.95245179749E+01  0.30972799200E+03  0.00000000000E+00 0.  1.
<mgrwt>
<rscale>  0 0.16597623E+04</rscale>
<asrwt>0</asrwt>
<pdfrwt beam="1">  1        1 0.45968239E+00 0.16597623E+04</pdfrwt>
<pdfrwt beam="2">  1       -2 0.35460693E-01 0.16597623E+04</pdfrwt>
<totfact> 0.38380162E+00</totfact>
</mgrwt>
</event>
<event>
12    4  0.4381187E-008  0.2064307E+04  0.7818608E-02  0.8577132E-01
         -4   -1    0    0    0  501 -0.00000000000E+00  0.00000000000E+00  0.14822681270E+04  0.14822681270E+04  0.00000000000E+00 0.  1.
          3   -1    0    0  501    0  0.00000000000E+00 -0.00000000000E+00 -0.71872334072E+03  0.71872334072E+03  0.00000000000E+00 0. -1.
        -24    2    1    2    0    0  0.54299338962E+03  0.58724352786E+03  0.18224649776E+02  0.80389993296E+03  0.78906160525E+02 0.  0.
        254    2    1    2    0    0 -0.54299338962E+03 -0.58724352786E+03  0.74532013655E+03  0.13970915348E+04  0.86986543125E+03 0.  0.
         23    2    4    4    0    0  0.38865796988E+02 -0.16203327620E+02  0.54159312182E+03  0.55188110553E+03  0.97347557967E+02 0.  0.
         23    2    4    4    0    0 -0.58185918661E+03 -0.57104020024E+03  0.20372701473E+03  0.84521042927E+03  0.90713559529E+02 0.  0.
          1    1    3    3  502    0  0.43079015939E+03  0.42549543115E+03 -0.62487959170E+01  0.60552916594E+03  0.00000000000E+00 0. -1.
         -2    1    3    3    0  502  0.11220323023E+03  0.16174809671E+03  0.24473445693E+02  0.19837076702E+03  0.00000000000E+00 0.  1.
         11    1    5    5    0    0 -0.16537807899E+01 -0.51947676704E+02  0.25642150427E+03  0.26163578494E+03  0.00000000000E+00 0.  1.
        -11    1    5    5    0    0  0.40519577778E+02  0.35744349084E+02  0.28517161755E+03  0.29024532060E+03  0.00000000000E+00 0. -1.
          3    1    6    6  503    0 -0.48348029797E+03 -0.50798980732E+03  0.19571208455E+03  0.72808657651E+03  0.00000000000E+00 0. -1.
         -3    1    6    6    0  503 -0.98378888643E+02 -0.63050392924E+02  0.80149301739E+01  0.11712385275E+03  0.00000000000E+00 0.  1.
<mgrwt>
<rscale>  0 0.20643069E+04</rscale>
<asrwt>0</asrwt>
<pdfrwt beam="1">  1        3 0.11057282E+00 0.20643069E+04</pdfrwt>
<pdfrwt beam="2">  1       -4 0.22804125E+00 0.20643069E+04</pdfrwt>
<totfact> 0.12623665E-01</totfact>
</mgrwt>
</event>
<event>
12    4  0.4381187E-008  0.2353707E+04  0.7818608E-02  0.8457041E-01
         -2   -1    0    0    0  501 -0.00000000000E+00  0.00000000000E+00  0.23740282876E+04  0.23740282876E+04  0.00000000000E+00 0.  1.
          1   -1    0    0  501    0  0.00000000000E+00 -0.00000000000E+00 -0.58338971696E+03  0.58338971696E+03  0.00000000000E+00 0. -1.
        -24    2    1    2    0    0 -0.64634193189E+03  0.57542575226E+03  0.14025818485E+04  0.16500606569E+04  0.81188916962E+02 0.  0.
        254    2    1    2    0    0  0.64634193189E+03 -0.57542575226E+03  0.38805672209E+03  0.13073573477E+04  0.89984583438E+03 0.  0.
         23    2    4    4    0    0  0.24081139211E+03 -0.94034248305E+02 -0.27526542704E+03  0.38833426253E+03  0.90553176127E+02 0.  0.
         23    2    4    4    0    0  0.40553053978E+03 -0.48139150396E+03  0.66332214914E+03  0.91902308514E+03  0.91729813598E+02 0.  0.
          1    1    3    3  502    0 -0.80717478879E+02  0.83571724717E+02  0.14219276777E+03  0.18362550959E+03  0.00000000000E+00 0. -1.
         -2    1    3    3    0  502 -0.56562445301E+03  0.49185402755E+03  0.12603890808E+04  0.14664351473E+04  0.00000000000E+00 0.  1.
         11    1    5    5    0    0  0.79922788349E+02 -0.61578590350E+02 -0.59132766135E+02  0.11694553825E+03  0.00000000000E+00 0. -1.
        -11    1    5    5    0    0  0.16088860376E+03 -0.32455657955E+02 -0.21613266091E+03  0.27138872428E+03  0.00000000000E+00 0.  1.
          3    1    6    6  503    0  0.57121347020E+02 -0.58764186787E+02  0.13556820784E+03  0.15841343665E+03  0.00000000000E+00 0. -1.
         -3    1    6    6    0  503  0.34840919276E+03 -0.42262731717E+03  0.52775394130E+03  0.76060964849E+03  0.00000000000E+00 0.  1.
<mgrwt>
<rscale>  0 0.23537066E+04</rscale>
<asrwt>0</asrwt>
<pdfrwt beam="1">  1        1 0.89752265E-01 0.23537066E+04</pdfrwt>
<pdfrwt beam="2">  1       -2 0.36523512E+00 0.23537066E+04</pdfrwt>
<totfact> 0.35045834E-01</totfact>
</mgrwt>
</event>
<event>
12    4  0.4381187E-008  0.2997506E+04  0.7818608E-02  0.8244443E-01
         -2   -1    0    0    0  501 -0.00000000000E+00  0.00000000000E+00  0.11889443875E+04  0.11889443875E+04  0.00000000000E+00 0.  1.
          1   -1    0    0  501    0  0.00000000000E+00 -0.00000000000E+00 -0.18892900167E+04  0.18892900167E+04  0.00000000000E+00 0. -1.
        -24    2    1    2    0    0 -0.40675151038E+03 -0.49057555304E+03  0.92014894742E+03  0.11220996408E+04  0.79513231152E+02 0.  0.
        254    2    1    2    0    0  0.40675151038E+03  0.49057555304E+03 -0.16204945766E+04  0.19561347635E+04  0.89126279830E+03 0.  0.
         23    2    4    4    0    0  0.63494096916E+03  0.40927219316E+03 -0.83849371000E+03  0.11322154075E+04  0.90477980515E+02 0.  0.
         23    2    4    4    0    0 -0.22818945877E+03  0.81303359874E+02 -0.78200086660E+03  0.82391935593E+03  0.92935914981E+02 0.  0.
          3    1    3    3  502    0 -0.16669769382E+03 -0.17071780156E+03  0.28707672713E+03  0.37329041797E+03  0.00000000000E+00 0. -1.
         -2    1    3    3    0  502 -0.24005381656E+03 -0.31985775148E+03  0.63307222029E+03  0.74880922279E+03  0.00000000000E+00 0.  1.
         11    1    5    5    0    0  0.12153274920E+02  0.60974631548E+01 -0.40048573222E+02  0.42293845478E+02  0.00000000000E+00 0. -1.
        -11    1    5    5    0    0  0.62278769424E+03  0.40317473001E+03 -0.79844513678E+03  0.10899215621E+04  0.00000000000E+00 0.  1.
          2    1    6    6  503    0 -0.18738598061E+02  0.42160951300E+02 -0.12603906003E+03  0.13421820117E+03  0.00000000000E+00 0. -1.
         -2    1    6    6    0  503 -0.20945086071E+03  0.39142408574E+02 -0.65596180657E+03  0.68970115476E+03  0.00000000000E+00 0.  1.
<mgrwt>
<rscale>  0 0.29975061E+04</rscale>
<asrwt>0</asrwt>
<pdfrwt beam="1">  1        1 0.29066000E+00 0.29975061E+04</pdfrwt>
<pdfrwt beam="2">  1       -2 0.18291452E+00 0.29975061E+04</pdfrwt>
<totfact> 0.45898972E-01</totfact>
</mgrwt>
</event>
<event>
12    4  0.4381187E-008  0.1821402E+04  0.7818608E-02  0.8695000E-01
          1   -1    0    0  501    0  0.00000000000E+00  0.00000000000E+00  0.28302260125E+04  0.28302260125E+04  0.00000000000E+00 0. -1.
         -2   -1    0    0    0  501 -0.00000000000E+00 -0.00000000000E+00 -0.29304230656E+03  0.29304230656E+03  0.00000000000E+00 0.  1.
        -24    2    1    2    0    0 -0.50736815683E+02  0.22566566940E+03  0.20595870446E+04  0.20750276597E+04  0.10169451982E+03 0.  0.
        254    2    1    2    0    0  0.50736815683E+02 -0.22566566940E+03  0.47759666129E+03  0.10482406593E+04  0.90399706315E+03 0.  0.
         23    2    4    4    0    0 -0.29125392953E+03 -0.38797727727E+03  0.95742196761E+02  0.50304511622E+03  0.92372082189E+02 0.  0.
         23    2    4    4    0    0  0.34199074521E+03  0.16231160787E+03  0.38185446453E+03  0.54519554311E+03  0.90125580636E+02 0.  0.
          1    1    3    3  502    0 -0.71422583627E+02  0.21681223897E+03  0.19357453726E+04  0.19491585056E+04  0.00000000000E+00 0. -1.
         -2    1    3    3    0  502  0.20685767945E+02  0.88534304292E+01  0.12384167207E+03  0.12586915416E+03  0.00000000000E+00 0.  1.
         11    1    5    5    0    0 -0.14297439941E+03 -0.12939776722E+03  0.64492392060E+02  0.20333403474E+03  0.00000000000E+00 0.  1.
        -11    1    5    5    0    0 -0.14827953012E+03 -0.25857951005E+03  0.31249804701E+02  0.29971108149E+03  0.00000000000E+00 0. -1.
          4    1    6    6  503    0  0.34016678460E+03  0.16782225921E+03  0.38325569717E+03  0.53922414768E+03  0.00000000000E+00 0. -1.
         -4    1    6    6    0  503  0.18239606166E+01 -0.55106513365E+01 -0.14012326392E+01  0.59713954309E+01  0.00000000000E+00 0.  1.
<mgrwt>
<rscale>  0 0.18214016E+04</rscale>
<asrwt>0</asrwt>
<pdfrwt beam="1">  1        1 0.43541937E+00 0.18214016E+04</pdfrwt>
<pdfrwt beam="2">  1       -2 0.45083434E-01 0.18214016E+04</pdfrwt>
<totfact> 0.30675596E+00</totfact>
</mgrwt>
</event>
<event>
12    4  0.4381187E-008  0.1878358E+04  0.7818608E-02  0.8665705E-01
         -2   -1    0    0    0  501 -0.00000000000E+00  0.00000000000E+00  0.50448640604E+03  0.50448640604E+03  0.00000000000E+00 0.  1.
          1   -1    0    0  501    0  0.00000000000E+00 -0.00000000000E+00 -0.17484256432E+04  0.17484256432E+04  0.00000000000E+00 0. -1.
        -24    2    1    2    0    0 -0.23618360623E+03  0.27039194446E+03  0.26876919976E+03  0.45524526923E+03  0.78210440089E+02 0.  0.
        254    2    1    2    0    0  0.23618360623E+03 -0.27039194446E+03 -0.15127084370E+04  0.17976667800E+04  0.90245472870E+03 0.  0.
         23    2    4    4    0    0  0.17601599624E+01  0.15987927772E+03 -0.11909037763E+04  0.12044684470E+04  0.83234331654E+02 0.  0.
         23    2    4    4    0    0  0.23442344626E+03 -0.43027122218E+03 -0.32180466071E+03  0.59319833303E+03  0.90765334009E+02 0.  0.
          3    1    3    3  502    0 -0.77553856503E+02  0.43090976480E+02  0.83601928605E+02  0.12190453387E+03  0.00000000000E+00 0. -1.
         -4    1    3    3    0  502 -0.15862974972E+03  0.22730096798E+03  0.18516727115E+03  0.33334073536E+03  0.00000000000E+00 0.  1.
         11    1    5    5    0    0  0.13069110249E+02  0.44476296320E+02 -0.63005973960E+03  0.63176278622E+03  0.00000000000E+00 0.  1.
        -11    1    5    5    0    0 -0.11308950287E+02  0.11540298140E+03 -0.56084403665E+03  0.57270566080E+03  0.00000000000E+00 0. -1.
          3    1    6    6  503    0  0.23801681786E+03 -0.43108612045E+03 -0.32345527180E+03  0.58916089627E+03  0.00000000000E+00 0. -1.
         -3    1    6    6    0  503 -0.35933715985E+01  0.81489827166E+00  0.16506110917E+01  0.40374367628E+01  0.00000000000E+00 0.  1.
<mgrwt>
<rscale>  0 0.18783578E+04</rscale>
<asrwt>0</asrwt>
<pdfrwt beam="1">  1        1 0.26898856E+00 0.18783578E+04</pdfrwt>
<pdfrwt beam="2">  1       -2 0.77613293E-01 0.18783578E+04</pdfrwt>
<totfact> 0.53773977E+00</totfact>
</mgrwt>
</event>
<event>
12    4  0.4381187E-008  0.1519563E+04  0.7818608E-02  0.8871547E-01
         -2   -1    0    0    0  501 -0.00000000000E+00  0.00000000000E+00  0.12963797066E+03  0.12963797066E+03  0.00000000000E+00 0.  1.
          1   -1    0    0  501    0  0.00000000000E+00 -0.00000000000E+00 -0.44529260948E+04  0.44529260948E+04  0.00000000000E+00 0. -1.
        -24    2    1    2    0    0  0.39503954583E+03 -0.19065591968E+02 -0.55639847386E+03  0.68754814643E+03  0.81996660808E+02 0.  0.
        254    2    1    2    0    0 -0.39503954583E+03  0.19065591968E+02 -0.37668896503E+04  0.38950159190E+04  0.90844462268E+03 0.  0.
         23    2    4    4    0    0 -0.51452787762E+03  0.12467768923E+03 -0.11223820085E+04  0.12441122904E+04  0.88264121455E+02 0.  0.
         23    2    4    4    0    0  0.11948833180E+03 -0.10561209726E+03 -0.26445076418E+04  0.26509036286E+04  0.91858609505E+02 0.  0.
          3    1    3    3  502    0  0.39121106955E+03 -0.29725555378E+02 -0.54443806436E+03  0.67107564068E+03  0.00000000000E+00 0. -1.
         -4    1    3    3    0  502  0.38284762756E+01  0.10659963411E+02 -0.11960409495E+02  0.16472505753E+02  0.00000000000E+00 0.  1.
         11    1    5    5    0    0 -0.84653315331E+01 -0.74513503707E+01 -0.46319111492E+02  0.47672261848E+02  0.00000000000E+00 0.  1.
        -11    1    5    5    0    0 -0.50606254609E+03  0.13212903960E+03 -0.10760628970E+04  0.11964400286E+04  0.00000000000E+00 0. -1.
          1    1    6    6  503    0  0.13423472196E+03 -0.89138532125E+02 -0.23972737929E+04  0.24026831411E+04  0.00000000000E+00 0. -1.
         -1    1    6    6    0  503 -0.14746390160E+02 -0.16473565140E+02 -0.24723384894E+03  0.24822048754E+03  0.00000000000E+00 0.  1.
<mgrwt>
<rscale>  0 0.15195635E+04</rscale>
<asrwt>0</asrwt>
<pdfrwt beam="1">  1        1 0.68506568E+00 0.15195635E+04</pdfrwt>
<pdfrwt beam="2">  1       -2 0.19944299E-01 0.15195635E+04</pdfrwt>
<totfact> 0.67399582E-01</totfact>
</mgrwt>
</event>
<event>
12    4  0.4381187E-008  0.1324328E+04  0.7818608E-02  0.9010492E-01
          1   -1    0    0  501    0  0.00000000000E+00  0.00000000000E+00  0.18518372201E+04  0.18518372201E+04  0.00000000000E+00 0. -1.
         -2   -1    0    0    0  501 -0.00000000000E+00 -0.00000000000E+00 -0.23677083603E+03  0.23677083603E+03  0.00000000000E+00 0.  1.
        -24    2    1    2    0    0 -0.18817720579E+03 -0.31796496706E+03  0.61103222889E+03  0.71840816817E+03  0.78978036813E+02 0.  0.
        254    2    1    2    0    0  0.18817720579E+03  0.31796496706E+03  0.10040341552E+04  0.13701998880E+04  0.85606703425E+03 0.  0.
         23    2    4    4    0    0  0.36575392752E+03 -0.13687945792E+03  0.63347872454E+03  0.74963777359E+03  0.90275000180E+02 0.  0.
         23    2    4    4    0    0 -0.17757672173E+03  0.45484442499E+03  0.37055543066E+03  0.62056211438E+03  0.96793943838E+02 0.  0.
          1    1    3    3  502    0 -0.17460629951E+03 -0.29326377176E+03  0.59511204390E+03  0.68603887969E+03  0.00000000000E+00 0. -1.
         -2    1    3    3    0  502 -0.13570906274E+02 -0.24701195307E+02  0.15920184991E+02  0.32369288482E+02  0.00000000000E+00 0.  1.
         11    1    5    5    0    0  0.26309531317E+02 -0.23731004230E+02  0.23678351498E+02  0.42614743101E+02  0.00000000000E+00 0. -1.
        -11    1    5    5    0    0  0.33944439620E+03 -0.11314845369E+03  0.60980037304E+03  0.70702303049E+03  0.00000000000E+00 0.  1.
          1    1    6    6  503    0 -0.53200756992E+01  0.87466345928E+02  0.99558419708E+02  0.13262934747E+03  0.00000000000E+00 0. -1.
         -1    1    6    6    0  503 -0.17225664604E+03  0.36737807906E+03  0.27099701096E+03  0.48793276691E+03  0.00000000000E+00 0.  1.
<mgrwt>
<rscale>  0 0.13243278E+04</rscale>
<asrwt>0</asrwt>
<pdfrwt beam="1">  1        1 0.28489802E+00 0.13243278E+04</pdfrwt>
<pdfrwt beam="2">  1       -2 0.36426284E-01 0.13243278E+04</pdfrwt>
<totfact> 0.22957895E+01</totfact>
</mgrwt>
</event>
<event>
12    4  0.4381187E-008  0.1213901E+04  0.7818608E-02  0.9100775E-01
         -2   -1    0    0    0  501 -0.00000000000E+00  0.00000000000E+00  0.17788396875E+03  0.17788396875E+03  0.00000000000E+00 0.  1.
          1   -1    0    0  501    0  0.00000000000E+00 -0.00000000000E+00 -0.20709504331E+04  0.20709504331E+04  0.00000000000E+00 0. -1.
        -24    2    1    2    0    0 -0.21584607837E+03 -0.62066550585E+02 -0.64155656721E+03  0.68446447464E+03  0.80343026280E+02 0.  0.
        254    2    1    2    0    0  0.21584607837E+03  0.62066550585E+02 -0.12515098971E+04  0.15643699272E+04  0.91133663388E+03 0.  0.
         23    2    4    4    0    0  0.56009421875E+03  0.58798916058E+01 -0.86828187511E+03  0.10378145857E+04  0.96982435033E+02 0.  0.
         23    2    4    4    0    0 -0.34424814039E+03  0.56186658979E+02 -0.38322802199E+03  0.52655534144E+03  0.93450992276E+02 0.  0.
          3    1    3    3  502    0 -0.41915872669E+02 -0.15494011401E+02 -0.24365700953E+03  0.24772109935E+03  0.00000000000E+00 0. -1.
         -4    1    3    3    0  502 -0.17393020570E+03 -0.46572539184E+02 -0.39789955768E+03  0.43674337529E+03  0.00000000000E+00 0.  1.
         11    1    5    5    0    0  0.20305022552E+03 -0.18172324722E+01 -0.40309785819E+03  0.45135416215E+03  0.00000000000E+00 0. -1.
        -11    1    5    5    0    0  0.35704399323E+03  0.76971240780E+01 -0.46518401692E+03  0.58646042358E+03  0.00000000000E+00 0.  1.
          4    1    6    6  503    0 -0.24644288399E+03  0.32942060906E+02 -0.20636819363E+03  0.32312088417E+03  0.00000000000E+00 0. -1.
         -4    1    6    6    0  503 -0.97805256400E+02  0.23244598073E+02 -0.17685982836E+03  0.20343445727E+03  0.00000000000E+00 0.  1.
<mgrwt>
<rscale>  0 0.12139010E+04</rscale>
<asrwt>0</asrwt>
<pdfrwt beam="1">  1        1 0.31860774E+00 0.12139010E+04</pdfrwt>
<pdfrwt beam="2">  1       -2 0.27366766E-01 0.12139010E+04</pdfrwt>
<totfact> 0.28212406E+01</totfact>
</mgrwt>
</event>
<event>
12    4  0.4381187E-008  0.1679994E+04  0.7818608E-02  0.8772858E-01
         -2   -1    0    0    0  501 -0.00000000000E+00  0.00000000000E+00  0.36269427508E+03  0.36269427508E+03  0.00000000000E+00 0.  1.
          1   -1    0    0  501    0  0.00000000000E+00 -0.00000000000E+00 -0.19454255816E+04  0.19454255816E+04  0.00000000000E+00 0. -1.
        -24    2    1    2    0    0 -0.10720280805E+03 -0.28255973025E+03 -0.11855405361E+04  0.12260269263E+04  0.79392809651E+02 0.  0.
        254    2    1    2    0    0  0.10720280805E+03  0.28255973025E+03 -0.39719077044E+03  0.10820929303E+04  0.96012090828E+03 0.  0.
         23    2    4    4    0    0 -0.36851721030E+03  0.10032337229E+03 -0.40497274309E+03  0.56392056229E+03  0.90187386102E+02 0.  0.
         23    2    4    4    0    0  0.47572001835E+03  0.18223635796E+03  0.77819726526E+01  0.51817236803E+03  0.94458551088E+02 0.  0.
          1    1    3    3  502    0 -0.81294163426E+02 -0.27300576207E+03 -0.10814511841E+04  0.11183369576E+04  0.00000000000E+00 0. -1.
         -2    1    3    3    0  502 -0.25908644623E+02 -0.95539681827E+01 -0.10408935193E+03  0.10768996871E+03  0.00000000000E+00 0.  1.
         11    1    5    5    0    0 -0.28306694311E+01 -0.58888135457E+01  0.17429505839E+01  0.67622992497E+01  0.00000000000E+00 0.  1.
        -11    1    5    5    0    0 -0.36568654087E+03  0.10621218583E+03 -0.40671569368E+03  0.55715826304E+03  0.00000000000E+00 0. -1.
          3    1    6    6  503    0  0.26694659308E+03  0.87839080489E+02  0.49299772038E+02  0.28531851525E+03  0.00000000000E+00 0. -1.
         -3    1    6    6    0  503  0.20877342527E+03  0.94397277472E+02 -0.41517799385E+02  0.23285385279E+03  0.00000000000E+00 0.  1.
<mgrwt>
<rscale>  0 0.16799937E+04</rscale>
<asrwt>0</asrwt>
<pdfrwt beam="1">  1        1 0.29929625E+00 0.16799937E+04</pdfrwt>
<pdfrwt beam="2">  1       -2 0.55799119E-01 0.16799937E+04</pdfrwt>
<totfact> 0.81953163E+00</totfact>
</mgrwt>
</event>
<event>
12    4  0.4381187E-008  0.1448257E+04  0.7818608E-02  0.8919610E-01
          1   -1    0    0  501    0  0.00000000000E+00  0.00000000000E+00  0.23715403659E+04  0.23715403659E+04  0.00000000000E+00 0. -1.
         -2   -1    0    0    0  501 -0.00000000000E+00 -0.00000000000E+00 -0.22110621210E+03  0.22110621210E+03  0.00000000000E+00 0.  1.
        -24    2    1    2    0    0  0.42451028418E+03  0.97902778869E+02  0.62777918266E+03  0.76830489638E+03  0.79948584355E+02 0.  0.
        254    2    1    2    0    0 -0.42451028418E+03 -0.97902778869E+02  0.15226549711E+04  0.18243416816E+04  0.90551116761E+03 0.  0.
         23    2    4    4    0    0 -0.38702393346E+03 -0.66528167453E+02  0.12361139960E+03  0.42148466343E+03  0.90310692944E+02 0.  0.
         23    2    4    4    0    0 -0.37486350715E+02 -0.31374611416E+02  0.13990435715E+04  0.14028570182E+04  0.91078568712E+02 0.  0.
          3    1    3    3  502    0  0.39833622554E+03  0.98662446811E+02  0.54992933905E+03  0.68616929758E+03  0.00000000000E+00 0. -1.
         -4    1    3    3    0  502  0.26174058633E+02 -0.75966794156E+00  0.77849843607E+02  0.82135598801E+02  0.00000000000E+00 0.  1.
         11    1    5    5    0    0 -0.38345041768E+03 -0.76228027129E+02  0.11367158698E+03  0.40714391144E+03  0.00000000000E+00 0.  1.
        -11    1    5    5    0    0 -0.35735157866E+01  0.96998596761E+01  0.99398126179E+01  0.14340751992E+02  0.00000000000E+00 0. -1.
          1    1    6    6  503    0  0.13580117956E+02 -0.24157876344E+02  0.13778305624E+03  0.14054249599E+03  0.00000000000E+00 0. -1.
         -1    1    6    6    0  503 -0.51066468670E+02 -0.72167350723E+01  0.12612605153E+04  0.12623145222E+04  0.00000000000E+00 0.  1.
<mgrwt>
<rscale>  0 0.14482573E+04</rscale>
<asrwt>0</asrwt>
<pdfrwt beam="1">  1        1 0.36485235E+00 0.14482573E+04</pdfrwt>
<pdfrwt beam="2">  1       -2 0.34016342E-01 0.14482573E+04</pdfrwt>
<totfact> 0.11494274E+01</totfact>
</mgrwt>
</event>
<event>
12    4  0.4381187E-008  0.2925781E+04  0.7818608E-02  0.8265248E-01
         -2   -1    0    0    0  501 -0.00000000000E+00  0.00000000000E+00  0.59031898693E+03  0.59031898693E+03  0.00000000000E+00 0.  1.
          1   -1    0    0  501    0  0.00000000000E+00 -0.00000000000E+00 -0.36252422063E+04  0.36252422063E+04  0.00000000000E+00 0. -1.
        -24    2    1    2    0    0  0.11566705901E+04  0.86895397736E+02 -0.22936605787E+04  0.25714900168E+04  0.79021465360E+02 0.  0.
        254    2    1    2    0    0 -0.11566705901E+04 -0.86895397736E+02 -0.74126264071E+03  0.16440711765E+04  0.89892272555E+03 0.  0.
         23    2    4    4    0    0 -0.90909226886E+03 -0.42983753767E+03 -0.65488320330E+03  0.12029694246E+04  0.83990264625E+02 0.  0.
         23    2    4    4    0    0 -0.24757832128E+03  0.34294213993E+03 -0.86379437411E+02  0.44110175182E+03  0.90581519910E+02 0.  0.
          3    1    3    3  502    0  0.10852037927E+04  0.98102537590E+02 -0.21289414751E+04  0.23915859140E+04  0.00000000000E+00 0. -1.
         -4    1    3    3    0  502  0.71466797444E+02 -0.11207139854E+02 -0.16471910355E+03  0.17990410277E+03  0.00000000000E+00 0.  1.
         11    1    5    5    0    0 -0.12917643528E+03 -0.70254431407E+02 -0.63144161517E+02  0.16002944010E+03  0.00000000000E+00 0. -1.
        -11    1    5    5    0    0 -0.77991583358E+03 -0.35958310626E+03 -0.59173904179E+03  0.10429399845E+04  0.00000000000E+00 0.  1.
          3    1    6    6  503    0 -0.22401996504E+03  0.29200178244E+03 -0.43756305934E+02  0.37062730605E+03  0.00000000000E+00 0.  1.
         -3    1    6    6    0  503 -0.23558356241E+02  0.50940357490E+02 -0.42623131476E+02  0.70474445772E+02  0.00000000000E+00 0. -1.
<mgrwt>
<rscale>  0 0.29257815E+04</rscale>
<asrwt>0</asrwt>
<pdfrwt beam="1">  1        1 0.55772957E+00 0.29257815E+04</pdfrwt>
<pdfrwt beam="2">  1       -2 0.90818306E-01 0.29257815E+04</pdfrwt>
<totfact> 0.15475603E-01</totfact>
</mgrwt>
</event>
<event>
12    4  0.4381187E-008  0.1752241E+04  0.7818608E-02  0.8732118E-01
          1   -1    0    0  501    0  0.00000000000E+00  0.00000000000E+00  0.18674687282E+04  0.18674687282E+04  0.00000000000E+00 0. -1.
         -2   -1    0    0    0  501 -0.00000000000E+00 -0.00000000000E+00 -0.41103074500E+03  0.41103074500E+03  0.00000000000E+00 0.  1.
        -24    2    1    2    0    0 -0.59424836797E+03 -0.16453863232E+03  0.33937674064E+03  0.70827030891E+03  0.79159169014E+02 0.  0.
        254    2    1    2    0    0  0.59424836797E+03  0.16453863232E+03  0.11170612426E+04  0.15702291643E+04  0.91519928126E+03 0.  0.
         23    2    4    4    0    0  0.69719408497E+03  0.32862172479E+03  0.51703187227E+03  0.93278046770E+03  0.93196640841E+02 0.  0.
         23    2    4    4    0    0 -0.10294571700E+03 -0.16408309247E+03  0.60002937030E+03  0.63744869660E+03  0.93725736551E+02 0.  0.
          3    1    3    3  502    0 -0.22313620078E+03 -0.10105028108E+03  0.14284766433E+03  0.28356018516E+03  0.00000000000E+00 0. -1.
         -4    1    3    3    0  502 -0.37111216719E+03 -0.63488351234E+02  0.19652907631E+03  0.42471012375E+03  0.00000000000E+00 0.  1.
         11    1    5    5    0    0  0.16058623607E+03  0.10277575132E+03  0.90437427116E+02  0.21102066841E+03  0.00000000000E+00 0. -1.
        -11    1    5    5    0    0  0.53660784890E+03  0.22584597347E+03  0.42659444516E+03  0.72175979929E+03  0.00000000000E+00 0.  1.
          2    1    6    6  503    0 -0.10087498313E+02 -0.32107810954E+02  0.24705200571E+03  0.24933383780E+03  0.00000000000E+00 0. -1.
         -2    1    6    6    0  503 -0.92858218691E+02 -0.13197528152E+03  0.35297736459E+03  0.38811485880E+03  0.00000000000E+00 0.  1.
<mgrwt>
<rscale>  0 0.17522409E+04</rscale>
<asrwt>0</asrwt>
<pdfrwt beam="1">  1        1 0.28730288E+00 0.17522409E+04</pdfrwt>
<pdfrwt beam="2">  1       -2 0.63235500E-01 0.17522409E+04</pdfrwt>
<totfact> 0.70624185E+00</totfact>
</mgrwt>
</event>
<event>
12    4  0.4381187E-008  0.2025777E+04  0.7818608E-02  0.8594663E-01
          1   -1    0    0  501    0  0.00000000000E+00  0.00000000000E+00  0.10219412506E+04  0.10219412506E+04  0.00000000000E+00 0. -1.
         -2   -1    0    0    0  501 -0.00000000000E+00 -0.00000000000E+00 -0.10039160697E+04  0.10039160697E+04  0.00000000000E+00 0.  1.
        -24    2    1    2    0    0 -0.26965064208E+03  0.47862713900E+03 -0.57815007373E+03  0.80129526899E+03  0.77596349014E+02 0.  0.
        254    2    1    2    0    0  0.26965064208E+03 -0.47862713900E+03  0.59617525469E+03  0.12245620513E+04  0.91778640014E+03 0.  0.
         23    2    4    4    0    0  0.53364626616E+02  0.25191768173E+03  0.29046728399E+03  0.39871599848E+03  0.91065375642E+02 0.  0.
         23    2    4    4    0    0  0.21628601547E+03 -0.73054482073E+03  0.30570797071E+03  0.82584605285E+03  0.89938668340E+02 0.  0.
          3    1    3    3  502    0 -0.16406232852E+03  0.23275748057E+03 -0.26030810595E+03  0.38581446632E+03  0.00000000000E+00 0. -1.
         -4    1    3    3    0  502 -0.10558831356E+03  0.24586965843E+03 -0.31784196779E+03  0.41548080267E+03  0.00000000000E+00 0.  1.
         11    1    5    5    0    0 -0.14795010882E+01  0.11966066512E+03  0.79204870308E+02  0.14350705621E+03  0.00000000000E+00 0.  1.
        -11    1    5    5    0    0  0.54844127704E+02  0.13225701661E+03  0.21126241368E+03  0.25520894228E+03  0.00000000000E+00 0. -1.
          4    1    6    6  503    0  0.17672493975E+03 -0.67462278713E+03  0.29166498215E+03  0.75592067776E+03  0.00000000000E+00 0. -1.
         -4    1    6    6    0  503  0.39561075716E+02 -0.55922033603E+02  0.14042988555E+02  0.69925375092E+02  0.00000000000E+00 0.  1.
<mgrwt>
<rscale>  0 0.20257771E+04</rscale>
<asrwt>0</asrwt>
<pdfrwt beam="1">  1        1 0.15722173E+00 0.20257771E+04</pdfrwt>
<pdfrwt beam="2">  1       -2 0.15444863E+00 0.20257771E+04</pdfrwt>
<totfact> 0.32714555E+00</totfact>
</mgrwt>
</event>
<event>
12    4  0.4381187E-008  0.1244287E+04  0.7818608E-02  0.9074951E-01
          1   -1    0    0  501    0  0.00000000000E+00  0.00000000000E+00  0.18971524273E+04  0.18971524273E+04  0.00000000000E+00 0. -1.
         -2   -1    0    0    0  501 -0.00000000000E+00 -0.00000000000E+00 -0.20402305837E+03  0.20402305837E+03  0.00000000000E+00 0.  1.
        -24    2    1    2    0    0  0.10566057342E+03  0.20859733431E+03  0.81625877001E+03  0.85299488106E+03  0.81516150833E+02 0.  0.
        254    2    1    2    0    0 -0.10566057342E+03 -0.20859733431E+03  0.87687059892E+03  0.12481806046E+04  0.85695727420E+03 0.  0.
         23    2    4    4    0    0  0.29952015566E+03 -0.58717770994E+02  0.65938735028E+02  0.32497461136E+03  0.90002672008E+02 0.  0.
         23    2    4    4    0    0 -0.40518072908E+03 -0.14987956332E+03  0.81093186389E+03  0.92320599325E+03  0.89797056594E+02 0.  0.
          1    1    3    3  502    0  0.29140021052E+02  0.14458343152E+03  0.46360541523E+03  0.48650127496E+03  0.00000000000E+00 0. -1.
         -2    1    3    3    0  502  0.76520552365E+02  0.64013902788E+02  0.35265335477E+03  0.36649360611E+03  0.00000000000E+00 0.  1.
         11    1    5    5    0    0  0.11489338894E+03 -0.67719925725E+02  0.28285800831E+02  0.13633255550E+03  0.00000000000E+00 0.  1.
        -11    1    5    5    0    0  0.18462676673E+03  0.90021547312E+01  0.37652934197E+02  0.18864205585E+03  0.00000000000E+00 0. -1.
          4    1    6    6  503    0 -0.33871455184E+03 -0.10297582471E+03  0.71171867692E+03  0.79490568194E+03  0.00000000000E+00 0. -1.
         -4    1    6    6    0  503 -0.66466177245E+02 -0.46903738605E+02  0.99213186968E+02  0.12830031130E+03  0.00000000000E+00 0.  1.
<mgrwt>
<rscale>  0 0.12442875E+04</rscale>
<asrwt>0</asrwt>
<pdfrwt beam="1">  1        1 0.29186959E+00 0.12442875E+04</pdfrwt>
<pdfrwt beam="2">  1       -2 0.31388164E-01 0.12442875E+04</pdfrwt>
<totfact> 0.28581624E+01</totfact>
</mgrwt>
</event>
<event>
12    4  0.4381187E-008  0.1560877E+04  0.7818608E-02  0.8844950E-01
         -4   -1    0    0    0  501 -0.00000000000E+00  0.00000000000E+00  0.52973861973E+03  0.52973861973E+03  0.00000000000E+00 0.  1.
          3   -1    0    0  501    0  0.00000000000E+00 -0.00000000000E+00 -0.11497825029E+04  0.11497825029E+04  0.00000000000E+00 0. -1.
        -24    2    1    2    0    0  0.29011693552E+03 -0.34695437298E+03  0.72309362874E+02  0.46478153569E+03  0.79044663009E+02 0.  0.
        254    2    1    2    0    0 -0.29011693552E+03  0.34695437298E+03 -0.69235324608E+03  0.12147395870E+04  0.88977192224E+03 0.  0.
         23    2    4    4    0    0 -0.46983676497E+02 -0.15635552100E+03 -0.61500226271E+03  0.64313972574E+03  0.93522237375E+02 0.  0.
         23    2    4    4    0    0 -0.24313325902E+03  0.50330989398E+03 -0.77350983375E+02  0.57159986124E+03  0.91151498725E+02 0.  0.
          1    1    3    3  502    0  0.77404872214E+02 -0.70604937150E+02 -0.13527787604E+02  0.10563887745E+03  0.00000000000E+00 0. -1.
         -2    1    3    3    0  502  0.21271206330E+03 -0.27634943583E+03  0.85837150478E+02  0.35914265823E+03  0.00000000000E+00 0.  1.
         11    1    5    5    0    0 -0.63428993304E+02 -0.99027434275E+02 -0.49940132721E+03  0.51306077179E+03  0.00000000000E+00 0. -1.
        -11    1    5    5    0    0  0.16445316808E+02 -0.57328086725E+02 -0.11560093550E+03  0.13007895395E+03  0.00000000000E+00 0.  1.
          3    1    6    6  503    0 -0.15314737320E+03  0.37410171028E+03 -0.22489126851E+02  0.40486043074E+03  0.00000000000E+00 0. -1.
         -3    1    6    6    0  503 -0.89985885821E+02  0.12920818370E+03 -0.54861856524E+02  0.16673943050E+03  0.00000000000E+00 0.  1.
<mgrwt>
<rscale>  0 0.15608769E+04</rscale>
<asrwt>0</asrwt>
<pdfrwt beam="1">  1        3 0.17688962E+00 0.15608769E+04</pdfrwt>
<pdfrwt beam="2">  1       -4 0.81498249E-01 0.15608769E+04</pdfrwt>
<totfact> 0.61093080E-01</totfact>
</mgrwt>
</event>
<event>
12    4  0.4381187E-008  0.1317111E+04  0.7818608E-02  0.9016105E-01
          1   -1    0    0  501    0  0.00000000000E+00  0.00000000000E+00  0.14401987242E+04  0.14401987242E+04  0.00000000000E+00 0. -1.
         -2   -1    0    0    0  501 -0.00000000000E+00 -0.00000000000E+00 -0.30113587712E+03  0.30113587712E+03  0.00000000000E+00 0.  1.
        -24    2    1    2    0    0  0.15215764211E+03 -0.15189541808E+03 -0.51214920013E+02  0.23474187117E+03  0.79098748157E+02 0.  0.
        254    2    1    2    0    0 -0.15215764211E+03  0.15189541808E+03  0.11902777671E+04  0.15065927301E+04  0.89824068357E+03 0.  0.
         23    2    4    4    0    0 -0.49851867094E+03  0.22251850703E+02  0.46764096691E+03  0.68956422225E+03  0.88287782501E+02 0.  0.
         23    2    4    4    0    0  0.34636102883E+03  0.12964356738E+03  0.72263680015E+03  0.81702850787E+03  0.92510652871E+02 0.  0.
          3    1    3    3  502    0  0.26123650353E+01 -0.44722632523E+02 -0.52624494501E+01  0.45106891770E+02  0.00000000000E+00 0. -1.
         -4    1    3    3    0  502  0.14954527708E+03 -0.10717278556E+03 -0.45952470563E+02  0.18963497940E+03  0.00000000000E+00 0.  1.
         11    1    5    5    0    0 -0.22777875627E+03  0.33268056087E+02  0.16424337030E+03  0.28278226616E+03  0.00000000000E+00 0. -1.
        -11    1    5    5    0    0 -0.27073991467E+03 -0.11016205384E+02  0.30339759661E+03  0.40678195609E+03  0.00000000000E+00 0.  1.
          3    1    6    6  503    0  0.12486620440E+03  0.14774006790E+02  0.31400104617E+03  0.33824029517E+03  0.00000000000E+00 0. -1.
         -3    1    6    6    0  503  0.22149482443E+03  0.11486956059E+03  0.40863575398E+03  0.47878821271E+03  0.00000000000E+00 0.  1.
<mgrwt>
<rscale>  0 0.13171112E+04</rscale>
<asrwt>0</asrwt>
<pdfrwt beam="1">  1        1 0.22156903E+00 0.13171112E+04</pdfrwt>
<pdfrwt beam="2">  1       -2 0.46328597E-01 0.13171112E+04</pdfrwt>
<totfact> 0.27380375E+01</totfact>
</mgrwt>
</event>
<event>
12    4  0.4381187E-008  0.1170126E+04  0.7818608E-02  0.9139415E-01
         -2   -1    0    0    0  501 -0.00000000000E+00  0.00000000000E+00  0.30562905075E+03  0.30562905075E+03  0.00000000000E+00 0.  1.
          1   -1    0    0  501    0  0.00000000000E+00 -0.00000000000E+00 -0.11199805670E+04  0.11199805670E+04  0.00000000000E+00 0. -1.
        -24    2    1    2    0    0 -0.20718123640E+03  0.10200439575E+03 -0.18451795697E+03  0.30639108099E+03  0.80620447769E+02 0.  0.
        254    2    1    2    0    0  0.20718123640E+03 -0.10200439575E+03 -0.62983355931E+03  0.11192185368E+04  0.89589667887E+03 0.  0.
         23    2    4    4    0    0  0.49849826824E+03 -0.26590039361E+03 -0.33250378434E+03  0.66177708884E+03  0.90479864916E+02 0.  0.
         23    2    4    4    0    0 -0.29131703184E+03  0.16389599786E+03 -0.29732977498E+03  0.45744144796E+03  0.95499591971E+02 0.  0.
          3    1    3    3  502    0 -0.15343892699E+03  0.11002792381E+03 -0.12876744753E+03  0.22854037691E+03  0.00000000000E+00 0. -1.
         -4    1    3    3    0  502 -0.53742309411E+02 -0.80235280636E+01 -0.55750509441E+02  0.77850704084E+02  0.00000000000E+00 0.  1.
         11    1    5    5    0    0  0.32960675840E+03 -0.21344200254E+03 -0.25812457990E+03  0.46992169813E+03  0.00000000000E+00 0.  1.
        -11    1    5    5    0    0  0.16889150984E+03 -0.52458391070E+02 -0.74379204441E+02  0.19185539071E+03  0.00000000000E+00 0. -1.
          3    1    6    6  503    0 -0.16294867929E+01 -0.75160186078E+01  0.88091507222E+00  0.77409155973E+01  0.00000000000E+00 0. -1.
         -3    1    6    6    0  503 -0.28968754505E+03  0.17141201647E+03 -0.29821069005E+03  0.44970053236E+03  0.00000000000E+00 0.  1.
<mgrwt>
<rscale>  0 0.11701258E+04</rscale>
<asrwt>0</asrwt>
<pdfrwt beam="1">  1        1 0.17230471E+00 0.11701258E+04</pdfrwt>
<pdfrwt beam="2">  1       -2 0.47019853E-01 0.11701258E+04</pdfrwt>
<totfact> 0.45660030E+01</totfact>
</mgrwt>
</event>
<event>
12    4  0.4381187E-008  0.1247700E+04  0.7818608E-02  0.9072100E-01
          1   -1    0    0  501    0  0.00000000000E+00  0.00000000000E+00  0.18279890733E+04  0.18279890733E+04  0.00000000000E+00 0. -1.
         -2   -1    0    0    0  501 -0.00000000000E+00 -0.00000000000E+00 -0.21290531334E+03  0.21290531334E+03  0.00000000000E+00 0.  1.
        -24    2    1    2    0    0 -0.13591065370E+03 -0.78911025678E+02 -0.12063769012E+02  0.17464691347E+03  0.75215384718E+02 0.  0.
        254    2    1    2    0    0  0.13591065370E+03  0.78911025678E+02  0.16271475290E+04  0.18662474732E+04  0.90031766301E+03 0.  0.
         23    2    4    4    0    0 -0.26725959716E+02 -0.15824048483E+03  0.15422348356E+04  0.15532224932E+04  0.90870770995E+02 0.  0.
         23    2    4    4    0    0  0.16263661342E+03  0.23715151050E+03  0.84912693377E+02  0.31302498006E+03  0.89905315120E+02 0.  0.
          3    1    3    3  502    0 -0.50442916227E+02 -0.13236785045E+01 -0.28654798770E+02  0.58028763685E+02  0.00000000000E+00 0. -1.
         -4    1    3    3    0  502 -0.85467737473E+02 -0.77587347174E+02  0.16591029758E+02  0.11661814978E+03  0.00000000000E+00 0.  1.
         11    1    5    5    0    0  0.11563412092E+02  0.78214301320E+01  0.12603489518E+03  0.12680568627E+03  0.00000000000E+00 0. -1.
        -11    1    5    5    0    0 -0.38289371809E+02 -0.16606191496E+03  0.14161999405E+04  0.14264168069E+04  0.00000000000E+00 0.  1.
          1    1    6    6  503    0  0.25859631777E+02  0.20755984447E+01  0.21656421290E+02  0.33793923235E+02  0.00000000000E+00 0. -1.
         -1    1    6    6    0  503  0.13677698164E+03  0.23507591206E+03  0.63256272088E+02  0.27923105682E+03  0.00000000000E+00 0.  1.
<mgrwt>
<rscale>  0 0.12476996E+04</rscale>
<asrwt>0</asrwt>
<pdfrwt beam="1">  1        1 0.28122908E+00 0.12476996E+04</pdfrwt>
<pdfrwt beam="2">  1       -2 0.32754665E-01 0.12476996E+04</pdfrwt>
<totfact> 0.29366134E+01</totfact>
</mgrwt>
</event>
<event>
12    4  0.4381187E-008  0.1230157E+04  0.7818608E-02  0.9086862E-01
         -2   -1    0    0    0  501 -0.00000000000E+00  0.00000000000E+00  0.45725880161E+03  0.45725880161E+03  0.00000000000E+00 0.  1.
          1   -1    0    0  501    0  0.00000000000E+00 -0.00000000000E+00 -0.82736922191E+03  0.82736922191E+03  0.00000000000E+00 0. -1.
        -24    2    1    2    0    0  0.25853006281E+03 -0.76999947980E+02 -0.10234004778E+03  0.29991378749E+03  0.81902436945E+02 0.  0.
        254    2    1    2    0    0 -0.25853006281E+03  0.76999947980E+02 -0.26777037252E+03  0.98471423604E+03  0.90840209648E+03 0.  0.
         23    2    4    4    0    0 -0.37292714482E+03 -0.17053314403E+03 -0.47211538032E+03  0.63186439409E+03  0.90573018175E+02 0.  0.
         23    2    4    4    0    0  0.11439708201E+03  0.24753309201E+03  0.20434500780E+03  0.35284984195E+03  0.91579499541E+02 0.  0.
          1    1    3    3  502    0  0.23466316261E+03 -0.84634344131E+02 -0.70177877298E+02  0.25914225158E+03  0.00000000000E+00 0. -1.
         -2    1    3    3    0  502  0.23866900200E+02  0.76343961511E+01 -0.32162170480E+02  0.40771535901E+02  0.00000000000E+00 0.  1.
         11    1    5    5    0    0 -0.35806036178E+03 -0.16754768791E+03 -0.41658865126E+03  0.57430440949E+03  0.00000000000E+00 0. -1.
        -11    1    5    5    0    0 -0.14866783037E+02 -0.29854561225E+01 -0.55526729064E+02  0.57559984596E+02  0.00000000000E+00 0.  1.
          3    1    6    6  503    0 -0.13421820959E+01  0.99173793307E+02  0.62833954618E+02  0.11741102412E+03  0.00000000000E+00 0. -1.
         -3    1    6    6    0  503  0.11573926410E+03  0.14835929870E+03  0.14151105319E+03  0.23543881783E+03  0.00000000000E+00 0.  1.
<mgrwt>
<rscale>  0 0.12301575E+04</rscale>
<asrwt>0</asrwt>
<pdfrwt beam="1">  1        1 0.12728757E+00 0.12301575E+04</pdfrwt>
<pdfrwt beam="2">  1       -2 0.70347508E-01 0.12301575E+04</pdfrwt>
<totfact> 0.33321362E+01</totfact>
</mgrwt>
</event>
<event>
12    4  0.4381187E-008  0.2072703E+04  0.7818608E-02  0.8573364E-01
          1   -1    0    0  501    0  0.00000000000E+00  0.00000000000E+00  0.15136765252E+04  0.15136765252E+04  0.00000000000E+00 0. -1.
         -2   -1    0    0    0  501 -0.00000000000E+00 -0.00000000000E+00 -0.70954687274E+03  0.70954687274E+03  0.00000000000E+00 0.  1.
        -24    2    1    2    0    0  0.18794927143E+03 -0.63317519736E+02  0.11944750258E+04  0.12135999847E+04  0.81977426759E+02 0.  0.
        254    2    1    2    0    0 -0.18794927143E+03  0.63317519736E+02 -0.39034537337E+03  0.10096234133E+04  0.90974495832E+03 0.  0.
         23    2    4    4    0    0 -0.41753185590E+03 -0.23570716647E+03 -0.38718949524E+03  0.62166690565E+03  0.81629145155E+02 0.  0.
         23    2    4    4    0    0  0.22958258447E+03  0.29902468620E+03 -0.31558781311E+01  0.38795650763E+03  0.91522490080E+02 0.  0.
          3    1    3    3  502    0  0.14198355712E+03 -0.34132493542E+02  0.10311368498E+04  0.10414257346E+04  0.00000000000E+00 0. -1.
         -4    1    3    3    0  502  0.45965714303E+02 -0.29185026194E+02  0.16333817605E+03  0.17217425011E+03  0.00000000000E+00 0.  1.
         11    1    5    5    0    0 -0.79626827398E+02 -0.60102036294E+02 -0.44017568274E+02  0.10904234372E+03  0.00000000000E+00 0.  1.
        -11    1    5    5    0    0 -0.33790502850E+03 -0.17560513017E+03 -0.34317192697E+03  0.51262456192E+03  0.00000000000E+00 0. -1.
          1    1    6    6  503    0  0.23100533208E+03  0.26889296824E+03 -0.16703687096E+02  0.35488858108E+03  0.00000000000E+00 0. -1.
         -1    1    6    6    0  503 -0.14227476099E+01  0.30131717965E+02  0.13547808965E+02  0.33067926546E+02  0.00000000000E+00 0.  1.
<mgrwt>
<rscale>  0 0.20727030E+04</rscale>
<asrwt>0</asrwt>
<pdfrwt beam="1">  1        1 0.23287331E+00 0.20727030E+04</pdfrwt>
<pdfrwt beam="2">  1       -2 0.10916106E+00 0.20727030E+04</pdfrwt>
<totfact> 0.34665824E+00</totfact>
</mgrwt>
</event>
<event>
12    4  0.4381187E-008  0.1651899E+04  0.7818608E-02  0.8789284E-01
         -2   -1    0    0    0  501 -0.00000000000E+00  0.00000000000E+00  0.93869288438E+03  0.93869288438E+03  0.00000000000E+00 0.  1.
          1   -1    0    0  501    0  0.00000000000E+00 -0.00000000000E+00 -0.72674704468E+03  0.72674704468E+03  0.00000000000E+00 0. -1.
        -24    2    1    2    0    0 -0.51287239665E+03  0.17973655706E+03  0.27344642865E+03  0.61371481305E+03  0.80805923223E+02 0.  0.
        254    2    1    2    0    0  0.51287239665E+03 -0.17973655706E+03 -0.61500588951E+02  0.10517251160E+04  0.89833182735E+03 0.  0.
         23    2    4    4    0    0  0.46940294522E+03 -0.50880536758E+03 -0.10130040114E+03  0.70558488579E+03  0.91467112752E+02 0.  0.
         23    2    4    4    0    0  0.43469451422E+02  0.32906881052E+03  0.39799812187E+02  0.34614023022E+03  0.89739393046E+02 0.  0.
          1    1    3    3  502    0 -0.22071586073E+03  0.43281831990E+02  0.13865673945E+03  0.26422433566E+03  0.00000000000E+00 0. -1.
         -2    1    3    3    0  502 -0.29215653592E+03  0.13645472507E+03  0.13478968920E+03  0.34949047739E+03  0.00000000000E+00 0.  1.
         11    1    5    5    0    0  0.44276327811E+03 -0.44093086046E+03 -0.82543098746E+02  0.63029573003E+03  0.00000000000E+00 0. -1.
        -11    1    5    5    0    0  0.26639667117E+02 -0.67874507126E+02 -0.18757302392E+02  0.75289155758E+02  0.00000000000E+00 0.  1.
          2    1    6    6  503    0  0.47423410826E+02  0.30488572885E+03  0.60062591241E+02  0.31434344660E+03  0.00000000000E+00 0. -1.
         -2    1    6    6    0  503 -0.39539594032E+01  0.24183081668E+02 -0.20262779054E+02  0.31796783625E+02  0.00000000000E+00 0.  1.
<mgrwt>
<rscale>  0 0.16518986E+04</rscale>
<asrwt>0</asrwt>
<pdfrwt beam="1">  1        1 0.11180724E+00 0.16518986E+04</pdfrwt>
<pdfrwt beam="2">  1       -2 0.14441429E+00 0.16518986E+04</pdfrwt>
<totfact> 0.71240285E+00</totfact>
</mgrwt>
</event>
<event>
12    4  0.4381187E-008  0.1994455E+04  0.7818608E-02  0.8609218E-01
         -2   -1    0    0    0  501 -0.00000000000E+00  0.00000000000E+00  0.71656780135E+03  0.71656780135E+03  0.00000000000E+00 0.  1.
          1   -1    0    0  501    0  0.00000000000E+00 -0.00000000000E+00 -0.13878131817E+04  0.13878131817E+04  0.00000000000E+00 0. -1.
        -24    2    1    2    0    0 -0.23662906713E+01  0.57137746697E+03  0.31032457246E+03  0.65522087156E+03  0.80840838414E+02 0.  0.
        254    2    1    2    0    0  0.23662906713E+01 -0.57137746697E+03 -0.98156995277E+03  0.14491601115E+04  0.90005980210E+03 0.  0.
         23    2    4    4    0    0  0.36547944585E+03 -0.53422802998E+03 -0.79595074225E+03  0.10296456739E+04  0.87508949656E+02 0.  0.
         23    2    4    4    0    0 -0.36311315518E+03 -0.37149436994E+02 -0.18561921053E+03  0.41951443760E+03  0.91140703872E+02 0.  0.
          1    1    3    3  502    0 -0.71374748756E+01  0.35303043362E+03  0.14687330816E+03  0.38243064634E+03  0.00000000000E+00 0. -1.
         -2    1    3    3    0  502  0.47711842044E+01  0.21834703335E+03  0.16345126430E+03  0.27279022522E+03  0.00000000000E+00 0.  1.
         11    1    5    5    0    0  0.10256367605E+03 -0.21286777635E+03 -0.32468645446E+03  0.40156355856E+03  0.00000000000E+00 0. -1.
        -11    1    5    5    0    0  0.26291576980E+03 -0.32136025363E+03 -0.47126428779E+03  0.62808211531E+03  0.00000000000E+00 0.  1.
          2    1    6    6  503    0 -0.69733051347E+02 -0.41426816245E+02 -0.24259411131E+02  0.84660490093E+02  0.00000000000E+00 0. -1.
         -2    1    6    6    0  503 -0.29338010383E+03  0.42773792503E+01 -0.16135979940E+03  0.33485394750E+03  0.00000000000E+00 0.  1.
<mgrwt>
<rscale>  0 0.19944546E+04</rscale>
<asrwt>0</asrwt>
<pdfrwt beam="1">  1        1 0.21350972E+00 0.19944546E+04</pdfrwt>
<pdfrwt beam="2">  1       -2 0.11024120E+00 0.19944546E+04</pdfrwt>
<totfact> 0.41710799E+00</totfact>
</mgrwt>
</event>
<event>
12    4  0.4381187E-008  0.2815608E+04  0.7818608E-02  0.8298439E-01
          1   -1    0    0  501    0  0.00000000000E+00  0.00000000000E+00  0.19644480522E+04  0.19644480522E+04  0.00000000000E+00 0. -1.
         -2   -1    0    0    0  501 -0.00000000000E+00 -0.00000000000E+00 -0.10088902396E+04  0.10088902396E+04  0.00000000000E+00 0.  1.
        -24    2    1    2    0    0  0.92664242545E+02 -0.71211326285E+03 -0.66683368361E+03  0.98304661803E+03  0.77598522284E+02 0.  0.
        254    2    1    2    0    0 -0.92664242545E+02  0.71211326285E+03  0.16223914962E+04  0.19902916737E+04  0.90189512618E+03 0.  0.
         23    2    4    4    0    0 -0.13152876262E+03  0.86294730333E+03  0.15749841375E+04  0.18030366876E+04  0.91588206999E+02 0.  0.
         23    2    4    4    0    0  0.38864520079E+02 -0.15083404048E+03  0.47407358654E+02  0.18725498611E+03  0.92496559295E+02 0.  0.
          1    1    3    3  502    0  0.33201318650E+01 -0.10617934847E+02 -0.27726200302E+02  0.29874838899E+02  0.00000000000E+00 0. -1.
         -2    1    3    3    0  502  0.89344110680E+02 -0.70149532800E+03 -0.63910748331E+03  0.95317177913E+03  0.00000000000E+00 0.  1.
         11    1    5    5    0    0 -0.39161221588E+02  0.45766268903E+03  0.89702195027E+03  0.10077882305E+04  0.00000000000E+00 0.  1.
        -11    1    5    5    0    0 -0.92367541037E+02  0.40528461429E+03  0.67796218728E+03  0.79524845715E+03  0.00000000000E+00 0. -1.
          1    1    6    6  503    0  0.17413112051E+02 -0.49457686795E+02  0.63545082041E+02  0.82384808709E+02  0.00000000000E+00 0. -1.
         -1    1    6    6    0  503  0.21451408028E+02 -0.10137635369E+03 -0.16137723386E+02  0.10487017740E+03  0.00000000000E+00 0.  1.
<mgrwt>
<rscale>  0 0.28156083E+04</rscale>
<asrwt>0</asrwt>
<pdfrwt beam="1">  1        1 0.30222278E+00 0.28156083E+04</pdfrwt>
<pdfrwt beam="2">  1       -2 0.15521388E+00 0.28156083E+04</pdfrwt>
<totfact> 0.65479103E-01</totfact>
</mgrwt>
</event>
<event>
12    4  0.4381187E-008  0.1305305E+04  0.7818608E-02  0.9025369E-01
          1   -1    0    0  501    0  0.00000000000E+00  0.00000000000E+00  0.12009522035E+04  0.12009522035E+04  0.00000000000E+00 0. -1.
         -2   -1    0    0    0  501 -0.00000000000E+00 -0.00000000000E+00 -0.35468145670E+03  0.35468145670E+03  0.00000000000E+00 0.  1.
        -24    2    1    2    0    0 -0.25581328805E+01  0.27343223060E+03  0.45418109604E+03  0.53637366342E+03  0.81513864057E+02 0.  0.
        254    2    1    2    0    0  0.25581328805E+01 -0.27343223060E+03  0.39208965075E+03  0.10192599968E+04  0.90021381794E+03 0.  0.
         23    2    4    4    0    0 -0.29739031228E+03 -0.47522726151E+03  0.25979076479E+03  0.62463350278E+03  0.91617811602E+02 0.  0.
         23    2    4    4    0    0  0.29994844516E+03  0.20179503091E+03  0.13229888596E+03  0.39462649400E+03  0.86814574146E+02 0.  0.
          3    1    3    3  502    0  0.27754599967E+02  0.21858073430E+03  0.32304448655E+03  0.39103145080E+03  0.00000000000E+00 0. -1.
         -4    1    3    3    0  502 -0.30312732848E+02  0.54851496293E+02  0.13113660949E+03  0.14534221261E+03  0.00000000000E+00 0.  1.
         11    1    5    5    0    0 -0.11040200842E+03 -0.15725638687E+03  0.13652579982E+03  0.23570631873E+03  0.00000000000E+00 0.  1.
        -11    1    5    5    0    0 -0.18698830386E+03 -0.31797087464E+03  0.12326496497E+03  0.38892718404E+03  0.00000000000E+00 0. -1.
          4    1    6    6  503    0  0.23130975023E+03  0.13673231600E+03  0.13351512989E+03  0.30004369131E+03  0.00000000000E+00 0. -1.
         -4    1    6    6    0  503  0.68638694931E+02  0.65062714914E+02 -0.12162439294E+01  0.94582802681E+02  0.00000000000E+00 0.  1.
<mgrwt>
<rscale>  0 0.13053053E+04</rscale>
<asrwt>0</asrwt>
<pdfrwt beam="1">  1        1 0.18476188E+00 0.13053053E+04</pdfrwt>
<pdfrwt beam="2">  1       -2 0.54566379E-01 0.13053053E+04</pdfrwt>
<totfact> 0.29042850E+01</totfact>
</mgrwt>
</event>
<event>
12    4  0.4381187E-008  0.2607081E+04  0.7818608E-02  0.8365800E-01
          3   -1    0    0  501    0  0.00000000000E+00  0.00000000000E+00  0.15522986461E+04  0.15522986461E+04  0.00000000000E+00 0. -1.
         -4   -1    0    0    0  501 -0.00000000000E+00 -0.00000000000E+00 -0.10946459388E+04  0.10946459388E+04  0.00000000000E+00 0.  1.
        -24    2    1    2    0    0  0.85273107749E+02 -0.26262309715E+03  0.13253009322E+04  0.13558659598E+04  0.75548302641E+02 0.  0.
        254    2    1    2    0    0 -0.85273107749E+02  0.26262309715E+03 -0.86764822493E+03  0.12910786251E+04  0.91532954716E+03 0.  0.
         23    2    4    4    0    0 -0.22958333049E+03  0.52192960710E+03 -0.31702762871E+03  0.65900367312E+03  0.93060751212E+02 0.  0.
         23    2    4    4    0    0  0.14431022274E+03 -0.25930650995E+03 -0.55062059622E+03  0.63207495198E+03  0.90941725560E+02 0.  0.
          1    1    3    3  502    0  0.72001831397E+02 -0.25252543932E+03  0.11416659836E+04  0.11714753857E+04  0.00000000000E+00 0. -1.
         -2    1    3    3    0  502  0.13271276352E+02 -0.10097657833E+02  0.18363494856E+03  0.18439057406E+03  0.00000000000E+00 0.  1.
         11    1    5    5    0    0 -0.52095553138E+01  0.84833604775E+02 -0.30880702016E+02  0.90429517983E+02  0.00000000000E+00 0. -1.
        -11    1    5    5    0    0 -0.22437377517E+03  0.43709600233E+03 -0.28614692670E+03  0.56857415514E+03  0.00000000000E+00 0.  1.
          4    1    6    6  503    0  0.15158232253E+03 -0.22742864330E+03 -0.51911210622E+03  0.58666716895E+03  0.00000000000E+00 0.  1.
         -4    1    6    6    0  503 -0.72720997947E+01 -0.31877866647E+02 -0.31508489992E+02  0.45407783022E+02  0.00000000000E+00 0. -1.
<mgrwt>
<rscale>  0 0.26070807E+04</rscale>
<asrwt>0</asrwt>
<pdfrwt beam="1">  1        3 0.23881518E+00 0.26070807E+04</pdfrwt>
<pdfrwt beam="2">  1       -4 0.16840707E+00 0.26070807E+04</pdfrwt>
<totfact> 0.37553235E-02</totfact>
</mgrwt>
</event>
<event>
12    4  0.4381187E-008  0.2396334E+04  0.7818608E-02  0.8440877E-01
          1   -1    0    0  501    0  0.00000000000E+00  0.00000000000E+00  0.87632665272E+03  0.87632665272E+03  0.00000000000E+00 0. -1.
         -2   -1    0    0    0  501 -0.00000000000E+00 -0.00000000000E+00 -0.16382061673E+04  0.16382061673E+04  0.00000000000E+00 0.  1.
        -24    2    1    2    0    0 -0.23324779174E+03  0.38778802474E+03 -0.12988856708E+04  0.13778158098E+04  0.80550205682E+02 0.  0.
        254    2    1    2    0    0  0.23324779174E+03 -0.38778802474E+03  0.53700615619E+03  0.11367170102E+04  0.89384890499E+03 0.  0.
         23    2    4    4    0    0 -0.44457463278E+02 -0.54244666744E+03  0.57764880093E+02  0.55466643375E+03  0.89962315967E+02 0.  0.
         23    2    4    4    0    0  0.27770525502E+03  0.15465864271E+03  0.47924127610E+03  0.58205057643E+03  0.89839681501E+02 0.  0.
          1    1    3    3  502    0 -0.11074987645E+02  0.72450527975E+02 -0.23452580560E+03  0.24571139137E+03  0.00000000000E+00 0. -1.
         -2    1    3    3    0  502 -0.22217280410E+03  0.31533749676E+03 -0.10643598652E+04  0.11321044185E+04  0.00000000000E+00 0.  1.
         11    1    5    5    0    0 -0.22637858747E+01 -0.26876894392E+03  0.69115727160E+02  0.27752270841E+03  0.00000000000E+00 0. -1.
        -11    1    5    5    0    0 -0.42193677403E+02 -0.27367772352E+03 -0.11350847067E+02  0.27714372534E+03  0.00000000000E+00 0.  1.
          4    1    6    6  503    0  0.78088073853E+02  0.73852503670E+02  0.10490935738E+03  0.15019291875E+03  0.00000000000E+00 0. -1.
         -4    1    6    6    0  503  0.19961718117E+03  0.80806139036E+02  0.37433191872E+03  0.43185765768E+03  0.00000000000E+00 0.  1.
<mgrwt>
<rscale>  0 0.23963336E+04</rscale>
<asrwt>0</asrwt>
<pdfrwt beam="1">  1        1 0.13481949E+00 0.23963336E+04</pdfrwt>
<pdfrwt beam="2">  1       -2 0.25203172E+00 0.23963336E+04</pdfrwt>
<totfact> 0.93401503E-01</totfact>
</mgrwt>
</event>
<event>
12    4  0.4381187E-008  0.1092399E+04  0.7818608E-02  0.9212632E-01
          1   -1    0    0  501    0  0.00000000000E+00  0.00000000000E+00  0.18264678692E+04  0.18264678692E+04  0.00000000000E+00 0. -1.
         -2   -1    0    0    0  501 -0.00000000000E+00 -0.00000000000E+00 -0.16333924246E+03  0.16333924246E+03  0.00000000000E+00 0.  1.
        -24    2    1    2    0    0  0.14621445020E+03 -0.12206632449E+02  0.11713912695E+03  0.20433975193E+03  0.80656629200E+02 0.  0.
        254    2    1    2    0    0 -0.14621445020E+03  0.12206632449E+02  0.15459894998E+04  0.17854673598E+04  0.88106894841E+03 0.  0.
         23    2    4    4    0    0  0.34696375887E+03 -0.10838512732E+03  0.71644309077E+03  0.80870016563E+03  0.92596273071E+02 0.  0.
         23    2    4    4    0    0 -0.49317820907E+03  0.12059175977E+03  0.82954640906E+03  0.97676719413E+03  0.90331546574E+02 0.  0.
          3    1    3    3  502    0  0.27082589149E+02  0.29188830068E+02  0.40321027342E+02  0.56667801102E+02  0.00000000000E+00 0. -1.
         -4    1    3    3    0  502  0.11913186105E+03 -0.41395462517E+02  0.76818099606E+02  0.14767195083E+03  0.00000000000E+00 0.  1.
         11    1    5    5    0    0  0.40734087472E+01 -0.26076762244E+00 -0.25583565053E+01  0.48172447086E+01  0.00000000000E+00 0.  1.
        -11    1    5    5    0    0  0.34289035012E+03 -0.10812435970E+03  0.71900144727E+03  0.80388292092E+03  0.00000000000E+00 0. -1.
          3    1    6    6  503    0 -0.46436452201E+03  0.11711793091E+03  0.81242104722E+03  0.94306891425E+03  0.00000000000E+00 0. -1.
         -3    1    6    6    0  503 -0.28813687059E+02  0.34738288613E+01  0.17125361841E+02  0.33698279883E+02  0.00000000000E+00 0.  1.
<mgrwt>
<rscale>  0 0.10923990E+04</rscale>
<asrwt>0</asrwt>
<pdfrwt beam="1">  1        1 0.28099504E+00 0.10923990E+04</pdfrwt>
<pdfrwt beam="2">  1       -2 0.25129115E-01 0.10923990E+04</pdfrwt>
<totfact> 0.48690969E+01</totfact>
</mgrwt>
</event>
<event>
12    4  0.4381187E-008  0.1421697E+04  0.7818608E-02  0.8938261E-01
         -2   -1    0    0    0  501 -0.00000000000E+00  0.00000000000E+00  0.58976104833E+03  0.58976104833E+03  0.00000000000E+00 0.  1.
          1   -1    0    0  501    0  0.00000000000E+00 -0.00000000000E+00 -0.85679690818E+03  0.85679690818E+03  0.00000000000E+00 0. -1.
        -24    2    1    2    0    0 -0.12332687076E+03  0.37122021312E+03  0.70670339115E+02  0.40522851204E+03  0.78752056847E+02 0.  0.
        254    2    1    2    0    0  0.12332687076E+03 -0.37122021312E+03 -0.33770619897E+03  0.10413294445E+04  0.90405064648E+03 0.  0.
         23    2    4    4    0    0 -0.24427912242E+03  0.13030198998E+03 -0.28745963449E+03  0.41063910537E+03  0.96646444056E+02 0.  0.
         23    2    4    4    0    0  0.36760599318E+03 -0.50152220311E+03 -0.50246564472E+02  0.63069033910E+03  0.92665528433E+02 0.  0.
          1    1    3    3  502    0 -0.80814165980E+02  0.12346895769E+03  0.22201111530E+02  0.14922601077E+03  0.00000000000E+00 0. -1.
         -2    1    3    3    0  502 -0.42512704782E+02  0.24775125543E+03  0.48469227584E+02  0.25600250128E+03  0.00000000000E+00 0.  1.
         11    1    5    5    0    0 -0.26032102211E+01 -0.11808771360E+02 -0.65164925195E+01  0.13736391784E+02  0.00000000000E+00 0.  1.
        -11    1    5    5    0    0 -0.24167591220E+03  0.14211076134E+03 -0.28094314198E+03  0.39690271358E+03  0.00000000000E+00 0. -1.
          1    1    6    6  503    0  0.35384741643E+03 -0.46347117575E+03 -0.66906445592E+02  0.58693270255E+03  0.00000000000E+00 0. -1.
         -1    1    6    6    0  503  0.13758576753E+02 -0.38051027360E+02  0.16659881120E+02  0.43757636549E+02  0.00000000000E+00 0.  1.
<mgrwt>
<rscale>  0 0.14216968E+04</rscale>
<asrwt>0</asrwt>
<pdfrwt beam="1">  1        1 0.13181491E+00 0.14216968E+04</pdfrwt>
<pdfrwt beam="2">  1       -2 0.90732469E-01 0.14216968E+04</pdfrwt>
<totfact> 0.17487147E+01</totfact>
</mgrwt>
</event>
<event>
12    4  0.4381187E-008  0.1521362E+04  0.7818608E-02  0.8870370E-01
         -2   -1    0    0    0  501 -0.00000000000E+00  0.00000000000E+00  0.14406286619E+03  0.14406286619E+03  0.00000000000E+00 0.  1.
          1   -1    0    0  501    0  0.00000000000E+00 -0.00000000000E+00 -0.40165496467E+04  0.40165496467E+04  0.00000000000E+00 0. -1.
        -24    2    1    2    0    0  0.43255661233E+03 -0.15409045857E+03 -0.17554630051E+04  0.18162891172E+04  0.80041881631E+02 0.  0.
        254    2    1    2    0    0 -0.43255661233E+03  0.15409045857E+03 -0.21170237755E+04  0.23443233957E+04  0.89622175020E+03 0.  0.
         23    2    4    4    0    0  0.17144422477E+03  0.28375889716E+03 -0.46530783491E+03  0.57834103930E+03  0.89748217703E+02 0.  0.
         23    2    4    4    0    0 -0.60400083710E+03 -0.12966843860E+03 -0.16517159406E+04  0.17659823564E+04  0.94325074678E+02 0.  0.
          3    1    3    3  502    0  0.32126163757E+03 -0.15017611148E+03 -0.13528491189E+04  0.13985573434E+04  0.00000000000E+00 0. -1.
         -4    1    3    3    0  502  0.11129497477E+03 -0.39143470886E+01 -0.40261388620E+03  0.41773177385E+03  0.00000000000E+00 0.  1.
         11    1    5    5    0    0  0.13469560467E+03  0.23140553782E+03 -0.42633051766E+03  0.50343732394E+03  0.00000000000E+00 0. -1.
        -11    1    5    5    0    0  0.36748620105E+02  0.52353359341E+02 -0.38977317251E+02  0.74903715355E+02  0.00000000000E+00 0.  1.
          2    1    6    6  503    0 -0.43913492164E+03 -0.13235065411E+03 -0.12651361532E+04  0.13457063800E+04  0.00000000000E+00 0. -1.
         -2    1    6    6    0  503 -0.16486591546E+03  0.26822155183E+01 -0.38657978737E+03  0.42027597643E+03  0.00000000000E+00 0.  1.
<mgrwt>
<rscale>  0 0.15213621E+04</rscale>
<asrwt>0</asrwt>
<pdfrwt beam="1">  1        1 0.61793071E+00 0.15213621E+04</pdfrwt>
<pdfrwt beam="2">  1       -2 0.22163518E-01 0.15213621E+04</pdfrwt>
<totfact> 0.14289026E+00</totfact>
</mgrwt>
</event>
<event>
12    4  0.4381187E-008  0.2782797E+04  0.7818608E-02  0.8308629E-01
         -2   -1    0    0    0  501 -0.00000000000E+00  0.00000000000E+00  0.78630698906E+03  0.78630698906E+03  0.00000000000E+00 0.  1.
          1   -1    0    0  501    0  0.00000000000E+00 -0.00000000000E+00 -0.24621300471E+04  0.24621300471E+04  0.00000000000E+00 0. -1.
        -24    2    1    2    0    0 -0.66344506348E+03  0.24158830445E+03 -0.19490156185E+04  0.20744774692E+04  0.79187294744E+02 0.  0.
        254    2    1    2    0    0  0.66344506348E+03 -0.24158830445E+03  0.27319256055E+03  0.11739595670E+04  0.89723053258E+03 0.  0.
         23    2    4    4    0    0  0.57082872652E+02 -0.45503531077E+03 -0.29231774428E+01  0.46728989678E+03  0.89642145592E+02 0.  0.
         23    2    4    4    0    0  0.60636219083E+03  0.21344700632E+03  0.27611573799E+03  0.70666967017E+03  0.99535877952E+02 0.  0.
          3    1    3    3  502    0 -0.65399450481E+03  0.22712644717E+03 -0.19155087992E+04  0.20367791228E+04  0.00000000000E+00 0. -1.
         -4    1    3    3    0  502 -0.94505586753E+01  0.14461857278E+02 -0.33506819358E+02  0.37698346365E+02  0.00000000000E+00 0.  1.
         11    1    5    5    0    0 -0.11187499108E+02 -0.49050431637E+02 -0.22560173793E+02  0.55136797346E+02  0.00000000000E+00 0.  1.
        -11    1    5    5    0    0  0.68270371760E+02 -0.40598487914E+03  0.19636996350E+02  0.41215309943E+03  0.00000000000E+00 0. -1.
          2    1    6    6  503    0  0.54163730712E+03  0.17840436599E+03  0.27488580583E+03  0.63305710368E+03  0.00000000000E+00 0. -1.
         -2    1    6    6    0  503  0.64724883711E+02  0.35042640333E+02  0.12299321559E+01  0.73612566495E+02  0.00000000000E+00 0.  1.
<mgrwt>
<rscale>  0 0.27827972E+04</rscale>
<asrwt>0</asrwt>
<pdfrwt beam="1">  1        1 0.37878923E+00 0.27827972E+04</pdfrwt>
<pdfrwt beam="2">  1       -2 0.12097031E+00 0.27827972E+04</pdfrwt>
<totfact> 0.57097516E-01</totfact>
</mgrwt>
</event>
<event>
12    4  0.4381187E-008  0.2123064E+04  0.7818608E-02  0.8551151E-01
         -2   -1    0    0    0  501 -0.00000000000E+00  0.00000000000E+00  0.14154925973E+04  0.14154925973E+04  0.00000000000E+00 0.  1.
          1   -1    0    0  501    0  0.00000000000E+00 -0.00000000000E+00 -0.79608315008E+03  0.79608315008E+03  0.00000000000E+00 0. -1.
        -24    2    1    2    0    0 -0.31061183039E+03  0.27721954919E+03 -0.54264195312E+03  0.68870008708E+03  0.80728762086E+02 0.  0.
        254    2    1    2    0    0  0.31061183039E+03 -0.27721954919E+03  0.11620514003E+04  0.15228756603E+04  0.89188364266E+03 0.  0.
         23    2    4    4    0    0  0.52519792854E+03 -0.37568532113E+03  0.10702333200E+04  0.12533062982E+04  0.91678750940E+02 0.  0.
         23    2    4    4    0    0 -0.21458609815E+03  0.98465771937E+02  0.91818080370E+02  0.26956936205E+03  0.92164957088E+02 0.  0.
          3    1    3    3  502    0 -0.23938472874E+03  0.17322736952E+03 -0.41364380752E+03  0.50834434137E+03  0.00000000000E+00 0. -1.
         -4    1    3    3    0  502 -0.71227101652E+02  0.10399217967E+03 -0.12899814560E+03  0.18035574571E+03  0.00000000000E+00 0.  1.
         11    1    5    5    0    0  0.22267247816E+02 -0.13310563585E+02  0.88715878314E+02  0.92431101331E+02  0.00000000000E+00 0. -1.
        -11    1    5    5    0    0  0.50293068072E+03 -0.36237475755E+03  0.98151744167E+03  0.11608751969E+04  0.00000000000E+00 0.  1.
          2    1    6    6  503    0 -0.82411559838E+01  0.32023878463E+02 -0.24997446286E+01  0.33161636976E+02  0.00000000000E+00 0. -1.
         -2    1    6    6    0  503 -0.20634494216E+03  0.66441893475E+02  0.94317824998E+02  0.23640772508E+03  0.00000000000E+00 0.  1.
<mgrwt>
<rscale>  0 0.21230636E+04</rscale>
<asrwt>0</asrwt>
<pdfrwt beam="1">  1        1 0.12247433E+00 0.21230636E+04</pdfrwt>
<pdfrwt beam="2">  1       -2 0.21776809E+00 0.21230636E+04</pdfrwt>
<totfact> 0.18295615E+00</totfact>
</mgrwt>
</event>
<event>
12    4  0.4381187E-008  0.1137421E+04  0.7818608E-02  0.9169467E-01
          1   -1    0    0  501    0  0.00000000000E+00  0.00000000000E+00  0.33312958565E+04  0.33312958565E+04  0.00000000000E+00 0. -1.
         -2   -1    0    0    0  501 -0.00000000000E+00 -0.00000000000E+00 -0.97088881285E+02  0.97088881285E+02  0.00000000000E+00 0.  1.
        -24    2    1    2    0    0  0.19822474314E+03  0.41201845734E+02  0.61483524851E+03  0.65220146204E+03  0.79710246461E+02 0.  0.
        254    2    1    2    0    0 -0.19822474314E+03 -0.41201845734E+02  0.26193717267E+04  0.27761832758E+04  0.89727069327E+03 0.  0.
         23    2    4    4    0    0  0.33901406345E+03 -0.11191565660E+03  0.96743109715E+03  0.10352833717E+04  0.91831816316E+02 0.  0.
         23    2    4    4    0    0 -0.53723880659E+03  0.70713810862E+02  0.16519406296E+04  0.17408999041E+04  0.90546419853E+02 0.  0.
          1    1    3    3  502    0  0.72106900974E+02 -0.29437196178E+01  0.32691803345E+03  0.33478869641E+03  0.00000000000E+00 0. -1.
         -2    1    3    3    0  502  0.12611784216E+03  0.44145565351E+02  0.28791721506E+03  0.31741276562E+03  0.00000000000E+00 0.  1.
         11    1    5    5    0    0  0.31227438233E+03 -0.73933611394E+02  0.81391636127E+03  0.87489502907E+03  0.00000000000E+00 0.  1.
        -11    1    5    5    0    0  0.26739681115E+02 -0.37982045202E+02  0.15351473589E+03  0.16038834259E+03  0.00000000000E+00 0. -1.
          1    1    6    6  503    0 -0.11946475397E+03  0.37261290142E+02  0.28784039527E+03  0.31386673021E+03  0.00000000000E+00 0. -1.
         -1    1    6    6    0  503 -0.41777405261E+03  0.33452520720E+02  0.13641002343E+04  0.14270331739E+04  0.00000000000E+00 0.  1.
<mgrwt>
<rscale>  0 0.11374213E+04</rscale>
<asrwt>0</asrwt>
<pdfrwt beam="1">  1        1 0.51250697E+00 0.11374213E+04</pdfrwt>
<pdfrwt beam="2">  1       -2 0.14936754E-01 0.11374213E+04</pdfrwt>
<totfact> 0.10666563E+01</totfact>
</mgrwt>
</event>
<event>
12    4  0.4381187E-008  0.2534939E+04  0.7818608E-02  0.8390643E-01
         -4   -1    0    0    0  501 -0.00000000000E+00  0.00000000000E+00  0.18223594507E+04  0.18223594507E+04  0.00000000000E+00 0.  1.
          1   -1    0    0  501    0  0.00000000000E+00 -0.00000000000E+00 -0.88153780521E+03  0.88153780521E+03  0.00000000000E+00 0. -1.
        -24    2    1    2    0    0 -0.40699019712E+03 -0.39730543272E+03 -0.59899071615E+03  0.82995542975E+03  0.80891964553E+02 0.  0.
        254    2    1    2    0    0  0.40699019712E+03  0.39730543272E+03  0.15398123617E+04  0.18739418262E+04  0.90395975097E+03 0.  0.
         23    2    4    4    0    0 -0.10859777626E+03  0.24405049901E+03  0.50045528436E+02  0.28745983966E+03  0.93672201978E+02 0.  0.
         23    2    4    4    0    0  0.51558797338E+03  0.15325493371E+03  0.14897668332E+04  0.15864819865E+04  0.90564028080E+02 0.  0.
          3    1    3    3  502    0 -0.33683458786E+03 -0.36453675058E+03 -0.50333688223E+03  0.70688938252E+03  0.00000000000E+00 0. -1.
         -4    1    3    3    0  502 -0.70155609253E+02 -0.32768682138E+02 -0.95653833917E+02  0.12306604723E+03  0.00000000000E+00 0.  1.
         11    1    5    5    0    0 -0.14291908609E+02  0.12921553467E+03 -0.19839146794E+01  0.13001864854E+03  0.00000000000E+00 0.  1.
        -11    1    5    5    0    0 -0.94305867649E+02  0.11483496434E+03  0.52029443116E+02  0.15744119112E+03  0.00000000000E+00 0. -1.
          1    1    6    6  503    0  0.44114943058E+03  0.10478889376E+03  0.11760117673E+04  0.12603956558E+04  0.00000000000E+00 0. -1.
         -1    1    6    6    0  503  0.74438542792E+02  0.48466039951E+02  0.31375506596E+03  0.32608633074E+03  0.00000000000E+00 0.  1.
<mgrwt>
<rscale>  0 0.25349389E+04</rscale>
<asrwt>0</asrwt>
<pdfrwt beam="1">  1        1 0.13562120E+00 0.25349389E+04</pdfrwt>
<pdfrwt beam="2">  1       -4 0.28036299E+00 0.25349389E+04</pdfrwt>
<totfact> 0.32781399E-01</totfact>
</mgrwt>
</event>
<event>
12    4  0.4381187E-008  0.2281172E+04  0.7818608E-02  0.8485382E-01
          1   -1    0    0  501    0  0.00000000000E+00  0.00000000000E+00  0.17792619069E+04  0.17792619069E+04  0.00000000000E+00 0. -1.
         -2   -1    0    0    0  501 -0.00000000000E+00 -0.00000000000E+00 -0.73116614163E+03  0.73116614163E+03  0.00000000000E+00 0.  1.
        -24    2    1    2    0    0 -0.70015166803E+03 -0.18054130236E+03  0.11324223349E+04  0.13458936224E+04  0.79004925454E+02 0.  0.
        254    2    1    2    0    0  0.70015166803E+03  0.18054130236E+03 -0.84326569660E+02  0.11645344261E+04  0.90896751262E+03 0.  0.
         23    2    4    4    0    0  0.71571968639E+02  0.45283479746E+03 -0.69145414006E+02  0.47313318523E+03  0.94297519568E+02 0.  0.
         23    2    4    4    0    0  0.62857969939E+03 -0.27229349510E+03 -0.15181155654E+02  0.69140124082E+03  0.92460923459E+02 0.  0.
          3    1    3    3  502    0 -0.61427246047E+03 -0.18407637587E+03  0.98971056518E+03  0.11792971511E+04  0.00000000000E+00 0. -1.
         -4    1    3    3    0  502 -0.85879207563E+02  0.35350735017E+01  0.14271176972E+03  0.16659647131E+03  0.00000000000E+00 0.  1.
         11    1    5    5    0    0  0.98943545809E+01  0.25807252270E+01  0.69278321474E+01  0.12351245020E+02  0.00000000000E+00 0. -1.
        -11    1    5    5    0    0  0.61677614059E+02  0.45025407224E+03 -0.76073246153E+02  0.46078194021E+03  0.00000000000E+00 0.  1.
          3    1    6    6  503    0  0.12982529814E+03 -0.97103355763E+02  0.74000172047E+01  0.16229118889E+03  0.00000000000E+00 0. -1.
         -3    1    6    6    0  503  0.49875440125E+03 -0.17519013934E+03 -0.22581172859E+02  0.52911005193E+03  0.00000000000E+00 0.  1.
<mgrwt>
<rscale>  0 0.22811717E+04</rscale>
<asrwt>0</asrwt>
<pdfrwt beam="1">  1        1 0.27373260E+00 0.22811717E+04</pdfrwt>
<pdfrwt beam="2">  1       -2 0.11248710E+00 0.22811717E+04</pdfrwt>
<totfact> 0.20825254E+00</totfact>
</mgrwt>
</event>
<event>
12    4  0.4381187E-008  0.1227332E+04  0.7818608E-02  0.9089264E-01
         -2   -1    0    0    0  501 -0.00000000000E+00  0.00000000000E+00  0.28114996411E+03  0.28114996411E+03  0.00000000000E+00 0.  1.
          1   -1    0    0  501    0  0.00000000000E+00 -0.00000000000E+00 -0.13394490241E+04  0.13394490241E+04  0.00000000000E+00 0. -1.
        -24    2    1    2    0    0  0.28825256271E+03  0.14284169234E+02 -0.21154126178E+03  0.36662194039E+03  0.79802032194E+02 0.  0.
        254    2    1    2    0    0 -0.28825256271E+03 -0.14284169234E+02 -0.84675779819E+03  0.12539770478E+04  0.87872981638E+03 0.  0.
         23    2    4    4    0    0 -0.19415064123E+03  0.31239002939E+03 -0.51664729025E+02  0.38440891366E+03  0.99090699459E+02 0.  0.
         23    2    4    4    0    0 -0.94101921482E+02 -0.32667419863E+03 -0.79509306917E+03  0.86956813414E+03  0.91676319706E+02 0.  0.
          1    1    3    3  502    0 -0.47650958096E+01  0.40006514129E+01 -0.49500120964E+01  0.79507213231E+01  0.00000000000E+00 0. -1.
         -2    1    3    3    0  502  0.29301765852E+03  0.10283517821E+02 -0.20659124968E+03  0.35867121907E+03  0.00000000000E+00 0.  1.
         11    1    5    5    0    0 -0.62321936752E+02  0.11093606527E+03  0.28990327613E+02  0.13050392130E+03  0.00000000000E+00 0.  1.
        -11    1    5    5    0    0 -0.13182870448E+03  0.20145396412E+03 -0.80655056637E+02  0.25390499236E+03  0.00000000000E+00 0. -1.
          4    1    6    6  503    0 -0.27574423381E+02 -0.24517926881E+03 -0.54468729769E+03  0.59796109818E+03  0.00000000000E+00 0. -1.
         -4    1    6    6    0  503 -0.66527498101E+02 -0.81494929819E+02 -0.25040577148E+03  0.27160703596E+03  0.00000000000E+00 0.  1.
<mgrwt>
<rscale>  0 0.12273321E+04</rscale>
<asrwt>0</asrwt>
<pdfrwt beam="1">  1        1 0.20606908E+00 0.12273321E+04</pdfrwt>
<pdfrwt beam="2">  1       -2 0.43253840E-01 0.12273321E+04</pdfrwt>
<totfact> 0.37226571E+01</totfact>
</mgrwt>
</event>
<event>
12    4  0.4381187E-008  0.2137527E+04  0.7818608E-02  0.8544890E-01
          1   -1    0    0  501    0  0.00000000000E+00  0.00000000000E+00  0.23076867270E+04  0.23076867270E+04  0.00000000000E+00 0. -1.
         -2   -1    0    0    0  501 -0.00000000000E+00 -0.00000000000E+00 -0.49497846722E+03  0.49497846722E+03  0.00000000000E+00 0.  1.
        -24    2    1    2    0    0  0.21446546654E+03  0.40567389775E+02  0.18740449428E+04  0.18884925116E+04  0.81965658186E+02 0.  0.
        254    2    1    2    0    0 -0.21446546654E+03 -0.40567389775E+02 -0.61336683072E+02  0.91417268261E+03  0.88561185375E+03 0.  0.
         23    2    4    4    0    0 -0.47581435741E+03 -0.18821284201E+03 -0.21781310715E+03  0.56370418393E+03  0.92176356606E+02 0.  0.
         23    2    4    4    0    0  0.26134889087E+03  0.14764545223E+03  0.15647642408E+03  0.35046849868E+03  0.90779264981E+02 0.  0.
          3    1    3    3  502    0  0.10741161108E+03  0.53558368223E+02  0.11845738591E+04  0.11906388960E+04  0.00000000000E+00 0. -1.
         -4    1    3    3    0  502  0.10705385546E+03 -0.12990978448E+02  0.68947108371E+03  0.69785361557E+03  0.00000000000E+00 0.  1.
         11    1    5    5    0    0 -0.46538636250E+03 -0.18819376917E+03 -0.22592377949E+03  0.55049333810E+03  0.00000000000E+00 0.  1.
        -11    1    5    5    0    0 -0.10427994916E+02 -0.19072841639E-01  0.81106723422E+01  0.13210845832E+02  0.00000000000E+00 0. -1.
          1    1    6    6  503    0  0.45213035738E+02  0.45101006079E+02  0.73243213984E+02  0.97174522096E+02  0.00000000000E+00 0. -1.
         -1    1    6    6    0  503  0.21613585513E+03  0.10254444615E+03  0.83233210096E+02  0.25329397658E+03  0.00000000000E+00 0.  1.
<mgrwt>
<rscale>  0 0.21375268E+04</rscale>
<asrwt>0</asrwt>
<pdfrwt beam="1">  1        1 0.35502872E+00 0.21375268E+04</pdfrwt>
<pdfrwt beam="2">  1       -2 0.76150535E-01 0.21375268E+04</pdfrwt>
<totfact> 0.22859634E+00</totfact>
</mgrwt>
</event>
<event>
12    4  0.4381187E-008  0.4344162E+04  0.7818608E-02  0.7938502E-01
          1   -1    0    0  501    0  0.00000000000E+00  0.00000000000E+00  0.20272087629E+04  0.20272087629E+04  0.00000000000E+00 0. -1.
         -2   -1    0    0    0  501 -0.00000000000E+00 -0.00000000000E+00 -0.23273067734E+04  0.23273067734E+04  0.00000000000E+00 0.  1.
        -24    2    1    2    0    0 -0.35963264047E+03 -0.67231752377E+03 -0.20800177966E+04  0.22171292393E+04  0.88552475778E+02 0.  0.
        254    2    1    2    0    0  0.35963264047E+03  0.67231752377E+03  0.17799197861E+04  0.21373862969E+04  0.90496367249E+03 0.  0.
         23    2    4    4    0    0  0.60645456977E+03  0.64551092664E+03  0.11522575929E+04  0.14562179874E+04  0.91661140729E+02 0.  0.
         23    2    4    4    0    0 -0.24682192930E+03  0.26806597128E+02  0.62766219317E+03  0.68116830955E+03  0.91601194124E+02 0.  0.
          3    1    3    3  502    0 -0.12809985330E+03 -0.20557464833E+03 -0.55458945081E+03  0.60517763294E+03  0.00000000000E+00 0. -1.
         -4    1    3    3    0  502 -0.23153278717E+03 -0.46674287543E+03 -0.15254283457E+04  0.16119516064E+04  0.00000000000E+00 0.  1.
         11    1    5    5    0    0  0.15022708396E+03  0.11025632627E+03  0.26677246023E+03  0.32541078620E+03  0.00000000000E+00 0.  1.
        -11    1    5    5    0    0  0.45622748581E+03  0.53525460037E+03  0.88548513268E+03  0.11308072012E+04  0.00000000000E+00 0. -1.
          1    1    6    6  503    0 -0.58137848785E+02 -0.11974559133E+02  0.25320942336E+03  0.26007385798E+03  0.00000000000E+00 0. -1.
         -1    1    6    6    0  503 -0.18868408052E+03  0.38781156261E+02  0.37445276981E+03  0.42109445157E+03  0.00000000000E+00 0.  1.
<mgrwt>
<rscale>  0 0.43441624E+04</rscale>
<asrwt>0</asrwt>
<pdfrwt beam="1">  1        1 0.31187827E+00 0.43441624E+04</pdfrwt>
<pdfrwt beam="2">  1       -2 0.35804719E+00 0.43441624E+04</pdfrwt>
<totfact> 0.26422290E-02</totfact>
</mgrwt>
</event>
<event>
12    4  0.4381187E-008  0.2833286E+04  0.7818608E-02  0.8293008E-01
          3   -1    0    0  501    0  0.00000000000E+00  0.00000000000E+00  0.14519632718E+04  0.14519632718E+04  0.00000000000E+00 0. -1.
         -4   -1    0    0    0  501 -0.00000000000E+00 -0.00000000000E+00 -0.13821814421E+04  0.13821814421E+04  0.00000000000E+00 0.  1.
        -24    2    1    2    0    0 -0.43238415171E+03 -0.10387597041E+04 -0.55043938954E+03  0.12550816173E+04  0.79174282521E+02 0.  0.
        254    2    1    2    0    0  0.43238415171E+03  0.10387597041E+04  0.62022121922E+03  0.15790630967E+04  0.91803492576E+03 0.  0.
         23    2    4    4    0    0  0.38002587506E+03  0.10879091092E+04  0.23965736406E+03  0.11811693838E+04  0.98790513312E+02 0.  0.
         23    2    4    4    0    0  0.52358276653E+02 -0.49149405054E+02  0.38056385517E+03  0.39789371287E+03  0.91288037180E+02 0.  0.
          1    1    3    3  502    0 -0.15332532295E+02 -0.30904346711E+02 -0.28757528419E+01  0.34618422070E+02  0.00000000000E+00 0. -1.
         -2    1    3    3    0  502 -0.41705161942E+03 -0.10078553574E+04 -0.54756363670E+03  0.12204631952E+04  0.00000000000E+00 0.  1.
         11    1    5    5    0    0  0.30748744258E+03  0.92590956235E+03  0.23535926362E+03  0.10036189655E+04  0.00000000000E+00 0. -1.
        -11    1    5    5    0    0  0.72538432484E+02  0.16199954682E+03  0.42981004349E+01  0.17755041826E+03  0.00000000000E+00 0.  1.
          1    1    6    6  503    0  0.17542585750E+02 -0.89819849118E+01  0.75398306868E+01  0.21101360490E+02  0.00000000000E+00 0. -1.
         -1    1    6    6    0  503  0.34815690903E+02 -0.40167420142E+02  0.37302402448E+03  0.37679235238E+03  0.00000000000E+00 0.  1.
<mgrwt>
<rscale>  0 0.28332855E+04</rscale>
<asrwt>0</asrwt>
<pdfrwt beam="1">  1        3 0.22337896E+00 0.28332855E+04</pdfrwt>
<pdfrwt beam="2">  1       -4 0.21264330E+00 0.28332855E+04</pdfrwt>
<totfact> 0.22718459E-02</totfact>
</mgrwt>
</event>
<event>
12    4  0.4381187E-008  0.3638243E+04  0.7818608E-02  0.8081787E-01
          1   -1    0    0  501    0  0.00000000000E+00  0.00000000000E+00  0.20756103383E+04  0.20756103383E+04  0.00000000000E+00 0. -1.
         -2   -1    0    0    0  501 -0.00000000000E+00 -0.00000000000E+00 -0.15943279497E+04  0.15943279497E+04  0.00000000000E+00 0.  1.
        -24    2    1    2    0    0 -0.60337604610E+03  0.41833579150E+02  0.18379263360E+04  0.19365252978E+04  0.79651183070E+02 0.  0.
        254    2    1    2    0    0  0.60337604610E+03 -0.41833579150E+02 -0.13566439475E+04  0.17334129902E+04  0.89354635747E+03 0.  0.
         23    2    4    4    0    0  0.37239406206E+03 -0.39161455925E+03 -0.11079929872E+04  0.12370965963E+04  0.10353853598E+03 0.  0.
         23    2    4    4    0    0  0.23098198404E+03  0.34978098010E+03 -0.24865096031E+03  0.49631639390E+03  0.93825645736E+02 0.  0.
          1    1    3    3  502    0 -0.34702311076E+03  0.59441269071E+02  0.11170983022E+04  0.11712672286E+04  0.00000000000E+00 0. -1.
         -2    1    3    3    0  502 -0.25635293534E+03 -0.17607689921E+02  0.72082803380E+03  0.76525806923E+03  0.00000000000E+00 0.  1.
         11    1    5    5    0    0  0.38736116345E+02 -0.98848509321E+02 -0.20168549109E+03  0.22792224951E+03  0.00000000000E+00 0.  1.
        -11    1    5    5    0    0  0.33365794572E+03 -0.29276604993E+03 -0.90630749609E+03  0.10091743468E+04  0.00000000000E+00 0. -1.
          1    1    6    6  503    0  0.23591960744E+03  0.34939958662E+03 -0.25119222062E+03  0.49075010342E+03  0.00000000000E+00 0. -1.
         -1    1    6    6    0  503 -0.49376233965E+01  0.38139347954E+00  0.25412603066E+01  0.55662904827E+01  0.00000000000E+00 0.  1.
<mgrwt>
<rscale>  0 0.36382433E+04</rscale>
<asrwt>0</asrwt>
<pdfrwt beam="1">  1        1 0.31932467E+00 0.36382433E+04</pdfrwt>
<pdfrwt beam="2">  1       -2 0.24528122E+00 0.36382433E+04</pdfrwt>
<totfact> 0.12901429E-01</totfact>
</mgrwt>
</event>
<event>
12    4  0.4381187E-008  0.1854338E+04  0.7818608E-02  0.8677925E-01
         -2   -1    0    0    0  501 -0.00000000000E+00  0.00000000000E+00  0.48958615132E+03  0.48958615132E+03  0.00000000000E+00 0.  1.
          1   -1    0    0  501    0  0.00000000000E+00 -0.00000000000E+00 -0.17558558099E+04  0.17558558099E+04  0.00000000000E+00 0. -1.
        -24    2    1    2    0    0 -0.27689363807E+03  0.52926143537E+03 -0.93256649375E+03  0.11104457862E+04  0.81374596666E+02 0.  0.
        254    2    1    2    0    0  0.27689363807E+03 -0.52926143537E+03 -0.33370316482E+03  0.11349961750E+04  0.90557758441E+03 0.  0.
         23    2    4    4    0    0  0.20012536396E+03  0.22826137550E+03 -0.96295561447E+02  0.33224444240E+03  0.94657897231E+02 0.  0.
         23    2    4    4    0    0  0.76768274109E+02 -0.75752281088E+03 -0.23740760337E+03  0.80275173264E+03  0.91180026388E+02 0.  0.
          1    1    3    3  502    0 -0.18149395759E+03  0.42056088506E+03 -0.69786227096E+03  0.83475940481E+03  0.00000000000E+00 0. -1.
         -2    1    3    3    0  502 -0.95399680478E+02  0.10870055031E+03 -0.23470422279E+03  0.27568638136E+03  0.00000000000E+00 0.  1.
         11    1    5    5    0    0  0.16481975100E+03  0.15826770434E+03 -0.31753591010E+02  0.23070003705E+03  0.00000000000E+00 0. -1.
        -11    1    5    5    0    0  0.35305612960E+02  0.69993671168E+02 -0.64541970437E+02  0.10154440535E+03  0.00000000000E+00 0.  1.
          3    1    6    6  503    0 -0.79727438200E+01 -0.15155799069E+03 -0.77149486214E+02  0.17025108637E+03  0.00000000000E+00 0. -1.
         -3    1    6    6    0  503  0.84741017929E+02 -0.60596482018E+03 -0.16025811716E+03  0.63250064627E+03  0.00000000000E+00 0.  1.
<mgrwt>
<rscale>  0 0.18543384E+04</rscale>
<asrwt>0</asrwt>
<pdfrwt beam="1">  1        1 0.27013166E+00 0.18543384E+04</pdfrwt>
<pdfrwt beam="2">  1       -2 0.75320946E-01 0.18543384E+04</pdfrwt>
<totfact> 0.56939212E+00</totfact>
</mgrwt>
</event>
<event>
12    4  0.4381187E-008  0.1450807E+04  0.7818608E-02  0.8917841E-01
          1   -1    0    0  501    0  0.00000000000E+00  0.00000000000E+00  0.28862714556E+03  0.28862714556E+03  0.00000000000E+00 0. -1.
         -2   -1    0    0    0  501 -0.00000000000E+00 -0.00000000000E+00 -0.18231489401E+04  0.18231489401E+04  0.00000000000E+00 0.  1.
        -24    2    1    2    0    0  0.12740679194E+03  0.12744514070E+03  0.11065389670E+03  0.22621676485E+03  0.80342923301E+02 0.  0.
        254    2    1    2    0    0 -0.12740679194E+03 -0.12744514070E+03 -0.16451756912E+04  0.18855593208E+04  0.90346894951E+03 0.  0.
         23    2    4    4    0    0  0.26129630035E+03 -0.18061141419E+02 -0.13464039408E+04  0.13747475717E+04  0.92332836695E+02 0.  0.
         23    2    4    4    0    0 -0.38870309230E+03 -0.10938399928E+03 -0.29877175042E+03  0.51081174908E+03  0.92785402333E+02 0.  0.
          1    1    3    3  502    0  0.12425288818E+03  0.85304539399E+02  0.10476019529E+03  0.18354929360E+03  0.00000000000E+00 0. -1.
         -4    1    3    3    0  502  0.31539037656E+01  0.42140601302E+02  0.58937014063E+01  0.42667471256E+02  0.00000000000E+00 0.  1.
         11    1    5    5    0    0  0.23246257213E+03  0.13644422201E+02 -0.10704228386E+04  0.10954588405E+04  0.00000000000E+00 0. -1.
        -11    1    5    5    0    0  0.28833728222E+02 -0.31705563621E+02 -0.27598110216E+03  0.27928873124E+03  0.00000000000E+00 0.  1.
          2    1    6    6  503    0 -0.15719329527E+03 -0.66263584846E+01 -0.14823057961E+03  0.21616185010E+03  0.00000000000E+00 0. -1.
         -2    1    6    6    0  503 -0.23150979702E+03 -0.10275764080E+03 -0.15054117081E+03  0.29464989898E+03  0.00000000000E+00 0.  1.
<mgrwt>
<rscale>  0 0.14508071E+04</rscale>
<asrwt>0</asrwt>
<pdfrwt beam="1">  1        1 0.44404176E-01 0.14508071E+04</pdfrwt>
<pdfrwt beam="2">  1       -2 0.28048445E+00 0.14508071E+04</pdfrwt>
<totfact> 0.32796764E+00</totfact>
</mgrwt>
</event>
<event>
12    4  0.4381187E-008  0.1138646E+04  0.7818608E-02  0.9168323E-01
         -2   -1    0    0    0  501 -0.00000000000E+00  0.00000000000E+00  0.36576918599E+03  0.36576918599E+03  0.00000000000E+00 0.  1.
          1   -1    0    0  501    0  0.00000000000E+00 -0.00000000000E+00 -0.88615554997E+03  0.88615554997E+03  0.00000000000E+00 0. -1.
        -24    2    1    2    0    0  0.17682573174E+03 -0.64802737877E+02 -0.21258505476E+03  0.29544723002E+03  0.81424357408E+02 0.  0.
        254    2    1    2    0    0 -0.17682573174E+03  0.64802737877E+02 -0.30780130922E+03  0.95647750593E+03  0.88579954795E+03 0.  0.
         23    2    4    4    0    0 -0.34653220006E+03  0.33167033722E+03 -0.38076646885E+03  0.61931181041E+03  0.92055616055E+02 0.  0.
         23    2    4    4    0    0  0.16970646831E+03 -0.26686759935E+03  0.72965159626E+02  0.33716569552E+03  0.91313694197E+02 0.  0.
          3    1    3    3  502    0  0.14188126904E+03 -0.71085807202E+02 -0.20481916173E+03  0.25910302102E+03  0.00000000000E+00 0. -1.
         -4    1    3    3    0  502  0.34944462699E+02  0.62830693257E+01 -0.77658930302E+01  0.36344209003E+02  0.00000000000E+00 0.  1.
         11    1    5    5    0    0 -0.11847732172E+03  0.11028359504E+03 -0.18590450998E+03  0.24649509920E+03  0.00000000000E+00 0. -1.
        -11    1    5    5    0    0 -0.22805487834E+03  0.22138674218E+03 -0.19486195887E+03  0.37281671122E+03  0.00000000000E+00 0.  1.
          1    1    6    6  503    0  0.70064453642E+02 -0.17165114517E+03  0.73245752409E+02  0.19934413347E+03  0.00000000000E+00 0. -1.
         -1    1    6    6    0  503  0.99642014673E+02 -0.95216454170E+02 -0.28059278272E+00  0.13782156205E+03  0.00000000000E+00 0.  1.
<mgrwt>
<rscale>  0 0.11386455E+04</rscale>
<asrwt>0</asrwt>
<pdfrwt beam="1">  1        1 0.13633162E+00 0.11386455E+04</pdfrwt>
<pdfrwt beam="2">  1       -2 0.56272183E-01 0.11386455E+04</pdfrwt>
<totfact> 0.48238582E+01</totfact>
</mgrwt>
</event>
<event>
12    4  0.4381187E-008  0.3320555E+04  0.7818608E-02  0.8157685E-01
         -2   -1    0    0    0  501 -0.00000000000E+00  0.00000000000E+00  0.19795000662E+04  0.19795000662E+04  0.00000000000E+00 0.  1.
          1   -1    0    0  501    0  0.00000000000E+00 -0.00000000000E+00 -0.13925343534E+04  0.13925343534E+04  0.00000000000E+00 0. -1.
        -24    2    1    2    0    0 -0.10185043257E+04  0.43329748741E+03  0.13627413513E+04  0.17576651764E+04  0.85000632627E+02 0.  0.
        254    2    1    2    0    0  0.10185043257E+04 -0.43329748741E+03 -0.77577563844E+03  0.16143692432E+04  0.88275842575E+03 0.  0.
         23    2    4    4    0    0  0.62031614273E+03 -0.47353141434E+03 -0.89090558204E+03  0.11878493235E+04  0.90824786609E+02 0.  0.
         23    2    4    4    0    0  0.39818818299E+03  0.40233926929E+02  0.11512994360E+03  0.42651991978E+03  0.92150638107E+02 0.  0.
          3    1    3    3  502    0 -0.27422652812E+03  0.13769630627E+03  0.43070850421E+03  0.52883861156E+03  0.00000000000E+00 0. -1.
         -4    1    3    3    0  502 -0.74427779761E+03  0.29560118114E+03  0.93203284710E+03  0.12288265648E+04  0.00000000000E+00 0.  1.
         11    1    5    5    0    0  0.37728777265E+03 -0.23649238295E+03 -0.53355286255E+03  0.69494846408E+03  0.00000000000E+00 0.  1.
        -11    1    5    5    0    0  0.24302837008E+03 -0.23703903139E+03 -0.35735271948E+03  0.49290085939E+03  0.00000000000E+00 0. -1.
          3    1    6    6  503    0  0.16483316128E+03  0.43729280917E+02  0.10789151382E+02  0.17087605700E+03  0.00000000000E+00 0. -1.
         -3    1    6    6    0  503  0.23335502171E+03 -0.34953539875E+01  0.10434079221E+03  0.25564386278E+03  0.00000000000E+00 0.  1.
<mgrwt>
<rscale>  0 0.33205553E+04</rscale>
<asrwt>0</asrwt>
<pdfrwt beam="1">  1        1 0.21423605E+00 0.33205553E+04</pdfrwt>
<pdfrwt beam="2">  1       -2 0.30453847E+00 0.33205553E+04</pdfrwt>
<totfact> 0.16857642E-01</totfact>
</mgrwt>
</event>
<event>
12    4  0.4381187E-008  0.1472553E+04  0.7818608E-02  0.8902913E-01
          1   -1    0    0  501    0  0.00000000000E+00  0.00000000000E+00  0.71206240961E+03  0.71206240961E+03  0.00000000000E+00 0. -1.
         -2   -1    0    0    0  501 -0.00000000000E+00 -0.00000000000E+00 -0.76131383163E+03  0.76131383163E+03  0.00000000000E+00 0.  1.
        -24    2    1    2    0    0 -0.28795893152E+03  0.10547212474E+03 -0.34000964711E+03  0.46528610865E+03  0.82703612021E+02 0.  0.
        254    2    1    2    0    0  0.28795893152E+03 -0.10547212474E+03  0.29075822508E+03  0.10080901326E+04  0.91523803167E+03 0.  0.
         23    2    4    4    0    0  0.16920171289E+03 -0.19627823642E+03 -0.29060212889E+03  0.40000232634E+03  0.91640045982E+02 0.  0.
         23    2    4    4    0    0  0.11875721863E+03  0.90806111680E+02  0.58136035397E+03  0.60808780624E+03  0.97169398663E+02 0.  0.
          1    1    3    3  502    0 -0.26789937837E+03  0.10973353176E+03 -0.28360601528E+03  0.40527015289E+03  0.00000000000E+00 0. -1.
         -2    1    3    3    0  502 -0.20059553148E+02 -0.42614070194E+01 -0.56403631831E+02  0.60015955762E+02  0.00000000000E+00 0.  1.
         11    1    5    5    0    0  0.39215493026E+02 -0.28744939621E+01 -0.24671127473E+02  0.46419630972E+02  0.00000000000E+00 0.  1.
        -11    1    5    5    0    0  0.12998621987E+03 -0.19340374246E+03 -0.26593100141E+03  0.35358269537E+03  0.00000000000E+00 0. -1.
          1    1    6    6  503    0  0.76363460965E+02  0.82685373332E+02  0.25305218245E+03  0.27695424924E+03  0.00000000000E+00 0. -1.
         -1    1    6    6    0  503  0.42393757660E+02  0.81207383477E+01  0.32830817152E+03  0.33113355699E+03  0.00000000000E+00 0.  1.
<mgrwt>
<rscale>  0 0.14725528E+04</rscale>
<asrwt>0</asrwt>
<pdfrwt beam="1">  1        1 0.10954806E+00 0.14725528E+04</pdfrwt>
<pdfrwt beam="2">  1       -2 0.11712520E+00 0.14725528E+04</pdfrwt>
<totfact> 0.12701624E+01</totfact>
</mgrwt>
</event>
<event>
12    4  0.4381187E-008  0.2712755E+04  0.7818608E-02  0.8330878E-01
         -4   -1    0    0    0  501 -0.00000000000E+00  0.00000000000E+00  0.26018566560E+04  0.26018566560E+04  0.00000000000E+00 0.  1.
          3   -1    0    0  501    0  0.00000000000E+00 -0.00000000000E+00 -0.70709478616E+03  0.70709478616E+03  0.00000000000E+00 0. -1.
        -24    2    1    2    0    0 -0.38410043805E+02 -0.67802304421E+03 -0.37283432377E+03  0.77882519187E+03  0.79828983226E+02 0.  0.
        254    2    1    2    0    0  0.38410043805E+02  0.67802304421E+03  0.22675961936E+04  0.25301262503E+04  0.89350756302E+03 0.  0.
         23    2    4    4    0    0  0.72915814619E+00 -0.20556065665E+03  0.59694613811E+03  0.63700235262E+03  0.84685241957E+02 0.  0.
         23    2    4    4    0    0  0.37680885659E+02  0.88358370087E+03  0.16706500555E+04  0.18931238977E+04  0.10347211415E+03 0.  0.
          1    1    3    3  502    0 -0.58393741549E+02 -0.32684005485E+03 -0.17810303451E+03  0.37676908234E+03  0.00000000000E+00 0. -1.
         -2    1    3    3    0  502  0.19983697744E+02 -0.35118298936E+03 -0.19473128926E+03  0.40205610953E+03  0.00000000000E+00 0.  1.
         11    1    5    5    0    0  0.18754202639E+02 -0.45547327128E+02  0.24592398354E+03  0.25080846239E+03  0.00000000000E+00 0.  1.
        -11    1    5    5    0    0 -0.18025044493E+02 -0.16001332952E+03  0.35102215457E+03  0.38619389023E+03  0.00000000000E+00 0. -1.
          4    1    6    6  503    0  0.32725379673E+01  0.70771799805E+03  0.13966177107E+04  0.15657000045E+04  0.00000000000E+00 0. -1.
         -4    1    6    6    0  503  0.34408347691E+02  0.17586570282E+03  0.27403234481E+03  0.32742389317E+03  0.00000000000E+00 0.  1.
<mgrwt>
<rscale>  0 0.27127545E+04</rscale>
<asrwt>0</asrwt>
<pdfrwt beam="1">  1        3 0.10878381E+00 0.27127545E+04</pdfrwt>
<pdfrwt beam="2">  1       -4 0.40028564E+00 0.27127545E+04</pdfrwt>
<totfact> 0.96719323E-03</totfact>
</mgrwt>
</event>
<event>
12    4  0.4381187E-008  0.2453572E+04  0.7818608E-02  0.8419715E-01
          1   -1    0    0  501    0  0.00000000000E+00  0.00000000000E+00  0.72634877759E+03  0.72634877759E+03  0.00000000000E+00 0. -1.
         -2   -1    0    0    0  501 -0.00000000000E+00 -0.00000000000E+00 -0.20720132125E+04  0.20720132125E+04  0.00000000000E+00 0.  1.
        -24    2    1    2    0    0 -0.66956786291E+03 -0.87704811508E+02  0.34737635846E+03  0.76341232740E+03  0.78197123983E+02 0.  0.
        254    2    1    2    0    0  0.66956786291E+03  0.87704811508E+02 -0.16930407934E+04  0.20349496627E+04  0.90477607435E+03 0.  0.
         23    2    4    4    0    0  0.25175623264E+02 -0.21073419661E+03 -0.43194296541E+02  0.23577740141E+03  0.93180052255E+02 0.  0.
         23    2    4    4    0    0  0.64439223965E+03  0.29843900811E+03 -0.16498464968E+04  0.17991722613E+04  0.10353821810E+03 0.  0.
          3    1    3    3  502    0 -0.50066760614E+03 -0.33218529061E+02  0.24285930306E+03  0.55745148990E+03  0.00000000000E+00 0. -1.
         -2    1    3    3    0  502 -0.16890025677E+03 -0.54486282447E+02  0.10451705539E+03  0.20596083749E+03  0.00000000000E+00 0.  1.
         11    1    5    5    0    0  0.45054314717E+02 -0.48041717845E+02  0.15371189017E+01  0.65880654692E+02  0.00000000000E+00 0.  1.
        -11    1    5    5    0    0 -0.19878691454E+02 -0.16269247876E+03 -0.44731415442E+02  0.16989674672E+03  0.00000000000E+00 0. -1.
          3    1    6    6  503    0  0.42733776140E+03  0.20804846313E+03 -0.97810029571E+03  0.10874658219E+04  0.00000000000E+00 0. -1.
         -3    1    6    6    0  503  0.21705447825E+03  0.90390544980E+02 -0.67174620114E+03  0.71170643941E+03  0.00000000000E+00 0.  1.
<mgrwt>
<rscale>  0 0.24535723E+04</rscale>
<asrwt>0</asrwt>
<pdfrwt beam="1">  1        1 0.11174597E+00 0.24535723E+04</pdfrwt>
<pdfrwt beam="2">  1       -2 0.31877126E+00 0.24535723E+04</pdfrwt>
<totfact> 0.49064440E-01</totfact>
</mgrwt>
</event>
<event>
12    4  0.4381187E-008  0.2691903E+04  0.7818608E-02  0.8337637E-01
         -2   -1    0    0    0  501 -0.00000000000E+00  0.00000000000E+00  0.17707186972E+04  0.17707186972E+04  0.00000000000E+00 0.  1.
          1   -1    0    0  501    0  0.00000000000E+00 -0.00000000000E+00 -0.10230794971E+04  0.10230794971E+04  0.00000000000E+00 0. -1.
        -24    2    1    2    0    0 -0.20811772935E+03  0.80450312894E+03 -0.55887214126E+03  0.10046173464E+04  0.79872827452E+02 0.  0.
        254    2    1    2    0    0  0.20811772935E+03 -0.80450312894E+03  0.13065113413E+04  0.17891808480E+04  0.89646971397E+03 0.  0.
         23    2    4    4    0    0  0.35369317253E+03 -0.51978237767E+03  0.25139120500E+03  0.68322461211E+03  0.91245559890E+02 0.  0.
         23    2    4    4    0    0 -0.14557544319E+03 -0.28472075127E+03  0.10551201363E+04  0.11059562359E+04  0.87192762058E+02 0.  0.
          1    1    3    3  502    0 -0.18288247841E+03  0.69770489208E+03 -0.51579698634E+03  0.88672693004E+03  0.00000000000E+00 0. -1.
         -2    1    3    3    0  502 -0.25235250939E+02  0.10679823686E+03 -0.43075154927E+02  0.11789041631E+03  0.00000000000E+00 0.  1.
         11    1    5    5    0    0  0.15172258405E+03 -0.27993558264E+03  0.91731039570E+02  0.33135819978E+03  0.00000000000E+00 0. -1.
        -11    1    5    5    0    0  0.20197058848E+03 -0.23984679504E+03  0.15966016543E+03  0.35186641233E+03  0.00000000000E+00 0.  1.
          4    1    6    6  503    0 -0.75841055185E+02 -0.15471119266E+03  0.71033943329E+03  0.73093743184E+03  0.00000000000E+00 0. -1.
         -4    1    6    6    0  503 -0.69734388000E+02 -0.13000955860E+03  0.34478070304E+03  0.37501880404E+03  0.00000000000E+00 0.  1.
<mgrwt>
<rscale>  0 0.26919034E+04</rscale>
<asrwt>0</asrwt>
<pdfrwt beam="1">  1        1 0.15739685E+00 0.26919034E+04</pdfrwt>
<pdfrwt beam="2">  1       -2 0.27241826E+00 0.26919034E+04</pdfrwt>
<totfact> 0.52129507E-01</totfact>
</mgrwt>
</event>
<event>
12    4  0.4381187E-008  0.1161845E+04  0.7818608E-02  0.9146925E-01
          1   -1    0    0  501    0  0.00000000000E+00  0.00000000000E+00  0.58014416860E+03  0.58014416860E+03  0.00000000000E+00 0. -1.
         -2   -1    0    0    0  501 -0.00000000000E+00 -0.00000000000E+00 -0.58170223689E+03  0.58170223689E+03  0.00000000000E+00 0.  1.
        -24    2    1    2    0    0  0.11371246417E+03 -0.56461398629E+02 -0.18780943068E+03  0.23917234949E+03  0.76240517231E+02 0.  0.
        254    2    1    2    0    0 -0.11371246417E+03  0.56461398629E+02  0.18625136239E+03  0.92267405599E+03  0.89471751384E+03 0.  0.
         23    2    4    4    0    0  0.20782767451E+03  0.36517036558E+03 -0.99781732750E+00  0.42946486306E+03  0.88866949841E+02 0.  0.
         23    2    4    4    0    0 -0.32154013868E+03 -0.30870896695E+03  0.18724917972E+03  0.49320919293E+03  0.97487258828E+02 0.  0.
          3    1    3    3  502    0  0.18876026545E+02 -0.19164642332E+02 -0.16559723354E+01  0.26950512764E+02  0.00000000000E+00 0. -1.
         -4    1    3    3    0  502  0.94836437621E+02 -0.37296756296E+02 -0.18615345834E+03  0.21222183673E+03  0.00000000000E+00 0.  1.
         11    1    5    5    0    0  0.87424676374E+02  0.12957242196E+03  0.40940564733E+02  0.16158037137E+03  0.00000000000E+00 0. -1.
        -11    1    5    5    0    0  0.12040299814E+03  0.23559794361E+03 -0.41938382061E+02  0.26788449168E+03  0.00000000000E+00 0.  1.
          3    1    6    6  503    0 -0.71250455747E+02 -0.11878839624E+03  0.29428567245E+02  0.14160985522E+03  0.00000000000E+00 0. -1.
         -3    1    6    6    0  503 -0.25028968293E+03 -0.18992057071E+03  0.15782061247E+03  0.35159933772E+03  0.00000000000E+00 0.  1.
<mgrwt>
<rscale>  0 0.11618454E+04</rscale>
<asrwt>0</asrwt>
<pdfrwt beam="1">  1        1 0.89252949E-01 0.11618454E+04</pdfrwt>
<pdfrwt beam="2">  1       -2 0.89492652E-01 0.11618454E+04</pdfrwt>
<totfact> 0.33435481E+01</totfact>
</mgrwt>
</event>
<event>
12    4  0.4381187E-008  0.1548943E+04  0.7818608E-02  0.8852543E-01
          3   -1    0    0  501    0  0.00000000000E+00  0.00000000000E+00  0.82594500254E+03  0.82594500254E+03  0.00000000000E+00 0. -1.
         -4   -1    0    0    0  501 -0.00000000000E+00 -0.00000000000E+00 -0.72620558867E+03  0.72620558867E+03  0.00000000000E+00 0.  1.
        -24    2    1    2    0    0 -0.46551148632E+03  0.45646489986E+02 -0.16856900129E+03  0.50342745978E+03  0.78988310032E+02 0.  0.
        254    2    1    2    0    0  0.46551148632E+03 -0.45646489986E+02  0.26830841517E+03  0.10487231314E+04  0.89946998549E+03 0.  0.
         23    2    4    4    0    0 -0.19439031158E+03 -0.14383942265E+03  0.27186159692E+03  0.37501418866E+03  0.90826984278E+02 0.  0.
         23    2    4    4    0    0  0.65990179790E+03  0.98192932667E+02 -0.35531817577E+01  0.67370894277E+03  0.93588885938E+02 0.  0.
          1    1    3    3  502    0 -0.28445600076E+03  0.61694171593E+02 -0.83973287696E+02  0.30294042356E+03  0.00000000000E+00 0. -1.
         -2    1    3    3    0  502 -0.18105548556E+03 -0.16047681607E+02 -0.84595713596E+02  0.20048703623E+03  0.00000000000E+00 0.  1.
         11    1    5    5    0    0 -0.13031700190E+03 -0.10753773368E+03  0.12317831096E+03  0.20909275798E+03  0.00000000000E+00 0. -1.
        -11    1    5    5    0    0 -0.64073309676E+02 -0.36301688977E+02  0.14868328596E+03  0.16592143068E+03  0.00000000000E+00 0.  1.
          2    1    6    6  503    0  0.52041515249E+03  0.95399319462E+02 -0.36541585862E+02  0.53034729055E+03  0.00000000000E+00 0. -1.
         -2    1    6    6    0  503  0.13948664541E+03  0.27936132052E+01  0.32988404104E+02  0.14336165222E+03  0.00000000000E+00 0.  1.
<mgrwt>
<rscale>  0 0.15489427E+04</rscale>
<asrwt>0</asrwt>
<pdfrwt beam="1">  1        3 0.12706846E+00 0.15489427E+04</pdfrwt>
<pdfrwt beam="2">  1       -4 0.11172394E+00 0.15489427E+04</pdfrwt>
<totfact> 0.68500975E-01</totfact>
</mgrwt>
</event>
<event>
12    4  0.4381187E-008  0.1386774E+04  0.7818608E-02  0.8963448E-01
          1   -1    0    0  501    0  0.00000000000E+00  0.00000000000E+00  0.57916622171E+03  0.57916622171E+03  0.00000000000E+00 0. -1.
         -2   -1    0    0    0  501 -0.00000000000E+00 -0.00000000000E+00 -0.83013376029E+03  0.83013376029E+03  0.00000000000E+00 0.  1.
        -24    2    1    2    0    0  0.22661117937E+03  0.67310685406E+02 -0.37776188786E+03  0.45329419452E+03  0.82995348582E+02 0.  0.
        254    2    1    2    0    0 -0.22661117937E+03 -0.67310685406E+02  0.12679434928E+03  0.95600578748E+03  0.91759844360E+03 0.  0.
         23    2    4    4    0    0  0.11554744330E+03 -0.79420400034E+01  0.44937557171E+03  0.47258492849E+03  0.89352238543E+02 0.  0.
         23    2    4    4    0    0 -0.34215862266E+03 -0.59368645403E+02 -0.32258122243E+03  0.48342085899E+03  0.95078508196E+02 0.  0.
          1    1    3    3  502    0  0.12591591247E+03  0.43832294054E+02 -0.13649956978E+03  0.19080938018E+03  0.00000000000E+00 0. -1.
         -2    1    3    3    0  502  0.10069526690E+03  0.23478391352E+02 -0.24126231807E+03  0.26248481434E+03  0.00000000000E+00 0.  1.
         11    1    5    5    0    0  0.84597829620E+01  0.29049802396E+02  0.62125859635E+02  0.69101963665E+02  0.00000000000E+00 0.  1.
        -11    1    5    5    0    0  0.10708766034E+03 -0.36991842399E+02  0.38724971208E+03  0.40348296482E+03  0.00000000000E+00 0. -1.
          3    1    6    6  503    0 -0.32487464842E+03 -0.52282058350E+02 -0.32734127431E+03  0.46414357765E+03  0.00000000000E+00 0. -1.
         -3    1    6    6    0  503 -0.17283974246E+02 -0.70865870530E+01  0.47600518796E+01  0.19277281336E+02  0.00000000000E+00 0.  1.
<mgrwt>
<rscale>  0 0.13867739E+04</rscale>
<asrwt>0</asrwt>
<pdfrwt beam="1">  1        1 0.89102496E-01 0.13867739E+04</pdfrwt>
<pdfrwt beam="2">  1       -2 0.12771289E+00 0.13867739E+04</pdfrwt>
<totfact> 0.13974918E+01</totfact>
</mgrwt>
</event>
<event>
12    4  0.4381187E-008  0.2148721E+04  0.7818608E-02  0.8540080E-01
         -2   -1    0    0    0  501 -0.00000000000E+00  0.00000000000E+00  0.11594167226E+04  0.11594167226E+04  0.00000000000E+00 0.  1.
          1   -1    0    0  501    0  0.00000000000E+00 -0.00000000000E+00 -0.99554442324E+03  0.99554442324E+03  0.00000000000E+00 0. -1.
        -24    2    1    2    0    0 -0.28035941376E+03 -0.83741881428E+03  0.12393838102E+03  0.89544269948E+03  0.81149456931E+02 0.  0.
        254    2    1    2    0    0  0.28035941376E+03  0.83741881428E+03  0.39933918394E+02  0.12595184464E+04  0.89717352146E+03 0.  0.
         23    2    4    4    0    0  0.26738300347E+03  0.11943756034E+02  0.27675266505E+03  0.39589811793E+03  0.92233173620E+02 0.  0.
         23    2    4    4    0    0  0.12976410291E+02  0.82547505825E+03 -0.23681874666E+03  0.86362032847E+03  0.90440554916E+02 0.  0.
          3    1    3    3  502    0 -0.12363270797E+03 -0.39599345006E+03  0.18252407335E+02  0.41524572165E+03  0.00000000000E+00 0. -1.
         -4    1    3    3    0  502 -0.15672670579E+03 -0.44142536422E+03  0.10568597368E+03  0.48019697783E+03  0.00000000000E+00 0.  1.
         11    1    5    5    0    0  0.24070930265E+03 -0.12200952285E+02  0.26461861735E+03  0.35792854631E+03  0.00000000000E+00 0. -1.
        -11    1    5    5    0    0  0.26673700824E+02  0.24144708319E+02  0.12134047705E+02  0.37969571622E+02  0.00000000000E+00 0.  1.
          3    1    6    6  503    0  0.40221862596E+02  0.72799469643E+03 -0.20178702898E+03  0.75651310717E+03  0.00000000000E+00 0. -1.
         -3    1    6    6    0  503 -0.27245452306E+02  0.97480361820E+02 -0.35031717678E+02  0.10710722130E+03  0.00000000000E+00 0.  1.
<mgrwt>
<rscale>  0 0.21487213E+04</rscale>
<asrwt>0</asrwt>
<pdfrwt beam="1">  1        1 0.15316068E+00 0.21487213E+04</pdfrwt>
<pdfrwt beam="2">  1       -2 0.17837180E+00 0.21487213E+04</pdfrwt>
<totfact> 0.22788539E+00</totfact>
</mgrwt>
</event>
<event>
12    4  0.4381187E-008  0.1938766E+04  0.7818608E-02  0.8635797E-01
         -2   -1    0    0    0  501 -0.00000000000E+00  0.00000000000E+00  0.41819741306E+03  0.41819741306E+03  0.00000000000E+00 0.  1.
          1   -1    0    0  501    0  0.00000000000E+00 -0.00000000000E+00 -0.22470321805E+04  0.22470321805E+04  0.00000000000E+00 0. -1.
        -24    2    1    2    0    0  0.11385147811E+03 -0.24808693426E+03  0.25497572263E+03  0.38203416463E+03  0.80176042508E+02 0.  0.
        254    2    1    2    0    0 -0.11385147811E+03  0.24808693426E+03 -0.20838104901E+04  0.22831954289E+04  0.89230371634E+03 0.  0.
         23    2    4    4    0    0  0.29342238824E+03 -0.12784617054E+03 -0.48195195996E+03  0.58572369163E+03  0.91395896965E+02 0.  0.
         23    2    4    4    0    0 -0.40727386635E+03  0.37593310480E+03 -0.16018585301E+04  0.16974717373E+04  0.90894702779E+02 0.  0.
          1    1    3    3  502    0  0.57907607063E+02 -0.47667063990E+02  0.51355370315E+02  0.90900022032E+02  0.00000000000E+00 0. -1.
         -2    1    3    3    0  502  0.55943871043E+02 -0.20041987027E+03  0.20362035232E+03  0.29113414260E+03  0.00000000000E+00 0.  1.
         11    1    5    5    0    0  0.29965132792E+03 -0.12896216722E+03 -0.47582412402E+03  0.57691486019E+03  0.00000000000E+00 0. -1.
        -11    1    5    5    0    0 -0.62289396796E+01  0.11159966840E+01 -0.61278359410E+01  0.88088314464E+01  0.00000000000E+00 0.  1.
          2    1    6    6  503    0 -0.39846358234E+03  0.36404836048E+03 -0.15879463261E+04  0.16771636682E+04  0.00000000000E+00 0. -1.
         -2    1    6    6    0  503 -0.88102840096E+01  0.11884744324E+02 -0.13912203975E+02  0.20308069121E+02  0.00000000000E+00 0.  1.
<mgrwt>
<rscale>  0 0.19387656E+04</rscale>
<asrwt>0</asrwt>
<pdfrwt beam="1">  1        1 0.34569726E+00 0.19387656E+04</pdfrwt>
<pdfrwt beam="2">  1       -2 0.64338064E-01 0.19387656E+04</pdfrwt>
<totfact> 0.36990854E+00</totfact>
</mgrwt>
</event>
<event>
12    4  0.4381187E-008  0.1298049E+04  0.7818608E-02  0.9031114E-01
          1   -1    0    0  501    0  0.00000000000E+00  0.00000000000E+00  0.16350191477E+04  0.16350191477E+04  0.00000000000E+00 0. -1.
         -2   -1    0    0    0  501 -0.00000000000E+00 -0.00000000000E+00 -0.25763174841E+03  0.25763174841E+03  0.00000000000E+00 0.  1.
        -24    2    1    2    0    0 -0.98799020325E+02 -0.33937272438E+02 -0.95032245205E+02  0.16186883368E+03  0.79103772409E+02 0.  0.
        254    2    1    2    0    0  0.98799020325E+02  0.33937272438E+02  0.14724196445E+04  0.17307820625E+04  0.90370014567E+03 0.  0.
         23    2    4    4    0    0  0.14820864418E+03 -0.11637311587E+03 -0.38128997300E+02  0.20918336863E+03  0.82433955199E+02 0.  0.
         23    2    4    4    0    0 -0.49409623854E+02  0.15031038831E+03  0.15105486418E+04  0.15215986938E+04  0.92037285889E+02 0.  0.
          1    1    3    3  502    0 -0.10133407204E+02  0.15356001362E+02 -0.45288101386E+02  0.48882561783E+02  0.00000000000E+00 0. -1.
         -2    1    3    3    0  502 -0.88665613121E+02 -0.49293273800E+02 -0.49744143819E+02  0.11298627189E+03  0.00000000000E+00 0.  1.
         11    1    5    5    0    0  0.10684633907E+03 -0.87311223482E+02 -0.64333492212E+02  0.15224384434E+03  0.00000000000E+00 0. -1.
        -11    1    5    5    0    0  0.41362305109E+02 -0.29061892389E+02  0.26204494912E+02  0.56939524293E+02  0.00000000000E+00 0.  1.
          4    1    6    6  503    0 -0.36825223580E+02  0.12229058224E+02  0.51220703176E+03  0.51367469311E+03  0.00000000000E+00 0. -1.
         -4    1    6    6    0  503 -0.12584400274E+02  0.13808133009E+03  0.99834161005E+03  0.10079240007E+04  0.00000000000E+00 0.  1.
<mgrwt>
<rscale>  0 0.12980491E+04</rscale>
<asrwt>0</asrwt>
<pdfrwt beam="1">  1        1 0.25154140E+00 0.12980491E+04</pdfrwt>
<pdfrwt beam="2">  1       -2 0.39635655E-01 0.12980491E+04</pdfrwt>
<totfact> 0.27418500E+01</totfact>
</mgrwt>
</event>
<event>
12    4  0.4381187E-008  0.1500106E+04  0.7818608E-02  0.8884383E-01
          1   -1    0    0  501    0  0.00000000000E+00  0.00000000000E+00  0.14386356594E+04  0.14386356594E+04  0.00000000000E+00 0. -1.
         -2   -1    0    0    0  501 -0.00000000000E+00 -0.00000000000E+00 -0.39105055171E+03  0.39105055171E+03  0.00000000000E+00 0.  1.
        -24    2    1    2    0    0  0.12256630728E+03 -0.25850844185E+03 -0.14260219633E+03  0.32935565123E+03  0.79313582761E+02 0.  0.
        254    2    1    2    0    0 -0.12256630728E+03  0.25850844185E+03  0.11901873040E+04  0.15003305599E+04  0.86752340375E+03 0.  0.
         23    2    4    4    0    0  0.78105976334E+02 -0.29320201840E+03  0.46858217336E+03  0.56568920782E+03  0.91471632308E+02 0.  0.
         23    2    4    4    0    0 -0.20067228361E+03  0.55171046024E+03  0.72160513064E+03  0.93464135204E+03  0.90480357131E+02 0.  0.
          1    1    3    3  502    0  0.33762743321E+02 -0.25779394385E+02 -0.30508290008E+00  0.42480502434E+02  0.00000000000E+00 0. -1.
         -2    1    3    3    0  502  0.88803563954E+02 -0.23272904746E+03 -0.14229711343E+03  0.28687514879E+03  0.00000000000E+00 0.  1.
         11    1    5    5    0    0  0.30190203882E+02 -0.23614064513E+03  0.39350780296E+03  0.45991547450E+03  0.00000000000E+00 0. -1.
        -11    1    5    5    0    0  0.47915772453E+02 -0.57061373270E+02  0.75074370400E+02  0.10577373332E+03  0.00000000000E+00 0.  1.
          2    1    6    6  503    0 -0.11096596214E+03  0.40533648375E+03  0.54672196293E+03  0.68957669230E+03  0.00000000000E+00 0. -1.
         -2    1    6    6    0  503 -0.89706321465E+02  0.14637397649E+03  0.17488316771E+03  0.24506465974E+03  0.00000000000E+00 0.  1.
<mgrwt>
<rscale>  0 0.15001057E+04</rscale>
<asrwt>0</asrwt>
<pdfrwt beam="1">  1        1 0.22132856E+00 0.15001057E+04</pdfrwt>
<pdfrwt beam="2">  1       -2 0.60161624E-01 0.15001057E+04</pdfrwt>
<totfact> 0.15776441E+01</totfact>
</mgrwt>
</event>
<event>
12    4  0.4381187E-008  0.3040916E+04  0.7818608E-02  0.8232143E-01
         -2   -1    0    0    0  501 -0.00000000000E+00  0.00000000000E+00  0.49895016887E+03  0.49895016887E+03  0.00000000000E+00 0.  1.
          1   -1    0    0  501    0  0.00000000000E+00 -0.00000000000E+00 -0.46333142235E+04  0.46333142235E+04  0.00000000000E+00 0. -1.
        -24    2    1    2    0    0 -0.40261177979E+03 -0.78693590419E+01 -0.41352769879E+04  0.41556325372E+04  0.81288653789E+02 0.  0.
        254    2    1    2    0    0  0.40261177979E+03  0.78693590419E+01  0.91293323224E+00  0.97663185525E+03  0.88974759073E+03 0.  0.
         23    2    4    4    0    0  0.48128722011E+03 -0.26124920376E+03 -0.22993564808E+03  0.60189092618E+03  0.97538454213E+02 0.  0.
         23    2    4    4    0    0 -0.78675440319E+02  0.26911856280E+03  0.23084858132E+03  0.37474092907E+03  0.92331309283E+02 0.  0.
          1    1    3    3  502    0 -0.39564953485E+03 -0.55612652690E+01 -0.41165031493E+04  0.41354767150E+04  0.00000000000E+00 0. -1.
         -2    1    3    3    0  502 -0.69622449330E+01 -0.23080937729E+01 -0.18773838621E+02  0.20155822185E+02  0.00000000000E+00 0.  1.
         11    1    5    5    0    0  0.44457828848E+03 -0.26170075434E+03 -0.19589572362E+03  0.55182630776E+03  0.00000000000E+00 0.  1.
        -11    1    5    5    0    0  0.36708931630E+02  0.45155057971E+00 -0.34039924464E+02  0.50064618414E+02  0.00000000000E+00 0. -1.
          3    1    6    6  503    0 -0.17196564854E+02  0.20042593490E+03  0.17721068516E+03  0.26808562840E+03  0.00000000000E+00 0. -1.
         -3    1    6    6    0  503 -0.61478875465E+02  0.68692627905E+02  0.53637896156E+02  0.10665530067E+03  0.00000000000E+00 0.  1.
<mgrwt>
<rscale>  0 0.30409163E+04</rscale>
<asrwt>0</asrwt>
<pdfrwt beam="1">  1        1 0.71281760E+00 0.30409163E+04</pdfrwt>
<pdfrwt beam="2">  1       -2 0.76761562E-01 0.30409163E+04</pdfrwt>
<totfact> 0.26366760E-02</totfact>
</mgrwt>
</event>
<event>
12    4  0.4381187E-008  0.1853058E+04  0.7818608E-02  0.8678582E-01
          1   -1    0    0  501    0  0.00000000000E+00  0.00000000000E+00  0.14637867337E+04  0.14637867337E+04  0.00000000000E+00 0. -1.
         -2   -1    0    0    0  501 -0.00000000000E+00 -0.00000000000E+00 -0.58646253782E+03  0.58646253782E+03  0.00000000000E+00 0.  1.
        -24    2    1    2    0    0 -0.30369813777E+03 -0.56666723183E+03  0.65217520544E+03  0.92043696565E+03  0.92343915029E+02 0.  0.
        254    2    1    2    0    0  0.30369813777E+03  0.56666723183E+03  0.22514899046E+03  0.11298123059E+04  0.90135424119E+03 0.  0.
         23    2    4    4    0    0  0.28695775537E+02  0.26419288022E+03 -0.33046521632E+03  0.43401143127E+03  0.92397715241E+02 0.  0.
         23    2    4    4    0    0  0.27500236224E+03  0.30247435161E+03  0.55561420679E+03  0.69580087462E+03  0.91184854666E+02 0.  0.
          1    1    3    3  502    0 -0.18600575494E+03 -0.31215064274E+03  0.42790622936E+03  0.56137323213E+03  0.00000000000E+00 0. -1.
         -2    1    3    3    0  502 -0.11769238283E+03 -0.25451658909E+03  0.22426897608E+03  0.35906373352E+03  0.00000000000E+00 0.  1.
         11    1    5    5    0    0  0.26146648530E+02  0.26225122593E+02 -0.81933276670E+02  0.89913659198E+02  0.00000000000E+00 0. -1.
        -11    1    5    5    0    0  0.25491270065E+01  0.23796775762E+03 -0.24853193965E+03  0.34409777207E+03  0.00000000000E+00 0.  1.
          1    1    6    6  503    0 -0.69814012897E+01  0.36815489553E+01  0.12788983162E+02  0.15028368408E+02  0.00000000000E+00 0. -1.
         -1    1    6    6    0  503  0.28198376352E+03  0.29879280266E+03  0.54282522362E+03  0.68077250621E+03  0.00000000000E+00 0.  1.
<mgrwt>
<rscale>  0 0.18530581E+04</rscale>
<asrwt>0</asrwt>
<pdfrwt beam="1">  1        1 0.22519796E+00 0.18530581E+04</pdfrwt>
<pdfrwt beam="2">  1       -2 0.90225006E-01 0.18530581E+04</pdfrwt>
<totfact> 0.60044741E+00</totfact>
</mgrwt>
</event>
<event>
12    4  0.4381187E-008  0.2030912E+04  0.7818608E-02  0.8592303E-01
         -4   -1    0    0    0  501 -0.00000000000E+00  0.00000000000E+00  0.13390412301E+04  0.13390412301E+04  0.00000000000E+00 0.  1.
          3   -1    0    0  501    0  0.00000000000E+00 -0.00000000000E+00 -0.77006690726E+03  0.77006690726E+03  0.00000000000E+00 0. -1.
        -24    2    1    2    0    0 -0.38743543690E+03 -0.42572842140E+03  0.82669054802E+03  0.10104984930E+04  0.79618060752E+02 0.  0.
        254    2    1    2    0    0  0.38743543690E+03  0.42572842140E+03 -0.25771622516E+03  0.10986096444E+04  0.89954132283E+03 0.  0.
         23    2    4    4    0    0  0.21311314773E+03  0.17728767891E+03  0.32410865165E+03  0.43609645702E+03  0.91025089514E+02 0.  0.
         23    2    4    4    0    0  0.17432228917E+03  0.24844074250E+03 -0.58182487681E+03  0.66251318737E+03  0.91063017408E+02 0.  0.
          3    1    3    3  502    0 -0.12176974477E+03 -0.14540821106E+03  0.21109134081E+03  0.28377979624E+03  0.00000000000E+00 0. -1.
         -4    1    3    3    0  502 -0.26566569213E+03 -0.28032021034E+03  0.61559920721E+03  0.72671869675E+03  0.00000000000E+00 0.  1.
         11    1    5    5    0    0 -0.36628527808E+01 -0.41435903643E+01 -0.61922253993E+00  0.55650038774E+01  0.00000000000E+00 0. -1.
        -11    1    5    5    0    0  0.21677600051E+03  0.18143126927E+03  0.32472787419E+03  0.43053145314E+03  0.00000000000E+00 0.  1.
          4    1    6    6  503    0  0.43932628817E+02  0.58077878360E+02 -0.69671001930E+02  0.10078275815E+03  0.00000000000E+00 0. -1.
         -4    1    6    6    0  503  0.13038966035E+03  0.19036286414E+03 -0.51215387488E+03  0.56173042923E+03  0.00000000000E+00 0.  1.
<mgrwt>
<rscale>  0 0.20309124E+04</rscale>
<asrwt>0</asrwt>
<pdfrwt beam="1">  1        3 0.11847183E+00 0.20309124E+04</pdfrwt>
<pdfrwt beam="2">  1       -4 0.20600634E+00 0.20309124E+04</pdfrwt>
<totfact> 0.14865897E-01</totfact>
</mgrwt>
</event>
<event>
12    4  0.4381187E-008  0.1300513E+04  0.7818608E-02  0.9029158E-01
         -2   -1    0    0    0  501 -0.00000000000E+00  0.00000000000E+00  0.16682074606E+04  0.16682074606E+04  0.00000000000E+00 0.  1.
          1   -1    0    0  501    0  0.00000000000E+00 -0.00000000000E+00 -0.25346587304E+03  0.25346587304E+03  0.00000000000E+00 0. -1.
        -24    2    1    2    0    0  0.64266397985E+02 -0.94284203010E+02  0.82058572493E+03  0.83239446251E+03  0.80622133583E+02 0.  0.
        254    2    1    2    0    0 -0.64266397985E+02  0.94284203010E+02  0.59415586267E+03  0.10892788712E+04  0.90580769989E+03 0.  0.
         23    2    4    4    0    0 -0.67229859341E+01  0.25070384364E+03 -0.16040761971E+03  0.31129990457E+03  0.90991265330E+02 0.  0.
         23    2    4    4    0    0 -0.57543412051E+02 -0.15641964063E+03  0.75456348238E+03  0.77797896660E+03  0.90038187969E+02 0.  0.
          1    1    3    3  502    0  0.40670653404E+01 -0.43019122711E+02  0.12355280514E+03  0.13089110588E+03  0.00000000000E+00 0. -1.
         -2    1    3    3    0  502  0.60199332644E+02 -0.51265080298E+02  0.69703291979E+03  0.70150335664E+03  0.00000000000E+00 0.  1.
         11    1    5    5    0    0  0.40776558515E+02  0.14725568757E+03 -0.97260537312E+02  0.18112586056E+03  0.00000000000E+00 0. -1.
        -11    1    5    5    0    0 -0.47499544449E+02  0.10344815607E+03 -0.63147082396E+02  0.13017404401E+03  0.00000000000E+00 0.  1.
          1    1    6    6  503    0 -0.80856397911E+02 -0.13458456123E+03  0.60479167290E+03  0.62483896230E+03  0.00000000000E+00 0. -1.
         -1    1    6    6    0  503  0.23312985860E+02 -0.21835079397E+02  0.14977180948E+03  0.15314000430E+03  0.00000000000E+00 0.  1.
<mgrwt>
<rscale>  0 0.13005132E+04</rscale>
<asrwt>0</asrwt>
<pdfrwt beam="1">  1        1 0.38994751E-01 0.13005132E+04</pdfrwt>
<pdfrwt beam="2">  1       -2 0.25664729E+00 0.13005132E+04</pdfrwt>
<totfact> 0.54894784E+00</totfact>
</mgrwt>
</event>
<event>
12    4  0.4381187E-008  0.1468075E+04  0.7818608E-02  0.8905965E-01
          1   -1    0    0  501    0  0.00000000000E+00  0.00000000000E+00  0.24224432497E+04  0.24224432497E+04  0.00000000000E+00 0. -1.
         -2   -1    0    0    0  501 -0.00000000000E+00 -0.00000000000E+00 -0.22242449220E+03  0.22242449220E+03  0.00000000000E+00 0.  1.
        -24    2    1    2    0    0  0.42314755276E+03 -0.15644042515E+03  0.66971632539E+03  0.81173225868E+03  0.82836255739E+02 0.  0.
        254    2    1    2    0    0 -0.42314755276E+03  0.15644042515E+03  0.15303024321E+04  0.18331354832E+04  0.90279161942E+03 0.  0.
         23    2    4    4    0    0 -0.63541335866E+03 -0.28271166901E+02  0.13258369744E+04  0.14733794713E+04  0.91945574443E+02 0.  0.
         23    2    4    4    0    0  0.21226580590E+03  0.18471159205E+03  0.20446545777E+03  0.35975601193E+03  0.91886452230E+02 0.  0.
          1    1    3    3  502    0  0.19845436593E+03 -0.36480624564E+02  0.25703191659E+03  0.32677266941E+03  0.00000000000E+00 0. -1.
         -2    1    3    3    0  502  0.22469318682E+03 -0.11995980058E+03  0.41268440879E+03  0.48495958927E+03  0.00000000000E+00 0.  1.
         11    1    5    5    0    0 -0.46071084556E+03 -0.58248348880E+02  0.92152178406E+03  0.10319155740E+04  0.00000000000E+00 0.  1.
        -11    1    5    5    0    0 -0.17470251310E+03  0.29977181979E+02  0.40431519030E+03  0.44146389731E+03  0.00000000000E+00 0. -1.
          4    1    6    6  503    0  0.49705564415E+02  0.50362362904E+02  0.74439501262E+01  0.71150707127E+02  0.00000000000E+00 0. -1.
         -4    1    6    6    0  503  0.16256024149E+03  0.13434922914E+03  0.19702150764E+03  0.28860530480E+03  0.00000000000E+00 0.  1.
<mgrwt>
<rscale>  0 0.14680745E+04</rscale>
<asrwt>0</asrwt>
<pdfrwt beam="1">  1        1 0.37268356E+00 0.14680745E+04</pdfrwt>
<pdfrwt beam="2">  1       -2 0.34219154E-01 0.14680745E+04</pdfrwt>
<totfact> 0.10467624E+01</totfact>
</mgrwt>
</event>
<event>
12    4  0.4381187E-008  0.1544229E+04  0.7818608E-02  0.8855563E-01
         -2   -1    0    0    0  501 -0.00000000000E+00  0.00000000000E+00  0.69009075264E+03  0.69009075264E+03  0.00000000000E+00 0.  1.
          1   -1    0    0  501    0  0.00000000000E+00 -0.00000000000E+00 -0.86388716240E+03  0.86388716240E+03  0.00000000000E+00 0. -1.
        -24    2    1    2    0    0 -0.32656500158E+03 -0.60503208730E+02 -0.44397674162E+03  0.55971402228E+03  0.76544765466E+02 0.  0.
        254    2    1    2    0    0  0.32656500158E+03  0.60503208730E+02  0.27018033185E+03  0.99426389277E+03  0.89736165408E+03 0.  0.
         23    2    4    4    0    0 -0.13706811792E+03  0.12154288051E+03 -0.22695524153E+03  0.30572764354E+03  0.91653530284E+02 0.  0.
         23    2    4    4    0    0  0.46363311949E+03 -0.61039671781E+02  0.49713557339E+03  0.68853624923E+03  0.90867360177E+02 0.  0.
          3    1    3    3  502    0 -0.15232495287E+03 -0.60097219268E+01 -0.25401456342E+03  0.29624720498E+03  0.00000000000E+00 0. -1.
         -4    1    3    3    0  502 -0.17424004871E+03 -0.54493486803E+02 -0.18996217819E+03  0.26346681730E+03  0.00000000000E+00 0.  1.
         11    1    5    5    0    0 -0.51823593935E+02  0.12047316198E+01 -0.93139364342E+02  0.10659304600E+03  0.00000000000E+00 0. -1.
        -11    1    5    5    0    0 -0.85244523984E+02  0.12033814889E+03 -0.13381587719E+03  0.19913459754E+03  0.00000000000E+00 0.  1.
          3    1    6    6  503    0  0.32478063421E+02 -0.29394452604E+02  0.52553260059E+02  0.68415667725E+02  0.00000000000E+00 0. -1.
         -3    1    6    6    0  503  0.43115505607E+03 -0.31645219177E+02  0.44458231333E+03  0.62012058150E+03  0.00000000000E+00 0.  1.
<mgrwt>
<rscale>  0 0.15442287E+04</rscale>
<asrwt>0</asrwt>
<pdfrwt beam="1">  1        1 0.13290572E+00 0.15442287E+04</pdfrwt>
<pdfrwt beam="2">  1       -2 0.10616781E+00 0.15442287E+04</pdfrwt>
<totfact> 0.11786375E+01</totfact>
</mgrwt>
</event>
<event>
12    4  0.4381187E-008  0.2973662E+04  0.7818608E-02  0.8251292E-01
          1   -1    0    0  501    0  0.00000000000E+00  0.00000000000E+00  0.25306994128E+04  0.25306994128E+04  0.00000000000E+00 0. -1.
         -2   -1    0    0    0  501 -0.00000000000E+00 -0.00000000000E+00 -0.87353986049E+03  0.87353986049E+03  0.00000000000E+00 0.  1.
        -24    2    1    2    0    0 -0.69221256515E+03 -0.49964788101E+03  0.19377633525E+04  0.21190398388E+04  0.81220611793E+02 0.  0.
        254    2    1    2    0    0  0.69221256515E+03  0.49964788101E+03 -0.28060380016E+03  0.12851994345E+04  0.91879968083E+03 0.  0.
         23    2    4    4    0    0  0.62425844269E+03  0.51987708541E+03 -0.55472653336E+03  0.98789436804E+03  0.90790794677E+02 0.  0.
         23    2    4    4    0    0  0.67954122460E+02 -0.20229204393E+02  0.27412273320E+03  0.29730506648E+03  0.90664470611E+02 0.  0.
          3    1    3    3  502    0 -0.58137491045E+03 -0.41401604285E+03  0.16878962643E+04  0.18325937546E+04  0.00000000000E+00 0. -1.
         -4    1    3    3    0  502 -0.11083765470E+03 -0.85631838162E+02  0.24986708817E+03  0.28644608421E+03  0.00000000000E+00 0.  1.
         11    1    5    5    0    0  0.40896073405E+03  0.34027034272E+03 -0.41441112840E+03  0.67436590325E+03  0.00000000000E+00 0. -1.
        -11    1    5    5    0    0  0.21529770864E+03  0.17960674269E+03 -0.14031540496E+03  0.31352846479E+03  0.00000000000E+00 0.  1.
          3    1    6    6  503    0  0.17234967387E+02  0.93817111505E+01  0.29477167343E+01  0.19843125733E+02  0.00000000000E+00 0.  1.
         -3    1    6    6    0  503  0.50719155073E+02 -0.29610915544E+02  0.27117501646E+03  0.27746194075E+03  0.00000000000E+00 0. -1.
<mgrwt>
<rscale>  0 0.29736623E+04</rscale>
<asrwt>0</asrwt>
<pdfrwt beam="1">  1        1 0.38933837E+00 0.29736623E+04</pdfrwt>
<pdfrwt beam="2">  1       -2 0.13439075E+00 0.29736623E+04</pdfrwt>
<totfact> 0.38613970E-01</totfact>
</mgrwt>
</event>
<event>
12    4  0.4381187E-008  0.1604049E+04  0.7818608E-02  0.8818064E-01
         -2   -1    0    0    0  501 -0.00000000000E+00  0.00000000000E+00  0.44551564915E+03  0.44551564915E+03  0.00000000000E+00 0.  1.
          1   -1    0    0  501    0  0.00000000000E+00 -0.00000000000E+00 -0.14438181127E+04  0.14438181127E+04  0.00000000000E+00 0. -1.
        -24    2    1    2    0    0 -0.23711135865E+03  0.49385216340E+03 -0.29858518107E+03  0.62889987452E+03  0.79058118588E+02 0.  0.
        254    2    1    2    0    0  0.23711135865E+03 -0.49385216340E+03 -0.69971728243E+03  0.12604338873E+04  0.89385544312E+03 0.  0.
         23    2    4    4    0    0 -0.11956488512E+03 -0.52991895389E+03 -0.10863949304E+03  0.56209840159E+03  0.95090557757E+02 0.  0.
         23    2    4    4    0    0  0.35667624377E+03  0.36066790489E+02 -0.59107778939E+03  0.69833548570E+03  0.98897630087E+02 0.  0.
          3    1    3    3  502    0 -0.24917843833E+02  0.43694018398E+02 -0.55959803739E+02  0.75243377247E+02  0.00000000000E+00 0. -1.
         -4    1    3    3    0  502 -0.21219351482E+03  0.45015814500E+03 -0.24262537734E+03  0.55365649727E+03  0.00000000000E+00 0.  1.
         11    1    5    5    0    0 -0.64783414652E+02 -0.18724993691E+03 -0.80738650990E+02  0.21395831242E+03  0.00000000000E+00 0.  1.
        -11    1    5    5    0    0 -0.54781470468E+02 -0.34266901698E+03 -0.27900842054E+02  0.34814008917E+03  0.00000000000E+00 0. -1.
          3    1    6    6  503    0  0.28569175074E+03 -0.99794415743E+01 -0.42933332478E+03  0.51579692658E+03  0.00000000000E+00 0. -1.
         -3    1    6    6    0  503  0.70984493032E+02  0.46046232063E+02 -0.16174446460E+03  0.18253855913E+03  0.00000000000E+00 0.  1.
<mgrwt>
<rscale>  0 0.16040493E+04</rscale>
<asrwt>0</asrwt>
<pdfrwt beam="1">  1        1 0.22212586E+00 0.16040493E+04</pdfrwt>
<pdfrwt beam="2">  1       -2 0.68540870E-01 0.16040493E+04</pdfrwt>
<totfact> 0.11725809E+01</totfact>
</mgrwt>
</event>
<event>
12    4  0.4381187E-008  0.1398946E+04  0.7818608E-02  0.8954582E-01
          1   -1    0    0  501    0  0.00000000000E+00  0.00000000000E+00  0.63693429095E+03  0.63693429095E+03  0.00000000000E+00 0. -1.
         -2   -1    0    0    0  501 -0.00000000000E+00 -0.00000000000E+00 -0.76815176150E+03  0.76815176150E+03  0.00000000000E+00 0.  1.
        -24    2    1    2    0    0  0.88994100176E+02  0.36385828308E+03  0.12558804357E+03  0.40960012726E+03  0.10810692641E+03 0.  0.
        254    2    1    2    0    0 -0.88994100176E+02 -0.36385828308E+03 -0.25680551412E+03  0.99548592518E+03  0.88585007486E+03 0.  0.
         23    2    4    4    0    0 -0.29421149411E+02 -0.61412849222E+03 -0.60366823129E+00  0.62156299036E+03  0.91218296306E+02 0.  0.
         23    2    4    4    0    0 -0.59572950765E+02  0.25027020914E+03 -0.25620184589E+03  0.37392293483E+03  0.89413988309E+02 0.  0.
          1    1    3    3  502    0  0.61912069378E+02  0.19629875673E+03  0.12312965517E+03  0.23984832334E+03  0.00000000000E+00 0. -1.
         -2    1    3    3    0  502  0.27082030798E+02  0.16755952635E+03  0.24583884030E+01  0.16975180392E+03  0.00000000000E+00 0.  1.
         11    1    5    5    0    0 -0.59601751919E+02 -0.29304310731E+03 -0.27283157390E+01  0.29905530472E+03  0.00000000000E+00 0. -1.
        -11    1    5    5    0    0  0.30180602508E+02 -0.32108538491E+03  0.21246475077E+01  0.32250768564E+03  0.00000000000E+00 0.  1.
          1    1    6    6  503    0  0.99628838902E+00  0.15308051269E+02  0.61845014658E+01  0.16540165736E+02  0.00000000000E+00 0. -1.
         -1    1    6    6    0  503 -0.60569239154E+02  0.23496215787E+03 -0.26238634736E+03  0.35738276909E+03  0.00000000000E+00 0.  1.
<mgrwt>
<rscale>  0 0.13989456E+04</rscale>
<asrwt>0</asrwt>
<pdfrwt beam="1">  1        1 0.97989891E-01 0.13989456E+04</pdfrwt>
<pdfrwt beam="2">  1       -2 0.11817719E+00 0.13989456E+04</pdfrwt>
<totfact> 0.14772190E+01</totfact>
</mgrwt>
</event>
<event>
12    4  0.4381187E-008  0.4023931E+04  0.7818608E-02  0.7999736E-01
         -2   -1    0    0    0  501 -0.00000000000E+00  0.00000000000E+00  0.10068929117E+04  0.10068929117E+04  0.00000000000E+00 0.  1.
          1   -1    0    0  501    0  0.00000000000E+00 -0.00000000000E+00 -0.40202941954E+04  0.40202941954E+04  0.00000000000E+00 0. -1.
        -24    2    1    2    0    0 -0.14966704549E+04 -0.33689767957E+03 -0.28459136478E+04  0.32343631761E+04  0.91423011645E+02 0.  0.
        254    2    1    2    0    0  0.14966704549E+04  0.33689767957E+03 -0.16748763590E+03  0.17928239310E+04  0.91249276296E+03 0.  0.
         23    2    4    4    0    0  0.97879921161E+03  0.60516775198E+03  0.70510401449E+02  0.11565183249E+04  0.91033039716E+02 0.  0.
         23    2    4    4    0    0  0.51787124328E+03 -0.26827007241E+03 -0.23799803735E+03  0.63630560618E+03  0.89901625711E+02 0.  0.
          1    1    3    3  502    0 -0.12597536884E+04 -0.28183834211E+03 -0.24615683746E+04  0.27795199351E+04  0.00000000000E+00 0. -1.
         -2    1    3    3    0  502 -0.23691676646E+03 -0.55059337454E+02 -0.38434527317E+03  0.45484324099E+03  0.00000000000E+00 0.  1.
         11    1    5    5    0    0  0.81871496938E+03  0.50599145409E+03  0.92651121121E+02  0.96690526058E+03  0.00000000000E+00 0. -1.
        -11    1    5    5    0    0  0.16008424224E+03  0.99176297891E+02 -0.22140719672E+02  0.18961306427E+03  0.00000000000E+00 0.  1.
          4    1    6    6  503    0  0.17979794138E+03 -0.72315315032E+02 -0.12075103964E+03  0.22833663326E+03  0.00000000000E+00 0. -1.
         -4    1    6    6    0  503  0.33807330189E+03 -0.19595475738E+03 -0.11724699772E+03  0.40796897292E+03  0.00000000000E+00 0.  1.
<mgrwt>
<rscale>  0 0.40239313E+04</rscale>
<asrwt>0</asrwt>
<pdfrwt beam="1">  1        1 0.61850679E+00 0.40239313E+04</pdfrwt>
<pdfrwt beam="2">  1       -2 0.15490661E+00 0.40239313E+04</pdfrwt>
<totfact> 0.17374699E-02</totfact>
</mgrwt>
</event>
<event>
12    4  0.4381187E-008  0.1278244E+04  0.7818608E-02  0.9046998E-01
          1   -1    0    0  501    0  0.00000000000E+00  0.00000000000E+00  0.50926753943E+03  0.50926753943E+03  0.00000000000E+00 0. -1.
         -2   -1    0    0    0  501 -0.00000000000E+00 -0.00000000000E+00 -0.80208672518E+03  0.80208672518E+03  0.00000000000E+00 0.  1.
        -24    2    1    2    0    0 -0.32082484920E+03  0.10907879779E+03 -0.53234828341E+02  0.35225093594E+03  0.80124945772E+02 0.  0.
        254    2    1    2    0    0  0.32082484920E+03 -0.10907879779E+03 -0.23958435741E+03  0.95910332867E+03  0.86466858551E+03 0.  0.
         23    2    4    4    0    0  0.25106737561E+02 -0.45172137768E+03 -0.17180928367E+03  0.49258046351E+03  0.91839706855E+02 0.  0.
         23    2    4    4    0    0  0.29571811163E+03  0.34264257989E+03 -0.67775073739E+02  0.46652286516E+03  0.90537196776E+02 0.  0.
          1    1    3    3  502    0  0.28462855373E+01  0.81255715916E+00 -0.72974778575E+01  0.78749459413E+01  0.00000000000E+00 0. -1.
         -2    1    3    3    0  502 -0.32367113473E+03  0.10826624063E+03 -0.45937350483E+02  0.34437599000E+03  0.00000000000E+00 0.  1.
         11    1    5    5    0    0  0.53242261109E+02 -0.18588859600E+03 -0.87885405926E+02  0.21239857124E+03  0.00000000000E+00 0.  1.
        -11    1    5    5    0    0 -0.28135523548E+02 -0.26583278168E+03 -0.83923877748E+02  0.28018189227E+03  0.00000000000E+00 0. -1.
          4    1    6    6  503    0  0.25046508856E+03  0.28794740579E+03 -0.90059062257E+02  0.39211873684E+03  0.00000000000E+00 0. -1.
         -4    1    6    6    0  503  0.45253023075E+02  0.54695174094E+02  0.22283988519E+02  0.74404128319E+02  0.00000000000E+00 0.  1.
<mgrwt>
<rscale>  0 0.12782437E+04</rscale>
<asrwt>0</asrwt>
<pdfrwt beam="1">  1        1 0.78348852E-01 0.12782437E+04</pdfrwt>
<pdfrwt beam="2">  1       -2 0.12339796E+00 0.12782437E+04</pdfrwt>
<totfact> 0.18409678E+01</totfact>
</mgrwt>
</event>
<event>
12    4  0.4381187E-008  0.1980108E+04  0.7818608E-02  0.8615978E-01
         -2   -1    0    0    0  501 -0.00000000000E+00  0.00000000000E+00  0.11149098447E+04  0.11149098447E+04  0.00000000000E+00 0.  1.
          1   -1    0    0  501    0  0.00000000000E+00 -0.00000000000E+00 -0.87918051652E+03  0.87918051652E+03  0.00000000000E+00 0. -1.
        -24    2    1    2    0    0  0.64581845193E+03  0.16926788300E+03  0.50911399909E+03  0.84353281145E+03  0.81347715791E+02 0.  0.
        254    2    1    2    0    0 -0.64581845193E+03 -0.16926788300E+03 -0.27338467093E+03  0.11505575497E+04  0.89627585480E+03 0.  0.
         23    2    4    4    0    0 -0.66584954243E+03 -0.44569575339E+03 -0.29443594255E+03  0.85850952385E+03  0.91355134140E+02 0.  0.
         23    2    4    4    0    0  0.20031090498E+02  0.27642787039E+03  0.21051271615E+02  0.29204802589E+03  0.89639730446E+02 0.  0.
          1    1    3    3  502    0  0.17516677239E+02  0.13619846713E+02  0.33946397344E+02  0.40554803644E+02  0.00000000000E+00 0. -1.
         -2    1    3    3    0  502  0.62830177469E+03  0.15564803628E+03  0.47516760175E+03  0.80297800781E+03  0.00000000000E+00 0.  1.
         11    1    5    5    0    0 -0.50867336492E+03 -0.31633734447E+03 -0.25563651901E+03  0.65128176509E+03  0.00000000000E+00 0.  1.
        -11    1    5    5    0    0 -0.15717617750E+03 -0.12935840892E+03 -0.38799423541E+02  0.20722775876E+03  0.00000000000E+00 0. -1.
          1    1    6    6  503    0 -0.22473890579E+02  0.72124210725E+02 -0.22600877313E+02  0.78852883180E+02  0.00000000000E+00 0. -1.
         -1    1    6    6    0  503  0.42504981078E+02  0.20430365967E+03  0.43652148928E+02  0.21319514271E+03  0.00000000000E+00 0.  1.
<mgrwt>
<rscale>  0 0.19801081E+04</rscale>
<asrwt>0</asrwt>
<pdfrwt beam="1">  1        1 0.13525854E+00 0.19801081E+04</pdfrwt>
<pdfrwt beam="2">  1       -2 0.17152459E+00 0.19801081E+04</pdfrwt>
<totfact> 0.32038730E+00</totfact>
</mgrwt>
</event>
<event>
12    4  0.5291606E-008  0.2233282E+04  0.7818608E-02  0.8504702E-01
         -2   -1    0    0    0  501 -0.00000000000E+00  0.00000000000E+00  0.97105971727E+03  0.97105971727E+03  0.00000000000E+00 0.  1.
          1   -1    0    0  501    0  0.00000000000E+00 -0.00000000000E+00 -0.12840482358E+04  0.12840482358E+04  0.00000000000E+00 0. -1.
        -24    2    1    2    0    0 -0.19203857111E+03 -0.80298376913E+03  0.31470921194E+03  0.88717513071E+03  0.79850348730E+02 0.  0.
        254    2    1    2    0    0  0.19203857111E+03  0.80298376913E+03 -0.62769773043E+03  0.13679328223E+04  0.89194956097E+03 0.  0.
         23    2    4    4    0    0 -0.59464998127E+02  0.31689295957E+03  0.18562984942E+03  0.38358836312E+03  0.93404269189E+02 0.  0.
         23    2    4    4    0    0  0.25150356923E+03  0.48609080956E+03 -0.81332757985E+03  0.98434445919E+03  0.88847857149E+02 0.  0.
          1    1    3    3  502    0 -0.11043080600E+02 -0.49731884754E+02  0.41537068173E+02  0.65730799651E+02  0.00000000000E+00 0. -1.
         -2    1    3    3    0  502 -0.18099549051E+03 -0.75325188437E+03  0.27317214377E+03  0.82144433106E+03  0.00000000000E+00 0.  1.
         11    1    5    5    0    0 -0.62075015910E+02  0.93421616277E+02  0.64438817756E+02  0.12935713054E+03  0.00000000000E+00 0. -1.
        -11    1    5    5    0    0  0.26100177832E+01  0.22347134329E+03  0.12119103166E+03  0.25423123258E+03  0.00000000000E+00 0.  1.
          4    1    6    6  503    0  0.54674626832E+02  0.44012070697E+02 -0.91596757279E+02  0.11539646065E+03  0.00000000000E+00 0.  1.
         -4    1    6    6    0  503  0.19682894240E+03  0.44207873886E+03 -0.72173082257E+03  0.86894799854E+03  0.00000000000E+00 0. -1.
<mgrwt>
<rscale>  0 0.22332824E+04</rscale>
<asrwt>0</asrwt>
<pdfrwt beam="1">  1        1 0.19754588E+00 0.22332824E+04</pdfrwt>
<pdfrwt beam="2">  1       -2 0.14939380E+00 0.22332824E+04</pdfrwt>
<totfact> 0.22437367E+00</totfact>
</mgrwt>
</event>
<event>
12    4  0.4381187E-008  0.1584103E+04  0.7818608E-02  0.8830374E-01
          1   -1    0    0  501    0  0.00000000000E+00  0.00000000000E+00  0.38354847930E+04  0.38354847930E+04  0.00000000000E+00 0. -1.
         -2   -1    0    0    0  501 -0.00000000000E+00 -0.00000000000E+00 -0.16356352414E+03  0.16356352414E+03  0.00000000000E+00 0.  1.
        -24    2    1    2    0    0  0.24093078451E+03 -0.43470076094E+03  0.19973661967E+04  0.20598437309E+04  0.80449223350E+02 0.  0.
        254    2    1    2    0    0 -0.24093078451E+03  0.43470076094E+03  0.16745550722E+04  0.19392045862E+04  0.84223948083E+03 0.  0.
         23    2    4    4    0    0 -0.30985943170E+03 -0.74714547996E+02  0.23130475469E+03  0.40446860155E+03  0.92183669907E+02 0.  0.
         23    2    4    4    0    0  0.68928647191E+02  0.50941530893E+03  0.14432503175E+04  0.15347359847E+04  0.90487283239E+02 0.  0.
          3    1    3    3  502    0  0.23210589881E+02 -0.61527415273E+02  0.38606595670E+03  0.39162645115E+03  0.00000000000E+00 0. -1.
         -4    1    3    3    0  502  0.21772019463E+03 -0.37317334566E+03  0.16113002400E+04  0.16682172797E+04  0.00000000000E+00 0.  1.
         11    1    5    5    0    0 -0.19572428853E+03 -0.96949847004E+01  0.10537252804E+03  0.22249799890E+03  0.00000000000E+00 0. -1.
        -11    1    5    5    0    0 -0.11413514317E+03 -0.65019563296E+02  0.12593222666E+03  0.18197060265E+03  0.00000000000E+00 0.  1.
          3    1    6    6  503    0  0.33281722080E+02  0.29081895201E+03  0.94923718462E+03  0.99334514069E+03  0.00000000000E+00 0. -1.
         -3    1    6    6    0  503  0.35646925110E+02  0.21859635692E+03  0.49401313287E+03  0.54139084401E+03  0.00000000000E+00 0.  1.
<mgrwt>
<rscale>  0 0.15841028E+04</rscale>
<asrwt>0</asrwt>
<pdfrwt beam="1">  1        1 0.59007452E+00 0.15841028E+04</pdfrwt>
<pdfrwt beam="2">  1       -2 0.25163622E-01 0.15841028E+04</pdfrwt>
<totfact> 0.16145138E+00</totfact>
</mgrwt>
</event>
<event>
12    4  0.4564351E-008  0.1982876E+04  0.7818608E-02  0.8614669E-01
         -4   -1    0    0    0  501 -0.00000000000E+00  0.00000000000E+00  0.12109613070E+04  0.12109613070E+04  0.00000000000E+00 0.  1.
          3   -1    0    0  501    0  0.00000000000E+00 -0.00000000000E+00 -0.81170953674E+03  0.81170953674E+03  0.00000000000E+00 0. -1.
        -24    2    1    2    0    0 -0.38102058375E+03  0.54269207803E+03 -0.26839150974E+03  0.71989940792E+03  0.80807043186E+02 0.  0.
        254    2    1    2    0    0  0.38102058375E+03 -0.54269207803E+03  0.66764328005E+03  0.13027714359E+04  0.90098528729E+03 0.  0.
         23    2    4    4    0    0  0.14882634816E+03  0.22763198316E+03  0.29427157178E+03  0.41161415117E+03  0.94153331462E+02 0.  0.
         23    2    4    4    0    0  0.23219423560E+03 -0.77032406119E+03  0.37337170826E+03  0.89115728469E+03  0.86264426237E+02 0.  0.
          3    1    3    3  502    0 -0.33628952053E+03  0.45186056944E+03 -0.20001277642E+03  0.59772378785E+03  0.00000000000E+00 0. -1.
         -4    1    3    3    0  502 -0.44731063224E+02  0.90831508586E+02 -0.68378733315E+02  0.12217562007E+03  0.00000000000E+00 0.  1.
         11    1    5    5    0    0  0.12289585786E+03  0.22497251372E+03  0.28643097431E+03  0.38439397349E+03  0.00000000000E+00 0. -1.
        -11    1    5    5    0    0  0.25930490291E+02  0.26594694364E+01  0.78405974711E+01  0.27220177684E+02  0.00000000000E+00 0.  1.
          4    1    6    6  503    0  0.22570862669E+03 -0.75498171640E+03  0.37785365220E+03  0.87390798070E+03  0.00000000000E+00 0. -1.
         -4    1    6    6    0  503  0.64856089034E+01 -0.15342344790E+02 -0.44819439364E+01  0.17249303984E+02  0.00000000000E+00 0.  1.
<mgrwt>
<rscale>  0 0.19828755E+04</rscale>
<asrwt>0</asrwt>
<pdfrwt beam="1">  1        3 0.12487839E+00 0.19828755E+04</pdfrwt>
<pdfrwt beam="2">  1       -4 0.18630174E+00 0.19828755E+04</pdfrwt>
<totfact> 0.17768293E-01</totfact>
</mgrwt>
</event>
<event>
12    4  0.4381187E-008  0.1860141E+04  0.7818608E-02  0.8674955E-01
          1   -1    0    0  501    0  0.00000000000E+00  0.00000000000E+00  0.84749879196E+03  0.84749879196E+03  0.00000000000E+00 0. -1.
         -2   -1    0    0    0  501 -0.00000000000E+00 -0.00000000000E+00 -0.10206870667E+04  0.10206870667E+04  0.00000000000E+00 0.  1.
        -24    2    1    2    0    0 -0.97866921952E+02 -0.15001868055E+03  0.61602194501E+03  0.64557827192E+03  0.72143811399E+02 0.  0.
        254    2    1    2    0    0  0.97866921952E+02  0.15001868055E+03 -0.78921021972E+03  0.12226075867E+04  0.91642402918E+03 0.  0.
         23    2    4    4    0    0 -0.30155358905E+03  0.21862005984E+03 -0.67812349689E+02  0.38936617553E+03  0.90984648364E+02 0.  0.
         23    2    4    4    0    0  0.39942051100E+03 -0.68601379288E+02 -0.72139787003E+03  0.83324141119E+03  0.98150234763E+02 0.  0.
          3    1    3    3  502    0 -0.10324805338E+03 -0.15356838156E+03  0.60631847254E+03  0.63392862255E+03  0.00000000000E+00 0. -1.
         -4    1    3    3    0  502  0.53811314315E+01  0.35497010029E+01  0.97034724679E+01  0.11649649378E+02  0.00000000000E+00 0.  1.
         11    1    5    5    0    0 -0.28945790869E+03  0.19464909193E+03 -0.40659518889E+02  0.35117993446E+03  0.00000000000E+00 0. -1.
        -11    1    5    5    0    0 -0.12095680360E+02  0.23970967912E+02 -0.27152830800E+02  0.38186241062E+02  0.00000000000E+00 0.  1.
          1    1    6    6  503    0  0.33623894367E+03 -0.45549916833E+02 -0.52001070112E+03  0.62092072879E+03  0.00000000000E+00 0. -1.
         -1    1    6    6    0  503  0.63181567336E+02 -0.23051462456E+02 -0.20138716891E+03  0.21232068240E+03  0.00000000000E+00 0.  1.
<mgrwt>
<rscale>  0 0.18601409E+04</rscale>
<asrwt>0</asrwt>
<pdfrwt beam="1">  1        1 0.13038443E+00 0.18601409E+04</pdfrwt>
<pdfrwt beam="2">  1       -2 0.15702878E+00 0.18601409E+04</pdfrwt>
<totfact> 0.43863912E+00</totfact>
</mgrwt>
</event>
<event>
12    4  0.4381187E-008  0.1912599E+04  0.7818608E-02  0.8648610E-01
          1   -1    0    0  501    0  0.00000000000E+00  0.00000000000E+00  0.19121928761E+04  0.19121928761E+04  0.00000000000E+00 0. -1.
         -2   -1    0    0    0  501 -0.00000000000E+00 -0.00000000000E+00 -0.47825142043E+03  0.47825142043E+03  0.00000000000E+00 0.  1.
        -24    2    1    2    0    0  0.95984299539E+02 -0.53816055547E+03  0.11813970357E+04  0.13042923106E+04  0.81545732347E+02 0.  0.
        254    2    1    2    0    0 -0.95984299539E+02  0.53816055547E+03  0.25254442003E+03  0.10861519859E+04  0.90394561960E+03 0.  0.
         23    2    4    4    0    0 -0.24634131784E+03  0.29372223126E+02  0.44299695192E+03  0.51530023334E+03  0.87984423101E+02 0.  0.
         23    2    4    4    0    0  0.15035701831E+03  0.50878833235E+03 -0.19045253189E+03  0.57085175258E+03  0.90148524278E+02 0.  0.
          3    1    3    3  502    0  0.32817830053E+02 -0.27145295406E+03  0.67913749517E+03  0.73211437193E+03  0.00000000000E+00 0. -1.
         -4    1    3    3    0  502  0.63166469485E+02 -0.26670760142E+03  0.50225954051E+03  0.57217793871E+03  0.00000000000E+00 0.  1.
         11    1    5    5    0    0 -0.18062527268E+03  0.41056121022E+02  0.38347547828E+03  0.42586915438E+03  0.00000000000E+00 0. -1.
        -11    1    5    5    0    0 -0.65716045162E+02 -0.11683897896E+02  0.59521473633E+02  0.89431078967E+02  0.00000000000E+00 0.  1.
          3    1    6    6  503    0  0.11547074653E+03  0.32514823770E+03 -0.16410271386E+03  0.38207927251E+03  0.00000000000E+00 0. -1.
         -3    1    6    6    0  503  0.34886271773E+02  0.18364009464E+03 -0.26349818023E+02  0.18877248006E+03  0.00000000000E+00 0.  1.
<mgrwt>
<rscale>  0 0.19125992E+04</rscale>
<asrwt>0</asrwt>
<pdfrwt beam="1">  1        1 0.29418351E+00 0.19125992E+04</pdfrwt>
<pdfrwt beam="2">  1       -2 0.73577143E-01 0.19125992E+04</pdfrwt>
<totfact> 0.46736184E+00</totfact>
</mgrwt>
</event>
<event>
12    4  0.4381187E-008  0.2099945E+04  0.7818608E-02  0.8561268E-01
         -2   -1    0    0    0  501 -0.00000000000E+00  0.00000000000E+00  0.50711151806E+03  0.50711151806E+03  0.00000000000E+00 0.  1.
          1   -1    0    0  501    0  0.00000000000E+00 -0.00000000000E+00 -0.21739635102E+04  0.21739635102E+04  0.00000000000E+00 0. -1.
        -24    2    1    2    0    0  0.42230695905E+03 -0.47674932855E+02 -0.16107792422E+04  0.16677797255E+04  0.79141511710E+02 0.  0.
        254    2    1    2    0    0 -0.42230695905E+03  0.47674932855E+02 -0.56072749915E+02  0.10132953027E+04  0.91815420836E+03 0.  0.
         23    2    4    4    0    0  0.22821219472E+03 -0.19154619582E+03 -0.40163780918E+02  0.31408192179E+03  0.90904198736E+02 0.  0.
         23    2    4    4    0    0 -0.65051915376E+03  0.23922112868E+03 -0.15908968997E+02  0.69921338092E+03  0.90798342192E+02 0.  0.
          3    1    3    3  502    0  0.26995202414E+03 -0.11284763360E+02 -0.11418188191E+04  0.11733506112E+04  0.00000000000E+00 0. -1.
         -4    1    3    3    0  502  0.15235493490E+03 -0.36390169495E+02 -0.46896042313E+03  0.49442911432E+03  0.00000000000E+00 0.  1.
         11    1    5    5    0    0  0.11373426795E+03 -0.11779261149E+03 -0.64055214288E+02  0.17582279006E+03  0.00000000000E+00 0.  1.
        -11    1    5    5    0    0  0.11447792676E+03 -0.73753584335E+02  0.23891433370E+02  0.13825913173E+03  0.00000000000E+00 0. -1.
          4    1    6    6  503    0 -0.25431817463E+03  0.48362397796E+02  0.52562888752E+01  0.25892911006E+03  0.00000000000E+00 0. -1.
         -4    1    6    6    0  503 -0.39620097914E+03  0.19085873088E+03 -0.21165257872E+02  0.44028427086E+03  0.00000000000E+00 0.  1.
<mgrwt>
<rscale>  0 0.20999447E+04</rscale>
<asrwt>0</asrwt>
<pdfrwt beam="1">  1        1 0.33445592E+00 0.20999447E+04</pdfrwt>
<pdfrwt beam="2">  1       -2 0.78017157E-01 0.20999447E+04</pdfrwt>
<totfact> 0.26812634E+00</totfact>
</mgrwt>
</event>
<event>
12    4  0.4381187E-008  0.1675651E+04  0.7818608E-02  0.8775375E-01
          1   -1    0    0  501    0  0.00000000000E+00  0.00000000000E+00  0.16994810295E+04  0.16994810295E+04  0.00000000000E+00 0. -1.
         -2   -1    0    0    0  501 -0.00000000000E+00 -0.00000000000E+00 -0.41303853763E+03  0.41303853763E+03  0.00000000000E+00 0.  1.
        -24    2    1    2    0    0  0.83729999388E+02  0.53133733372E+03  0.14191960092E+03  0.56239262167E+03  0.82548245209E+02 0.  0.
        254    2    1    2    0    0 -0.83729999388E+02 -0.53133733372E+03  0.11445228909E+04  0.15501269455E+04  0.89645458565E+03 0.  0.
         23    2    4    4    0    0  0.50482736638E+02 -0.65305437288E+03  0.38852715682E+03  0.76715102754E+03  0.92405772743E+02 0.  0.
         23    2    4    4    0    0 -0.13421273603E+03  0.12171703917E+03  0.75599573413E+03  0.78297591791E+03  0.93239701175E+02 0.  0.
          3    1    3    3  502    0 -0.10580777789E+02  0.11810286123E+02  0.74582356835E+01  0.17523156007E+02  0.00000000000E+00 0. -1.
         -4    1    3    3    0  502  0.94310777177E+02  0.51952704759E+03  0.13446136523E+03  0.54486946566E+03  0.00000000000E+00 0.  1.
         11    1    5    5    0    0  0.54794243343E+01 -0.22705162124E+03  0.86602458610E+02  0.24306881461E+03  0.00000000000E+00 0.  1.
        -11    1    5    5    0    0  0.45003312303E+02 -0.42600275165E+03  0.30192469821E+03  0.52408221294E+03  0.00000000000E+00 0. -1.
          3    1    6    6  503    0 -0.15197806728E+02 -0.11484209448E+02  0.14992573760E+03  0.15113102657E+03  0.00000000000E+00 0.  1.
         -3    1    6    6    0  503 -0.11901492930E+03  0.13320124862E+03  0.60606999652E+03  0.63184489134E+03  0.00000000000E+00 0. -1.
<mgrwt>
<rscale>  0 0.16756505E+04</rscale>
<asrwt>0</asrwt>
<pdfrwt beam="1">  1        1 0.26145862E+00 0.16756505E+04</pdfrwt>
<pdfrwt beam="2">  1       -2 0.63544391E-01 0.16756505E+04</pdfrwt>
<totfact> 0.91501118E+00</totfact>
</mgrwt>
</event>
<event>
12    4  0.4381187E-008  0.1631128E+04  0.7818608E-02  0.8801650E-01
          1   -1    0    0  501    0  0.00000000000E+00  0.00000000000E+00  0.14192359129E+04  0.14192359129E+04  0.00000000000E+00 0. -1.
         -2   -1    0    0    0  501 -0.00000000000E+00 -0.00000000000E+00 -0.46866401510E+03  0.46866401510E+03  0.00000000000E+00 0.  1.
        -24    2    1    2    0    0  0.16720923723E+03 -0.14184103711E+03 -0.26750662227E+03  0.35377648765E+03  0.74298058052E+02 0.  0.
        254    2    1    2    0    0 -0.16720923723E+03  0.14184103711E+03  0.12180785201E+04  0.15341234403E+04  0.90649966373E+03 0.  0.
         23    2    4    4    0    0 -0.33094018105E+03 -0.91251862473E+02  0.11804238977E+04  0.12328556875E+04  0.93189388448E+02 0.  0.
         23    2    4    4    0    0  0.16373094382E+03  0.23309289958E+03  0.37654622309E+02  0.30126775278E+03  0.90577406041E+02 0.  0.
          1    1    3    3  502    0  0.94055174071E+02 -0.84599589951E+02 -0.96273880841E+02  0.15897209353E+03  0.00000000000E+00 0. -1.
         -2    1    3    3    0  502  0.73154063156E+02 -0.57241447160E+02 -0.17123274143E+03  0.19480439412E+03  0.00000000000E+00 0.  1.
         11    1    5    5    0    0 -0.21173715138E+03 -0.16425088925E+02  0.63534609550E+03  0.66990078809E+03  0.00000000000E+00 0. -1.
        -11    1    5    5    0    0 -0.11920302966E+03 -0.74826773548E+02  0.54507780225E+03  0.56295489946E+03  0.00000000000E+00 0.  1.
          4    1    6    6  503    0 -0.16801640940E+01 -0.64554635187E+01 -0.30361546168E+01  0.73289968946E+01  0.00000000000E+00 0. -1.
         -4    1    6    6    0  503  0.16541110791E+03  0.23954836310E+03  0.40690776926E+02  0.29393875589E+03  0.00000000000E+00 0.  1.
<mgrwt>
<rscale>  0 0.16311282E+04</rscale>
<asrwt>0</asrwt>
<pdfrwt beam="1">  1        1 0.21834398E+00 0.16311282E+04</pdfrwt>
<pdfrwt beam="2">  1       -2 0.72102157E-01 0.16311282E+04</pdfrwt>
<totfact> 0.10894967E+01</totfact>
</mgrwt>
</event>
<event>
12    4  0.4381187E-008  0.1901493E+04  0.7818608E-02  0.8654114E-01
          1   -1    0    0  501    0  0.00000000000E+00  0.00000000000E+00  0.10630165844E+04  0.10630165844E+04  0.00000000000E+00 0. -1.
         -2   -1    0    0    0  501 -0.00000000000E+00 -0.00000000000E+00 -0.85033348063E+03  0.85033348063E+03  0.00000000000E+00 0.  1.
        -24    2    1    2    0    0 -0.10870835704E+03  0.31164986508E+03 -0.57991558920E+03  0.67208693725E+03  0.80346843930E+02 0.  0.
        254    2    1    2    0    0  0.10870835704E+03 -0.31164986508E+03  0.79259869296E+03  0.12412631278E+04  0.89642530028E+03 0.  0.
         23    2    4    4    0    0  0.20861369988E+03 -0.57445447311E+03  0.35350954344E+03  0.71206355357E+03  0.92454797406E+02 0.  0.
         23    2    4    4    0    0 -0.99905342843E+02  0.26280460803E+03  0.43908914952E+03  0.52919957420E+03  0.90584593467E+02 0.  0.
          1    1    3    3  502    0 -0.10493457996E+03  0.20034683248E+03 -0.35160095446E+03  0.41805902757E+03  0.00000000000E+00 0. -1.
         -2    1    3    3    0  502 -0.37737770793E+01  0.11130303260E+03 -0.22831463473E+03  0.25402790967E+03  0.00000000000E+00 0.  1.
         11    1    5    5    0    0  0.67341035222E+02 -0.90255164132E+02  0.48372037503E+02  0.12255881726E+03  0.00000000000E+00 0. -1.
        -11    1    5    5    0    0  0.14127266466E+03 -0.48419930898E+03  0.30513750594E+03  0.58950473631E+03  0.00000000000E+00 0.  1.
          1    1    6    6  503    0 -0.63489660806E+02  0.12044597520E+03  0.28733604986E+03  0.31796253792E+03  0.00000000000E+00 0. -1.
         -1    1    6    6    0  503 -0.36415682037E+02  0.14235863283E+03  0.15175309967E+03  0.21123703628E+03  0.00000000000E+00 0.  1.
<mgrwt>
<rscale>  0 0.19014927E+04</rscale>
<asrwt>0</asrwt>
<pdfrwt beam="1">  1        1 0.16354101E+00 0.19014927E+04</pdfrwt>
<pdfrwt beam="2">  1       -2 0.13082054E+00 0.19014927E+04</pdfrwt>
<totfact> 0.47418213E+00</totfact>
</mgrwt>
</event>
<event>
12    4  0.4381187E-008  0.1151539E+04  0.7818608E-02  0.9156365E-01
         -4   -1    0    0    0  501 -0.00000000000E+00  0.00000000000E+00  0.47338720247E+03  0.47338720247E+03  0.00000000000E+00 0.  1.
          3   -1    0    0  501    0  0.00000000000E+00 -0.00000000000E+00 -0.70029416998E+03  0.70029416998E+03  0.00000000000E+00 0. -1.
        -24    2    1    2    0    0 -0.83937206212E+02 -0.17971498908E+03 -0.98555229306E+02  0.23604499070E+03  0.81616006566E+02 0.  0.
        254    2    1    2    0    0  0.83937206212E+02  0.17971498908E+03 -0.12835173821E+03  0.93763638174E+03  0.90738353731E+03 0.  0.
         23    2    4    4    0    0 -0.11163147873E+03  0.34507118196E+03  0.26454699274E+03  0.45941296574E+03  0.97670128806E+02 0.  0.
         23    2    4    4    0    0  0.19556868494E+03 -0.16535619288E+03 -0.39289873095E+03  0.47822341600E+03  0.93479632962E+02 0.  0.
          3    1    3    3  502    0 -0.16038186580E+02 -0.78747748177E+02 -0.14590237281E+01  0.80377608959E+02  0.00000000000E+00 0. -1.
         -4    1    3    3    0  502 -0.67899019632E+02 -0.10096724090E+03 -0.97096205578E+02  0.15566738174E+03  0.00000000000E+00 0.  1.
         11    1    5    5    0    0 -0.66973013991E+02  0.18831525323E+03  0.85795174556E+02  0.21750593366E+03  0.00000000000E+00 0. -1.
        -11    1    5    5    0    0 -0.44658464742E+02  0.15675592873E+03  0.17875181818E+03  0.24190703208E+03  0.00000000000E+00 0.  1.
          1    1    6    6  503    0  0.14467912221E+03 -0.14889824731E+03 -0.24604402215E+03  0.32193228681E+03  0.00000000000E+00 0. -1.
         -1    1    6    6    0  503  0.50889562730E+02 -0.16457945570E+02 -0.14685470880E+03  0.15629112919E+03  0.00000000000E+00 0.  1.
<mgrwt>
<rscale>  0 0.11515386E+04</rscale>
<asrwt>0</asrwt>
<pdfrwt beam="1">  1        3 0.10773756E+00 0.11515386E+04</pdfrwt>
<pdfrwt beam="2">  1       -4 0.72828801E-01 0.11515386E+04</pdfrwt>
<totfact> 0.28477954E+00</totfact>
</mgrwt>
</event>
<event>
12    4  0.4381187E-008  0.2839444E+04  0.7818608E-02  0.8291126E-01
         -2   -1    0    0    0  501 -0.00000000000E+00  0.00000000000E+00  0.14661359099E+04  0.14661359099E+04  0.00000000000E+00 0.  1.
          1   -1    0    0  501    0  0.00000000000E+00 -0.00000000000E+00 -0.13747773108E+04  0.13747773108E+04  0.00000000000E+00 0. -1.
        -24    2    1    2    0    0 -0.11538270760E+04  0.44272906128E+03  0.35843459302E+03  0.12892441618E+04  0.79681918846E+02 0.  0.
        254    2    1    2    0    0  0.11538270760E+04 -0.44272906128E+03 -0.26707599390E+03  0.15516690589E+04  0.89945613504E+03 0.  0.
         23    2    4    4    0    0  0.74940058370E+03 -0.38316044329E+03  0.25370707008E+03  0.88327321797E+03  0.85971739655E+02 0.  0.
         23    2    4    4    0    0  0.40442649228E+03 -0.59568617989E+02 -0.52078306399E+03  0.66839584094E+03  0.91808455673E+02 0.  0.
          3    1    3    3  502    0 -0.87558824605E+03  0.35939738353E+03  0.24724297301E+03  0.97823838793E+03  0.00000000000E+00 0. -1.
         -4    1    3    3    0  502 -0.27823882993E+03  0.83331677747E+02  0.11119162000E+03  0.31100577383E+03  0.00000000000E+00 0.  1.
         11    1    5    5    0    0  0.11871984408E+02 -0.18318115597E+02  0.15091417750E+02  0.26537676283E+02  0.00000000000E+00 0.  1.
        -11    1    5    5    0    0  0.73752859929E+03 -0.36484232769E+03  0.23861565233E+03  0.85673554168E+03  0.00000000000E+00 0. -1.
          1    1    6    6  503    0  0.27996525432E+03 -0.50757290232E+02 -0.42338415930E+03  0.51010880456E+03  0.00000000000E+00 0. -1.
         -1    1    6    6    0  503  0.12446123796E+03 -0.88113277568E+01 -0.97398904692E+02  0.15828703638E+03  0.00000000000E+00 0.  1.
<mgrwt>
<rscale>  0 0.28394439E+04</rscale>
<asrwt>0</asrwt>
<pdfrwt beam="1">  1        1 0.21150420E+00 0.28394439E+04</pdfrwt>
<pdfrwt beam="2">  1       -2 0.22555937E+00 0.28394439E+04</pdfrwt>
<totfact> 0.55273728E-01</totfact>
</mgrwt>
</event>
<event>
12    4  0.4381187E-008  0.1502660E+04  0.7818608E-02  0.8882686E-01
         -2   -1    0    0    0  501 -0.00000000000E+00  0.00000000000E+00  0.31427822197E+03  0.31427822197E+03  0.00000000000E+00 0.  1.
          1   -1    0    0  501    0  0.00000000000E+00 -0.00000000000E+00 -0.17961688514E+04  0.17961688514E+04  0.00000000000E+00 0. -1.
        -24    2    1    2    0    0 -0.24665316848E+03  0.33559593233E+03 -0.91612088025E+03  0.10094625559E+04  0.79213441210E+02 0.  0.
        254    2    1    2    0    0  0.24665316848E+03 -0.33559593233E+03 -0.56576974917E+03  0.11009845174E+04  0.84770813565E+03 0.  0.
         23    2    4    4    0    0  0.51829675130E+03 -0.37421097573E+03 -0.31538125850E+03  0.71864500742E+03  0.91213659688E+02 0.  0.
         23    2    4    4    0    0 -0.27164358282E+03  0.38615043405E+02 -0.25038849067E+03  0.38233951002E+03  0.90596616913E+02 0.  0.
          3    1    3    3  502    0 -0.19034734138E+03  0.28634165200E+03 -0.68355094421E+03  0.76515720304E+03  0.00000000000E+00 0. -1.
         -4    1    3    3    0  502 -0.56305827097E+02  0.49254280324E+02 -0.23256993604E+03  0.24430535288E+03  0.00000000000E+00 0.  1.
         11    1    5    5    0    0  0.49530427488E+03 -0.36441570656E+03 -0.32004745419E+03  0.69322110819E+03  0.00000000000E+00 0. -1.
        -11    1    5    5    0    0  0.22992476415E+02 -0.97952691743E+01  0.46661956937E+01  0.25423899232E+02  0.00000000000E+00 0.  1.
          4    1    6    6  503    0 -0.23041975926E+03  0.25897058242E+01 -0.17590840581E+03  0.28990298251E+03  0.00000000000E+00 0. -1.
         -4    1    6    6    0  503 -0.41223823560E+02  0.36025337580E+02 -0.74480084864E+02  0.92436527510E+02  0.00000000000E+00 0.  1.
<mgrwt>
<rscale>  0 0.15026600E+04</rscale>
<asrwt>0</asrwt>
<pdfrwt beam="1">  1        1 0.27633366E+00 0.15026600E+04</pdfrwt>
<pdfrwt beam="2">  1       -2 0.48350497E-01 0.15026600E+04</pdfrwt>
<totfact> 0.14100642E+01</totfact>
</mgrwt>
</event>
<event>
12    4  0.4381187E-008  0.2060728E+04  0.7818608E-02  0.8578743E-01
         -2   -1    0    0    0  501 -0.00000000000E+00  0.00000000000E+00  0.40896345427E+03  0.40896345427E+03  0.00000000000E+00 0.  1.
          1   -1    0    0  501    0  0.00000000000E+00 -0.00000000000E+00 -0.25959519790E+04  0.25959519790E+04  0.00000000000E+00 0. -1.
        -24    2    1    2    0    0  0.15421059660E+03  0.43657795232E+03  0.12174256328E+03  0.48476965695E+03  0.76152163651E+02 0.  0.
        254    2    1    2    0    0 -0.15421059660E+03 -0.43657795232E+03 -0.23087310881E+04  0.25201457764E+04  0.89806140138E+03 0.  0.
         23    2    4    4    0    0 -0.46014321599E+03 -0.23602107097E+03 -0.18657172220E+04  0.19381059183E+04  0.88972315152E+02 0.  0.
         23    2    4    4    0    0  0.30593261939E+03 -0.20055688135E+03 -0.44301386603E+03  0.58203985806E+03  0.93227037983E+02 0.  0.
          3    1    3    3  502    0 -0.75512426607E+01  0.26002383466E+02  0.14145996178E+02  0.30549213075E+02  0.00000000000E+00 0. -1.
         -4    1    3    3    0  502  0.16176183926E+03  0.41057556885E+03  0.10759656711E+03  0.45422044387E+03  0.00000000000E+00 0.  1.
         11    1    5    5    0    0 -0.11683385757E+03 -0.26126026758E+02 -0.35118013373E+03  0.37102588303E+03  0.00000000000E+00 0. -1.
        -11    1    5    5    0    0 -0.34330935842E+03 -0.20989504421E+03 -0.15145370883E+04  0.15670800353E+04  0.00000000000E+00 0.  1.
          1    1    6    6  503    0  0.86660765906E+02 -0.14385182199E+02 -0.13035192741E+03  0.15718984317E+03  0.00000000000E+00 0. -1.
         -1    1    6    6    0  503  0.21927185348E+03 -0.18617169915E+03 -0.31266193862E+03  0.42485001489E+03  0.00000000000E+00 0.  1.
<mgrwt>
<rscale>  0 0.20607275E+04</rscale>
<asrwt>0</asrwt>
<pdfrwt beam="1">  1        1 0.39937722E+00 0.20607275E+04</pdfrwt>
<pdfrwt beam="2">  1       -2 0.62917455E-01 0.20607275E+04</pdfrwt>
<totfact> 0.22055358E+00</totfact>
</mgrwt>
</event>
<event>
12    4  0.4381187E-008  0.1269472E+04  0.7818608E-02  0.9054130E-01
          1   -1    0    0  501    0  0.00000000000E+00  0.00000000000E+00  0.15694872086E+04  0.15694872086E+04  0.00000000000E+00 0. -1.
         -2   -1    0    0    0  501 -0.00000000000E+00 -0.00000000000E+00 -0.25670171371E+03  0.25670171371E+03  0.00000000000E+00 0.  1.
        -24    2    1    2    0    0  0.91207729438E+02 -0.16856181375E+03  0.71021425249E+03  0.73991582663E+03  0.79619162794E+02 0.  0.
        254    2    1    2    0    0 -0.91207729438E+02  0.16856181375E+03  0.60257124239E+03  0.10862730957E+04  0.88326960848E+03 0.  0.
         23    2    4    4    0    0 -0.46142371968E+03  0.23317476818E+02  0.19374017160E+03  0.50861484810E+03  0.87739704862E+02 0.  0.
         23    2    4    4    0    0  0.37021599025E+03  0.14524433693E+03  0.40883107079E+03  0.57765824757E+03  0.91599179568E+02 0.  0.
          3    1    3    3  502    0 -0.18367486960E+01 -0.48001861115E+02  0.26650722783E+03  0.27080187370E+03  0.00000000000E+00 0. -1.
         -4    1    3    3    0  502  0.93044478134E+02 -0.12055995264E+03  0.44370702466E+03  0.46911395292E+03  0.00000000000E+00 0.  1.
         11    1    5    5    0    0 -0.37884445710E+03 -0.12987231592E+02  0.16929700633E+03  0.41515451004E+03  0.00000000000E+00 0. -1.
        -11    1    5    5    0    0 -0.82579262585E+02  0.36304708410E+02  0.24443165274E+02  0.93460338061E+02  0.00000000000E+00 0.  1.
          2    1    6    6  503    0  0.22760427161E+03  0.86147151176E+02  0.18472611029E+03  0.30553031263E+03  0.00000000000E+00 0. -1.
         -2    1    6    6    0  503  0.14261171864E+03  0.59097185756E+02  0.22410496050E+03  0.27212793495E+03  0.00000000000E+00 0.  1.
<mgrwt>
<rscale>  0 0.12694724E+04</rscale>
<asrwt>0</asrwt>
<pdfrwt beam="1">  1        1 0.24145956E+00 0.12694724E+04</pdfrwt>
<pdfrwt beam="2">  1       -2 0.39492572E-01 0.12694724E+04</pdfrwt>
<totfact> 0.30689599E+01</totfact>
</mgrwt>
</event>
<event>
12    4  0.4381187E-008  0.1543615E+04  0.7818608E-02  0.8855957E-01
          1   -1    0    0  501    0  0.00000000000E+00  0.00000000000E+00  0.18327090536E+04  0.18327090536E+04  0.00000000000E+00 0. -1.
         -2   -1    0    0    0  501 -0.00000000000E+00 -0.00000000000E+00 -0.32503061808E+03  0.32503061808E+03  0.00000000000E+00 0.  1.
        -24    2    1    2    0    0 -0.30966056922E+03 -0.30902074229E+03  0.18177244323E+03  0.48027238768E+03  0.78973780216E+02 0.  0.
        254    2    1    2    0    0  0.30966056922E+03  0.30902074229E+03  0.13259059923E+04  0.16774672840E+04  0.92977755469E+03 0.  0.
         23    2    4    4    0    0  0.54517349120E+03  0.32039077390E+03  0.49480226028E+03  0.80867472286E+03  0.96234853879E+02 0.  0.
         23    2    4    4    0    0 -0.23551292198E+03 -0.11370031616E+02  0.83110373201E+03  0.86879256114E+03  0.92040680674E+02 0.  0.
          3    1    3    3  502    0 -0.21277949622E+03 -0.19277173427E+03  0.15602188061E+03  0.32677038234E+03  0.00000000000E+00 0. -1.
         -4    1    3    3    0  502 -0.96881072997E+02 -0.11624900801E+03  0.25750562625E+02  0.15350200534E+03  0.00000000000E+00 0.  1.
         11    1    5    5    0    0  0.49472418844E+03  0.31277955943E+03  0.43042717915E+03  0.72653329722E+03  0.00000000000E+00 0.  1.
        -11    1    5    5    0    0  0.50449302762E+02  0.76112144771E+01  0.64375081132E+02  0.82141425637E+02  0.00000000000E+00 0. -1.
          2    1    6    6  503    0 -0.31526821840E+02  0.24980863365E+02  0.78744062409E+02  0.88422912158E+02  0.00000000000E+00 0. -1.
         -2    1    6    6    0  503 -0.20398610014E+03 -0.36350894981E+02  0.75235966960E+03  0.78036964899E+03  0.00000000000E+00 0.  1.
<mgrwt>
<rscale>  0 0.15436147E+04</rscale>
<asrwt>0</asrwt>
<pdfrwt beam="1">  1        1 0.28195523E+00 0.15436147E+04</pdfrwt>
<pdfrwt beam="2">  1       -2 0.50004712E-01 0.15436147E+04</pdfrwt>
<totfact> 0.12394454E+01</totfact>
</mgrwt>
</event>
<event>
12    4  0.4381187E-008  0.2852744E+04  0.7818608E-02  0.8287078E-01
          1   -1    0    0  501    0  0.00000000000E+00  0.00000000000E+00  0.86991263251E+03  0.86991263251E+03  0.00000000000E+00 0. -1.
         -4   -1    0    0    0  501 -0.00000000000E+00 -0.00000000000E+00 -0.23387825952E+04  0.23387825952E+04  0.00000000000E+00 0.  1.
        -24    2    1    2    0    0  0.16881054452E+02 -0.12631245931E+04 -0.41663911875E+03  0.13331455298E+04  0.88995171294E+02 0.  0.
        254    2    1    2    0    0 -0.16881054452E+02  0.12631245931E+04 -0.10522308440E+04  0.18755496980E+04  0.90262296270E+03 0.  0.
         23    2    4    4    0    0  0.45565840333E+02  0.85582355811E+03 -0.11551137296E+04  0.14411850366E+04  0.90644211249E+02 0.  0.
         23    2    4    4    0    0 -0.62446894785E+02  0.40730103502E+03  0.10288288562E+03  0.43436466136E+03  0.91071527354E+02 0.  0.
          1    1    3    3  502    0  0.15543102552E+02 -0.41490922990E+03 -0.94510782898E+02  0.42582102481E+03  0.00000000000E+00 0. -1.
         -2    1    3    3    0  502  0.13379519002E+01 -0.84821536323E+03 -0.32212833585E+03  0.90732450496E+03  0.00000000000E+00 0.  1.
         11    1    5    5    0    0  0.25072558313E+02  0.81032024799E+03 -0.10688299750E+04  0.13415084990E+04  0.00000000000E+00 0. -1.
        -11    1    5    5    0    0  0.20493282020E+02  0.45503310125E+02 -0.86283754569E+02  0.99676537575E+02  0.00000000000E+00 0.  1.
          1    1    6    6  503    0 -0.52052991286E+02  0.35554695089E+03  0.12004284020E+03  0.37885806270E+03  0.00000000000E+00 0. -1.
         -1    1    6    6    0  503 -0.10393903499E+02  0.51754084130E+02 -0.17159954587E+02  0.55506598667E+02  0.00000000000E+00 0.  1.
<mgrwt>
<rscale>  0 0.28527436E+04</rscale>
<asrwt>0</asrwt>
<pdfrwt beam="1">  1        1 0.13383272E+00 0.28527436E+04</pdfrwt>
<pdfrwt beam="2">  1       -4 0.35981270E+00 0.28527436E+04</pdfrwt>
<totfact> 0.10132181E-01</totfact>
</mgrwt>
</event>
<event>
12    4  0.4381187E-008  0.1565065E+04  0.7818608E-02  0.8842302E-01
          1   -1    0    0  501    0  0.00000000000E+00  0.00000000000E+00  0.76723802477E+03  0.76723802477E+03  0.00000000000E+00 0. -1.
         -2   -1    0    0    0  501 -0.00000000000E+00 -0.00000000000E+00 -0.79813147695E+03  0.79813147695E+03  0.00000000000E+00 0.  1.
        -24    2    1    2    0    0  0.46375128535E+03 -0.45027760547E+02  0.26193297990E+03  0.54035919674E+03  0.79286957671E+02 0.  0.
        254    2    1    2    0    0 -0.46375128535E+03  0.45027760547E+02 -0.29282643208E+03  0.10250103050E+04  0.86475779969E+03 0.  0.
         23    2    4    4    0    0 -0.16798868463E+03  0.42941941483E+03 -0.44131440275E+02  0.47283572593E+03  0.94893665200E+02 0.  0.
         23    2    4    4    0    0 -0.29576260071E+03 -0.38439165428E+03 -0.24869499181E+03  0.55217457906E+03  0.88403093541E+02 0.  0.
          3    1    3    3  502    0  0.15102550806E+03  0.19209589536E+02  0.10228537474E+03  0.18341213237E+03  0.00000000000E+00 0. -1.
         -4    1    3    3    0  502  0.31272577729E+03 -0.64237350083E+02  0.15964760516E+03  0.35694706437E+03  0.00000000000E+00 0.  1.
         11    1    5    5    0    0 -0.11100912707E+03  0.16225894784E+03 -0.33711333101E+02  0.19946790826E+03  0.00000000000E+00 0. -1.
        -11    1    5    5    0    0 -0.56979557567E+02  0.26716046699E+03 -0.10420107174E+02  0.27336781767E+03  0.00000000000E+00 0.  1.
          4    1    6    6  503    0 -0.45705638833E+02 -0.96560665771E+02 -0.23599744866E+02  0.10940710924E+03  0.00000000000E+00 0. -1.
         -4    1    6    6    0  503 -0.25005696188E+03 -0.28783098851E+03 -0.22509524694E+03  0.44276746982E+03  0.00000000000E+00 0.  1.
<mgrwt>
<rscale>  0 0.15650646E+04</rscale>
<asrwt>0</asrwt>
<pdfrwt beam="1">  1        1 0.11803662E+00 0.15650646E+04</pdfrwt>
<pdfrwt beam="2">  1       -2 0.12278946E+00 0.15650646E+04</pdfrwt>
<totfact> 0.99857604E+00</totfact>
</mgrwt>
</event>
<event>
12    4  0.4381187E-008  0.1401837E+04  0.7818608E-02  0.8952490E-01
         -2   -1    0    0    0  501 -0.00000000000E+00  0.00000000000E+00  0.26149128910E+04  0.26149128910E+04  0.00000000000E+00 0.  1.
          1   -1    0    0  501    0  0.00000000000E+00 -0.00000000000E+00 -0.18787869976E+03  0.18787869976E+03  0.00000000000E+00 0. -1.
        -24    2    1    2    0    0  0.31443934660E+03  0.20476018173E+03  0.10179275131E+04  0.10878126212E+04  0.79756141388E+02 0.  0.
        254    2    1    2    0    0 -0.31443934660E+03 -0.20476018173E+03  0.14091066781E+04  0.17149789696E+04  0.90264744010E+03 0.  0.
         23    2    4    4    0    0  0.19935044109E+03  0.21527988543E+03  0.41793926760E+03  0.51859271427E+03  0.90438622582E+02 0.  0.
         23    2    4    4    0    0 -0.51378978769E+03 -0.42004006716E+03  0.99116741050E+03  0.11963862553E+04  0.92269346591E+02 0.  0.
          1    1    3    3  502    0  0.17411189858E+02  0.39221291461E+02  0.13558655017E+03  0.14221523063E+03  0.00000000000E+00 0. -1.
         -2    1    3    3    0  502  0.29702815674E+03  0.16553889027E+03  0.88234096297E+03  0.94559739055E+03  0.00000000000E+00 0.  1.
         11    1    5    5    0    0  0.11555669845E+03  0.18456974166E+03  0.29358685997E+03  0.36553055200E+03  0.00000000000E+00 0.  1.
        -11    1    5    5    0    0  0.83793742636E+02  0.30710143761E+02  0.12435240763E+03  0.15306216227E+03  0.00000000000E+00 0. -1.
          4    1    6    6  503    0 -0.17153615557E+03 -0.95074228794E+02  0.25064987802E+03  0.31825952146E+03  0.00000000000E+00 0. -1.
         -4    1    6    6    0  503 -0.34225363211E+03 -0.32496583836E+03  0.74051753248E+03  0.87812673385E+03  0.00000000000E+00 0.  1.
<mgrwt>
<rscale>  0 0.14018366E+04</rscale>
<asrwt>0</asrwt>
<pdfrwt beam="1">  1        1 0.28904417E-01 0.14018366E+04</pdfrwt>
<pdfrwt beam="2">  1       -2 0.40229426E+00 0.14018366E+04</pdfrwt>
<totfact> 0.99594421E-01</totfact>
</mgrwt>
</event>
<event>
12    4  0.4381187E-008  0.2826469E+04  0.7818608E-02  0.8295098E-01
         -2   -1    0    0    0  501 -0.00000000000E+00  0.00000000000E+00  0.92168544724E+03  0.92168544724E+03  0.00000000000E+00 0.  1.
          1   -1    0    0  501    0  0.00000000000E+00 -0.00000000000E+00 -0.21669347493E+04  0.21669347493E+04  0.00000000000E+00 0. -1.
        -24    2    1    2    0    0  0.48929265065E+03  0.95679476890E+03 -0.12961427729E+04  0.16855337722E+04  0.78577869714E+02 0.  0.
        254    2    1    2    0    0 -0.48929265065E+03 -0.95679476890E+03  0.50893470838E+02  0.14030864244E+04  0.90066522144E+03 0.  0.
         23    2    4    4    0    0  0.39722925336E+01 -0.83596371646E+03 -0.14058053858E+03  0.85269802671E+03  0.92086495090E+02 0.  0.
         23    2    4    4    0    0 -0.49326494318E+03 -0.12083105244E+03  0.19147400941E+03  0.55038839767E+03  0.91403744992E+02 0.  0.
          1    1    3    3  502    0  0.28948509408E+03  0.63852045774E+03 -0.81585725721E+03  0.10757011940E+04  0.00000000000E+00 0. -1.
         -2    1    3    3    0  502  0.19980755657E+03  0.31827431116E+03 -0.48028551566E+03  0.60983257814E+03  0.00000000000E+00 0.  1.
         11    1    5    5    0    0 -0.14521600193E+02 -0.38182737597E+03 -0.20810889941E+02  0.38266972059E+03  0.00000000000E+00 0. -1.
        -11    1    5    5    0    0  0.18493892727E+02 -0.45413634049E+03 -0.11976964863E+03  0.47002830612E+03  0.00000000000E+00 0.  1.
          3    1    6    6  503    0 -0.37888213108E+02 -0.12882599991E+02 -0.93932043950E+01  0.41106086701E+02  0.00000000000E+00 0. -1.
         -3    1    6    6    0  503 -0.45537673007E+03 -0.10794845245E+03  0.20086721381E+03  0.50928231097E+03  0.00000000000E+00 0.  1.
<mgrwt>
<rscale>  0 0.28264693E+04</rscale>
<asrwt>0</asrwt>
<pdfrwt beam="1">  1        1 0.33337458E+00 0.28264693E+04</pdfrwt>
<pdfrwt beam="2">  1       -2 0.14179776E+00 0.28264693E+04</pdfrwt>
<totfact> 0.60537733E-01</totfact>
</mgrwt>
</event>
<event>
12    4  0.4381187E-008  0.1257930E+04  0.7818608E-02  0.9063609E-01
          1   -1    0    0  501    0  0.00000000000E+00  0.00000000000E+00  0.16131644415E+04  0.16131644415E+04  0.00000000000E+00 0. -1.
         -2   -1    0    0    0  501 -0.00000000000E+00 -0.00000000000E+00 -0.24523022302E+03  0.24523022302E+03  0.00000000000E+00 0.  1.
        -24    2    1    2    0    0  0.26036042517E+03  0.87312283488E+02  0.54944465787E+03  0.61951339088E+03  0.80600394362E+02 0.  0.
        254    2    1    2    0    0 -0.26036042517E+03 -0.87312283488E+02  0.81848956055E+03  0.12388812736E+04  0.88853287136E+03 0.  0.
         23    2    4    4    0    0 -0.28830945971E+03 -0.39029486668E+03  0.17705100076E+03  0.52410676996E+03  0.88816788560E+02 0.  0.
         23    2    4    4    0    0  0.27949034540E+02  0.30298258319E+03  0.64143855979E+03  0.71477450363E+03  0.82943178174E+02 0.  0.
          1    1    3    3  502    0  0.25606577229E+03  0.67865958447E+02  0.49309772165E+03  0.55975068660E+03  0.00000000000E+00 0. -1.
         -2    1    3    3    0  502  0.42946528815E+01  0.19446325041E+02  0.56346936222E+02  0.59762704278E+02  0.00000000000E+00 0.  1.
         11    1    5    5    0    0 -0.28475034427E+03 -0.34366758130E+03  0.15554477604E+03  0.47263552802E+03  0.00000000000E+00 0. -1.
        -11    1    5    5    0    0 -0.35591154464E+01 -0.46627285383E+02  0.21506224718E+02  0.51471241937E+02  0.00000000000E+00 0.  1.
          1    1    6    6  503    0  0.55872148097E+02  0.24033158394E+03  0.49723551405E+03  0.55508929336E+03  0.00000000000E+00 0. -1.
         -1    1    6    6    0  503 -0.27923113557E+02  0.62650999253E+02  0.14420304575E+03  0.15968521028E+03  0.00000000000E+00 0.  1.
<mgrwt>
<rscale>  0 0.12579295E+04</rscale>
<asrwt>0</asrwt>
<pdfrwt beam="1">  1        1 0.24817914E+00 0.12579295E+04</pdfrwt>
<pdfrwt beam="2">  1       -2 0.37727728E-01 0.12579295E+04</pdfrwt>
<totfact> 0.31336717E+01</totfact>
</mgrwt>
</event>
<event>
12    4  0.4381187E-008  0.1639181E+04  0.7818608E-02  0.8796833E-01
          1   -1    0    0  501    0  0.00000000000E+00  0.00000000000E+00  0.19825936966E+04  0.19825936966E+04  0.00000000000E+00 0. -1.
         -2   -1    0    0    0  501 -0.00000000000E+00 -0.00000000000E+00 -0.33881300161E+03  0.33881300161E+03  0.00000000000E+00 0.  1.
        -24    2    1    2    0    0 -0.69721559713E+01  0.85646528825E+01 -0.22859741207E+03  0.24228606344E+03  0.79522295590E+02 0.  0.
        254    2    1    2    0    0  0.69721559713E+01 -0.85646528825E+01  0.18723781070E+04  0.20791206347E+04  0.90378143038E+03 0.  0.
         23    2    4    4    0    0  0.27331214871E+02 -0.43618178046E+03  0.11620358284E+04  0.12446630730E+04  0.88641738716E+02 0.  0.
         23    2    4    4    0    0 -0.20359058900E+02  0.42761712758E+03  0.71034227861E+03  0.83445756175E+03  0.91991143582E+02 0.  0.
          1    1    3    3  502    0  0.33830591735E+02  0.33852495609E+01 -0.14734282761E+03  0.15121467422E+03  0.00000000000E+00 0. -1.
         -2    1    3    3    0  502 -0.40802747706E+02  0.51794033215E+01 -0.81254584464E+02  0.91071389226E+02  0.00000000000E+00 0.  1.
         11    1    5    5    0    0  0.34512906874E+02 -0.85880444077E+02  0.30621549695E+03  0.31989767424E+03  0.00000000000E+00 0. -1.
        -11    1    5    5    0    0 -0.71816920035E+01 -0.35030133638E+03  0.85582033145E+03  0.92476539874E+03  0.00000000000E+00 0.  1.
          3    1    6    6  503    0  0.83993593270E+01  0.16769412230E+03  0.20097970093E+03  0.26188682303E+03  0.00000000000E+00 0. -1.
         -3    1    6    6    0  503 -0.28758418227E+02  0.25992300527E+03  0.50936257768E+03  0.57257073872E+03  0.00000000000E+00 0.  1.
<mgrwt>
<rscale>  0 0.16391809E+04</rscale>
<asrwt>0</asrwt>
<pdfrwt beam="1">  1        1 0.30501441E+00 0.16391809E+04</pdfrwt>
<pdfrwt beam="2">  1       -2 0.52125078E-01 0.16391809E+04</pdfrwt>
<totfact> 0.89371650E+00</totfact>
</mgrwt>
</event>
<event>
12    4  0.4381187E-008  0.2301459E+04  0.7818608E-02  0.8477346E-01
          1   -1    0    0  501    0  0.00000000000E+00  0.00000000000E+00  0.92892428284E+03  0.92892428284E+03  0.00000000000E+00 0. -1.
         -2   -1    0    0    0  501 -0.00000000000E+00 -0.00000000000E+00 -0.14254960148E+04  0.14254960148E+04  0.00000000000E+00 0.  1.
        -24    2    1    2    0    0  0.77653738584E+03  0.36544399629E+02  0.39782024721E+03  0.87708049757E+03  0.81629929420E+02 0.  0.
        254    2    1    2    0    0 -0.77653738584E+03 -0.36544399629E+02 -0.89439197921E+03  0.14773398001E+04  0.88218482632E+03 0.  0.
         23    2    4    4    0    0 -0.48446900404E+03 -0.43072238575E+03 -0.64596321381E+03  0.91966141953E+03  0.90976170089E+02 0.  0.
         23    2    4    4    0    0 -0.29206838179E+03  0.39417798612E+03 -0.24842876541E+03  0.55767838058E+03  0.92779848602E+02 0.  0.
          1    1    3    3  502    0  0.73321161154E+03  0.15216701528E+02  0.37433776884E+03  0.82338300959E+03  0.00000000000E+00 0. -1.
         -2    1    3    3    0  502  0.43325774299E+02  0.21327698100E+02  0.23482478371E+02  0.53697487979E+02  0.00000000000E+00 0.  1.
         11    1    5    5    0    0 -0.33546798795E+03 -0.34445861060E+03 -0.50333834717E+03  0.69608907267E+03  0.00000000000E+00 0.  1.
        -11    1    5    5    0    0 -0.14900101609E+03 -0.86263775142E+02 -0.14262486663E+03  0.22357234686E+03  0.00000000000E+00 0. -1.
          3    1    6    6  503    0 -0.56150118475E+02  0.11757479924E+03 -0.30504139007E+02  0.13381768088E+03  0.00000000000E+00 0. -1.
         -3    1    6    6    0  503 -0.23591826332E+03  0.27660318688E+03 -0.21792462640E+03  0.42386069970E+03  0.00000000000E+00 0.  1.
<mgrwt>
<rscale>  0 0.23014585E+04</rscale>
<asrwt>0</asrwt>
<pdfrwt beam="1">  1        1 0.14291143E+00 0.23014585E+04</pdfrwt>
<pdfrwt beam="2">  1       -2 0.21930708E+00 0.23014585E+04</pdfrwt>
<totfact> 0.13632069E+00</totfact>
</mgrwt>
</event>
<event>
12    4  0.4381187E-008  0.1350693E+04  0.7818608E-02  0.8990304E-01
         -2   -1    0    0    0  501 -0.00000000000E+00  0.00000000000E+00  0.26969310116E+03  0.26969310116E+03  0.00000000000E+00 0.  1.
          1   -1    0    0  501    0  0.00000000000E+00 -0.00000000000E+00 -0.16911539693E+04  0.16911539693E+04  0.00000000000E+00 0. -1.
        -24    2    1    2    0    0  0.12252888440E+02 -0.36076636249E+03 -0.47744625233E+03  0.60428304852E+03  0.83069713413E+02 0.  0.
        254    2    1    2    0    0 -0.12252888440E+02  0.36076636249E+03 -0.94401461578E+03  0.13565640219E+04  0.90487559872E+03 0.  0.
         23    2    4    4    0    0 -0.38102783747E+03  0.23190640932E+03 -0.81708992556E+03  0.93550176789E+03  0.92546289259E+02 0.  0.
         23    2    4    4    0    0  0.36877494903E+03  0.12885995317E+03 -0.12692469022E+03  0.42106225403E+03  0.92648228324E+02 0.  0.
          3    1    3    3  502    0  0.14884447895E+02 -0.62861807421E+02 -0.13974579033E+03  0.15395466715E+03  0.00000000000E+00 0. -1.
         -4    1    3    3    0  502 -0.26315594552E+01 -0.29790455507E+03 -0.33770046200E+03  0.45032838138E+03  0.00000000000E+00 0.  1.
         11    1    5    5    0    0 -0.16696157446E+03  0.59017764923E+02 -0.37613300537E+03  0.41573465293E+03  0.00000000000E+00 0. -1.
        -11    1    5    5    0    0 -0.21406626301E+03  0.17288864440E+03 -0.44095692019E+03  0.51976711496E+03  0.00000000000E+00 0.  1.
          3    1    6    6  503    0  0.10700727326E+03  0.77846215425E+02 -0.20438195109E+02  0.13389663777E+03  0.00000000000E+00 0. -1.
         -3    1    6    6    0  503  0.26176767578E+03  0.51013737746E+02 -0.10648649511E+03  0.28716561626E+03  0.00000000000E+00 0.  1.
<mgrwt>
<rscale>  0 0.13506925E+04</rscale>
<asrwt>0</asrwt>
<pdfrwt beam="1">  1        1 0.26017754E+00 0.13506925E+04</pdfrwt>
<pdfrwt beam="2">  1       -2 0.41491246E-01 0.13506925E+04</pdfrwt>
<totfact> 0.22851434E+01</totfact>
</mgrwt>
</event>
<event>
12    4  0.4381187E-008  0.1553652E+04  0.7818608E-02  0.8849538E-01
         -2   -1    0    0    0  501 -0.00000000000E+00  0.00000000000E+00  0.30414104251E+03  0.30414104251E+03  0.00000000000E+00 0.  1.
          1   -1    0    0  501    0  0.00000000000E+00 -0.00000000000E+00 -0.19841407705E+04  0.19841407705E+04  0.00000000000E+00 0. -1.
        -24    2    1    2    0    0 -0.30560904890E+03 -0.30227803542E+03 -0.97037614660E+03  0.10644682793E+04  0.81816564486E+02 0.  0.
        254    2    1    2    0    0  0.30560904890E+03  0.30227803542E+03 -0.70962358141E+03  0.12238135338E+04  0.89965828883E+03 0.  0.
         23    2    4    4    0    0  0.16220625102E+03  0.48594187765E+03 -0.80302441576E+03  0.95662219470E+03  0.88472791025E+02 0.  0.
         23    2    4    4    0    0  0.14340279788E+03 -0.18366384223E+03  0.93400834354E+02  0.26719133907E+03  0.91491674105E+02 0.  0.
          1    1    3    3  502    0 -0.25914535047E+03 -0.21555624412E+03 -0.79226952918E+03  0.86099466544E+03  0.00000000000E+00 0. -1.
         -2    1    3    3    0  502 -0.46463698429E+02 -0.86721791298E+02 -0.17810661742E+03  0.20347361383E+03  0.00000000000E+00 0.  1.
         11    1    5    5    0    0  0.77742701241E+02  0.18493418923E+03 -0.39050328408E+03  0.43901867479E+03  0.00000000000E+00 0.  1.
        -11    1    5    5    0    0  0.84463549775E+02  0.30100768842E+03 -0.41252113169E+03  0.51760351991E+03  0.00000000000E+00 0. -1.
          1    1    6    6  503    0 -0.28183043266E+01  0.79604592853E+01  0.75228406837E+01  0.11309504112E+02  0.00000000000E+00 0. -1.
         -1    1    6    6    0  503  0.14622110221E+03 -0.19162430152E+03  0.85877993670E+02  0.25588183495E+03  0.00000000000E+00 0.  1.
<mgrwt>
<rscale>  0 0.15536520E+04</rscale>
<asrwt>0</asrwt>
<pdfrwt beam="1">  1        1 0.30525242E+00 0.15536520E+04</pdfrwt>
<pdfrwt beam="2">  1       -2 0.46790931E-01 0.15536520E+04</pdfrwt>
<totfact> 0.11189365E+01</totfact>
</mgrwt>
</event>
<event>
12    4  0.4381187E-008  0.1924152E+04  0.7818608E-02  0.8642927E-01
         -2   -1    0    0    0  501 -0.00000000000E+00  0.00000000000E+00  0.85542107870E+03  0.85542107870E+03  0.00000000000E+00 0.  1.
          1   -1    0    0  501    0  0.00000000000E+00 -0.00000000000E+00 -0.10820283968E+04  0.10820283968E+04  0.00000000000E+00 0. -1.
        -24    2    1    2    0    0 -0.62930619008E+03 -0.17438250301E+03  0.27766606238E+03  0.71392505253E+03  0.78453809373E+02 0.  0.
        254    2    1    2    0    0  0.62930619008E+03  0.17438250301E+03 -0.50427338045E+03  0.12235244229E+04  0.90348482726E+03 0.  0.
         23    2    4    4    0    0  0.45089458321E+03 -0.13337883098E+03 -0.66806245071E+03  0.82174583216E+03  0.88673202816E+02 0.  0.
         23    2    4    4    0    0  0.17841160687E+03  0.30776133399E+03  0.16378907027E+03  0.40177859078E+03  0.89729796098E+02 0.  0.
          3    1    3    3  502    0 -0.10965585263E+03 -0.62091790062E+02  0.56910756173E+02  0.13827013625E+03  0.00000000000E+00 0. -1.
         -4    1    3    3    0  502 -0.51965033744E+03 -0.11229071295E+03  0.22075530621E+03  0.57565491628E+03  0.00000000000E+00 0.  1.
         11    1    5    5    0    0  0.17517851476E+03 -0.97015855257E+02 -0.26975516527E+03  0.33595749344E+03  0.00000000000E+00 0.  1.
        -11    1    5    5    0    0  0.27571606845E+03 -0.36362975725E+02 -0.39830728544E+03  0.48578833872E+03  0.00000000000E+00 0. -1.
          4    1    6    6  503    0  0.96908850339E+02  0.10708211247E+03  0.10109340021E+03  0.17628890961E+03  0.00000000000E+00 0. -1.
         -4    1    6    6    0  503  0.81502756529E+02  0.20067922153E+03  0.62695670058E+02  0.22548968118E+03  0.00000000000E+00 0.  1.
<mgrwt>
<rscale>  0 0.19241517E+04</rscale>
<asrwt>0</asrwt>
<pdfrwt beam="1">  1        1 0.16646591E+00 0.19241517E+04</pdfrwt>
<pdfrwt beam="2">  1       -2 0.13160324E+00 0.19241517E+04</pdfrwt>
<totfact> 0.45090179E+00</totfact>
</mgrwt>
</event>
<event>
12    4  0.4381187E-008  0.1299388E+04  0.7818608E-02  0.9030050E-01
         -2   -1    0    0    0  501 -0.00000000000E+00  0.00000000000E+00  0.54858343400E+03  0.54858343400E+03  0.00000000000E+00 0.  1.
          1   -1    0    0  501    0  0.00000000000E+00 -0.00000000000E+00 -0.76944076143E+03  0.76944076143E+03  0.00000000000E+00 0. -1.
        -24    2    1    2    0    0  0.41480587520E+02 -0.30974600447E+03  0.35455760077E+02  0.32471543937E+03  0.80745149804E+02 0.  0.
        254    2    1    2    0    0 -0.41480587520E+02  0.30974600447E+03 -0.25631308750E+03  0.99330875606E+03  0.90736027002E+03 0.  0.
         23    2    4    4    0    0 -0.41164729059E+03  0.27299022947E+02  0.54635043053E+02  0.42597536969E+03  0.90946683007E+02 0.  0.
         23    2    4    4    0    0  0.37016670307E+03  0.28244698152E+03 -0.31094813056E+03  0.56733338636E+03  0.91535490101E+02 0.  0.
          3    1    3    3  502    0  0.20161679531E+02 -0.41781606479E+02  0.31132162646E+02  0.55869558012E+02  0.00000000000E+00 0. -1.
         -4    1    3    3    0  502  0.21318907989E+02 -0.26796439799E+03  0.43235974312E+01  0.26884588136E+03  0.00000000000E+00 0.  1.
         11    1    5    5    0    0 -0.43638320466E+02 -0.87370260195E+01 -0.19929833601E+02  0.48763069060E+02  0.00000000000E+00 0. -1.
        -11    1    5    5    0    0 -0.36800897013E+03  0.36036048966E+02  0.74564876654E+02  0.37721230064E+03  0.00000000000E+00 0.  1.
          1    1    6    6  503    0  0.23218182869E+03  0.15818398596E+03 -0.13569032952E+03  0.31199750081E+03  0.00000000000E+00 0. -1.
         -1    1    6    6    0  503  0.13798487439E+03  0.12426299557E+03 -0.17525780104E+03  0.25533588555E+03  0.00000000000E+00 0.  1.
<mgrwt>
<rscale>  0 0.12993882E+04</rscale>
<asrwt>0</asrwt>
<pdfrwt beam="1">  1        1 0.11837550E+00 0.12993882E+04</pdfrwt>
<pdfrwt beam="2">  1       -2 0.84397451E-01 0.12993882E+04</pdfrwt>
<totfact> 0.24802089E+01</totfact>
</mgrwt>
</event>
<event>
12    4  0.4381187E-008  0.1428517E+04  0.7818608E-02  0.8933432E-01
          1   -1    0    0  501    0  0.00000000000E+00  0.00000000000E+00  0.76078287576E+03  0.76078287576E+03  0.00000000000E+00 0. -1.
         -2   -1    0    0    0  501 -0.00000000000E+00 -0.00000000000E+00 -0.67057879956E+03  0.67057879956E+03  0.00000000000E+00 0.  1.
        -24    2    1    2    0    0 -0.23197817359E+03 -0.29776935731E+03  0.23584899892E+03  0.45791857229E+03  0.10762994649E+03 0.  0.
        254    2    1    2    0    0  0.23197817359E+03  0.29776935731E+03 -0.14564492272E+03  0.97344310303E+03  0.88538046519E+03 0.  0.
         23    2    4    4    0    0  0.15034123313E+03 -0.12300483445E+03 -0.40947349626E+03  0.46129719660E+03  0.85987695482E+02 0.  0.
         23    2    4    4    0    0  0.81636940453E+02  0.42077419176E+03  0.26382857355E+03  0.51214590643E+03  0.94722767867E+02 0.  0.
          1    1    3    3  502    0 -0.22612542981E+03 -0.29696672500E+03  0.20368593854E+03  0.42521748238E+03  0.00000000000E+00 0. -1.
         -2    1    3    3    0  502 -0.58527437789E+01 -0.80263231550E+00  0.32163060383E+02  0.32701089914E+02  0.00000000000E+00 0.  1.
         11    1    5    5    0    0  0.78328629270E+02 -0.35784520794E+02 -0.25975031860E+03  0.27365331006E+03  0.00000000000E+00 0.  1.
        -11    1    5    5    0    0  0.72012603863E+02 -0.87220313653E+02 -0.14972317766E+03  0.18764388655E+03  0.00000000000E+00 0. -1.
          1    1    6    6  503    0  0.15283199460E+02  0.22731447852E+03  0.94596300997E+02  0.24668584980E+03  0.00000000000E+00 0. -1.
         -1    1    6    6    0  503  0.66353740993E+02  0.19345971324E+03  0.16923227255E+03  0.26546005662E+03  0.00000000000E+00 0.  1.
<mgrwt>
<rscale>  0 0.14285165E+04</rscale>
<asrwt>0</asrwt>
<pdfrwt beam="1">  1        1 0.11704352E+00 0.14285165E+04</pdfrwt>
<pdfrwt beam="2">  1       -2 0.10316597E+00 0.14285165E+04</pdfrwt>
<totfact> 0.15650014E+01</totfact>
</mgrwt>
</event>
<event>
12    4  0.4381187E-008  0.1858247E+04  0.7818608E-02  0.8675923E-01
         -2   -1    0    0    0  501 -0.00000000000E+00  0.00000000000E+00  0.59301993579E+03  0.59301993579E+03  0.00000000000E+00 0.  1.
          1   -1    0    0  501    0  0.00000000000E+00 -0.00000000000E+00 -0.14557186403E+04  0.14557186403E+04  0.00000000000E+00 0. -1.
        -24    2    1    2    0    0 -0.67178232961E+03  0.34041569443E+02 -0.53324106561E+02  0.67951855083E+03  0.80322311730E+02 0.  0.
        254    2    1    2    0    0  0.67178232961E+03 -0.34041569443E+02 -0.80937459794E+03  0.13692200253E+04  0.87591432853E+03 0.  0.
         23    2    4    4    0    0  0.74199704873E+02 -0.32089064935E+03 -0.55791264542E+03  0.65431712014E+03  0.91585854504E+02 0.  0.
         23    2    4    4    0    0  0.59758262474E+03  0.28684907991E+03 -0.25146195252E+03  0.71490290511E+03  0.92009032892E+02 0.  0.
          1    1    3    3  502    0 -0.43704460443E+03  0.15719204997E+02 -0.72464326874E+02  0.44329015141E+03  0.00000000000E+00 0. -1.
         -4    1    3    3    0  502 -0.23473772518E+03  0.18322364446E+02  0.19140220312E+02  0.23622839942E+03  0.00000000000E+00 0.  1.
         11    1    5    5    0    0  0.64154474170E+02 -0.26118244292E+03 -0.37375581758E+03  0.46046224190E+03  0.00000000000E+00 0. -1.
        -11    1    5    5    0    0  0.10045230703E+02 -0.59708206431E+02 -0.18415682785E+03  0.19385487824E+03  0.00000000000E+00 0.  1.
          3    1    6    6  503    0  0.53496860786E+03  0.22674082680E+03 -0.23390008380E+03  0.62634819640E+03  0.00000000000E+00 0. -1.
         -3    1    6    6    0  503  0.62614016876E+02  0.60108253105E+02 -0.17561868721E+02  0.88554708705E+02  0.00000000000E+00 0.  1.
<mgrwt>
<rscale>  0 0.18582467E+04</rscale>
<asrwt>0</asrwt>
<pdfrwt beam="1">  1        1 0.22395671E+00 0.18582467E+04</pdfrwt>
<pdfrwt beam="2">  1       -2 0.91233838E-01 0.18582467E+04</pdfrwt>
<totfact> 0.59256201E+00</totfact>
</mgrwt>
</event>
<event>
12    4  0.4381187E-008  0.2380279E+04  0.7818608E-02  0.8446924E-01
          1   -1    0    0  501    0  0.00000000000E+00  0.00000000000E+00  0.14915875076E+04  0.14915875076E+04  0.00000000000E+00 0. -1.
         -2   -1    0    0    0  501 -0.00000000000E+00 -0.00000000000E+00 -0.94961371420E+03  0.94961371420E+03  0.00000000000E+00 0.  1.
        -24    2    1    2    0    0  0.33377214999E+03  0.84471525098E+03  0.69991670410E+03  0.11494781301E+04  0.80429319636E+02 0.  0.
        254    2    1    2    0    0 -0.33377214999E+03 -0.84471525098E+03 -0.15794291069E+03  0.12917230917E+04  0.90479549035E+03 0.  0.
         23    2    4    4    0    0 -0.56911947299E+03 -0.83454565401E+03 -0.20482920394E+03  0.10347504677E+04  0.91597513963E+02 0.  0.
         23    2    4    4    0    0  0.23534732300E+03 -0.10169596971E+02  0.46886293248E+02  0.25697262400E+03  0.91349996408E+02 0.  0.
          3    1    3    3  502    0  0.21502375181E+03  0.61172829191E+03  0.46458350700E+03  0.79767446489E+03  0.00000000000E+00 0. -1.
         -4    1    3    3    0  502  0.11874839817E+03  0.23298695907E+03  0.23533319710E+03  0.35180366517E+03  0.00000000000E+00 0.  1.
         11    1    5    5    0    0 -0.28733697723E+03 -0.48579629465E+03 -0.14207899831E+03  0.58201977642E+03  0.00000000000E+00 0.  1.
        -11    1    5    5    0    0 -0.28178249576E+03 -0.34874935936E+03 -0.62750205626E+02  0.45273069133E+03  0.00000000000E+00 0. -1.
          1    1    6    6  503    0  0.12380172819E+03 -0.50791066938E+02  0.28982646859E+02  0.13691820260E+03  0.00000000000E+00 0. -1.
         -1    1    6    6    0  503  0.11154559481E+03  0.40621469966E+02  0.17903646389E+02  0.12005442140E+03  0.00000000000E+00 0.  1.
<mgrwt>
<rscale>  0 0.23802789E+04</rscale>
<asrwt>0</asrwt>
<pdfrwt beam="1">  1        1 0.22947500E+00 0.23802789E+04</pdfrwt>
<pdfrwt beam="2">  1       -2 0.14609442E+00 0.23802789E+04</pdfrwt>
<totfact> 0.16787979E+00</totfact>
</mgrwt>
</event>
<event>
12    4  0.4381187E-008  0.1555113E+04  0.7818608E-02  0.8848608E-01
          1   -1    0    0  501    0  0.00000000000E+00  0.00000000000E+00  0.65071801263E+03  0.65071801263E+03  0.00000000000E+00 0. -1.
         -2   -1    0    0    0  501 -0.00000000000E+00 -0.00000000000E+00 -0.92911867511E+03  0.92911867511E+03  0.00000000000E+00 0.  1.
        -24    2    1    2    0    0  0.32020421882E+03  0.17639701806E+03 -0.45766557405E+03  0.59159555953E+03  0.82951061796E+02 0.  0.
        254    2    1    2    0    0 -0.32020421882E+03 -0.17639701806E+03  0.17926491157E+03  0.98824112822E+03  0.90046541814E+03 0.  0.
         23    2    4    4    0    0 -0.61479326932E+03 -0.15613300319E+03  0.21828116097E+03  0.67699796815E+03  0.91275982373E+02 0.  0.
         23    2    4    4    0    0  0.29458905050E+03 -0.20264014870E+02 -0.39016249396E+02  0.31124316007E+03  0.90314439609E+02 0.  0.
          3    1    3    3  502    0  0.16453965808E+03  0.58138843489E+02 -0.16873836377E+03  0.24274690443E+03  0.00000000000E+00 0. -1.
         -4    1    3    3    0  502  0.15566456074E+03  0.11825817457E+03 -0.28892721028E+03  0.34884865509E+03  0.00000000000E+00 0.  1.
         11    1    5    5    0    0 -0.14769989043E+03  0.66613355145E+00  0.39945017502E+02  0.15300753507E+03  0.00000000000E+00 0. -1.
        -11    1    5    5    0    0 -0.46709337889E+03 -0.15679913674E+03  0.17833614347E+03  0.52399043307E+03  0.00000000000E+00 0.  1.
          4    1    6    6  503    0  0.34935447132E+02 -0.15157232400E+02 -0.34674740311E+02  0.51503055987E+02  0.00000000000E+00 0. -1.
         -4    1    6    6    0  503  0.25965360337E+03 -0.51067824698E+01 -0.43415090851E+01  0.25974010409E+03  0.00000000000E+00 0.  1.
<mgrwt>
<rscale>  0 0.15551132E+04</rscale>
<asrwt>0</asrwt>
<pdfrwt beam="1">  1        1 0.10011046E+00 0.15551132E+04</pdfrwt>
<pdfrwt beam="2">  1       -2 0.14294133E+00 0.15551132E+04</pdfrwt>
<totfact> 0.87158414E+00</totfact>
</mgrwt>
</event>
<event>
12    4  0.4381187E-008  0.1456261E+04  0.7818608E-02  0.8914071E-01
          1   -1    0    0  501    0  0.00000000000E+00  0.00000000000E+00  0.32402994383E+04  0.32402994383E+04  0.00000000000E+00 0. -1.
         -2   -1    0    0    0  501 -0.00000000000E+00 -0.00000000000E+00 -0.16361889335E+03  0.16361889335E+03  0.00000000000E+00 0.  1.
        -24    2    1    2    0    0 -0.10707152657E+03 -0.14608400875E+03  0.19142584803E+04  0.19245187924E+04  0.81130780410E+02 0.  0.
        254    2    1    2    0    0  0.10707152657E+03  0.14608400875E+03  0.11624220646E+04  0.14793995392E+04  0.89699113200E+03 0.  0.
         23    2    4    4    0    0 -0.24435104165E+03 -0.26008740810E+03  0.42149478314E+03  0.55973581515E+03  0.91068321286E+02 0.  0.
         23    2    4    4    0    0  0.35142256821E+03  0.40617141685E+03  0.74092728145E+03  0.91966372404E+03  0.91296700930E+02 0.  0.
          3    1    3    3  502    0 -0.80310253076E+02 -0.15001717353E+03  0.17177256004E+04  0.17261332879E+04  0.00000000000E+00 0. -1.
         -2    1    3    3    0  502 -0.26761273491E+02  0.39331647822E+01  0.19653287988E+03  0.19838550456E+03  0.00000000000E+00 0.  1.
         11    1    5    5    0    0 -0.22355202985E+03 -0.20015238548E+03  0.30986797126E+03  0.43134052334E+03  0.00000000000E+00 0.  1.
        -11    1    5    5    0    0 -0.20799011798E+02 -0.59935022622E+02  0.11162681189E+03  0.12839529182E+03  0.00000000000E+00 0. -1.
          3    1    6    6  503    0  0.89587614109E+02  0.13211277779E+03  0.15991252466E+03  0.22594632593E+03  0.00000000000E+00 0. -1.
         -3    1    6    6    0  503  0.26183495411E+03  0.27405863905E+03  0.58101475679E+03  0.69371739811E+03  0.00000000000E+00 0.  1.
<mgrwt>
<rscale>  0 0.14562613E+04</rscale>
<asrwt>0</asrwt>
<pdfrwt beam="1">  1        1 0.49850756E+00 0.14562613E+04</pdfrwt>
<pdfrwt beam="2">  1       -2 0.25172140E-01 0.14562613E+04</pdfrwt>
<totfact> 0.48332876E+00</totfact>
</mgrwt>
</event>
<event>
12    4  0.4381187E-008  0.1950118E+04  0.7818608E-02  0.8630304E-01
         -2   -1    0    0    0  501 -0.00000000000E+00  0.00000000000E+00  0.10131763864E+04  0.10131763864E+04  0.00000000000E+00 0.  1.
          1   -1    0    0  501    0  0.00000000000E+00 -0.00000000000E+00 -0.93837590722E+03  0.93837590722E+03  0.00000000000E+00 0. -1.
        -24    2    1    2    0    0 -0.23706570209E+03 -0.19214821841E+03 -0.67264173247E+03  0.74340670802E+03  0.84175699159E+02 0.  0.
        254    2    1    2    0    0  0.23706570209E+03  0.19214821841E+03  0.74744221167E+03  0.12081455856E+04  0.89879074947E+03 0.  0.
         23    2    4    4    0    0  0.52023032201E+03  0.24526390129E+03  0.68696774980E+03  0.90062524753E+03  0.91690664784E+02 0.  0.
         23    2    4    4    0    0 -0.28316461993E+03 -0.53115682883E+02  0.60474461872E+02  0.30752033809E+03  0.88927611306E+02 0.  0.
          1    1    3    3  502    0 -0.13108756924E+03 -0.56263502685E+02 -0.34184683412E+03  0.37041704948E+03  0.00000000000E+00 0. -1.
         -2    1    3    3    0  502 -0.10597813284E+03 -0.13588471572E+03 -0.33079489835E+03  0.37298965854E+03  0.00000000000E+00 0.  1.
         11    1    5    5    0    0  0.10882677054E+03  0.88517478562E+02  0.13617953761E+03  0.19550825164E+03  0.00000000000E+00 0.  1.
        -11    1    5    5    0    0  0.41140355147E+03  0.15674642273E+03  0.55078821219E+03  0.70511699589E+03  0.00000000000E+00 0. -1.
          1    1    6    6  503    0 -0.25836645977E+03 -0.52548350305E+02  0.25839547509E+02  0.26491930634E+03  0.00000000000E+00 0. -1.
         -1    1    6    6    0  503 -0.24798160155E+02 -0.56733257806E+00  0.34634914362E+02  0.42601031750E+02  0.00000000000E+00 0.  1.
<mgrwt>
<rscale>  0 0.19501183E+04</rscale>
<asrwt>0</asrwt>
<pdfrwt beam="1">  1        1 0.14436552E+00 0.19501183E+04</pdfrwt>
<pdfrwt beam="2">  1       -2 0.15587329E+00 0.19501183E+04</pdfrwt>
<totfact> 0.37383902E+00</totfact>
</mgrwt>
</event>
<event>
12    4  0.4381187E-008  0.2434709E+04  0.7818608E-02  0.8426622E-01
          1   -1    0    0  501    0  0.00000000000E+00  0.00000000000E+00  0.13186305716E+04  0.13186305716E+04  0.00000000000E+00 0. -1.
         -2   -1    0    0    0  501 -0.00000000000E+00 -0.00000000000E+00 -0.11238571836E+04  0.11238571836E+04  0.00000000000E+00 0.  1.
        -24    2    1    2    0    0  0.73082866705E+03 -0.74863161649E+03  0.21607934761E+03  0.10711582801E+04  0.78293925556E+02 0.  0.
        254    2    1    2    0    0 -0.73082866705E+03  0.74863161649E+03 -0.21305959668E+02  0.13713294751E+04  0.88630172489E+03 0.  0.
         23    2    4    4    0    0 -0.74319523643E+03  0.39869372979E+03 -0.31503992167E+03  0.90509292508E+03  0.92990328318E+02 0.  0.
         23    2    4    4    0    0  0.12366569386E+02  0.34993788670E+03  0.29373396200E+03  0.46623655001E+03  0.92127213921E+02 0.  0.
          1    1    3    3  502    0  0.69629634491E+03 -0.68644174100E+03  0.19567698171E+03  0.99715612864E+03  0.00000000000E+00 0. -1.
         -2    1    3    3    0  502  0.34532322135E+02 -0.62189875495E+02  0.20402365904E+02  0.74002151459E+02  0.00000000000E+00 0.  1.
         11    1    5    5    0    0 -0.11500678935E+03  0.99908718438E+02 -0.44468810136E+02  0.15870031094E+03  0.00000000000E+00 0.  1.
        -11    1    5    5    0    0 -0.62818844708E+03  0.29878501135E+03 -0.27057111153E+03  0.74639261415E+03  0.00000000000E+00 0. -1.
          4    1    6    6  503    0  0.55080407419E+01  0.71784598490E+01  0.36578153333E+02  0.37680632955E+02  0.00000000000E+00 0.  1.
         -4    1    6    6    0  503  0.68585286439E+01  0.34275942685E+03  0.25715580867E+03  0.42855591705E+03  0.00000000000E+00 0. -1.
<mgrwt>
<rscale>  0 0.24347094E+04</rscale>
<asrwt>0</asrwt>
<pdfrwt beam="1">  1        1 0.20286624E+00 0.24347094E+04</pdfrwt>
<pdfrwt beam="2">  1       -2 0.17290111E+00 0.24347094E+04</pdfrwt>
<totfact> 0.13984003E+00</totfact>
</mgrwt>
</event>
<event>
12    4  0.4381187E-008  0.1373454E+04  0.7818608E-02  0.8973261E-01
         -2   -1    0    0    0  501 -0.00000000000E+00  0.00000000000E+00  0.70091312434E+03  0.70091312434E+03  0.00000000000E+00 0.  1.
          1   -1    0    0  501    0  0.00000000000E+00 -0.00000000000E+00 -0.67282834439E+03  0.67282834439E+03  0.00000000000E+00 0. -1.
        -24    2    1    2    0    0  0.11613209764E+03 -0.20457138164E+03 -0.28967165775E+03  0.38145931680E+03  0.79154448913E+02 0.  0.
        254    2    1    2    0    0 -0.11613209764E+03  0.20457138164E+03  0.31775643770E+03  0.99228215194E+03  0.91012010255E+03 0.  0.
         23    2    4    4    0    0 -0.40446110193E+03  0.38193476835E+03  0.30805948790E+03  0.64262236838E+03  0.92735699703E+02 0.  0.
         23    2    4    4    0    0  0.28832900429E+03 -0.17736338671E+03  0.96969497939E+01  0.34965978356E+03  0.87043367008E+02 0.  0.
          1    1    3    3  502    0  0.43369946143E+02 -0.14610170765E+03 -0.15299500991E+03  0.21594937893E+03  0.00000000000E+00 0. -1.
         -2    1    3    3    0  502  0.72762151498E+02 -0.58469673995E+02 -0.13667664784E+03  0.16550993787E+03  0.00000000000E+00 0.  1.
         11    1    5    5    0    0 -0.18411194832E+03  0.23738898212E+03  0.16111076696E+03  0.34089209081E+03  0.00000000000E+00 0.  1.
        -11    1    5    5    0    0 -0.22034915361E+03  0.14454578623E+03  0.14694872094E+03  0.30173027757E+03  0.00000000000E+00 0. -1.
          4    1    6    6  503    0  0.41500823846E+02  0.60397392744E+01 -0.12632337696E+01  0.41957032664E+02  0.00000000000E+00 0. -1.
         -4    1    6    6    0  503  0.24682818045E+03 -0.18340312598E+03  0.10960183564E+02  0.30770275089E+03  0.00000000000E+00 0.  1.
<mgrwt>
<rscale>  0 0.13734544E+04</rscale>
<asrwt>0</asrwt>
<pdfrwt beam="1">  1        1 0.10351205E+00 0.13734544E+04</pdfrwt>
<pdfrwt beam="2">  1       -2 0.10783279E+00 0.13734544E+04</pdfrwt>
<totfact> 0.17058218E+01</totfact>
</mgrwt>
</event>
<event>
12    4  0.4381187E-008  0.1840326E+04  0.7818608E-02  0.8685144E-01
          1   -1    0    0  501    0  0.00000000000E+00  0.00000000000E+00  0.39380359727E+04  0.39380359727E+04  0.00000000000E+00 0. -1.
         -2   -1    0    0    0  501 -0.00000000000E+00 -0.00000000000E+00 -0.21500557620E+03  0.21500557620E+03  0.00000000000E+00 0.  1.
        -24    2    1    2    0    0  0.56796737903E+03  0.33484132658E+03  0.19865471681E+04  0.20946481990E+04  0.80472161790E+02 0.  0.
        254    2    1    2    0    0 -0.56796737903E+03 -0.33484132658E+03  0.17364832284E+04  0.20583933499E+04  0.88707582697E+03 0.  0.
         23    2    4    4    0    0 -0.26628851868E+03  0.91499878463E+02  0.13995868554E+04  0.14304508156E+04  0.89801821170E+02 0.  0.
         23    2    4    4    0    0 -0.30167886035E+03 -0.42634120504E+03  0.33689637299E+03  0.62794253430E+03  0.89642079132E+02 0.  0.
          3    1    3    3  502    0  0.49927858279E+03  0.29797292630E+03  0.18228747545E+04  0.19133581313E+04  0.00000000000E+00 0. -1.
         -4    1    3    3    0  502  0.68688796238E+02  0.36868400280E+02  0.16367241361E+03  0.18129006770E+03  0.00000000000E+00 0.  1.
         11    1    5    5    0    0 -0.17213179518E+03  0.96117946077E+02  0.82837284583E+03  0.85151017972E+03  0.00000000000E+00 0. -1.
        -11    1    5    5    0    0 -0.94156723500E+02 -0.46180676144E+01  0.57121400961E+03  0.57894063591E+03  0.00000000000E+00 0.  1.
          2    1    6    6  503    0 -0.26490946337E+03 -0.41222462181E+03  0.31890131697E+03  0.58464024201E+03  0.00000000000E+00 0. -1.
         -2    1    6    6    0  503 -0.36769396980E+02 -0.14116583224E+02  0.17995056021E+02  0.43302292288E+02  0.00000000000E+00 0.  1.
<mgrwt>
<rscale>  0 0.18403257E+04</rscale>
<asrwt>0</asrwt>
<pdfrwt beam="1">  1        1 0.60585164E+00 0.18403257E+04</pdfrwt>
<pdfrwt beam="2">  1       -2 0.33077784E-01 0.18403257E+04</pdfrwt>
<totfact> 0.77383868E-01</totfact>
</mgrwt>
</event>
<event>
12    4  0.4381187E-008  0.1677811E+04  0.7818608E-02  0.8774122E-01
          1   -1    0    0  501    0  0.00000000000E+00  0.00000000000E+00  0.89682466420E+03  0.89682466420E+03  0.00000000000E+00 0. -1.
         -2   -1    0    0    0  501 -0.00000000000E+00 -0.00000000000E+00 -0.78472695617E+03  0.78472695617E+03  0.00000000000E+00 0.  1.
        -24    2    1    2    0    0 -0.40662840948E+03  0.23426268062E+03 -0.32480717030E+03  0.57549805665E+03  0.73977350598E+02 0.  0.
        254    2    1    2    0    0  0.40662840948E+03 -0.23426268062E+03  0.43690487833E+03  0.11060535637E+04  0.90124521978E+03 0.  0.
         23    2    4    4    0    0  0.80961271131E+02 -0.24066224755E+03 -0.23220300511E+03  0.35543595442E+03  0.89125963070E+02 0.  0.
         23    2    4    4    0    0  0.32566713835E+03  0.63995669302E+01  0.66910788344E+03  0.75061760930E+03  0.98088716194E+02 0.  0.
          3    1    3    3  502    0 -0.97865357747E+02  0.80307059845E+02 -0.11907744654E+03  0.17379956957E+03  0.00000000000E+00 0. -1.
         -4    1    3    3    0  502 -0.30876305174E+03  0.15395562077E+03 -0.20572972376E+03  0.40169848708E+03  0.00000000000E+00 0.  1.
         11    1    5    5    0    0  0.59338259418E+02 -0.23143353910E+03 -0.23030772858E+03  0.33184960735E+03  0.00000000000E+00 0. -1.
        -11    1    5    5    0    0  0.21623011713E+02 -0.92287084481E+01 -0.18952765303E+01  0.23586347074E+02  0.00000000000E+00 0.  1.
          3    1    6    6  503    0  0.11146938215E+03 -0.15567602638E+02  0.33249905739E+03  0.35103190250E+03  0.00000000000E+00 0. -1.
         -3    1    6    6    0  503  0.21419775620E+03  0.21967169568E+02  0.33660882606E+03  0.39958570680E+03  0.00000000000E+00 0.  1.
<mgrwt>
<rscale>  0 0.16778111E+04</rscale>
<asrwt>0</asrwt>
<pdfrwt beam="1">  1        1 0.13797303E+00 0.16778111E+04</pdfrwt>
<pdfrwt beam="2">  1       -2 0.12072722E+00 0.16778111E+04</pdfrwt>
<totfact> 0.79992794E+00</totfact>
</mgrwt>
</event>
<event>
12    4  0.4381187E-008  0.1992715E+04  0.7818608E-02  0.8610034E-01
          1   -1    0    0  501    0  0.00000000000E+00  0.00000000000E+00  0.24756436028E+04  0.24756436028E+04  0.00000000000E+00 0. -1.
         -2   -1    0    0    0  501 -0.00000000000E+00 -0.00000000000E+00 -0.40099794035E+03  0.40099794035E+03  0.00000000000E+00 0.  1.
        -24    2    1    2    0    0  0.72905024543E+03 -0.28383010739E+03  0.68372743589E+03  0.10423854563E+04  0.83728386613E+02 0.  0.
        254    2    1    2    0    0 -0.72905024543E+03  0.28383010739E+03  0.13909182266E+04  0.18342560868E+04  0.90430530733E+03 0.  0.
         23    2    4    4    0    0 -0.57507972846E+03 -0.13505107724E+03  0.33693966775E+03  0.68613514560E+03  0.91091222289E+02 0.  0.
         23    2    4    4    0    0 -0.15397051697E+03  0.41888118463E+03  0.10539785588E+04  0.11481209412E+04  0.90235948071E+02 0.  0.
          1    1    3    3  502    0  0.17516328484E+03 -0.73816259516E+02  0.21520216170E+03  0.28712886815E+03  0.00000000000E+00 0. -1.
         -2    1    3    3    0  502  0.55388696059E+03 -0.21001384788E+03  0.46852527418E+03  0.75525658816E+03  0.00000000000E+00 0.  1.
         11    1    5    5    0    0 -0.16874921481E+03 -0.50425355162E+02  0.14823614075E+03  0.23020201425E+03  0.00000000000E+00 0. -1.
        -11    1    5    5    0    0 -0.40633051365E+03 -0.84625722073E+02  0.18870352701E+03  0.45593313135E+03  0.00000000000E+00 0.  1.
          4    1    6    6  503    0  0.93924850550E+01  0.27467009438E+02  0.99519751424E+02  0.10366694896E+03  0.00000000000E+00 0. -1.
         -4    1    6    6    0  503 -0.16336300203E+03  0.39141417519E+03  0.95445880738E+03  0.10444539923E+04  0.00000000000E+00 0.  1.
<mgrwt>
<rscale>  0 0.19927147E+04</rscale>
<asrwt>0</asrwt>
<pdfrwt beam="1">  1        1 0.38086824E+00 0.19927147E+04</pdfrwt>
<pdfrwt beam="2">  1       -2 0.61691992E-01 0.19927147E+04</pdfrwt>
<totfact> 0.28052956E+00</totfact>
</mgrwt>
</event>
<event>
12    4  0.4381187E-008  0.1934287E+04  0.7818608E-02  0.8637975E-01
          1   -1    0    0  501    0  0.00000000000E+00  0.00000000000E+00  0.23974521701E+04  0.23974521701E+04  0.00000000000E+00 0. -1.
         -2   -1    0    0    0  501 -0.00000000000E+00 -0.00000000000E+00 -0.39015036400E+03  0.39015036400E+03  0.00000000000E+00 0.  1.
        -24    2    1    2    0    0 -0.38130422302E+03 -0.48073840055E+03  0.14241474589E+04  0.15527299131E+04  0.79195190317E+02 0.  0.
        254    2    1    2    0    0  0.38130422302E+03  0.48073840055E+03  0.58315434723E+03  0.12348726210E+04  0.89907679158E+03 0.  0.
         23    2    4    4    0    0 -0.17785282186E+03  0.20600463426E+03 -0.10073708231E+03  0.30559768082E+03  0.95772893806E+02 0.  0.
         23    2    4    4    0    0  0.55915704488E+03  0.27473376630E+03  0.68389142955E+03  0.92927494019E+03  0.87801958257E+02 0.  0.
          1    1    3    3  502    0 -0.25340670981E+03 -0.37522997342E+03  0.10549254551E+04  0.11479896382E+04  0.00000000000E+00 0. -1.
         -2    1    3    3    0  502 -0.12789751321E+03 -0.10550842713E+03  0.36922200377E+03  0.40474027493E+03  0.00000000000E+00 0.  1.
         11    1    5    5    0    0 -0.21563054640E+02 -0.45475596274E+00 -0.30394807280E+02  0.37269510836E+02  0.00000000000E+00 0. -1.
        -11    1    5    5    0    0 -0.15628976722E+03  0.20645939022E+03 -0.70342275034E+02  0.26832816998E+03  0.00000000000E+00 0.  1.
          4    1    6    6  503    0  0.49075217280E+02  0.35926802148E+01  0.34296105412E+02  0.59979222641E+02  0.00000000000E+00 0. -1.
         -4    1    6    6    0  503  0.51008182760E+03  0.27114108608E+03  0.64959532413E+03  0.86929571755E+03  0.00000000000E+00 0.  1.
<mgrwt>
<rscale>  0 0.19342873E+04</rscale>
<asrwt>0</asrwt>
<pdfrwt beam="1">  1        1 0.36883879E+00 0.19342873E+04</pdfrwt>
<pdfrwt beam="2">  1       -2 0.60023134E-01 0.19342873E+04</pdfrwt>
<totfact> 0.33840732E+00</totfact>
</mgrwt>
</event>
<event>
12    4  0.4381187E-008  0.1101384E+04  0.7818608E-02  0.9203844E-01
         -2   -1    0    0    0  501 -0.00000000000E+00  0.00000000000E+00  0.25411649768E+03  0.25411649768E+03  0.00000000000E+00 0.  1.
          1   -1    0    0  501    0  0.00000000000E+00 -0.00000000000E+00 -0.11933956855E+04  0.11933956855E+04  0.00000000000E+00 0. -1.
        -24    2    1    2    0    0  0.50039386800E+02 -0.31576048405E+02 -0.35089047662E+03  0.36443731538E+03  0.78673014397E+02 0.  0.
        254    2    1    2    0    0 -0.50039386800E+02  0.31576048405E+02 -0.58838871120E+03  0.10830748678E+04  0.90738575409E+03 0.  0.
         23    2    4    4    0    0 -0.38395368590E+02  0.28725877091E+03 -0.71832106627E+03  0.77975230092E+03  0.89647591973E+02 0.  0.
         23    2    4    4    0    0 -0.11644018210E+02 -0.25568272251E+03  0.12993235507E+03  0.30332256687E+03  0.98045524791E+02 0.  0.
          3    1    3    3  502    0  0.62552366772E+02 -0.22488474140E+02 -0.16473396025E+03  0.17763954435E+03  0.00000000000E+00 0. -1.
         -4    1    3    3    0  502 -0.12512979972E+02 -0.90875742650E+01 -0.18615651637E+03  0.18679777103E+03  0.00000000000E+00 0.  1.
         11    1    5    5    0    0 -0.52452065946E+02  0.23899802530E+03 -0.51297929146E+03  0.56834763023E+03  0.00000000000E+00 0. -1.
        -11    1    5    5    0    0  0.14056697356E+02  0.48260745611E+02 -0.20534177482E+03  0.21140467070E+03  0.00000000000E+00 0.  1.
          2    1    6    6  503    0 -0.21518019364E+02 -0.19160926703E+03  0.47732994331E+02  0.19863427478E+03  0.00000000000E+00 0. -1.
         -2    1    6    6    0  503  0.98740011542E+01 -0.64073455478E+02  0.82199360741E+02  0.10468829210E+03  0.00000000000E+00 0.  1.
<mgrwt>
<rscale>  0 0.11013837E+04</rscale>
<asrwt>0</asrwt>
<pdfrwt beam="1">  1        1 0.18359934E+00 0.11013837E+04</pdfrwt>
<pdfrwt beam="2">  1       -2 0.39094846E-01 0.11013837E+04</pdfrwt>
<totfact> 0.58378573E+01</totfact>
</mgrwt>
</event>
<event>
12    4  0.4381187E-008  0.2421602E+04  0.7818608E-02  0.8431460E-01
          1   -1    0    0  501    0  0.00000000000E+00  0.00000000000E+00  0.15267191892E+04  0.15267191892E+04  0.00000000000E+00 0. -1.
         -2   -1    0    0    0  501 -0.00000000000E+00 -0.00000000000E+00 -0.96025479858E+03  0.96025479858E+03  0.00000000000E+00 0.  1.
        -24    2    1    2    0    0 -0.91681484377E+03  0.32626280947E+03  0.61363309317E+03  0.11531852220E+04  0.79332871526E+02 0.  0.
        254    2    1    2    0    0  0.91681484377E+03 -0.32626280947E+03 -0.47168702513E+02  0.13337887659E+04  0.91091750827E+03 0.  0.
         23    2    4    4    0    0 -0.12969599532E+03  0.41311912858E+02  0.12828255456E+03  0.20711372592E+03  0.88949178257E+02 0.  0.
         23    2    4    4    0    0  0.10465108391E+04 -0.36757472232E+03 -0.17545125707E+03  0.11266750400E+04  0.91199721592E+02 0.  0.
          1    1    3    3  502    0 -0.45334329942E+03  0.18670842374E+03  0.34616009352E+03  0.60017246935E+03  0.00000000000E+00 0. -1.
         -2    1    3    3    0  502 -0.46347154435E+03  0.13955438572E+03  0.26747299965E+03  0.55301275260E+03  0.00000000000E+00 0.  1.
         11    1    5    5    0    0 -0.10492380009E+03  0.16062651384E+02  0.42525026801E+02  0.11434767378E+03  0.00000000000E+00 0. -1.
        -11    1    5    5    0    0 -0.24772195232E+02  0.25249261473E+02  0.85757527758E+02  0.92766052135E+02  0.00000000000E+00 0.  1.
          1    1    6    6  503    0  0.10297143230E+04 -0.35415956363E+03 -0.16095694088E+03  0.11007487090E+04  0.00000000000E+00 0. -1.
         -1    1    6    6    0  503  0.16796516068E+02 -0.13415158691E+02 -0.14494316192E+02  0.25926330951E+02  0.00000000000E+00 0.  1.
<mgrwt>
<rscale>  0 0.24216023E+04</rscale>
<asrwt>0</asrwt>
<pdfrwt beam="1">  1        1 0.23487988E+00 0.24216023E+04</pdfrwt>
<pdfrwt beam="2">  1       -2 0.14773151E+00 0.24216023E+04</pdfrwt>
<totfact> 0.15359294E+00</totfact>
</mgrwt>
</event>
<event>
12    4  0.4381187E-008  0.1369260E+04  0.7818608E-02  0.8976375E-01
         -2   -1    0    0    0  501 -0.00000000000E+00  0.00000000000E+00  0.51923704885E+03  0.51923704885E+03  0.00000000000E+00 0.  1.
          1   -1    0    0  501    0  0.00000000000E+00 -0.00000000000E+00 -0.90270567037E+03  0.90270567037E+03  0.00000000000E+00 0. -1.
        -24    2    1    2    0    0 -0.39948725767E+02 -0.32192221214E+03 -0.31004887331E+03  0.45672260414E+03  0.85061283420E+02 0.  0.
        254    2    1    2    0    0  0.39948725767E+02  0.32192221214E+03 -0.73419748213E+02  0.96522011507E+03  0.90610683683E+03 0.  0.
         23    2    4    4    0    0  0.33933007398E+03  0.11241911590E+03  0.26936159521E+03  0.45663191151E+03  0.90410601718E+02 0.  0.
         23    2    4    4    0    0 -0.29938134821E+03  0.20950309624E+03 -0.34278134342E+03  0.50858820356E+03  0.87419519616E+02 0.  0.
          3    1    3    3  502    0 -0.35733772970E+01 -0.23109161969E+03 -0.17472823454E+03  0.28973446751E+03  0.00000000000E+00 0. -1.
         -4    1    3    3    0  502 -0.36375348470E+02 -0.90830592452E+02 -0.13532063877E+03  0.16698813664E+03  0.00000000000E+00 0.  1.
         11    1    5    5    0    0  0.61512024634E+02  0.56455421093E+02  0.81129474031E+02  0.11641707479E+03  0.00000000000E+00 0. -1.
        -11    1    5    5    0    0  0.27781804935E+03  0.55963694804E+02  0.18823212118E+03  0.34021483672E+03  0.00000000000E+00 0.  1.
          4    1    6    6  503    0 -0.12753833009E+03  0.40532864969E+02 -0.13940430384E+03  0.19324207284E+03  0.00000000000E+00 0. -1.
         -4    1    6    6    0  503 -0.17184301812E+03  0.16897023127E+03 -0.20337703959E+03  0.31534613073E+03  0.00000000000E+00 0.  1.
<mgrwt>
<rscale>  0 0.13692600E+04</rscale>
<asrwt>0</asrwt>
<pdfrwt beam="1">  1        1 0.13887779E+00 0.13692600E+04</pdfrwt>
<pdfrwt beam="2">  1       -2 0.79882623E-01 0.13692600E+04</pdfrwt>
<totfact> 0.21509397E+01</totfact>
</mgrwt>
</event>
<event>
12    4  0.4381187E-008  0.1435858E+04  0.7818608E-02  0.8928264E-01
         -2   -1    0    0    0  501 -0.00000000000E+00  0.00000000000E+00  0.12494632610E+04  0.12494632610E+04  0.00000000000E+00 0.  1.
          1   -1    0    0  501    0  0.00000000000E+00 -0.00000000000E+00 -0.41251476335E+03  0.41251476335E+03  0.00000000000E+00 0. -1.
        -24    2    1    2    0    0 -0.55024355740E+02  0.86348631991E+02  0.75230923338E+03  0.76347606510E+03  0.80266763863E+02 0.  0.
        254    2    1    2    0    0  0.55024355740E+02 -0.86348631991E+02  0.84639264248E+02  0.89850195922E+03  0.88862714324E+03 0.  0.
         23    2    4    4    0    0 -0.36838215615E+03 -0.23482844589E+02 -0.14103351440E+03  0.40591792386E+03  0.92855004010E+02 0.  0.
         23    2    4    4    0    0  0.42340651189E+03 -0.62865787402E+02  0.22567277865E+03  0.49258403537E+03  0.92117573463E+02 0.  0.
          3    1    3    3  502    0 -0.29086202879E+02  0.20495833951E+02  0.81314473744E+02  0.88758830814E+02  0.00000000000E+00 0. -1.
         -4    1    3    3    0  502 -0.25938152861E+02  0.65852798040E+02  0.67099475964E+03  0.67471723429E+03  0.00000000000E+00 0.  1.
         11    1    5    5    0    0 -0.22867280601E+03  0.16344843093E+02 -0.12111856814E+03  0.25928384765E+03  0.00000000000E+00 0. -1.
        -11    1    5    5    0    0 -0.13970935014E+03 -0.39827687682E+02 -0.19914946264E+02  0.14663407621E+03  0.00000000000E+00 0.  1.
          1    1    6    6  503    0  0.37239669619E+03 -0.26225254341E+02  0.20793444028E+03  0.42732165257E+03  0.00000000000E+00 0. -1.
         -1    1    6    6    0  503  0.51009815698E+02 -0.36640533061E+02  0.17738338366E+02  0.65262382798E+02  0.00000000000E+00 0.  1.
<mgrwt>
<rscale>  0 0.14358580E+04</rscale>
<asrwt>0</asrwt>
<pdfrwt beam="1">  1        1 0.63463810E-01 0.14358580E+04</pdfrwt>
<pdfrwt beam="2">  1       -2 0.19222512E+00 0.14358580E+04</pdfrwt>
<totfact> 0.73204214E+00</totfact>
</mgrwt>
</event>
<event>
12    4  0.4381187E-008  0.1401238E+04  0.7818608E-02  0.8952923E-01
          1   -1    0    0  501    0  0.00000000000E+00  0.00000000000E+00  0.40791495637E+03  0.40791495637E+03  0.00000000000E+00 0. -1.
         -2   -1    0    0    0  501 -0.00000000000E+00 -0.00000000000E+00 -0.12033570055E+04  0.12033570055E+04  0.00000000000E+00 0.  1.
        -24    2    1    2    0    0  0.19464963121E+03  0.17165241664E+03 -0.59947161604E+03  0.65801526209E+03  0.79150714702E+02 0.  0.
        254    2    1    2    0    0 -0.19464963121E+03 -0.17165241664E+03 -0.19597043311E+03  0.95325669980E+03  0.89606969260E+03 0.  0.
         23    2    4    4    0    0  0.11062145690E+03  0.29870048188E+03 -0.19647072193E+03  0.38495855628E+03  0.90184593319E+02 0.  0.
         23    2    4    4    0    0 -0.30527108811E+03 -0.47035289852E+03  0.50028882558E+00  0.56829814352E+03  0.92413436594E+02 0.  0.
          3    1    3    3  502    0  0.37057763927E+02  0.71864635748E+02 -0.23615702331E+03  0.24961559125E+03  0.00000000000E+00 0. -1.
         -4    1    3    3    0  502  0.15759186728E+03  0.99787780896E+02 -0.36331459273E+03  0.40839967084E+03  0.00000000000E+00 0.  1.
         11    1    5    5    0    0  0.11680577021E+03  0.24247763517E+03 -0.13390367660E+03  0.30061468047E+03  0.00000000000E+00 0. -1.
        -11    1    5    5    0    0 -0.61843133052E+01  0.56222846710E+02 -0.62567045337E+02  0.84343875803E+02  0.00000000000E+00 0.  1.
          3    1    6    6  503    0 -0.28058003589E+03 -0.42435991541E+03 -0.26709028572E+02  0.50943092422E+03  0.00000000000E+00 0. -1.
         -3    1    6    6    0  503 -0.24691052213E+02 -0.45992983111E+02  0.27209317398E+02  0.58867219300E+02  0.00000000000E+00 0.  1.
<mgrwt>
<rscale>  0 0.14012385E+04</rscale>
<asrwt>0</asrwt>
<pdfrwt beam="1">  1        1 0.62756146E-01 0.14012385E+04</pdfrwt>
<pdfrwt beam="2">  1       -2 0.18513185E+00 0.14012385E+04</pdfrwt>
<totfact> 0.83176501E+00</totfact>
</mgrwt>
</event>
<event>
12    4  0.4381187E-008  0.1573974E+04  0.7818608E-02  0.8836698E-01
         -2   -1    0    0    0  501 -0.00000000000E+00  0.00000000000E+00  0.39463483174E+03  0.39463483174E+03  0.00000000000E+00 0.  1.
          1   -1    0    0  501    0  0.00000000000E+00 -0.00000000000E+00 -0.15694222173E+04  0.15694222173E+04  0.00000000000E+00 0. -1.
        -24    2    1    2    0    0  0.39849569714E+03  0.29684913940E+02 -0.81674923965E+03  0.91272270251E+03  0.79393932097E+02 0.  0.
        254    2    1    2    0    0 -0.39849569714E+03 -0.29684913940E+02 -0.35803814588E+03  0.10513343465E+04  0.90411978159E+03 0.  0.
         23    2    4    4    0    0  0.19747688739E+03  0.13927122652E+03  0.98691802115E+02  0.27640863793E+03  0.90928915791E+02 0.  0.
         23    2    4    4    0    0 -0.59597258454E+03 -0.16895614046E+03 -0.45672994800E+03  0.77492570857E+03  0.90432900439E+02 0.  0.
          1    1    3    3  502    0  0.25852857389E+03 -0.92086439097E+01 -0.57800528673E+03  0.63325503088E+03  0.00000000000E+00 0. -1.
         -2    1    3    3    0  502  0.13996712325E+03  0.38893557850E+02 -0.23874395291E+03  0.27946767163E+03  0.00000000000E+00 0.  1.
         11    1    5    5    0    0  0.16984167190E+03  0.76374689132E+02  0.52013649753E+02  0.19335125139E+03  0.00000000000E+00 0. -1.
        -11    1    5    5    0    0  0.27635215490E+02  0.62896537384E+02  0.46678152362E+02  0.83057386535E+02  0.00000000000E+00 0.  1.
          3    1    6    6  503    0 -0.24287671345E+03 -0.35031981735E+02 -0.14335455998E+03  0.28419512231E+03  0.00000000000E+00 0. -1.
         -3    1    6    6    0  503 -0.35309587109E+03 -0.13392415872E+03 -0.31337538802E+03  0.49073058626E+03  0.00000000000E+00 0.  1.
<mgrwt>
<rscale>  0 0.15739742E+04</rscale>
<asrwt>0</asrwt>
<pdfrwt beam="1">  1        1 0.24144958E+00 0.15739742E+04</pdfrwt>
<pdfrwt beam="2">  1       -2 0.60713050E-01 0.15739742E+04</pdfrwt>
<totfact> 0.12484119E+01</totfact>
</mgrwt>
</event>
<event>
12    4  0.4381187E-008  0.1632476E+04  0.7818608E-02  0.8800841E-01
         -2   -1    0    0    0  501 -0.00000000000E+00  0.00000000000E+00  0.51247652836E+03  0.51247652836E+03  0.00000000000E+00 0.  1.
          1   -1    0    0  501    0  0.00000000000E+00 -0.00000000000E+00 -0.13000488505E+04  0.13000488505E+04  0.00000000000E+00 0. -1.
        -24    2    1    2    0    0 -0.51096369433E+03 -0.16810997795E+03 -0.88276590424E+02  0.55127946778E+03  0.82288720749E+02 0.  0.
        254    2    1    2    0    0  0.51096369433E+03  0.16810997795E+03 -0.69929573170E+03  0.12612459111E+04  0.90132228763E+03 0.  0.
         23    2    4    4    0    0  0.44262211205E+03  0.10144903446E+03  0.80640983237E+02  0.47017810284E+03  0.91423408079E+02 0.  0.
         23    2    4    4    0    0  0.68341582277E+02  0.66660943493E+02 -0.77993671494E+03  0.79106780822E+03  0.91502702878E+02 0.  0.
          1    1    3    3  502    0 -0.57813513701E+02 -0.45941532667E+02 -0.23542461396E+02  0.77506607969E+02  0.00000000000E+00 0. -1.
         -2    1    3    3    0  502 -0.45315018063E+03 -0.12216844529E+03 -0.64734129028E+02  0.47377285981E+03  0.00000000000E+00 0.  1.
         11    1    5    5    0    0  0.28425065473E+03  0.24913904757E+02  0.28732536479E+02  0.28678336078E+03  0.00000000000E+00 0.  1.
        -11    1    5    5    0    0  0.15837145732E+03  0.76535129705E+02  0.51908446759E+02  0.18339474207E+03  0.00000000000E+00 0. -1.
          3    1    6    6  503    0 -0.20143366122E+02 -0.98384466615E+00 -0.93143312626E+02  0.95301625568E+02  0.00000000000E+00 0. -1.
         -3    1    6    6    0  503  0.88484948400E+02  0.67644788159E+02 -0.68679340232E+03  0.69576618265E+03  0.00000000000E+00 0.  1.
<mgrwt>
<rscale>  0 0.16324761E+04</rscale>
<asrwt>0</asrwt>
<pdfrwt beam="1">  1        1 0.20000751E+00 0.16324761E+04</pdfrwt>
<pdfrwt beam="2">  1       -2 0.78842544E-01 0.16324761E+04</pdfrwt>
<totfact> 0.10845447E+01</totfact>
</mgrwt>
</event>
<event>
12    4  0.4381187E-008  0.1509240E+04  0.7818608E-02  0.8878331E-01
          1   -1    0    0  501    0  0.00000000000E+00  0.00000000000E+00  0.25055473300E+04  0.25055473300E+04  0.00000000000E+00 0. -1.
         -2   -1    0    0    0  501 -0.00000000000E+00 -0.00000000000E+00 -0.22727637735E+03  0.22727637735E+03  0.00000000000E+00 0.  1.
        -24    2    1    2    0    0 -0.40759013337E+03  0.11004551252E+03  0.11004363843E+04  0.11813431015E+04  0.79822026571E+02 0.  0.
        254    2    1    2    0    0  0.40759013337E+03 -0.11004551252E+03  0.11778345684E+04  0.15514806059E+04  0.91736474114E+03 0.  0.
         23    2    4    4    0    0  0.39359602126E+03 -0.27206426372E+03  0.15389150959E+03  0.51069755875E+03  0.90513028060E+02 0.  0.
         23    2    4    4    0    0  0.13994112106E+02  0.16201875119E+03  0.10239430588E+04  0.10407830471E+04  0.91236246185E+02 0.  0.
          1    1    3    3  502    0 -0.27078451982E+03  0.41104754459E+02  0.76590998694E+03  0.81340762542E+03  0.00000000000E+00 0. -1.
         -2    1    3    3    0  502 -0.13680561355E+03  0.68940758062E+02  0.33452639737E+03  0.36793547608E+03  0.00000000000E+00 0.  1.
         11    1    5    5    0    0  0.24296010229E+03 -0.11838256558E+03  0.10549873765E+03  0.29012760431E+03  0.00000000000E+00 0.  1.
        -11    1    5    5    0    0  0.15063591898E+03 -0.15368169814E+03  0.48392771939E+02  0.22056995445E+03  0.00000000000E+00 0. -1.
          2    1    6    6  503    0  0.26466279933E+02  0.26450679994E+01  0.14946123907E+03  0.15180949358E+03  0.00000000000E+00 0.  1.
         -2    1    6    6    0  503 -0.12472167827E+02  0.15937368320E+03  0.87448181973E+03  0.88897355354E+03  0.00000000000E+00 0. -1.
<mgrwt>
<rscale>  0 0.15092405E+04</rscale>
<asrwt>0</asrwt>
<pdfrwt beam="1">  1        1 0.38546880E+00 0.15092405E+04</pdfrwt>
<pdfrwt beam="2">  1       -2 0.34965598E-01 0.15092405E+04</pdfrwt>
<totfact> 0.87704124E+00</totfact>
</mgrwt>
</event>
<event>
12    4  0.4381187E-008  0.2493982E+04  0.7818608E-02  0.8405133E-01
         -2   -1    0    0    0  501 -0.00000000000E+00  0.00000000000E+00  0.37145287807E+04  0.37145287807E+04  0.00000000000E+00 0.  1.
          1   -1    0    0  501    0  0.00000000000E+00 -0.00000000000E+00 -0.41862285521E+03  0.41862285521E+03  0.00000000000E+00 0. -1.
        -24    2    1    2    0    0 -0.17776982049E+03  0.44968334109E+03 -0.17067125697E+03  0.51916178439E+03  0.81136083702E+02 0.  0.
        254    2    1    2    0    0  0.17776982049E+03 -0.44968334109E+03  0.34665771825E+04  0.36139898515E+04  0.89997114880E+03 0.  0.
         23    2    4    4    0    0  0.45488472808E+03 -0.25332915914E+03  0.28961621092E+04  0.29440558078E+04  0.92810869575E+02 0.  0.
         23    2    4    4    0    0 -0.27711490759E+03 -0.19635418196E+03  0.57041507324E+03  0.66993404378E+03  0.89947931943E+02 0.  0.
          1    1    3    3  502    0 -0.12438392415E+03  0.39358887412E+03 -0.14737445872E+03  0.43829532681E+03  0.00000000000E+00 0. -1.
         -2    1    3    3    0  502 -0.53385896334E+02  0.56094466970E+02 -0.23296798247E+02  0.80866457575E+02  0.00000000000E+00 0.  1.
         11    1    5    5    0    0  0.45754565098E+03 -0.25018751636E+03  0.28898185134E+04  0.29364932924E+04  0.00000000000E+00 0. -1.
        -11    1    5    5    0    0 -0.26609228975E+01 -0.31416427773E+01  0.63435958266E+01  0.75625153235E+01  0.00000000000E+00 0.  1.
          1    1    6    6  503    0 -0.18695710422E+03 -0.17910588544E+03  0.40284441709E+03  0.47886898145E+03  0.00000000000E+00 0. -1.
         -1    1    6    6    0  503 -0.90157803369E+02 -0.17248296519E+02  0.16757065615E+03  0.19106506233E+03  0.00000000000E+00 0.  1.
<mgrwt>
<rscale>  0 0.24939821E+04</rscale>
<asrwt>0</asrwt>
<pdfrwt beam="1">  1        1 0.64403519E-01 0.24939821E+04</pdfrwt>
<pdfrwt beam="2">  1       -2 0.57146594E+00 0.24939821E+04</pdfrwt>
<totfact> 0.29074270E-02</totfact>
</mgrwt>
</event>
<event>
12    4  0.4381187E-008  0.1759441E+04  0.7818608E-02  0.8728171E-01
          1   -1    0    0  501    0  0.00000000000E+00  0.00000000000E+00  0.87416902148E+03  0.87416902148E+03  0.00000000000E+00 0. -1.
         -2   -1    0    0    0  501 -0.00000000000E+00 -0.00000000000E+00 -0.88530728303E+03  0.88530728303E+03  0.00000000000E+00 0.  1.
        -24    2    1    2    0    0  0.49402656328E+03  0.18500973257E+03 -0.37584631934E+03  0.65265094176E+03  0.80012184377E+02 0.  0.
        254    2    1    2    0    0 -0.49402656328E+03 -0.18500973257E+03  0.36470805779E+03  0.11068253627E+04  0.90208623193E+03 0.  0.
         23    2    4    4    0    0 -0.45634319481E+03  0.89465502301E+02  0.57631860499E+03  0.74610027787E+03  0.90935705995E+02 0.  0.
         23    2    4    4    0    0 -0.37683368472E+02 -0.27447523487E+03 -0.21161054720E+03  0.36072508488E+03  0.92665378412E+02 0.  0.
          1    1    3    3  502    0  0.16466750694E+03  0.34130208966E+02 -0.15281078305E+03  0.22722542644E+03  0.00000000000E+00 0. -1.
         -2    1    3    3    0  502  0.32935905634E+03  0.15087952361E+03 -0.22303553629E+03  0.42542551532E+03  0.00000000000E+00 0.  1.
         11    1    5    5    0    0 -0.43509490806E+03  0.10479103749E+03  0.54789790489E+03  0.70744671513E+03  0.00000000000E+00 0.  1.
        -11    1    5    5    0    0 -0.21248286746E+02 -0.15325535185E+02  0.28420700096E+02  0.38653562737E+02  0.00000000000E+00 0. -1.
          1    1    6    6  503    0  0.10101620746E+02 -0.22374407843E+02  0.48537332854E+01  0.25024300087E+02  0.00000000000E+00 0. -1.
         -1    1    6    6    0  503 -0.47784989217E+02 -0.25210082703E+03 -0.21646428049E+03  0.33570078479E+03  0.00000000000E+00 0.  1.
<mgrwt>
<rscale>  0 0.17594410E+04</rscale>
<asrwt>0</asrwt>
<pdfrwt beam="1">  1        1 0.13448754E+00 0.17594410E+04</pdfrwt>
<pdfrwt beam="2">  1       -2 0.13620112E+00 0.17594410E+04</pdfrwt>
<totfact> 0.61149934E+00</totfact>
</mgrwt>
</event>
<event>
12    4  0.4381187E-008  0.2065210E+04  0.7818608E-02  0.8576726E-01
          1   -1    0    0  501    0  0.00000000000E+00  0.00000000000E+00  0.25960549344E+04  0.25960549344E+04  0.00000000000E+00 0. -1.
         -2   -1    0    0    0  501 -0.00000000000E+00 -0.00000000000E+00 -0.41072810512E+03  0.41072810512E+03  0.00000000000E+00 0.  1.
        -24    2    1    2    0    0 -0.41746438583E+03  0.63796491073E+02 -0.13622854364E+03  0.45056905663E+03  0.78152114386E+02 0.  0.
        254    2    1    2    0    0  0.41746438583E+03 -0.63796491073E+02  0.23215553729E+04  0.25562139829E+04  0.98298731989E+03 0.  0.
         23    2    4    4    0    0  0.10420909725E+02 -0.36136623398E+03  0.32429213034E+03  0.49431612392E+03  0.92135194944E+02 0.  0.
         23    2    4    4    0    0  0.40704347610E+03  0.29756974291E+03  0.19972632426E+04  0.20618978589E+04  0.90167495841E+02 0.  0.
          1    1    3    3  502    0 -0.21952915914E+03  0.30781165523E+02 -0.30545588583E+02  0.22377123329E+03  0.00000000000E+00 0. -1.
         -2    1    3    3    0  502 -0.19793522668E+03  0.33015325550E+02 -0.10568295505E+03  0.22679782334E+03  0.00000000000E+00 0.  1.
         11    1    5    5    0    0 -0.82647806398E+01 -0.32110627353E+03  0.24705012217E+03  0.40522994505E+03  0.00000000000E+00 0. -1.
        -11    1    5    5    0    0  0.18685690365E+02 -0.40259960450E+02  0.77242008174E+02  0.89086178876E+02  0.00000000000E+00 0.  1.
          1    1    6    6  503    0  0.25212097700E+03  0.17488226357E+03  0.13829789375E+04  0.14166084620E+04  0.00000000000E+00 0. -1.
         -1    1    6    6    0  503  0.15492249910E+03  0.12268747934E+03  0.61428430506E+03  0.64528939690E+03  0.00000000000E+00 0.  1.
<mgrwt>
<rscale>  0 0.20652096E+04</rscale>
<asrwt>0</asrwt>
<pdfrwt beam="1">  1        1 0.39939305E+00 0.20652096E+04</pdfrwt>
<pdfrwt beam="2">  1       -2 0.63188941E-01 0.20652096E+04</pdfrwt>
<totfact> 0.21840969E+00</totfact>
</mgrwt>
</event>
<event>
12    4  0.4381187E-008  0.3110841E+04  0.7818608E-02  0.8212769E-01
         -2   -1    0    0    0  501 -0.00000000000E+00  0.00000000000E+00  0.11087103491E+04  0.11087103491E+04  0.00000000000E+00 0.  1.
          1   -1    0    0  501    0  0.00000000000E+00 -0.00000000000E+00 -0.21821151769E+04  0.21821151769E+04  0.00000000000E+00 0. -1.
        -24    2    1    2    0    0  0.53694574541E+03 -0.61398704443E+03 -0.17247676118E+04  0.19095852627E+04  0.80010854268E+02 0.  0.
        254    2    1    2    0    0 -0.53694574541E+03  0.61398704443E+03  0.65136278390E+03  0.13812402633E+04  0.90457745075E+03 0.  0.
         23    2    4    4    0    0 -0.70920270448E+03  0.66063483910E+03  0.38301259238E+03  0.10466056285E+04  0.96321487592E+02 0.  0.
         23    2    4    4    0    0  0.17225695907E+03 -0.46647794666E+02  0.26835019151E+03  0.33463463479E+03  0.90111246915E+02 0.  0.
          3    1    3    3  502    0  0.23948578231E+03 -0.24832820234E+03 -0.64656272694E+03  0.73284629758E+03  0.00000000000E+00 0. -1.
         -4    1    3    3    0  502  0.29745996310E+03 -0.36565884209E+03 -0.10782048848E+04  0.11767389651E+04  0.00000000000E+00 0.  1.
         11    1    5    5    0    0 -0.10740317292E+03  0.99496890658E+02  0.96396031962E+02  0.17529195013E+03  0.00000000000E+00 0.  1.
        -11    1    5    5    0    0 -0.60179953157E+03  0.56113794844E+03  0.28661656042E+03  0.87131367835E+03  0.00000000000E+00 0. -1.
          4    1    6    6  503    0  0.56574509230E+02 -0.38122213221E+02  0.41508316116E+02  0.79855610587E+02  0.00000000000E+00 0. -1.
         -4    1    6    6    0  503  0.11568244984E+03 -0.85255814449E+01  0.22684187540E+03  0.25477902421E+03  0.00000000000E+00 0.  1.
<mgrwt>
<rscale>  0 0.31108415E+04</rscale>
<asrwt>0</asrwt>
<pdfrwt beam="1">  1        1 0.33571003E+00 0.31108415E+04</pdfrwt>
<pdfrwt beam="2">  1       -2 0.17057082E+00 0.31108415E+04</pdfrwt>
<totfact> 0.35074391E-01</totfact>
</mgrwt>
</event>
<event>
12    4  0.4381187E-008  0.2628692E+04  0.7818608E-02  0.8358520E-01
          1   -1    0    0  501    0  0.00000000000E+00  0.00000000000E+00  0.21940270757E+04  0.21940270757E+04  0.00000000000E+00 0. -1.
         -2   -1    0    0    0  501 -0.00000000000E+00 -0.00000000000E+00 -0.78736761226E+03  0.78736761226E+03  0.00000000000E+00 0.  1.
        -24    2    1    2    0    0  0.11277661944E+04 -0.22441778473E+03  0.78294335056E+03  0.13934322828E+04  0.80207888170E+02 0.  0.
        254    2    1    2    0    0 -0.11277661944E+04  0.22441778473E+03  0.62371611284E+03  0.15879624051E+04  0.90021268560E+03 0.  0.
         23    2    4    4    0    0 -0.44425518071E+03 -0.34164352306E+03  0.21435742184E+03  0.60636757633E+03  0.87461825299E+02 0.  0.
         23    2    4    4    0    0 -0.68351101366E+03  0.56606130779E+03  0.40935869100E+03  0.98159482877E+03  0.91329951289E+02 0.  0.
          3    1    3    3  502    0  0.98230951589E+03 -0.18325523102E+03  0.70838324944E+03  0.12248760316E+04  0.00000000000E+00 0. -1.
         -4    1    3    3    0  502  0.14545667848E+03 -0.41162553711E+02  0.74560101117E+02  0.16855625121E+03  0.00000000000E+00 0.  1.
         11    1    5    5    0    0 -0.20083753881E+02 -0.45810514366E+02  0.21214972815E+02  0.54332637226E+02  0.00000000000E+00 0. -1.
        -11    1    5    5    0    0 -0.42417142683E+03 -0.29583300870E+03  0.19314244902E+03  0.55203493910E+03  0.00000000000E+00 0.  1.
          3    1    6    6  503    0 -0.23882389215E+03  0.14418829359E+03  0.11786656373E+03  0.30285250917E+03  0.00000000000E+00 0. -1.
         -3    1    6    6    0  503 -0.44468712152E+03  0.42187301420E+03  0.29149212727E+03  0.67874231960E+03  0.00000000000E+00 0.  1.
<mgrwt>
<rscale>  0 0.26286923E+04</rscale>
<asrwt>0</asrwt>
<pdfrwt beam="1">  1        1 0.33754263E+00 0.26286923E+04</pdfrwt>
<pdfrwt beam="2">  1       -2 0.12113348E+00 0.26286923E+04</pdfrwt>
<totfact> 0.88085943E-01</totfact>
</mgrwt>
</event>
<event>
12    4  0.4381187E-008  0.3006511E+04  0.7818608E-02  0.8241874E-01
         -2   -1    0    0    0  501 -0.00000000000E+00  0.00000000000E+00  0.18691092841E+04  0.18691092841E+04  0.00000000000E+00 0.  1.
          1   -1    0    0  501    0  0.00000000000E+00 -0.00000000000E+00 -0.12090129367E+04  0.12090129367E+04  0.00000000000E+00 0. -1.
        -24    2    1    2    0    0 -0.73680262184E+03 -0.37515042519E+02 -0.87531706708E+03  0.11473408112E+04  0.76977185661E+02 0.  0.
        254    2    1    2    0    0  0.73680262184E+03  0.37515042519E+02  0.15354134144E+04  0.19307814096E+04  0.90892079770E+03 0.  0.
         23    2    4    4    0    0 -0.12390171394E+03 -0.17478357718E+03  0.12927578322E+03  0.26602551117E+03  0.90312850125E+02 0.  0.
         23    2    4    4    0    0  0.86070433578E+03  0.21229861970E+03  0.14061376312E+04  0.16647558984E+04  0.91140034557E+02 0.  0.
          1    1    3    3  502    0 -0.56074906901E+03 -0.22463378298E+02 -0.61331144977E+03  0.83132127134E+03  0.00000000000E+00 0. -1.
         -2    1    3    3    0  502 -0.17605355283E+03 -0.15051664221E+02 -0.26200561731E+03  0.31601953984E+03  0.00000000000E+00 0.  1.
         11    1    5    5    0    0 -0.19163711183E+01 -0.12022596290E+02 -0.12994918784E+02  0.17806830544E+02  0.00000000000E+00 0. -1.
        -11    1    5    5    0    0 -0.12198534283E+03 -0.16276098089E+03  0.14227070201E+03  0.24821868063E+03  0.00000000000E+00 0.  1.
          1    1    6    6  503    0  0.47125474287E+02 -0.20835004216E+01  0.49277600506E+02  0.68216077375E+02  0.00000000000E+00 0. -1.
         -1    1    6    6    0  503  0.81357886150E+03  0.21438212012E+03  0.13568600307E+04  0.15965398210E+04  0.00000000000E+00 0.  1.
<mgrwt>
<rscale>  0 0.30065111E+04</rscale>
<asrwt>0</asrwt>
<pdfrwt beam="1">  1        1 0.18600199E+00 0.30065111E+04</pdfrwt>
<pdfrwt beam="2">  1       -2 0.28755527E+00 0.30065111E+04</pdfrwt>
<totfact> 0.29756417E-01</totfact>
</mgrwt>
</event>
<event>
12    4  0.4381187E-008  0.2118707E+04  0.7818608E-02  0.8553047E-01
         -2   -1    0    0    0  501 -0.00000000000E+00  0.00000000000E+00  0.48292863546E+03  0.48292863546E+03  0.00000000000E+00 0.  1.
          1   -1    0    0  501    0  0.00000000000E+00 -0.00000000000E+00 -0.23237999152E+04  0.23237999152E+04  0.00000000000E+00 0. -1.
        -24    2    1    2    0    0  0.66297958641E+02 -0.69231304509E+03 -0.14370567594E+04  0.15984496048E+04  0.78843121763E+02 0.  0.
        254    2    1    2    0    0 -0.66297958641E+02  0.69231304509E+03 -0.40381452036E+03  0.12082789458E+04  0.90176442172E+03 0.  0.
         23    2    4    4    0    0 -0.22320197732E+03  0.79912125926E+03 -0.50440073459E+03  0.97576117681E+03  0.96311284082E+02 0.  0.
         23    2    4    4    0    0  0.15690401868E+03 -0.10680821417E+03  0.10058621423E+03  0.23251776898E+03  0.88994722921E+02 0.  0.
          3    1    3    3  502    0  0.63088744096E+02 -0.44702680263E+03 -0.10018161518E+04  0.10988397308E+04  0.00000000000E+00 0. -1.
         -4    1    3    3    0  502  0.32092145459E+01 -0.24528624245E+03 -0.43524060757E+03  0.49960987408E+03  0.00000000000E+00 0.  1.
         11    1    5    5    0    0 -0.22252230944E+03  0.66932216445E+03 -0.41959988792E+03  0.82071456911E+03  0.00000000000E+00 0. -1.
        -11    1    5    5    0    0 -0.67966788456E+00  0.12979909481E+03 -0.84800846671E+02  0.15504660770E+03  0.00000000000E+00 0.  1.
          1    1    6    6  503    0  0.14212482112E+03 -0.56985141976E+02  0.52950686206E+02  0.16202020354E+03  0.00000000000E+00 0. -1.
         -1    1    6    6    0  503  0.14779197556E+02 -0.49823072197E+02  0.47635528023E+02  0.70497565444E+02  0.00000000000E+00 0.  1.
<mgrwt>
<rscale>  0 0.21187067E+04</rscale>
<asrwt>0</asrwt>
<pdfrwt beam="1">  1        1 0.35750767E+00 0.21187067E+04</pdfrwt>
<pdfrwt beam="2">  1       -2 0.74296715E-01 0.21187067E+04</pdfrwt>
<totfact> 0.23577729E+00</totfact>
</mgrwt>
</event>
<event>
12    4  0.4381187E-008  0.1986904E+04  0.7818608E-02  0.8612768E-01
          1   -1    0    0  501    0  0.00000000000E+00  0.00000000000E+00  0.80745859132E+03  0.80745859132E+03  0.00000000000E+00 0. -1.
         -2   -1    0    0    0  501 -0.00000000000E+00 -0.00000000000E+00 -0.12222878354E+04  0.12222878354E+04  0.00000000000E+00 0.  1.
        -24    2    1    2    0    0 -0.79540616103E+02  0.36686868760E+03  0.53833524354E+03  0.66130709342E+03  0.81258192367E+02 0.  0.
        254    2    1    2    0    0  0.79540616103E+02 -0.36686868760E+03 -0.95316448763E+03  0.13684393333E+04  0.90729505945E+03 0.  0.
         23    2    4    4    0    0  0.19361277036E+03 -0.61980027354E+03 -0.49350494755E+03  0.82208695769E+03  0.10315788298E+03 0.  0.
         23    2    4    4    0    0 -0.11407215426E+03  0.25293158593E+03 -0.45965954008E+03  0.54635237562E+03  0.10112953089E+03 0.  0.
          1    1    3    3  502    0 -0.94531800116E+02  0.27261858037E+03  0.39767607240E+03  0.49132821022E+03  0.00000000000E+00 0. -1.
         -2    1    3    3    0  502  0.14991184013E+02  0.94250107231E+02  0.14065917113E+03  0.16997888320E+03  0.00000000000E+00 0.  1.
         11    1    5    5    0    0  0.33155577163E+02 -0.26766505569E+02 -0.24345580296E+02  0.49075914636E+02  0.00000000000E+00 0. -1.
        -11    1    5    5    0    0  0.16045719320E+03 -0.59303376797E+03 -0.46915936725E+03  0.77301104305E+03  0.00000000000E+00 0.  1.
          3    1    6    6  503    0 -0.41502110981E+01 -0.17485920270E+01  0.40184479263E+01  0.60357062529E+01  0.00000000000E+00 0. -1.
         -3    1    6    6    0  503 -0.10992194316E+03  0.25468017796E+03 -0.46367798800E+03  0.54031666936E+03  0.00000000000E+00 0.  1.
<mgrwt>
<rscale>  0 0.19869039E+04</rscale>
<asrwt>0</asrwt>
<pdfrwt beam="1">  1        1 0.12422440E+00 0.19869039E+04</pdfrwt>
<pdfrwt beam="2">  1       -2 0.18804428E+00 0.19869039E+04</pdfrwt>
<totfact> 0.28304226E+00</totfact>
</mgrwt>
</event>
<event>
12    4  0.4381187E-008  0.1754312E+04  0.7818608E-02  0.8730980E-01
         -2   -1    0    0    0  501 -0.00000000000E+00  0.00000000000E+00  0.54124145527E+03  0.54124145527E+03  0.00000000000E+00 0.  1.
          1   -1    0    0  501    0  0.00000000000E+00 -0.00000000000E+00 -0.14215523713E+04  0.14215523713E+04  0.00000000000E+00 0. -1.
        -24    2    1    2    0    0  0.33765105895E+03  0.54387085319E+03 -0.39448794162E+03  0.75617163388E+03  0.79818927882E+02 0.  0.
        254    2    1    2    0    0 -0.33765105895E+03 -0.54387085319E+03 -0.48582297440E+03  0.12066221927E+04  0.90006078174E+03 0.  0.
         23    2    4    4    0    0 -0.59005380021E+03 -0.12958351673E+03 -0.27392862332E+03  0.66971711150E+03  0.92351198186E+02 0.  0.
         23    2    4    4    0    0  0.25240274126E+03 -0.41428733646E+03 -0.21189435107E+03  0.53690508117E+03  0.89591903792E+02 0.  0.
          1    1    3    3  502    0  0.12935535797E+03  0.21678236891E+03 -0.20161940455E+03  0.32307551501E+03  0.00000000000E+00 0. -1.
         -2    1    3    3    0  502  0.20829570098E+03  0.32708848428E+03 -0.19286853707E+03  0.43309611887E+03  0.00000000000E+00 0.  1.
         11    1    5    5    0    0 -0.21316081195E+03 -0.85945465749E+02 -0.78047535387E+02  0.24272530279E+03  0.00000000000E+00 0. -1.
        -11    1    5    5    0    0 -0.37689298826E+03 -0.43638050980E+02 -0.19588108794E+03  0.42699180871E+03  0.00000000000E+00 0.  1.
          4    1    6    6  503    0  0.33745918195E+02 -0.17557393887E+02 -0.31207153800E+02  0.49203003193E+02  0.00000000000E+00 0. -1.
         -4    1    6    6    0  503  0.21865682306E+03 -0.39672994257E+03 -0.18068719727E+03  0.48770207798E+03  0.00000000000E+00 0.  1.
<mgrwt>
<rscale>  0 0.17543125E+04</rscale>
<asrwt>0</asrwt>
<pdfrwt beam="1">  1        1 0.21870036E+00 0.17543125E+04</pdfrwt>
<pdfrwt beam="2">  1       -2 0.83267918E-01 0.17543125E+04</pdfrwt>
<totfact> 0.77871685E+00</totfact>
</mgrwt>
</event>
<event>
12    4  0.4381187E-008  0.3629896E+04  0.7818608E-02  0.8083678E-01
          1   -1    0    0  501    0  0.00000000000E+00  0.00000000000E+00  0.32779876768E+04  0.32779876768E+04  0.00000000000E+00 0. -1.
         -2   -1    0    0    0  501 -0.00000000000E+00 -0.00000000000E+00 -0.10048958217E+04  0.10048958217E+04  0.00000000000E+00 0.  1.
        -24    2    1    2    0    0 -0.65705358747E+03  0.15888798562E+03 -0.78058971363E+03  0.10353702784E+04  0.75541402972E+02 0.  0.
        254    2    1    2    0    0  0.65705358747E+03 -0.15888798562E+03  0.30536815687E+04  0.32475132201E+04  0.87430325581E+03 0.  0.
         23    2    4    4    0    0  0.78764722446E+03  0.40720135266E+02  0.17885626942E+04  0.19568611288E+04  0.91119079262E+02 0.  0.
         23    2    4    4    0    0 -0.13059363699E+03 -0.19960812088E+03  0.12651188744E+04  0.12906520913E+04  0.91427317444E+02 0.  0.
          1    1    3    3  502    0 -0.72032393679E+02  0.42723722733E+02 -0.94550695070E+02  0.12630841683E+03  0.00000000000E+00 0. -1.
         -2    1    3    3    0  502 -0.58502119379E+03  0.11616426288E+03 -0.68603901855E+03  0.90906186156E+03  0.00000000000E+00 0.  1.
         11    1    5    5    0    0  0.86158617794E+01  0.10576717153E+01  0.46186261546E+01  0.98327743397E+01  0.00000000000E+00 0. -1.
        -11    1    5    5    0    0  0.77903136268E+03  0.39662463551E+02  0.17839440681E+04  0.19470283545E+04  0.00000000000E+00 0.  1.
          3    1    6    6  503    0  0.17073128725E+01  0.83297208245E+01  0.29887175093E+02  0.31073178166E+02  0.00000000000E+00 0. -1.
         -3    1    6    6    0  503 -0.13230094986E+03 -0.20793784171E+03  0.12352316993E+04  0.12595789131E+04  0.00000000000E+00 0.  1.
<mgrwt>
<rscale>  0 0.36298959E+04</rscale>
<asrwt>0</asrwt>
<pdfrwt beam="1">  1        1 0.50430579E+00 0.36298959E+04</pdfrwt>
<pdfrwt beam="2">  1       -2 0.15459936E+00 0.36298959E+04</pdfrwt>
<totfact> 0.72856833E-02</totfact>
</mgrwt>
</event>
<event>
12    4  0.4381187E-008  0.2007360E+04  0.7818608E-02  0.8603187E-01
         -2   -1    0    0    0  501 -0.00000000000E+00  0.00000000000E+00  0.10281077779E+04  0.10281077779E+04  0.00000000000E+00 0.  1.
          1   -1    0    0  501    0  0.00000000000E+00 -0.00000000000E+00 -0.97983251417E+03  0.97983251417E+03  0.00000000000E+00 0. -1.
        -24    2    1    2    0    0  0.36058875722E+03  0.74200337084E+03  0.46727042366E+02  0.83009439004E+03  0.79246613307E+02 0.  0.
        254    2    1    2    0    0 -0.36058875722E+03 -0.74200337084E+03  0.15482213255E+01  0.11778459020E+04  0.84066956509E+03 0.  0.
         23    2    4    4    0    0 -0.65523623100E+02 -0.54114657878E+03  0.36357939115E+03  0.66125324589E+03  0.89066922136E+02 0.  0.
         23    2    4    4    0    0 -0.29506513412E+03 -0.20085679206E+03 -0.36203116982E+03  0.51659265610E+03  0.91621613888E+02 0.  0.
          1    1    3    3  502    0  0.32484384046E+03  0.69782126443E+03  0.27919236808E+02  0.77023212187E+03  0.00000000000E+00 0. -1.
         -2    1    3    3    0  502  0.35744916752E+02  0.44182106404E+02  0.18807805558E+02  0.59862268164E+02  0.00000000000E+00 0.  1.
         11    1    5    5    0    0  0.93722654931E+01 -0.45385301586E+02  0.57396107248E+02  0.73769764048E+02  0.00000000000E+00 0. -1.
        -11    1    5    5    0    0 -0.74895888593E+02 -0.49576127719E+03  0.30618328390E+03  0.58748348184E+03  0.00000000000E+00 0.  1.
          4    1    6    6  503    0 -0.24554094309E+02  0.53554549687E+00 -0.42597190499E+01  0.24926603513E+02  0.00000000000E+00 0. -1.
         -4    1    6    6    0  503 -0.27051103981E+03 -0.20139233755E+03 -0.35777145077E+03  0.49166605259E+03  0.00000000000E+00 0.  1.
<mgrwt>
<rscale>  0 0.20073599E+04</rscale>
<asrwt>0</asrwt>
<pdfrwt beam="1">  1        1 0.15074346E+00 0.20073599E+04</pdfrwt>
<pdfrwt beam="2">  1       -2 0.15817043E+00 0.20073599E+04</pdfrwt>
<totfact> 0.33142073E+00</totfact>
</mgrwt>
</event>
<event>
12    4  0.4381187E-008  0.1375050E+04  0.7818608E-02  0.8972080E-01
         -2   -1    0    0    0  501 -0.00000000000E+00  0.00000000000E+00  0.41142864537E+03  0.41142864537E+03  0.00000000000E+00 0.  1.
          1   -1    0    0  501    0  0.00000000000E+00 -0.00000000000E+00 -0.11488997876E+04  0.11488997876E+04  0.00000000000E+00 0. -1.
        -24    2    1    2    0    0 -0.12888848793E+03 -0.29126197294E+03  0.23215448377E+02  0.32950191200E+03  0.81158941348E+02 0.  0.
        254    2    1    2    0    0  0.12888848793E+03  0.29126197294E+03 -0.76068659062E+03  0.12308265210E+04  0.91369801162E+03 0.  0.
         23    2    4    4    0    0 -0.15418237130E+03  0.48965908130E+03 -0.18661282180E+03  0.55374747990E+03  0.90959918219E+02 0.  0.
         23    2    4    4    0    0  0.28307085924E+03 -0.19839710835E+03 -0.57407376882E+03  0.67707904109E+03  0.96875238787E+02 0.  0.
          3    1    3    3  502    0 -0.29871098578E+02 -0.10140307068E+03  0.43717741132E+02  0.11439451981E+03  0.00000000000E+00 0. -1.
         -2    1    3    3    0  502 -0.99017389357E+02 -0.18985890226E+03 -0.20502292754E+02  0.21510739218E+03  0.00000000000E+00 0.  1.
         11    1    5    5    0    0 -0.55951234414E+02  0.31510092776E+03 -0.13159321847E+03  0.34602877114E+03  0.00000000000E+00 0. -1.
        -11    1    5    5    0    0 -0.98231136891E+02  0.17455815353E+03 -0.55019603333E+02  0.20771870877E+03  0.00000000000E+00 0.  1.
          1    1    6    6  503    0  0.46216306288E+02 -0.82822828052E+02 -0.13511431861E+03  0.16508012269E+03  0.00000000000E+00 0. -1.
         -1    1    6    6    0  503  0.23685455295E+03 -0.11557428030E+03 -0.43895945021E+03  0.51199891841E+03  0.00000000000E+00 0.  1.
<mgrwt>
<rscale>  0 0.13750495E+04</rscale>
<asrwt>0</asrwt>
<pdfrwt beam="1">  1        1 0.17675381E+00 0.13750495E+04</pdfrwt>
<pdfrwt beam="2">  1       -2 0.63296715E-01 0.13750495E+04</pdfrwt>
<totfact> 0.23076824E+01</totfact>
</mgrwt>
</event>
<event>
12    4  0.4381187E-008  0.1687836E+04  0.7818608E-02  0.8768333E-01
         -2   -1    0    0    0  501 -0.00000000000E+00  0.00000000000E+00  0.14311973801E+04  0.14311973801E+04  0.00000000000E+00 0.  1.
          1   -1    0    0  501    0  0.00000000000E+00 -0.00000000000E+00 -0.49762343809E+03  0.49762343809E+03  0.00000000000E+00 0. -1.
        -24    2    1    2    0    0 -0.27832299765E+03 -0.48516979068E+03  0.96419335946E+02  0.57331061231E+03  0.80839056384E+02 0.  0.
        254    2    1    2    0    0  0.27832299765E+03  0.48516979068E+03  0.83715460609E+03  0.13555102059E+04  0.90759388882E+03 0.  0.
         23    2    4    4    0    0  0.33617062466E+01 -0.20889887111E+02 -0.16777024428E+03  0.19360240137E+03  0.94272724031E+02 0.  0.
         23    2    4    4    0    0  0.27496129140E+03  0.50605967779E+03  0.10049248504E+04  0.11619078045E+04  0.91954783029E+02 0.  0.
          1    1    3    3  502    0 -0.14406516964E+03 -0.20017499708E+03  0.10869877497E+02  0.24686627310E+03  0.00000000000E+00 0. -1.
         -2    1    3    3    0  502 -0.13425782801E+03 -0.28499479360E+03  0.85549458449E+02  0.32644433921E+03  0.00000000000E+00 0.  1.
         11    1    5    5    0    0  0.84086288365E+01  0.30824071950E+01  0.10417842325E+02  0.13738184441E+02  0.00000000000E+00 0. -1.
        -11    1    5    5    0    0 -0.50469225898E+01 -0.23972294306E+02 -0.17818808661E+03  0.17986421692E+03  0.00000000000E+00 0.  1.
          1    1    6    6  503    0  0.81831980773E+02  0.87636642082E+02  0.25342936161E+03  0.28036243586E+03  0.00000000000E+00 0. -1.
         -1    1    6    6    0  503  0.19312931063E+03  0.41842303571E+03  0.75149548876E+03  0.88154536869E+03  0.00000000000E+00 0.  1.
<mgrwt>
<rscale>  0 0.16878357E+04</rscale>
<asrwt>0</asrwt>
<pdfrwt beam="1">  1        1 0.76557453E-01 0.16878357E+04</pdfrwt>
<pdfrwt beam="2">  1       -2 0.22018421E+00 0.16878357E+04</pdfrwt>
<totfact> 0.36625487E+00</totfact>
</mgrwt>
</event>
<event>
12    4  0.4381187E-008  0.2291254E+04  0.7818608E-02  0.8481377E-01
         -2   -1    0    0    0  501 -0.00000000000E+00  0.00000000000E+00  0.92423561824E+03  0.92423561824E+03  0.00000000000E+00 0.  1.
          1   -1    0    0  501    0  0.00000000000E+00 -0.00000000000E+00 -0.14200509076E+04  0.14200509076E+04  0.00000000000E+00 0. -1.
        -24    2    1    2    0    0  0.67524636162E+03 -0.22420848962E+03  0.45129820759E+03  0.84618757350E+03  0.78334166697E+02 0.  0.
        254    2    1    2    0    0 -0.67524636162E+03  0.22420848962E+03 -0.94711349697E+03  0.14980989523E+04  0.91708745449E+03 0.  0.
         23    2    4    4    0    0 -0.82643029395E+03  0.38992490997E+03 -0.72835320236E+03  0.11721426854E+04  0.91605793007E+02 0.  0.
         23    2    4    4    0    0  0.15118393233E+03 -0.16571642035E+03 -0.21876029461E+03  0.32595626697E+03  0.89849363457E+02 0.  0.
          3    1    3    3  502    0  0.37971873607E+03 -0.15950465065E+03  0.23383050505E+03  0.47360823176E+03  0.00000000000E+00 0. -1.
         -4    1    3    3    0  502  0.29552762555E+03 -0.64703838973E+02  0.21746770255E+03  0.37257934174E+03  0.00000000000E+00 0.  1.
         11    1    5    5    0    0  0.15794712520E+01  0.29725619100E+01 -0.71323629435E+01  0.78867898984E+01  0.00000000000E+00 0.  1.
        -11    1    5    5    0    0 -0.82800976520E+03  0.38695234806E+03 -0.72122083942E+03  0.11642558955E+04  0.00000000000E+00 0. -1.
          4    1    6    6  503    0  0.12742666232E+03 -0.17286917892E+03 -0.20779267354E+03  0.29882955421E+03  0.00000000000E+00 0. -1.
         -4    1    6    6    0  503  0.23757270009E+02  0.71527585741E+01 -0.10967621070E+02  0.27126712765E+02  0.00000000000E+00 0.  1.
<mgrwt>
<rscale>  0 0.22912544E+04</rscale>
<asrwt>0</asrwt>
<pdfrwt beam="1">  1        1 0.21846937E+00 0.22912544E+04</pdfrwt>
<pdfrwt beam="2">  1       -2 0.14219010E+00 0.22912544E+04</pdfrwt>
<totfact> 0.20371145E+00</totfact>
</mgrwt>
</event>
<event>
12    4  0.4381187E-008  0.1817540E+04  0.7818608E-02  0.8697027E-01
          1   -1    0    0  501    0  0.00000000000E+00  0.00000000000E+00  0.15998578014E+04  0.15998578014E+04  0.00000000000E+00 0. -1.
         -2   -1    0    0    0  501 -0.00000000000E+00 -0.00000000000E+00 -0.51621000178E+03  0.51621000178E+03  0.00000000000E+00 0.  1.
        -24    2    1    2    0    0 -0.49308642387E+03  0.28767252357E+03  0.84037667010E+03  0.10188388221E+04  0.76875845621E+02 0.  0.
        254    2    1    2    0    0  0.49308642387E+03 -0.28767252357E+03  0.24327112956E+03  0.10972289811E+04  0.90489827726E+03 0.  0.
         23    2    4    4    0    0  0.89338767395E+02  0.31269237247E+03  0.30313356684E+02  0.33748282082E+03  0.84957751834E+02 0.  0.
         23    2    4    4    0    0  0.40374765648E+03 -0.60036489604E+03  0.21295777287E+03  0.75974616024E+03  0.91722606060E+02 0.  0.
          1    1    3    3  502    0 -0.37223886040E+03  0.23079220023E+03  0.69432996454E+03  0.82092685943E+03  0.00000000000E+00 0. -1.
         -2    1    3    3    0  502 -0.12084756347E+03  0.56880323341E+02  0.14604670556E+03  0.19791196271E+03  0.00000000000E+00 0.  1.
         11    1    5    5    0    0 -0.19973952544E+01  0.24342742724E+02  0.25022700177E+02  0.34967044989E+02  0.00000000000E+00 0.  1.
        -11    1    5    5    0    0  0.91336162649E+02  0.28834962975E+03  0.52906565069E+01  0.30251577584E+03  0.00000000000E+00 0. -1.
          1    1    6    6  503    0  0.38395275922E+03 -0.57206193353E+03  0.18019607164E+03  0.71214127906E+03  0.00000000000E+00 0. -1.
         -1    1    6    6    0  503  0.19794897258E+02 -0.28302962507E+02  0.32761701234E+02  0.47604881177E+02  0.00000000000E+00 0.  1.
<mgrwt>
<rscale>  0 0.18175397E+04</rscale>
<asrwt>0</asrwt>
<pdfrwt beam="1">  1        1 0.24613197E+00 0.18175397E+04</pdfrwt>
<pdfrwt beam="2">  1       -2 0.79416924E-01 0.18175397E+04</pdfrwt>
<totfact> 0.64859106E+00</totfact>
</mgrwt>
</event>
<event>
12    4  0.4381187E-008  0.1430371E+04  0.7818608E-02  0.8932123E-01
         -2   -1    0    0    0  501 -0.00000000000E+00  0.00000000000E+00  0.44805153834E+03  0.44805153834E+03  0.00000000000E+00 0.  1.
          1   -1    0    0  501    0  0.00000000000E+00 -0.00000000000E+00 -0.11415878860E+04  0.11415878860E+04  0.00000000000E+00 0. -1.
        -24    2    1    2    0    0  0.22960652990E+03 -0.33133603056E+03 -0.21629276666E+02  0.41146366267E+03  0.79572585568E+02 0.  0.
        254    2    1    2    0    0 -0.22960652990E+03  0.33133603056E+03 -0.67190707095E+03  0.11781757616E+04  0.87985015177E+03 0.  0.
         23    2    4    4    0    0 -0.36175378385E+03 -0.17842836178E+03 -0.41506386944E+03  0.58538767969E+03  0.87739611375E+02 0.  0.
         23    2    4    4    0    0  0.13214725395E+03  0.50976439234E+03 -0.25684320151E+03  0.59278808193E+03  0.90036922924E+02 0.  0.
          1    1    3    3  502    0  0.20653607355E+03 -0.31333065358E+03 -0.39215727915E+02  0.37732097936E+03  0.00000000000E+00 0. -1.
         -2    1    3    3    0  502  0.23070456353E+02 -0.18005376979E+02  0.17586451248E+02  0.34142683316E+02  0.00000000000E+00 0.  1.
         11    1    5    5    0    0 -0.35109065982E+03 -0.15718264970E+03 -0.40764174322E+03  0.56048445794E+03  0.00000000000E+00 0.  1.
        -11    1    5    5    0    0 -0.10663124034E+02 -0.21245712080E+02 -0.74221262160E+01  0.24903221750E+02  0.00000000000E+00 0. -1.
          3    1    6    6  503    0  0.32630608504E+02  0.45940648892E+02 -0.49772148368E+02  0.75183552624E+02  0.00000000000E+00 0. -1.
         -3    1    6    6    0  503  0.99516645449E+02  0.46382374345E+03 -0.20707105314E+03  0.51760452930E+03  0.00000000000E+00 0.  1.
<mgrwt>
<rscale>  0 0.14303709E+04</rscale>
<asrwt>0</asrwt>
<pdfrwt beam="1">  1        1 0.17562890E+00 0.14303709E+04</pdfrwt>
<pdfrwt beam="2">  1       -2 0.68931007E-01 0.14303709E+04</pdfrwt>
<totfact> 0.19353209E+01</totfact>
</mgrwt>
</event>
<event>
12    4  0.4381187E-008  0.1993615E+04  0.7818608E-02  0.8609612E-01
         -2   -1    0    0    0  501 -0.00000000000E+00  0.00000000000E+00  0.22116364513E+04  0.22116364513E+04  0.00000000000E+00 0.  1.
          1   -1    0    0  501    0  0.00000000000E+00 -0.00000000000E+00 -0.44927143281E+03  0.44927143281E+03  0.00000000000E+00 0. -1.
        -24    2    1    2    0    0 -0.11871356124E+03  0.48283351268E+03  0.15528321777E+04  0.16324191366E+04  0.79267614616E+02 0.  0.
        254    2    1    2    0    0  0.11871356124E+03 -0.48283351268E+03  0.20953284074E+03  0.10284887475E+04  0.87559350260E+03 0.  0.
         23    2    4    4    0    0 -0.10564364249E+03  0.21772230320E+03  0.39229438760E+01  0.25905120602E+03  0.92350188629E+02 0.  0.
         23    2    4    4    0    0  0.22435720374E+03 -0.70055581589E+03  0.20560989686E+03  0.76943754148E+03  0.92973622680E+02 0.  0.
          3    1    3    3  502    0 -0.70589623798E+02  0.14966726914E+03  0.45623535925E+03  0.48531833828E+03  0.00000000000E+00 0. -1.
         -4    1    3    3    0  502 -0.48123937446E+02  0.33316624355E+03  0.10965968185E+04  0.11471007983E+04  0.00000000000E+00 0.  1.
         11    1    5    5    0    0 -0.10777778572E+03  0.15773134076E+03  0.30402797817E+02  0.19344135305E+03  0.00000000000E+00 0. -1.
        -11    1    5    5    0    0  0.21341432323E+01  0.59990962443E+02 -0.26479853941E+02  0.65609852971E+02  0.00000000000E+00 0.  1.
          2    1    6    6  503    0 -0.78613912700E+01 -0.50732966905E+02  0.11986764791E+02  0.52719236848E+02  0.00000000000E+00 0.  1.
         -2    1    6    6    0  503  0.23221859501E+03 -0.64982284898E+03  0.19362313207E+03  0.71671830464E+03  0.00000000000E+00 0. -1.
<mgrwt>
<rscale>  0 0.19936149E+04</rscale>
<asrwt>0</asrwt>
<pdfrwt beam="1">  1        1 0.69118684E-01 0.19936149E+04</pdfrwt>
<pdfrwt beam="2">  1       -2 0.34025175E+00 0.19936149E+04</pdfrwt>
<totfact> 0.74842665E-01</totfact>
</mgrwt>
</event>
<event>
12    4  0.4381187E-008  0.1633359E+04  0.7818608E-02  0.8800312E-01
         -2   -1    0    0    0  501 -0.00000000000E+00  0.00000000000E+00  0.16363634160E+04  0.16363634160E+04  0.00000000000E+00 0.  1.
          3   -1    0    0  501    0  0.00000000000E+00 -0.00000000000E+00 -0.40759006508E+03  0.40759006508E+03  0.00000000000E+00 0. -1.
        -24    2    1    2    0    0  0.16024830788E+03 -0.46233146440E+03  0.68022715661E+02  0.50235493003E+03  0.91123447742E+02 0.  0.
        254    2    1    2    0    0 -0.16024830788E+03  0.46233146440E+03  0.11607506352E+04  0.15415985510E+04  0.88868113075E+03 0.  0.
         23    2    4    4    0    0 -0.38858650665E+03  0.55039502572E+03  0.54067045791E+03  0.86860132014E+03  0.90606577126E+02 0.  0.
         23    2    4    4    0    0  0.22833819876E+03 -0.88063561320E+02  0.62008017731E+03  0.67299723086E+03  0.92370572190E+02 0.  0.
          1    1    3    3  502    0  0.15134707764E+03 -0.39926895658E+03  0.87278259915E+02  0.43582006866E+03  0.00000000000E+00 0. -1.
         -2    1    3    3    0  502  0.89012302398E+01 -0.63062507823E+02 -0.19255544254E+02  0.66534861367E+02  0.00000000000E+00 0.  1.
         11    1    5    5    0    0 -0.80287539188E+02  0.18333029704E+03  0.17135969288E+03  0.26347719276E+03  0.00000000000E+00 0.  1.
        -11    1    5    5    0    0 -0.30829896746E+03  0.36706472868E+03  0.36931076503E+03  0.60512412739E+03  0.00000000000E+00 0. -1.
          1    1    6    6  503    0  0.13103459955E+03 -0.10524415034E+02  0.38807846055E+03  0.40973860098E+03  0.00000000000E+00 0. -1.
         -1    1    6    6    0  503  0.97303599215E+02 -0.77539146287E+02  0.23200171677E+03  0.26325862989E+03  0.00000000000E+00 0.  1.
<mgrwt>
<rscale>  0 0.16333591E+04</rscale>
<asrwt>0</asrwt>
<pdfrwt beam="1">  1        3 0.62706164E-01 0.16333591E+04</pdfrwt>
<pdfrwt beam="2">  1       -2 0.25174822E+00 0.16333591E+04</pdfrwt>
<totfact> 0.62318370E-01</totfact>
</mgrwt>
</event>
<event>
12    4  0.4381187E-008  0.1561453E+04  0.7818608E-02  0.8844585E-01
         -2   -1    0    0    0  501 -0.00000000000E+00  0.00000000000E+00  0.47281713783E+03  0.47281713783E+03  0.00000000000E+00 0.  1.
          1   -1    0    0  501    0  0.00000000000E+00 -0.00000000000E+00 -0.12891530130E+04  0.12891530130E+04  0.00000000000E+00 0. -1.
        -24    2    1    2    0    0  0.36583974964E+03  0.11923688679E+03 -0.65329464669E+03  0.76255786790E+03  0.81513489165E+02 0.  0.
        254    2    1    2    0    0 -0.36583974964E+03 -0.11923688679E+03 -0.16304122849E+03  0.99941228295E+03  0.90784707497E+03 0.  0.
         23    2    4    4    0    0 -0.36000793151E+03  0.34691333103E+02  0.31577761002E+03  0.48837609630E+03  0.89367293259E+02 0.  0.
         23    2    4    4    0    0 -0.58318181278E+01 -0.15392821989E+03 -0.47881883851E+03  0.51103618664E+03  0.90347091631E+02 0.  0.
          1    1    3    3  502    0  0.25927287899E+03  0.76369482944E+02 -0.52405024012E+03  0.58964682470E+03  0.00000000000E+00 0. -1.
         -2    1    3    3    0  502  0.10656687065E+03  0.42867403841E+02 -0.12924440657E+03  0.17291104320E+03  0.00000000000E+00 0.  1.
         11    1    5    5    0    0 -0.31986914367E+03  0.49025690771E+01  0.29154666650E+03  0.43282763660E+03  0.00000000000E+00 0. -1.
        -11    1    5    5    0    0 -0.40138787845E+02  0.29788764026E+02  0.24230943523E+02  0.55548459707E+02  0.00000000000E+00 0.  1.
          3    1    6    6  503    0 -0.26371695600E+02 -0.13674327645E+03 -0.45266562803E+03  0.47360359035E+03  0.00000000000E+00 0. -1.
         -3    1    6    6    0  503  0.20539877473E+02 -0.17184943434E+02 -0.26153210476E+02  0.37432596298E+02  0.00000000000E+00 0.  1.
<mgrwt>
<rscale>  0 0.15614527E+04</rscale>
<asrwt>0</asrwt>
<pdfrwt beam="1">  1        1 0.19833123E+00 0.15614527E+04</pdfrwt>
<pdfrwt beam="2">  1       -2 0.72741098E-01 0.15614527E+04</pdfrwt>
<totfact> 0.13285175E+01</totfact>
</mgrwt>
</event>
<event>
12    4  0.4381187E-008  0.3211817E+04  0.7818608E-02  0.8185703E-01
          1   -1    0    0  501    0  0.00000000000E+00  0.00000000000E+00  0.23306326497E+04  0.23306326497E+04  0.00000000000E+00 0. -1.
         -2   -1    0    0    0  501 -0.00000000000E+00 -0.00000000000E+00 -0.11065417045E+04  0.11065417045E+04  0.00000000000E+00 0.  1.
        -24    2    1    2    0    0 -0.92241565610E+03 -0.28979922121E+03  0.17638477280E+04  0.20130169203E+04  0.79019507710E+02 0.  0.
        254    2    1    2    0    0  0.92241565610E+03  0.28979922121E+03 -0.53975678290E+03  0.14241574339E+04  0.89557399506E+03 0.  0.
         23    2    4    4    0    0  0.30796329682E+03 -0.12739683472E+03  0.17586554532E+03  0.38767849438E+03  0.91074580885E+02 0.  0.
         23    2    4    4    0    0  0.61445235927E+03  0.41719605594E+03 -0.71562232823E+03  0.10364789395E+04  0.10280576110E+03 0.  0.
          1    1    3    3  502    0 -0.64773477171E+03 -0.20115980669E+03  0.11600238976E+04  0.13437563191E+04  0.00000000000E+00 0. -1.
         -2    1    3    3    0  502 -0.27468088438E+03 -0.88639414519E+02  0.60382383048E+03  0.66926060119E+03  0.00000000000E+00 0.  1.
         11    1    5    5    0    0  0.22532698394E+02  0.44640346115E+01  0.37913539483E+02  0.44329297063E+02  0.00000000000E+00 0.  1.
        -11    1    5    5    0    0  0.28543059843E+03 -0.13186086934E+03  0.13795200584E+03  0.34334919732E+03  0.00000000000E+00 0. -1.
          2    1    6    6  503    0  0.28855716004E+03  0.25424775396E+03 -0.34304002095E+03  0.51534804839E+03  0.00000000000E+00 0. -1.
         -2    1    6    6    0  503  0.32589519924E+03  0.16294830198E+03 -0.37258230728E+03  0.52113089114E+03  0.00000000000E+00 0.  1.
<mgrwt>
<rscale>  0 0.32118171E+04</rscale>
<asrwt>0</asrwt>
<pdfrwt beam="1">  1        1 0.35855887E+00 0.32118171E+04</pdfrwt>
<pdfrwt beam="2">  1       -2 0.17023719E+00 0.32118171E+04</pdfrwt>
<totfact> 0.27676498E-01</totfact>
</mgrwt>
</event>
<event>
12    4  0.4381187E-008  0.1671623E+04  0.7818608E-02  0.8777716E-01
         -2   -1    0    0    0  501 -0.00000000000E+00  0.00000000000E+00  0.53127818455E+03  0.53127818455E+03  0.00000000000E+00 0.  1.
          1   -1    0    0  501    0  0.00000000000E+00 -0.00000000000E+00 -0.13149066605E+04  0.13149066605E+04  0.00000000000E+00 0. -1.
        -24    2    1    2    0    0 -0.25728385834E+03  0.23575564387E+03 -0.82081416800E+03  0.89549874586E+03  0.80039977892E+02 0.  0.
        254    2    1    2    0    0  0.25728385834E+03 -0.23575564387E+03  0.37185692068E+02  0.95068609917E+03  0.88354149652E+03 0.  0.
         23    2    4    4    0    0  0.54766730364E+03 -0.10402171634E+03 -0.12775951356E+03  0.58028142359E+03  0.98204095194E+02 0.  0.
         23    2    4    4    0    0 -0.29038344530E+03 -0.13173392753E+03  0.16494520563E+03  0.37040467558E+03  0.91193913526E+02 0.  0.
          1    1    3    3  502    0 -0.19860392155E+03  0.21945825858E+03 -0.70597503791E+03  0.76551041734E+03  0.00000000000E+00 0. -1.
         -2    1    3    3    0  502 -0.58679936793E+02  0.16297385295E+02 -0.11483913010E+03  0.12998832852E+03  0.00000000000E+00 0.  1.
         11    1    5    5    0    0  0.51412036018E+03 -0.78009961857E+02 -0.99923325916E+02  0.52951862097E+03  0.00000000000E+00 0.  1.
        -11    1    5    5    0    0  0.33546943464E+02 -0.26011754481E+02 -0.27836187642E+02  0.50762802616E+02  0.00000000000E+00 0. -1.
          1    1    6    6  503    0 -0.25513631298E+02  0.14238060599E+02  0.15048198281E+02  0.32865118638E+02  0.00000000000E+00 0. -1.
         -1    1    6    6    0  503 -0.26486981400E+03 -0.14597198813E+03  0.14989700735E+03  0.33753955694E+03  0.00000000000E+00 0.  1.
<mgrwt>
<rscale>  0 0.16716234E+04</rscale>
<asrwt>0</asrwt>
<pdfrwt beam="1">  1        1 0.20229333E+00 0.16716234E+04</pdfrwt>
<pdfrwt beam="2">  1       -2 0.81735106E-01 0.16716234E+04</pdfrwt>
<totfact> 0.97271309E+00</totfact>
</mgrwt>
</event>
<event>
12    4  0.4381187E-008  0.1773401E+04  0.7818608E-02  0.8720574E-01
          1   -1    0    0  501    0  0.00000000000E+00  0.00000000000E+00  0.13905089867E+04  0.13905089867E+04  0.00000000000E+00 0. -1.
         -2   -1    0    0    0  501 -0.00000000000E+00 -0.00000000000E+00 -0.56543170107E+03  0.56543170107E+03  0.00000000000E+00 0.  1.
        -24    2    1    2    0    0  0.15973870942E+03  0.18859601356E+03 -0.36499439379E+03  0.44806011415E+03  0.80324633682E+02 0.  0.
        254    2    1    2    0    0 -0.15973870942E+03 -0.18859601356E+03  0.11900716795E+04  0.15078805736E+04  0.89238349969E+03 0.  0.
         23    2    4    4    0    0  0.65088070662E+02  0.16785706771E+03  0.10274714347E+04  0.10470369241E+04  0.90423001360E+02 0.  0.
         23    2    4    4    0    0 -0.22482678008E+03 -0.35645308127E+03  0.16260024472E+03  0.46084364952E+03  0.91280608721E+02 0.  0.
          3    1    3    3  502    0  0.24134960188E+02 -0.37808829166E+01 -0.31104849320E+02  0.39551270904E+02  0.00000000000E+00 0. -1.
         -4    1    3    3    0  502  0.13560374923E+03  0.19237689648E+03 -0.33388954447E+03  0.40850884324E+03  0.00000000000E+00 0.  1.
         11    1    5    5    0    0  0.36252298697E+02  0.16547960497E+03  0.80048709409E+03  0.81821593520E+03  0.00000000000E+00 0.  1.
        -11    1    5    5    0    0  0.28835771965E+02  0.23774627361E+01  0.22698434065E+03  0.22882098893E+03  0.00000000000E+00 0. -1.
          4    1    6    6  503    0 -0.11379355033E+03 -0.10225461693E+03  0.71559185217E+02  0.16889551732E+03  0.00000000000E+00 0. -1.
         -4    1    6    6    0  503 -0.11103322975E+03 -0.25419846434E+03  0.91041059504E+02  0.29194813220E+03  0.00000000000E+00 0.  1.
<mgrwt>
<rscale>  0 0.17734011E+04</rscale>
<asrwt>0</asrwt>
<pdfrwt beam="1">  1        1 0.21392446E+00 0.17734011E+04</pdfrwt>
<pdfrwt beam="2">  1       -2 0.86989493E-01 0.17734011E+04</pdfrwt>
<totfact> 0.73990635E+00</totfact>
</mgrwt>
</event>
<event>
12    4  0.4381187E-008  0.1617155E+04  0.7818608E-02  0.8810078E-01
          1   -1    0    0  501    0  0.00000000000E+00  0.00000000000E+00  0.30661940779E+03  0.30661940779E+03  0.00000000000E+00 0. -1.
         -2   -1    0    0    0  501 -0.00000000000E+00 -0.00000000000E+00 -0.21322778441E+04  0.21322778441E+04  0.00000000000E+00 0.  1.
        -24    2    1    2    0    0  0.43362110453E+03 -0.10687579962E+03 -0.13422832757E+03  0.47346085987E+03  0.81842794872E+02 0.  0.
        254    2    1    2    0    0 -0.43362110453E+03  0.10687579962E+03 -0.16914301087E+04  0.19654363920E+04  0.89585417312E+03 0.  0.
         23    2    4    4    0    0 -0.83869475309E+02  0.12008959853E+03  0.59721973329E+02  0.17744189238E+03  0.80394716921E+02 0.  0.
         23    2    4    4    0    0 -0.34975162922E+03 -0.13213798908E+02 -0.17511520821E+04  0.17879944996E+04  0.88825163109E+02 0.  0.
          3    1    3    3  502    0  0.17907167174E+03 -0.74453448974E+02 -0.28880287483E+02  0.19607154483E+03  0.00000000000E+00 0. -1.
         -4    1    3    3    0  502  0.25454943278E+03 -0.32422350649E+02 -0.10534804009E+03  0.27738931505E+03  0.00000000000E+00 0.  1.
         11    1    5    5    0    0 -0.53669881630E+02  0.16308118526E+02  0.50621092665E+01  0.56320829843E+02  0.00000000000E+00 0. -1.
        -11    1    5    5    0    0 -0.30199593679E+02  0.10378148001E+03  0.54659864063E+02  0.12112106254E+03  0.00000000000E+00 0.  1.
          3    1    6    6  503    0 -0.19698138921E+03 -0.32683673338E+02 -0.11628453203E+04  0.11798640299E+04  0.00000000000E+00 0. -1.
         -3    1    6    6    0  503 -0.15277024001E+03  0.19469874430E+02 -0.58830676180E+03  0.60813046973E+03  0.00000000000E+00 0.  1.
<mgrwt>
<rscale>  0 0.16171552E+04</rscale>
<asrwt>0</asrwt>
<pdfrwt beam="1">  1        1 0.47172215E-01 0.16171552E+04</pdfrwt>
<pdfrwt beam="2">  1       -2 0.32804275E+00 0.16171552E+04</pdfrwt>
<totfact> 0.15293670E+00</totfact>
</mgrwt>
</event>
<event>
12    4  0.4381187E-008  0.1274406E+04  0.7818608E-02  0.9050111E-01
         -2   -1    0    0    0  501 -0.00000000000E+00  0.00000000000E+00  0.94212418637E+03  0.94212418637E+03  0.00000000000E+00 0.  1.
          1   -1    0    0  501    0  0.00000000000E+00 -0.00000000000E+00 -0.43097033548E+03  0.43097033548E+03  0.00000000000E+00 0. -1.
        -24    2    1    2    0    0  0.22856687012E+03  0.18219947693E+03  0.10463761212E+03  0.32202507114E+03  0.85508204656E+02 0.  0.
        254    2    1    2    0    0 -0.22856687012E+03 -0.18219947693E+03  0.40651623877E+03  0.10510694507E+04  0.92414937881E+03 0.  0.
         23    2    4    4    0    0 -0.81845983901E+01 -0.37956994071E+03  0.57811809471E+03  0.69768024685E+03  0.91634425104E+02 0.  0.
         23    2    4    4    0    0 -0.22038227173E+03  0.19737046379E+03 -0.17160185594E+03  0.35338920387E+03  0.88956656768E+02 0.  0.
          3    1    3    3  502    0  0.15521126175E+01  0.22790975640E+02  0.24035230356E+02  0.33159160461E+02  0.00000000000E+00 0. -1.
         -4    1    3    3    0  502  0.22701475750E+03  0.15940850129E+03  0.80602381767E+02  0.28886591068E+03  0.00000000000E+00 0.  1.
         11    1    5    5    0    0  0.30067458448E+02 -0.11362140400E+03  0.22626347937E+03  0.25496869926E+03  0.00000000000E+00 0. -1.
        -11    1    5    5    0    0 -0.38252056838E+02 -0.26594853671E+03  0.35185461534E+03  0.44271154759E+03  0.00000000000E+00 0.  1.
          2    1    6    6  503    0 -0.10020352155E+03  0.40745123139E+02 -0.36480405373E+02  0.11415660632E+03  0.00000000000E+00 0. -1.
         -2    1    6    6    0  503 -0.12017875018E+03  0.15662534065E+03 -0.13512145057E+03  0.23923259755E+03  0.00000000000E+00 0.  1.
<mgrwt>
<rscale>  0 0.12744059E+04</rscale>
<asrwt>0</asrwt>
<pdfrwt beam="1">  1        1 0.66303129E-01 0.12744059E+04</pdfrwt>
<pdfrwt beam="2">  1       -2 0.14494218E+00 0.12744059E+04</pdfrwt>
<totfact> 0.15306341E+01</totfact>
</mgrwt>
</event>
<event>
12    4  0.4381187E-008  0.1680081E+04  0.7818608E-02  0.8772807E-01
          1   -1    0    0  501    0  0.00000000000E+00  0.00000000000E+00  0.32062814452E+04  0.32062814452E+04  0.00000000000E+00 0. -1.
         -2   -1    0    0    0  501 -0.00000000000E+00 -0.00000000000E+00 -0.22008924657E+03  0.22008924657E+03  0.00000000000E+00 0.  1.
        -24    2    1    2    0    0  0.27083560599E+03  0.37258203585E+03  0.29310898663E+03  0.55598630020E+03  0.10506468990E+03 0.  0.
        254    2    1    2    0    0 -0.27083560599E+03 -0.37258203585E+03  0.26930832120E+04  0.28703843915E+04  0.87990912578E+03 0.  0.
         23    2    4    4    0    0 -0.27839768315E+03 -0.37446006417E+02  0.20862673930E+03  0.36169222648E+03  0.91589720832E+02 0.  0.
         23    2    4    4    0    0  0.75620771582E+01 -0.33513602943E+03  0.24844564727E+04  0.25086921651E+04  0.92946603913E+02 0.  0.
          1    1    3    3  502    0  0.56466823867E+02  0.60567180432E+02  0.10282995072E+02  0.83442348546E+02  0.00000000000E+00 0. -1.
         -2    1    3    3    0  502  0.21436878212E+03  0.31201485542E+03  0.28282599155E+03  0.47254395166E+03  0.00000000000E+00 0.  1.
         11    1    5    5    0    0 -0.23890472535E+03 -0.52824210938E+01  0.14250639659E+03  0.27822912291E+03  0.00000000000E+00 0. -1.
        -11    1    5    5    0    0 -0.39492957800E+02 -0.32163585324E+02  0.66120342706E+02  0.83463103562E+02  0.00000000000E+00 0.  1.
          2    1    6    6  503    0 -0.13933458763E+02 -0.32012840854E+03  0.23451948313E+04  0.23669843971E+04  0.00000000000E+00 0. -1.
         -2    1    6    6    0  503  0.21495535921E+02 -0.15007620892E+02  0.13926164136E+03  0.14170776797E+03  0.00000000000E+00 0.  1.
<mgrwt>
<rscale>  0 0.16800810E+04</rscale>
<asrwt>0</asrwt>
<pdfrwt beam="1">  1        1 0.49327403E+00 0.16800810E+04</pdfrwt>
<pdfrwt beam="2">  1       -2 0.33859886E-01 0.16800810E+04</pdfrwt>
<totfact> 0.28892814E+00</totfact>
</mgrwt>
</event>
<event>
12    4  0.4381187E-008  0.1307878E+04  0.7818608E-02  0.9023341E-01
         -2   -1    0    0    0  501 -0.00000000000E+00  0.00000000000E+00  0.27392273016E+03  0.27392273016E+03  0.00000000000E+00 0.  1.
          1   -1    0    0  501    0  0.00000000000E+00 -0.00000000000E+00 -0.15611566808E+04  0.15611566808E+04  0.00000000000E+00 0. -1.
        -24    2    1    2    0    0  0.10913380581E+03 -0.31482349476E+03 -0.25470719580E+03  0.42721946267E+03  0.81343059106E+02 0.  0.
        254    2    1    2    0    0 -0.10913380581E+03  0.31482349476E+03 -0.10325267548E+04  0.14078599483E+04  0.89718120474E+03 0.  0.
         23    2    4    4    0    0  0.28272100393E+03  0.44107566972E+03 -0.51636709362E+03  0.74124222320E+03  0.91247715536E+02 0.  0.
         23    2    4    4    0    0 -0.39185480974E+03 -0.12625217496E+03 -0.51615966122E+03  0.66661772510E+03  0.92024952845E+02 0.  0.
          1    1    3    3  502    0  0.87845476184E+02 -0.16287978247E+03 -0.10459648297E+03  0.21257251815E+03  0.00000000000E+00 0. -1.
         -2    1    3    3    0  502  0.21288329626E+02 -0.15194371229E+03 -0.15011071284E+03  0.21464694452E+03  0.00000000000E+00 0.  1.
         11    1    5    5    0    0  0.52247824291E+02  0.15927399585E+03 -0.17024132702E+03  0.23891452514E+03  0.00000000000E+00 0. -1.
        -11    1    5    5    0    0  0.23047317964E+03  0.28180167388E+03 -0.34612576660E+03  0.50232769806E+03  0.00000000000E+00 0.  1.
          4    1    6    6  503    0 -0.26087215028E+03 -0.12096124840E+03 -0.39118517467E+03  0.48550153788E+03  0.00000000000E+00 0. -1.
         -4    1    6    6    0  503 -0.13098265946E+03 -0.52909265644E+01 -0.12497448656E+03  0.18111618722E+03  0.00000000000E+00 0.  1.
<mgrwt>
<rscale>  0 0.13078781E+04</rscale>
<asrwt>0</asrwt>
<pdfrwt beam="1">  1        1 0.24017795E+00 0.13078781E+04</pdfrwt>
<pdfrwt beam="2">  1       -2 0.42141958E-01 0.13078781E+04</pdfrwt>
<totfact> 0.27290370E+01</totfact>
</mgrwt>
</event>
<event>
12    4  0.4381187E-008  0.1488564E+04  0.7818608E-02  0.8892094E-01
         -2   -1    0    0    0  501 -0.00000000000E+00  0.00000000000E+00  0.58197421335E+03  0.58197421335E+03  0.00000000000E+00 0.  1.
          1   -1    0    0  501    0  0.00000000000E+00 -0.00000000000E+00 -0.95185566932E+03  0.95185566932E+03  0.00000000000E+00 0. -1.
        -24    2    1    2    0    0  0.25160683903E+03  0.16342001729E+03 -0.46237403381E+03  0.55826095781E+03  0.88619672609E+02 0.  0.
        254    2    1    2    0    0 -0.25160683903E+03 -0.16342001729E+03  0.92492577841E+02  0.97556892487E+03  0.92367079996E+03 0.  0.
         23    2    4    4    0    0 -0.41343480466E+03 -0.25896701516E+03 -0.26452938709E+03  0.56196573623E+03  0.88529313882E+02 0.  0.
         23    2    4    4    0    0  0.16182796563E+03  0.95546997868E+02  0.35702196493E+03  0.41360318864E+03  0.91024144846E+02 0.  0.
          3    1    3    3  502    0  0.24085927269E+03  0.12910369542E+03 -0.37705231104E+03  0.46567091242E+03  0.00000000000E+00 0. -1.
         -4    1    3    3    0  502  0.10747566340E+02  0.34316321877E+02 -0.85321722762E+02  0.92590045386E+02  0.00000000000E+00 0.  1.
         11    1    5    5    0    0 -0.21023095707E+03 -0.16216057621E+03 -0.10239717181E+03  0.28456684379E+03  0.00000000000E+00 0.  1.
        -11    1    5    5    0    0 -0.20320384759E+03 -0.96806438949E+02 -0.16213221528E+03  0.27739889244E+03  0.00000000000E+00 0. -1.
          4    1    6    6  503    0  0.89022212223E+02  0.47909897024E+02  0.27895247933E+03  0.29670658609E+03  0.00000000000E+00 0. -1.
         -4    1    6    6    0  503  0.72805753405E+02  0.47637100844E+02  0.78069485601E+02  0.11689660255E+03  0.00000000000E+00 0.  1.
<mgrwt>
<rscale>  0 0.14885637E+04</rscale>
<asrwt>0</asrwt>
<pdfrwt beam="1">  1        1 0.14643933E+00 0.14885637E+04</pdfrwt>
<pdfrwt beam="2">  1       -2 0.89534495E-01 0.14885637E+04</pdfrwt>
<totfact> 0.14994558E+01</totfact>
</mgrwt>
</event>
<event>
12    4  0.4381187E-008  0.2872316E+04  0.7818608E-02  0.8281162E-01
          1   -1    0    0  501    0  0.00000000000E+00  0.00000000000E+00  0.19063584828E+04  0.19063584828E+04  0.00000000000E+00 0. -1.
         -2   -1    0    0    0  501 -0.00000000000E+00 -0.00000000000E+00 -0.10819320720E+04  0.10819320720E+04  0.00000000000E+00 0.  1.
        -24    2    1    2    0    0 -0.98464092591E+03 -0.47866975679E+03  0.10906788191E+04  0.15475716637E+04  0.82190503293E+02 0.  0.
        254    2    1    2    0    0  0.98464092591E+03  0.47866975679E+03 -0.26625240823E+03  0.14407188911E+04  0.89785193056E+03 0.  0.
         23    2    4    4    0    0  0.28098102577E+03  0.15968687973E+03 -0.52317596051E+03  0.62127520360E+03  0.88428256492E+02 0.  0.
         23    2    4    4    0    0  0.70365990013E+03  0.31898287707E+03  0.25692355228E+03  0.81944368749E+03  0.92687185426E+02 0.  0.
          3    1    3    3  502    0 -0.49733196244E+03 -0.24784853525E+03  0.61089699032E+03  0.82581057759E+03  0.00000000000E+00 0. -1.
         -2    1    3    3    0  502 -0.48730896347E+03 -0.23082122155E+03  0.47978182874E+03  0.72176108609E+03  0.00000000000E+00 0.  1.
         11    1    5    5    0    0  0.12190750262E+03  0.20406683753E+02 -0.19713536009E+03  0.23268051516E+03  0.00000000000E+00 0.  1.
        -11    1    5    5    0    0  0.15907352315E+03  0.13928019598E+03 -0.32604060042E+03  0.38859468843E+03  0.00000000000E+00 0. -1.
          3    1    6    6  503    0  0.61722665152E+03  0.26970439041E+03  0.25408657311E+03  0.71990914995E+03  0.00000000000E+00 0. -1.
         -3    1    6    6    0  503  0.86433248610E+02  0.49278486660E+02  0.28369791766E+01  0.99534537541E+02  0.00000000000E+00 0.  1.
<mgrwt>
<rscale>  0 0.28723164E+04</rscale>
<asrwt>0</asrwt>
<pdfrwt beam="1">  1        1 0.29328592E+00 0.28723164E+04</pdfrwt>
<pdfrwt beam="2">  1       -2 0.16645109E+00 0.28723164E+04</pdfrwt>
<totfact> 0.58955930E-01</totfact>
</mgrwt>
</event>
<event>
12    4  0.4381187E-008  0.1611710E+04  0.7818608E-02  0.8813386E-01
         -2   -1    0    0    0  501 -0.00000000000E+00  0.00000000000E+00  0.48606021132E+03  0.48606021132E+03  0.00000000000E+00 0.  1.
          1   -1    0    0  501    0  0.00000000000E+00 -0.00000000000E+00 -0.13360537447E+04  0.13360537447E+04  0.00000000000E+00 0. -1.
        -24    2    1    2    0    0  0.18758817537E+03  0.10557332599E+03  0.28025995528E+03  0.36284643764E+03  0.82321589338E+02 0.  0.
        254    2    1    2    0    0 -0.18758817537E+03 -0.10557332599E+03 -0.11302534887E+04  0.14592675184E+04  0.89758213600E+03 0.  0.
         23    2    4    4    0    0  0.17554327528E+03 -0.10624292067E+03  0.42589849715E+02  0.22871198210E+03  0.91609365067E+02 0.  0.
         23    2    4    4    0    0 -0.36313145065E+03  0.66959467155E+00 -0.11728433384E+04  0.12305555363E+04  0.82707512938E+02 0.  0.
          1    1    3    3  502    0  0.20138690100E+02  0.13143507718E+02  0.89648890517E+02  0.92818329036E+02  0.00000000000E+00 0. -1.
         -2    1    3    3    0  502  0.16744948527E+03  0.92429818276E+02  0.19061106476E+03  0.27002810860E+03  0.00000000000E+00 0.  1.
         11    1    5    5    0    0 -0.10644413576E+02 -0.71063086209E+00  0.27849118533E+01  0.11025618832E+02  0.00000000000E+00 0. -1.
        -11    1    5    5    0    0  0.18618768886E+03 -0.10553228980E+03  0.39804937862E+02  0.21768636326E+03  0.00000000000E+00 0.  1.
          3    1    6    6  503    0 -0.83092300143E+02  0.16519987780E+02 -0.38675430015E+03  0.39592439812E+03  0.00000000000E+00 0. -1.
         -3    1    6    6    0  503 -0.28003915051E+03 -0.15850393109E+02 -0.78608903822E+03  0.83463113816E+03  0.00000000000E+00 0.  1.
<mgrwt>
<rscale>  0 0.16117104E+04</rscale>
<asrwt>0</asrwt>
<pdfrwt beam="1">  1        1 0.20554673E+00 0.16117104E+04</pdfrwt>
<pdfrwt beam="2">  1       -2 0.74778495E-01 0.16117104E+04</pdfrwt>
<totfact> 0.11524083E+01</totfact>
</mgrwt>
</event>
<event>
12    4  0.4381187E-008  0.1254156E+04  0.7818608E-02  0.9066731E-01
         -2   -1    0    0    0  501 -0.00000000000E+00  0.00000000000E+00  0.46098859670E+03  0.46098859670E+03  0.00000000000E+00 0.  1.
          1   -1    0    0  501    0  0.00000000000E+00 -0.00000000000E+00 -0.85300738139E+03  0.85300738139E+03  0.00000000000E+00 0. -1.
        -24    2    1    2    0    0 -0.16229843400E+03  0.82117595443E+02  0.15487724755E+03  0.25061685846E+03  0.75748048030E+02 0.  0.
        254    2    1    2    0    0  0.16229843400E+03 -0.82117595443E+02 -0.54689603224E+03  0.10633791196E+04  0.89364187503E+03 0.  0.
         23    2    4    4    0    0 -0.21015730053E+03 -0.22389289293E+03 -0.57158426070E+03  0.65518945719E+03  0.90942505258E+02 0.  0.
         23    2    4    4    0    0  0.37245573453E+03  0.14177529749E+03  0.24688228460E+02  0.40818966243E+03  0.84768996274E+02 0.  0.
          1    1    3    3  502    0 -0.65256008662E+02  0.28966624565E+02  0.16204033540E+02  0.73211902777E+02  0.00000000000E+00 0. -1.
         -4    1    3    3    0  502 -0.97042425333E+02  0.53150970878E+02  0.13867321401E+03  0.17740495569E+03  0.00000000000E+00 0.  1.
         11    1    5    5    0    0 -0.26795113459E+02 -0.29229655214E+02 -0.15628611600E+03  0.16123802562E+03  0.00000000000E+00 0. -1.
        -11    1    5    5    0    0 -0.18336218708E+03 -0.19466323772E+03 -0.41529814470E+03  0.49395143158E+03  0.00000000000E+00 0.  1.
          2    1    6    6  503    0  0.90126808296E+02  0.18454876197E+02 -0.26820140391E+02  0.95826634918E+02  0.00000000000E+00 0. -1.
         -2    1    6    6    0  503  0.28232892623E+03  0.12332042129E+03  0.51508368852E+02  0.31236302751E+03  0.00000000000E+00 0.  1.
<mgrwt>
<rscale>  0 0.12541558E+04</rscale>
<asrwt>0</asrwt>
<pdfrwt beam="1">  1        1 0.13123190E+00 0.12541558E+04</pdfrwt>
<pdfrwt beam="2">  1       -2 0.70921323E-01 0.12541558E+04</pdfrwt>
<totfact> 0.31078478E+01</totfact>
</mgrwt>
</event>
<event>
12    4  0.4381187E-008  0.2155994E+04  0.7818608E-02  0.8536971E-01
          1   -1    0    0  501    0  0.00000000000E+00  0.00000000000E+00  0.13054543600E+04  0.13054543600E+04  0.00000000000E+00 0. -1.
         -2   -1    0    0    0  501 -0.00000000000E+00 -0.00000000000E+00 -0.89017094605E+03  0.89017094605E+03  0.00000000000E+00 0.  1.
        -24    2    1    2    0    0  0.45318006024E+03 -0.42444396832E+03  0.81677317239E+03  0.10294557430E+04  0.84474034129E+02 0.  0.
        254    2    1    2    0    0 -0.45318006024E+03  0.42444396832E+03 -0.40148975847E+03  0.11661695630E+04  0.90179408642E+03 0.  0.
         23    2    4    4    0    0 -0.30206181326E+03  0.38407081348E+03 -0.67528784849E+03  0.83819591820E+03  0.88357173814E+02 0.  0.
         23    2    4    4    0    0 -0.15111824698E+03  0.40373154837E+02  0.27379809002E+03  0.32797364482E+03  0.90192025108E+02 0.  0.
          3    1    3    3  502    0  0.43267476838E+03 -0.41559909644E+03  0.80569598056E+03  0.10045277882E+04  0.00000000000E+00 0. -1.
         -2    1    3    3    0  502  0.20505291859E+02 -0.88448718774E+01  0.11077191832E+02  0.24927954823E+02  0.00000000000E+00 0.  1.
         11    1    5    5    0    0 -0.15763831669E+03  0.25288109351E+03 -0.45531499678E+03  0.54416030049E+03  0.00000000000E+00 0. -1.
        -11    1    5    5    0    0 -0.14442349656E+03  0.13118971998E+03 -0.21997285172E+03  0.29403561770E+03  0.00000000000E+00 0.  1.
          2    1    6    6  503    0 -0.23949607304E+02 -0.27131145693E+02  0.46666376045E+02  0.59054495255E+02  0.00000000000E+00 0. -1.
         -2    1    6    6    0  503 -0.12716863968E+03  0.67504300530E+02  0.22713171398E+03  0.26891914956E+03  0.00000000000E+00 0.  1.
<mgrwt>
<rscale>  0 0.21559940E+04</rscale>
<asrwt>0</asrwt>
<pdfrwt beam="1">  1        1 0.20083913E+00 0.21559940E+04</pdfrwt>
<pdfrwt beam="2">  1       -2 0.13694938E+00 0.21559940E+04</pdfrwt>
<totfact> 0.27379084E+00</totfact>
</mgrwt>
</event>
<event>
12    4  0.4381187E-008  0.2217052E+04  0.7818608E-02  0.8511364E-01
         -2   -1    0    0    0  501 -0.00000000000E+00  0.00000000000E+00  0.13971334774E+04  0.13971334774E+04  0.00000000000E+00 0.  1.
          1   -1    0    0  501    0  0.00000000000E+00 -0.00000000000E+00 -0.87953683667E+03  0.87953683667E+03  0.00000000000E+00 0. -1.
        -24    2    1    2    0    0  0.47843094495E+03 -0.45175884056E+03 -0.45078623623E+03  0.80196591175E+03  0.83419864006E+02 0.  0.
        254    2    1    2    0    0 -0.47843094495E+03  0.45175884056E+03  0.96838287693E+03  0.14747044023E+04  0.89666351473E+03 0.  0.
         23    2    4    4    0    0 -0.48178470790E+01  0.59659748236E+03  0.45451145863E+03  0.75554656197E+03  0.91204022227E+02 0.  0.
         23    2    4    4    0    0 -0.47361309787E+03 -0.14483864180E+03  0.51387141829E+03  0.71915784030E+03  0.88524381359E+02 0.  0.
          3    1    3    3  502    0  0.39830938206E+03 -0.34326319942E+03 -0.38634040414E+03  0.65248670161E+03  0.00000000000E+00 0. -1.
         -4    1    3    3    0  502  0.80121562897E+02 -0.10849564114E+03 -0.64445832092E+02  0.14947921013E+03  0.00000000000E+00 0.  1.
         11    1    5    5    0    0  0.40304261581E+02  0.18481521982E+03  0.13492482764E+03  0.23234846264E+03  0.00000000000E+00 0. -1.
        -11    1    5    5    0    0 -0.45122108660E+02  0.41178226254E+03  0.31958663100E+03  0.52319809933E+03  0.00000000000E+00 0.  1.
          2    1    6    6  503    0 -0.69244844998E+02  0.93748064360E+01  0.82440150449E+02  0.10806994939E+03  0.00000000000E+00 0. -1.
         -2    1    6    6    0  503 -0.40436825288E+03 -0.15421344823E+03  0.43143126784E+03  0.61108789092E+03  0.00000000000E+00 0.  1.
<mgrwt>
<rscale>  0 0.22170524E+04</rscale>
<asrwt>0</asrwt>
<pdfrwt beam="1">  1        1 0.13531336E+00 0.22170524E+04</pdfrwt>
<pdfrwt beam="2">  1       -2 0.21494361E+00 0.22170524E+04</pdfrwt>
<totfact> 0.16064855E+00</totfact>
</mgrwt>
</event>
<event>
12    4  0.4381187E-008  0.1164378E+04  0.7818608E-02  0.9144621E-01
          1   -1    0    0  501    0  0.00000000000E+00  0.00000000000E+00  0.55679981074E+03  0.55679981074E+03  0.00000000000E+00 0. -1.
         -2   -1    0    0    0  501 -0.00000000000E+00 -0.00000000000E+00 -0.60873546282E+03  0.60873546282E+03  0.00000000000E+00 0.  1.
        -24    2    1    2    0    0 -0.11966440820E+03 -0.19621717139E+03  0.50036323718E+02  0.24822659597E+03  0.79322508264E+02 0.  0.
        254    2    1    2    0    0  0.11966440820E+03  0.19621717139E+03 -0.10197197580E+03  0.91730867759E+03  0.88217695345E+03 0.  0.
         23    2    4    4    0    0 -0.32557993773E+02 -0.26874846279E+03 -0.26961898780E+03  0.39215322268E+03  0.88340207510E+02 0.  0.
         23    2    4    4    0    0  0.15222240197E+03  0.46496563418E+03  0.16764701200E+03  0.52515545492E+03  0.91203237686E+02 0.  0.
          1    1    3    3  502    0 -0.64575476059E+02 -0.16900353583E+03  0.28695249060E+02  0.18318188925E+03  0.00000000000E+00 0. -1.
         -2    1    3    3    0  502 -0.55088932136E+02 -0.27213635564E+02  0.21341074659E+02  0.65044706719E+02  0.00000000000E+00 0.  1.
         11    1    5    5    0    0  0.14001132077E+02 -0.24440113012E+01 -0.16900117717E+02  0.22082093867E+02  0.00000000000E+00 0. -1.
        -11    1    5    5    0    0 -0.46559125850E+02 -0.26630445149E+03 -0.25271887008E+03  0.37007112881E+03  0.00000000000E+00 0.  1.
          1    1    6    6  503    0  0.19420980048E+02  0.72974951319E+01  0.29702865655E+01  0.20958303927E+02  0.00000000000E+00 0. -1.
         -1    1    6    6    0  503  0.13280142192E+03  0.45766813905E+03  0.16467672543E+03  0.50419715099E+03  0.00000000000E+00 0.  1.
<mgrwt>
<rscale>  0 0.11643776E+04</rscale>
<asrwt>0</asrwt>
<pdfrwt beam="1">  1        1 0.85661510E-01 0.11643776E+04</pdfrwt>
<pdfrwt beam="2">  1       -2 0.93651609E-01 0.11643776E+04</pdfrwt>
<totfact> 0.31896282E+01</totfact>
</mgrwt>
</event>
<event>
12    4  0.4381187E-008  0.1768844E+04  0.7818608E-02  0.8723045E-01
         -2   -1    0    0    0  501 -0.00000000000E+00  0.00000000000E+00  0.58024821005E+03  0.58024821005E+03  0.00000000000E+00 0.  1.
          1   -1    0    0  501    0  0.00000000000E+00 -0.00000000000E+00 -0.13480481603E+04  0.13480481603E+04  0.00000000000E+00 0. -1.
        -24    2    1    2    0    0  0.57155556601E+03  0.24401063432E+02 -0.25457348110E+02  0.57815321280E+03  0.79635946394E+02 0.  0.
        254    2    1    2    0    0 -0.57155556601E+03 -0.24401063432E+02 -0.74234260209E+03  0.13501431575E+04  0.97187593341E+03 0.  0.
         23    2    4    4    0    0  0.21125580390E+03  0.13332025321E+03 -0.39204337100E+03  0.47375174407E+03  0.91320346404E+02 0.  0.
         23    2    4    4    0    0 -0.78281136992E+03 -0.15772131664E+03 -0.35029923109E+03  0.87639141343E+03  0.87651033281E+02 0.  0.
          1    1    3    3  502    0  0.47586687165E+03  0.14189360114E+02  0.83610727689E+01  0.47615178779E+03  0.00000000000E+00 0. -1.
         -2    1    3    3    0  502  0.95688694365E+02  0.10211703318E+02 -0.33818420879E+02  0.10200142501E+03  0.00000000000E+00 0.  1.
         11    1    5    5    0    0  0.20125861593E+03  0.13671550118E+03 -0.39394737960E+03  0.46302342991E+03  0.00000000000E+00 0. -1.
        -11    1    5    5    0    0  0.99971879697E+01 -0.33952479693E+01  0.19040085989E+01  0.10728314165E+02  0.00000000000E+00 0.  1.
          4    1    6    6  503    0 -0.38305643558E+03 -0.79939603165E+02 -0.12398412047E+03  0.41048098022E+03  0.00000000000E+00 0. -1.
         -4    1    6    6    0  503 -0.39975493434E+03 -0.77781713476E+02 -0.22631511062E+03  0.46591043321E+03  0.00000000000E+00 0.  1.
<mgrwt>
<rscale>  0 0.17688443E+04</rscale>
<asrwt>0</asrwt>
<pdfrwt beam="1">  1        1 0.20739202E+00 0.17688443E+04</pdfrwt>
<pdfrwt beam="2">  1       -2 0.89268957E-01 0.17688443E+04</pdfrwt>
<totfact> 0.74731579E+00</totfact>
</mgrwt>
</event>
<event>
12    4  0.4381187E-008  0.1215922E+04  0.7818608E-02  0.9099033E-01
         -2   -1    0    0    0  501 -0.00000000000E+00  0.00000000000E+00  0.99552097745E+03  0.99552097745E+03  0.00000000000E+00 0.  1.
          1   -1    0    0  501    0  0.00000000000E+00 -0.00000000000E+00 -0.37127929886E+03  0.37127929886E+03  0.00000000000E+00 0. -1.
        -24    2    1    2    0    0  0.10826874659E+03  0.11189003456E+03 -0.10153531070E+03  0.20169663158E+03  0.78298215497E+02 0.  0.
        254    2    1    2    0    0 -0.10826874659E+03 -0.11189003456E+03  0.72577698929E+03  0.11651036447E+04  0.89803828619E+03 0.  0.
         23    2    4    4    0    0 -0.24010021270E+03  0.26942601741E+03  0.52989620563E+02  0.37592103077E+03  0.90940807608E+02 0.  0.
         23    2    4    4    0    0  0.13183146611E+03 -0.38131605197E+03  0.67278736872E+03  0.78918261396E+03  0.85935369409E+02 0.  0.
          1    1    3    3  502    0  0.87898400911E+02  0.74034167721E+02 -0.10861638292E+03  0.15812876245E+03  0.00000000000E+00 0. -1.
         -2    1    3    3    0  502  0.20370345680E+02  0.37855866837E+02  0.70810722247E+01  0.43567869135E+02  0.00000000000E+00 0.  1.
         11    1    5    5    0    0 -0.52230495921E+02  0.33120596825E+02  0.40201248887E+02  0.73764076964E+02  0.00000000000E+00 0. -1.
        -11    1    5    5    0    0 -0.18786971678E+03  0.23630542059E+03  0.12788371676E+02  0.30215695381E+03  0.00000000000E+00 0.  1.
          4    1    6    6  503    0  0.96743206710E+02 -0.16895317752E+03  0.36374343824E+03  0.41256964637E+03  0.00000000000E+00 0.  1.
         -4    1    6    6    0  503  0.35088259401E+02 -0.21236287445E+03  0.30904393048E+03  0.37661296759E+03  0.00000000000E+00 0. -1.
<mgrwt>
<rscale>  0 0.12159216E+04</rscale>
<asrwt>0</asrwt>
<pdfrwt beam="1">  1        1 0.57119893E-01 0.12159216E+04</pdfrwt>
<pdfrwt beam="2">  1       -2 0.15315707E+00 0.12159216E+04</pdfrwt>
<totfact> 0.16196517E+01</totfact>
</mgrwt>
</event>
<event>
12    4  0.4381187E-008  0.1590324E+04  0.7818608E-02  0.8826515E-01
          1   -1    0    0  501    0  0.00000000000E+00  0.00000000000E+00  0.11236586929E+04  0.11236586929E+04  0.00000000000E+00 0. -1.
         -2   -1    0    0    0  501 -0.00000000000E+00 -0.00000000000E+00 -0.56269953499E+03  0.56269953499E+03  0.00000000000E+00 0.  1.
        -24    2    1    2    0    0  0.16043359965E+03  0.49640629131E+03  0.33334922922E+03  0.62333369490E+03  0.72560599699E+02 0.  0.
        254    2    1    2    0    0 -0.16043359965E+03 -0.49640629131E+03  0.22760992871E+03  0.10630245330E+04  0.89780662294E+03 0.  0.
         23    2    4    4    0    0 -0.24207367884E+03 -0.20984597469E+02  0.45330067853E+03  0.52250009044E+03  0.92113082890E+02 0.  0.
         23    2    4    4    0    0  0.81640079187E+02 -0.47542169384E+03 -0.22569074981E+03  0.54052444257E+03  0.92409247190E+02 0.  0.
          3    1    3    3  502    0  0.14864969991E+03  0.37642233936E+03  0.23696744368E+03  0.46898196150E+03  0.00000000000E+00 0. -1.
         -4    1    3    3    0  502  0.11783899742E+02  0.11998395195E+03  0.96381785543E+02  0.15435173340E+03  0.00000000000E+00 0.  1.
         11    1    5    5    0    0 -0.13298052093E+03 -0.36258626402E+02  0.32728068710E+03  0.35512132446E+03  0.00000000000E+00 0. -1.
        -11    1    5    5    0    0 -0.10909315791E+03  0.15274028933E+02  0.12601999142E+03  0.16737876598E+03  0.00000000000E+00 0.  1.
          3    1    6    6  503    0  0.14964540415E+02 -0.26793974336E+03 -0.16205188869E+03  0.31349076250E+03  0.00000000000E+00 0. -1.
         -3    1    6    6    0  503  0.66675538772E+02 -0.20748195047E+03 -0.63638861120E+02  0.22703368007E+03  0.00000000000E+00 0.  1.
<mgrwt>
<rscale>  0 0.15903235E+04</rscale>
<asrwt>0</asrwt>
<pdfrwt beam="1">  1        1 0.17287057E+00 0.15903235E+04</pdfrwt>
<pdfrwt beam="2">  1       -2 0.86569160E-01 0.15903235E+04</pdfrwt>
<totfact> 0.11843756E+01</totfact>
</mgrwt>
</event>
<event>
12    4  0.4381187E-008  0.2502135E+04  0.7818608E-02  0.8402225E-01
          1   -1    0    0  501    0  0.00000000000E+00  0.00000000000E+00  0.27456994726E+04  0.27456994726E+04  0.00000000000E+00 0. -1.
         -2   -1    0    0    0  501 -0.00000000000E+00 -0.00000000000E+00 -0.57004407244E+03  0.57004407244E+03  0.00000000000E+00 0.  1.
        -24    2    1    2    0    0  0.28688490653E+03 -0.62400310124E+03  0.20576847498E+04  0.21707750214E+04  0.80714582645E+02 0.  0.
        254    2    1    2    0    0 -0.28688490653E+03  0.62400310124E+03  0.11797065038E+03  0.11449685237E+04  0.90848941984E+03 0.  0.
         23    2    4    4    0    0 -0.50299680918E+03  0.44321267220E+02  0.32260413486E+02  0.51376676913E+03  0.89136939656E+02 0.  0.
         23    2    4    4    0    0  0.21611190264E+03  0.57968183402E+03  0.85710236891E+02  0.63120175457E+03  0.91290892849E+02 0.  0.
          3    1    3    3  502    0  0.21718608712E+03 -0.46800476581E+03  0.16483920212E+04  0.17272505646E+04  0.00000000000E+00 0. -1.
         -4    1    3    3    0  502  0.69698819416E+02 -0.15599833543E+03  0.40929272859E+03  0.44352445677E+03  0.00000000000E+00 0.  1.
         11    1    5    5    0    0 -0.46636687623E+02  0.15625048136E+01 -0.23116331637E+02  0.52074819655E+02  0.00000000000E+00 0. -1.
        -11    1    5    5    0    0 -0.45636012155E+03  0.42758762407E+02  0.55376745123E+02  0.46169194947E+03  0.00000000000E+00 0.  1.
          3    1    6    6  503    0  0.37367966041E+02  0.11371256966E+03  0.53441960168E+02  0.13108377661E+03  0.00000000000E+00 0. -1.
         -3    1    6    6    0  503  0.17874393660E+03  0.46596926436E+03  0.32268276723E+02  0.50011797796E+03  0.00000000000E+00 0.  1.
<mgrwt>
<rscale>  0 0.25021349E+04</rscale>
<asrwt>0</asrwt>
<pdfrwt beam="1">  1        1 0.42241530E+00 0.25021349E+04</pdfrwt>
<pdfrwt beam="2">  1       -2 0.87699090E-01 0.25021349E+04</pdfrwt>
<totfact> 0.79788950E-01</totfact>
</mgrwt>
</event>
<event>
12    4  0.4381187E-008  0.3025556E+04  0.7818608E-02  0.8236471E-01
          1   -1    0    0  501    0  0.00000000000E+00  0.00000000000E+00  0.19653452596E+04  0.19653452596E+04  0.00000000000E+00 0. -1.
         -2   -1    0    0    0  501 -0.00000000000E+00 -0.00000000000E+00 -0.11644248841E+04  0.11644248841E+04  0.00000000000E+00 0.  1.
        -24    2    1    2    0    0 -0.65199649399E+03  0.17960563980E+03 -0.87632439328E+03  0.11099082248E+04  0.81204748588E+02 0.  0.
        254    2    1    2    0    0  0.65199649399E+03 -0.17960563980E+03  0.16772447687E+04  0.20198619189E+04  0.89963022590E+03 0.  0.
         23    2    4    4    0    0  0.62798004837E+00 -0.73198332876E+02 -0.79151743901E+02  0.14154942739E+03  0.91721597983E+02 0.  0.
         23    2    4    4    0    0  0.65136851394E+03 -0.10640730693E+03  0.17563965126E+04  0.18783124916E+04  0.86750506887E+02 0.  0.
          3    1    3    3  502    0 -0.69061597558E+02  0.26760629735E+02 -0.60477557099E+02  0.95619927179E+02  0.00000000000E+00 0. -1.
         -4    1    3    3    0  502 -0.58293489643E+03  0.15284501007E+03 -0.81584683618E+03  0.10142882976E+04  0.00000000000E+00 0.  1.
         11    1    5    5    0    0  0.35376880879E+02 -0.33564111651E+02 -0.73952426949E+02  0.88583490241E+02  0.00000000000E+00 0.  1.
        -11    1    5    5    0    0 -0.34748900831E+02 -0.39634221225E+02 -0.51993169520E+01  0.52965937147E+02  0.00000000000E+00 0. -1.
          2    1    6    6  503    0  0.45274353638E+03 -0.56321950084E+02  0.11054569216E+04  0.11959029548E+04  0.00000000000E+00 0. -1.
         -2    1    6    6    0  503  0.19862497756E+03 -0.50085356842E+02  0.65093959108E+03  0.68240953680E+03  0.00000000000E+00 0.  1.
<mgrwt>
<rscale>  0 0.30255558E+04</rscale>
<asrwt>0</asrwt>
<pdfrwt beam="1">  1        1 0.30236081E+00 0.30255558E+04</pdfrwt>
<pdfrwt beam="2">  1       -2 0.17914229E+00 0.30255558E+04</pdfrwt>
<totfact> 0.43172016E-01</totfact>
</mgrwt>
</event>
<event>
12    4  0.4381187E-008  0.1874767E+04  0.7818608E-02  0.8667519E-01
          1   -1    0    0  501    0  0.00000000000E+00  0.00000000000E+00  0.15462918763E+04  0.15462918763E+04  0.00000000000E+00 0. -1.
         -2   -1    0    0    0  501 -0.00000000000E+00 -0.00000000000E+00 -0.56825483268E+03  0.56825483268E+03  0.00000000000E+00 0.  1.
        -24    2    1    2    0    0  0.31310571705E+03  0.18417125352E+03  0.10934933983E+04  0.11551106359E+04  0.81231326602E+02 0.  0.
        254    2    1    2    0    0 -0.31310571705E+03 -0.18417125352E+03 -0.11545635468E+03  0.95943607305E+03  0.88047326351E+03 0.  0.
         23    2    4    4    0    0 -0.47017594147E+03 -0.22679214944E+03 -0.36839324193E+03  0.64510503155E+03  0.89144972054E+02 0.  0.
         23    2    4    4    0    0  0.15707022442E+03  0.42620895919E+02  0.25293688725E+03  0.31433104150E+03  0.91319978902E+02 0.  0.
          1    1    3    3  502    0  0.27670100071E+03  0.12711734814E+03  0.90144983996E+03  0.95149045080E+03  0.00000000000E+00 0. -1.
         -2    1    3    3    0  502  0.36404716345E+02  0.57053905381E+02  0.19204355831E+03  0.20362018509E+03  0.00000000000E+00 0.  1.
         11    1    5    5    0    0 -0.88236203372E+02 -0.60976493469E+02 -0.38777935573E+02  0.11405037759E+03  0.00000000000E+00 0. -1.
        -11    1    5    5    0    0 -0.38193973810E+03 -0.16581565597E+03 -0.32961530636E+03  0.53105465396E+03  0.00000000000E+00 0.  1.
          4    1    6    6  503    0  0.90168361192E+02 -0.11258682801E+02  0.18002721860E+03  0.20166033506E+03  0.00000000000E+00 0.  1.
         -4    1    6    6    0  503  0.66901863228E+02  0.53879578721E+02  0.72909668653E+02  0.11267070644E+03  0.00000000000E+00 0. -1.
<mgrwt>
<rscale>  0 0.18747670E+04</rscale>
<asrwt>0</asrwt>
<pdfrwt beam="1">  1        1 0.23789106E+00 0.18747670E+04</pdfrwt>
<pdfrwt beam="2">  1       -2 0.87423821E-01 0.18747670E+04</pdfrwt>
<totfact> 0.56498544E+00</totfact>
</mgrwt>
</event>
<event>
12    4  0.4381187E-008  0.2000729E+04  0.7818608E-02  0.8606280E-01
         -2   -1    0    0    0  501 -0.00000000000E+00  0.00000000000E+00  0.17221540854E+04  0.17221540854E+04  0.00000000000E+00 0.  1.
          1   -1    0    0  501    0  0.00000000000E+00 -0.00000000000E+00 -0.58109131812E+03  0.58109131812E+03  0.00000000000E+00 0. -1.
        -24    2    1    2    0    0  0.23393920611E+03  0.60616544081E+03 -0.72823499417E+02  0.65864691377E+03  0.79676854610E+02 0.  0.
        254    2    1    2    0    0 -0.23393920611E+03 -0.60616544081E+03  0.12138862667E+04  0.16445984898E+04  0.89945551878E+03 0.  0.
         23    2    4    4    0    0  0.90168378763E+02  0.15196689859E+03  0.54266194288E+03  0.57769416734E+03  0.89578412213E+02 0.  0.
         23    2    4    4    0    0 -0.32410758487E+03 -0.75813233940E+03  0.67122432387E+03  0.10669043225E+04  0.89063851866E+02 0.  0.
          1    1    3    3  502    0  0.23802937094E+03  0.59642884894E+03 -0.64898744246E+02  0.64544341370E+03  0.00000000000E+00 0. -1.
         -2    1    3    3    0  502 -0.40901648331E+01  0.97365918697E+01 -0.79247551712E+01  0.13203500071E+02  0.00000000000E+00 0.  1.
         11    1    5    5    0    0  0.33739455492E+02  0.71838686828E+00  0.13690893044E+03  0.14100681604E+03  0.00000000000E+00 0.  1.
        -11    1    5    5    0    0  0.56428923271E+02  0.15124851172E+03  0.40575301244E+03  0.43668735130E+03  0.00000000000E+00 0. -1.
          3    1    6    6  503    0 -0.32831260329E+03 -0.72534883832E+03  0.64192548823E+03  0.10227357602E+04  0.00000000000E+00 0. -1.
         -3    1    6    6    0  503  0.42050184187E+01 -0.32783501081E+02  0.29298835647E+02  0.44168562273E+02  0.00000000000E+00 0.  1.
<mgrwt>
<rscale>  0 0.20007287E+04</rscale>
<asrwt>0</asrwt>
<pdfrwt beam="1">  1        1 0.89398665E-01 0.20007287E+04</pdfrwt>
<pdfrwt beam="2">  1       -2 0.26494678E+00 0.20007287E+04</pdfrwt>
<totfact> 0.15161872E+00</totfact>
</mgrwt>
</event>
<event>
12    4  0.4381187E-008  0.1455280E+04  0.7818608E-02  0.8914748E-01
          1   -1    0    0  501    0  0.00000000000E+00  0.00000000000E+00  0.15758590969E+04  0.15758590969E+04  0.00000000000E+00 0. -1.
         -2   -1    0    0    0  501 -0.00000000000E+00 -0.00000000000E+00 -0.33598178349E+03  0.33598178349E+03  0.00000000000E+00 0.  1.
        -24    2    1    2    0    0 -0.23277709352E+03  0.20010172610E+03 -0.36325392872E+02  0.31901098530E+03  0.78883448983E+02 0.  0.
        254    2    1    2    0    0  0.23277709352E+03 -0.20010172610E+03  0.12762027063E+04  0.15928298951E+04  0.90232358447E+03 0.  0.
         23    2    4    4    0    0 -0.30083159619E+03 -0.19855580358E+02  0.19666971351E+03  0.37162609966E+03  0.92374717325E+02 0.  0.
         23    2    4    4    0    0  0.53360868971E+03 -0.18024614574E+03  0.10795329927E+04  0.12212037954E+04  0.93382657167E+02 0.  0.
          3    1    3    3  502    0 -0.10704561379E+03  0.85419785963E+02  0.22840780265E+02  0.13884165265E+03  0.00000000000E+00 0. -1.
         -4    1    3    3    0  502 -0.12573147973E+03  0.11468194013E+03 -0.59166173137E+02  0.18016933266E+03  0.00000000000E+00 0.  1.
         11    1    5    5    0    0 -0.13562129433E+03  0.29848964757E+02  0.58898611891E+02  0.15084144873E+03  0.00000000000E+00 0.  1.
        -11    1    5    5    0    0 -0.16521030187E+03 -0.49704545115E+02  0.13777110161E+03  0.22078465093E+03  0.00000000000E+00 0. -1.
          2    1    6    6  503    0  0.19763288826E+03 -0.23331272342E+02  0.34151807380E+03  0.39526915074E+03  0.00000000000E+00 0. -1.
         -2    1    6    6    0  503  0.33597580145E+03 -0.15691487340E+03  0.73801491895E+03  0.82593464466E+03  0.00000000000E+00 0.  1.
<mgrwt>
<rscale>  0 0.14552800E+04</rscale>
<asrwt>0</asrwt>
<pdfrwt beam="1">  1        1 0.24243986E+00 0.14552800E+04</pdfrwt>
<pdfrwt beam="2">  1       -2 0.51689506E-01 0.14552800E+04</pdfrwt>
<totfact> 0.17460883E+01</totfact>
</mgrwt>
</event>
<event>
12    4  0.4381187E-008  0.1348468E+04  0.7818608E-02  0.8991989E-01
         -2   -1    0    0    0  501 -0.00000000000E+00  0.00000000000E+00  0.76288154897E+03  0.76288154897E+03  0.00000000000E+00 0.  1.
          1   -1    0    0  501    0  0.00000000000E+00 -0.00000000000E+00 -0.59588742183E+03  0.59588742183E+03  0.00000000000E+00 0. -1.
        -24    2    1    2    0    0 -0.78149115084E+02  0.90338942770E+02  0.41353533074E+03  0.43706572201E+03  0.75806113321E+02 0.  0.
        254    2    1    2    0    0  0.78149115084E+02 -0.90338942770E+02 -0.24654120360E+03  0.92170324878E+03  0.88004880829E+03 0.  0.
         23    2    4    4    0    0  0.56882178713E+02 -0.47495124090E+03 -0.18264584984E+03  0.51996687306E+03  0.90508447848E+02 0.  0.
         23    2    4    4    0    0  0.21266936371E+02  0.38461229813E+03 -0.63895353763E+02  0.40173637572E+03  0.94501835357E+02 0.  0.
          1    1    3    3  502    0 -0.62706399191E+02  0.10338515098E+03  0.34290627128E+03  0.36360045768E+03  0.00000000000E+00 0. -1.
         -2    1    3    3    0  502 -0.15442715893E+02 -0.13046208209E+02  0.70629059464E+02  0.73465264334E+02  0.00000000000E+00 0.  1.
         11    1    5    5    0    0 -0.21436922956E+02 -0.17783727734E+03 -0.56586823605E+02  0.18785022620E+03  0.00000000000E+00 0. -1.
        -11    1    5    5    0    0  0.78319101669E+02 -0.29711396356E+03 -0.12605902623E+03  0.33211664686E+03  0.00000000000E+00 0.  1.
          3    1    6    6  503    0  0.37948214568E+02  0.56825344245E+02 -0.14066883492E+02  0.69764345827E+02  0.00000000000E+00 0. -1.
         -3    1    6    6    0  503 -0.16681278197E+02  0.32778695389E+03 -0.49828470271E+02  0.33197202989E+03  0.00000000000E+00 0.  1.
<mgrwt>
<rscale>  0 0.13484680E+04</rscale>
<asrwt>0</asrwt>
<pdfrwt beam="1">  1        1 0.91674988E-01 0.13484680E+04</pdfrwt>
<pdfrwt beam="2">  1       -2 0.11736639E+00 0.13484680E+04</pdfrwt>
<totfact> 0.16618921E+01</totfact>
</mgrwt>
</event>
<event>
12    4  0.4381187E-008  0.1934273E+04  0.7818608E-02  0.8637982E-01
         -2   -1    0    0    0  501 -0.00000000000E+00  0.00000000000E+00  0.10556597484E+04  0.10556597484E+04  0.00000000000E+00 0.  1.
          1   -1    0    0  501    0  0.00000000000E+00 -0.00000000000E+00 -0.88603605261E+03  0.88603605261E+03  0.00000000000E+00 0. -1.
        -24    2    1    2    0    0 -0.39283390661E+03  0.36633473168E+02  0.71479873058E+03  0.82030910667E+03  0.79431201069E+02 0.  0.
        254    2    1    2    0    0  0.39283390661E+03 -0.36633473168E+02 -0.54517503477E+03  0.11213866944E+04  0.89701271462E+03 0.  0.
         23    2    4    4    0    0 -0.18194267969E+03  0.22422491095E+03 -0.36090678024E+02  0.30512852760E+03  0.91765635909E+02 0.  0.
         23    2    4    4    0    0  0.57477658630E+03 -0.26085838412E+03 -0.50908435675E+03  0.81625816675E+03  0.93248548360E+02 0.  0.
          1    1    3    3  502    0 -0.25400144726E+03  0.57445609142E+02  0.42809407265E+03  0.50108010163E+03  0.00000000000E+00 0. -1.
         -2    1    3    3    0  502 -0.13883245936E+03 -0.20812135974E+02  0.28670465793E+03  0.31922900503E+03  0.00000000000E+00 0.  1.
         11    1    5    5    0    0 -0.10111138213E+03  0.10394993394E+03 -0.62359732197E+02  0.15785384557E+03  0.00000000000E+00 0.  1.
        -11    1    5    5    0    0 -0.80831297557E+02  0.12027497701E+03  0.26269054173E+02  0.14727468203E+03  0.00000000000E+00 0. -1.
          3    1    6    6  503    0  0.41592067048E+03 -0.18883768653E+03 -0.41946503976E+03  0.62016174952E+03  0.00000000000E+00 0. -1.
         -3    1    6    6    0  503  0.15885591582E+03 -0.72020697583E+02 -0.89619316989E+02  0.19609641723E+03  0.00000000000E+00 0.  1.
<mgrwt>
<rscale>  0 0.19342726E+04</rscale>
<asrwt>0</asrwt>
<pdfrwt beam="1">  1        1 0.13631324E+00 0.19342726E+04</pdfrwt>
<pdfrwt beam="2">  1       -2 0.16240919E+00 0.19342726E+04</pdfrwt>
<totfact> 0.36928046E+00</totfact>
</mgrwt>
</event>
<event>
12    4  0.4381187E-008  0.2218591E+04  0.7818608E-02  0.8510730E-01
          1   -1    0    0  501    0  0.00000000000E+00  0.00000000000E+00  0.79841480470E+03  0.79841480470E+03  0.00000000000E+00 0. -1.
         -2   -1    0    0    0  501 -0.00000000000E+00 -0.00000000000E+00 -0.15412245241E+04  0.15412245241E+04  0.00000000000E+00 0.  1.
        -24    2    1    2    0    0 -0.76697271407E+03  0.44532896800E+03 -0.35140690517E+02  0.89144621969E+03  0.82924426969E+02 0.  0.
        254    2    1    2    0    0  0.76697271407E+03 -0.44532896800E+03 -0.70766902885E+03  0.14481931091E+04  0.89994599446E+03 0.  0.
         23    2    4    4    0    0  0.41012195835E+03 -0.65033352126E+03 -0.22267568255E+03  0.80581015234E+03  0.92799959162E+02 0.  0.
         23    2    4    4    0    0  0.35685075572E+03  0.20500455326E+03 -0.48499334630E+03  0.64238295675E+03  0.89821981981E+02 0.  0.
          3    1    3    3  502    0 -0.48031282055E+03  0.31287016336E+03 -0.49324749299E+02  0.57534431048E+03  0.00000000000E+00 0. -1.
         -4    1    3    3    0  502 -0.28665989352E+03  0.13245880464E+03  0.14184058782E+02  0.31610190920E+03  0.00000000000E+00 0.  1.
         11    1    5    5    0    0  0.38568461213E+03 -0.56600137481E+03 -0.21405736434E+03  0.71758674148E+03  0.00000000000E+00 0. -1.
        -11    1    5    5    0    0  0.24437346221E+02 -0.84332146451E+02 -0.86183182150E+01  0.88223410862E+02  0.00000000000E+00 0.  1.
          4    1    6    6  503    0  0.14730617794E+03  0.12270600717E+03 -0.17736864035E+03  0.26118098866E+03  0.00000000000E+00 0. -1.
         -4    1    6    6    0  503  0.20954457778E+03  0.82298546086E+02 -0.30762470595E+03  0.38120196809E+03  0.00000000000E+00 0.  1.
<mgrwt>
<rscale>  0 0.22185910E+04</rscale>
<asrwt>0</asrwt>
<pdfrwt beam="1">  1        1 0.12283305E+00 0.22185910E+04</pdfrwt>
<pdfrwt beam="2">  1       -2 0.23711146E+00 0.22185910E+04</pdfrwt>
<totfact> 0.13656109E+00</totfact>
</mgrwt>
</event>
<event>
12    4  0.4381187E-008  0.1928836E+04  0.7818608E-02  0.8640634E-01
         -2   -1    0    0    0  501 -0.00000000000E+00  0.00000000000E+00  0.20474339587E+04  0.20474339587E+04  0.00000000000E+00 0.  1.
          1   -1    0    0  501    0  0.00000000000E+00 -0.00000000000E+00 -0.45427708954E+03  0.45427708954E+03  0.00000000000E+00 0. -1.
        -24    2    1    2    0    0  0.54427316773E+03  0.22102694748E+03  0.12249699398E+04  0.13608713751E+04  0.79582369163E+02 0.  0.
        254    2    1    2    0    0 -0.54427316773E+03 -0.22102694748E+03  0.36818692927E+03  0.11408396731E+04  0.90601730234E+03 0.  0.
         23    2    4    4    0    0 -0.46984133929E+02  0.30899335632E+03  0.22295876926E+03  0.39400903534E+03  0.88589525611E+02 0.  0.
         23    2    4    4    0    0 -0.49728903380E+03 -0.53002030380E+03  0.14522816001E+03  0.74683063773E+03  0.91906895378E+02 0.  0.
          3    1    3    3  502    0  0.83785368891E+02  0.78387979941E+01  0.14558486972E+03  0.16815584761E+03  0.00000000000E+00 0. -1.
         -4    1    3    3    0  502  0.46048779884E+03  0.21318814948E+03  0.10793850701E+04  0.11927155275E+04  0.00000000000E+00 0.  1.
         11    1    5    5    0    0 -0.17585846825E+02  0.53985732491E+02  0.86024208343E+02  0.10307223555E+03  0.00000000000E+00 0. -1.
        -11    1    5    5    0    0 -0.29398287104E+02  0.25500762383E+03  0.13693456092E+03  0.29093679978E+03  0.00000000000E+00 0.  1.
          3    1    6    6  503    0 -0.16373141635E+03 -0.20892916892E+03  0.14960971288E+02  0.26586313205E+03  0.00000000000E+00 0. -1.
         -3    1    6    6    0  503 -0.33355761745E+03 -0.32109113488E+03  0.13026718872E+03  0.48096750568E+03  0.00000000000E+00 0.  1.
<mgrwt>
<rscale>  0 0.19288363E+04</rscale>
<asrwt>0</asrwt>
<pdfrwt beam="1">  1        1 0.69888784E-01 0.19288363E+04</pdfrwt>
<pdfrwt beam="2">  1       -2 0.31498983E+00 0.19288363E+04</pdfrwt>
<totfact> 0.10633234E+00</totfact>
</mgrwt>
</event>
<event>
12    4  0.4381187E-008  0.1713018E+04  0.7818608E-02  0.8753974E-01
         -2   -1    0    0    0  501 -0.00000000000E+00  0.00000000000E+00  0.36292911163E+03  0.36292911163E+03  0.00000000000E+00 0.  1.
          1   -1    0    0  501    0  0.00000000000E+00 -0.00000000000E+00 -0.20213523850E+04  0.20213523850E+04  0.00000000000E+00 0. -1.
        -24    2    1    2    0    0  0.22857641040E+03 -0.44185678843E+03 -0.11166007111E+03  0.51600896893E+03  0.79452423886E+02 0.  0.
        254    2    1    2    0    0 -0.22857641040E+03  0.44185678843E+03 -0.15467632022E+04  0.18682725277E+04  0.92221539622E+03 0.  0.
         23    2    4    4    0    0 -0.50746300992E+01  0.36246436693E+03 -0.15692313670E+04  0.16131215930E+04  0.90928661609E+02 0.  0.
         23    2    4    4    0    0 -0.22350178030E+03  0.79392421501E+02  0.22468164817E+02  0.25515093462E+03  0.91328958263E+02 0.  0.
          1    1    3    3  502    0  0.85987698277E+02 -0.24787541141E+03 -0.44961287457E+02  0.26619094877E+03  0.00000000000E+00 0. -1.
         -2    1    3    3    0  502  0.14258871212E+03 -0.19398137701E+03 -0.66698783650E+02  0.24981802015E+03  0.00000000000E+00 0.  1.
         11    1    5    5    0    0 -0.38538804670E+02  0.76160194250E+02 -0.37602564591E+03  0.38559162470E+03  0.00000000000E+00 0.  1.
        -11    1    5    5    0    0  0.33464174571E+02  0.28630417268E+03 -0.11932057211E+04  0.12275299684E+04  0.00000000000E+00 0. -1.
          2    1    6    6  503    0  0.61743107470E+01 -0.30468511473E+01  0.82051719669E+01  0.10711221318E+02  0.00000000000E+00 0.  1.
         -2    1    6    6    0  503 -0.22967609105E+03  0.82439272648E+02  0.14262992850E+02  0.24443971330E+03  0.00000000000E+00 0. -1.
<mgrwt>
<rscale>  0 0.17130180E+04</rscale>
<asrwt>0</asrwt>
<pdfrwt beam="1">  1        1 0.31097729E+00 0.17130180E+04</pdfrwt>
<pdfrwt beam="2">  1       -2 0.55835249E-01 0.17130180E+04</pdfrwt>
<totfact> 0.72493394E+00</totfact>
</mgrwt>
</event>
<event>
12    4  0.4381187E-008  0.2364978E+04  0.7818608E-02  0.8452733E-01
          1   -1    0    0  501    0  0.00000000000E+00  0.00000000000E+00  0.16421955098E+04  0.16421955098E+04  0.00000000000E+00 0. -1.
         -2   -1    0    0    0  501 -0.00000000000E+00 -0.00000000000E+00 -0.85146982204E+03  0.85146982204E+03  0.00000000000E+00 0.  1.
        -24    2    1    2    0    0 -0.94175814677E+03  0.19703843785E+03  0.64352234575E+03  0.11602344555E+04  0.79312226469E+02 0.  0.
        254    2    1    2    0    0  0.94175814677E+03 -0.19703843785E+03  0.14720334204E+03  0.13334308764E+04  0.91139262952E+03 0.  0.
         23    2    4    4    0    0  0.10728249046E+04 -0.30651244464E+03  0.19603606762E+03  0.11365343343E+04  0.91525944874E+02 0.  0.
         23    2    4    4    0    0 -0.13106675778E+03  0.10947400679E+03 -0.48832725577E+02  0.19689654211E+03  0.84973878632E+02 0.  0.
          3    1    3    3  502    0 -0.56595541889E+03  0.10231675625E+03  0.42684488141E+03  0.71621980395E+03  0.00000000000E+00 0. -1.
         -4    1    3    3    0  502 -0.37580272787E+03  0.94721681598E+02  0.21667746434E+03  0.44401465155E+03  0.00000000000E+00 0.  1.
         11    1    5    5    0    0  0.73156381994E+03 -0.17019232208E+03  0.15320595290E+03  0.76656579179E+03  0.00000000000E+00 0.  1.
        -11    1    5    5    0    0  0.34126108461E+03 -0.13632012256E+03  0.42830114722E+02  0.36996854246E+03  0.00000000000E+00 0. -1.
          4    1    6    6  503    0 -0.74470682624E+02  0.10562559389E+03 -0.53721614129E+02  0.13995949586E+03  0.00000000000E+00 0. -1.
         -4    1    6    6    0  503 -0.56596075158E+02  0.38484129001E+01  0.48888885516E+01  0.56937046257E+02  0.00000000000E+00 0.  1.
<mgrwt>
<rscale>  0 0.23649777E+04</rscale>
<asrwt>0</asrwt>
<pdfrwt beam="1">  1        1 0.25264546E+00 0.23649777E+04</pdfrwt>
<pdfrwt beam="2">  1       -2 0.13099536E+00 0.23649777E+04</pdfrwt>
<totfact> 0.17553834E+00</totfact>
</mgrwt>
</event>
<event>
12    4  0.4381187E-008  0.1293679E+04  0.7818608E-02  0.9034593E-01
         -2   -1    0    0    0  501 -0.00000000000E+00  0.00000000000E+00  0.15390667280E+03  0.15390667280E+03  0.00000000000E+00 0.  1.
          1   -1    0    0  501    0  0.00000000000E+00 -0.00000000000E+00 -0.27185373432E+04  0.27185373432E+04  0.00000000000E+00 0. -1.
        -24    2    1    2    0    0  0.30899519563E+03 -0.10007885282E+03 -0.77504763490E+03  0.84421131976E+03  0.80623249457E+02 0.  0.
        254    2    1    2    0    0 -0.30899519563E+03  0.10007885282E+03 -0.17895830355E+04  0.20282326962E+04  0.89756705679E+03 0.  0.
         23    2    4    4    0    0 -0.18858262480E+03 -0.28842598602E+03 -0.25499246615E+03  0.43821372566E+03  0.90868893350E+02 0.  0.
         23    2    4    4    0    0 -0.12041257083E+03  0.38850483884E+03 -0.15345905693E+04  0.15900189705E+04  0.88073345820E+02 0.  0.
          3    1    3    3  502    0  0.79493019978E+02 -0.25563046658E+02 -0.29985954138E+03  0.31126894181E+03  0.00000000000E+00 0. -1.
         -4    1    3    3    0  502  0.22950217565E+03 -0.74515806166E+02 -0.47518809352E+03  0.53294237795E+03  0.00000000000E+00 0.  1.
         11    1    5    5    0    0  0.35147075174E+01  0.21192033685E+01  0.27266955811E+01  0.49273786786E+01  0.00000000000E+00 0. -1.
        -11    1    5    5    0    0 -0.19209733232E+03 -0.29054518939E+03 -0.25771916173E+03  0.43328634698E+03  0.00000000000E+00 0.  1.
          2    1    6    6  503    0 -0.53917079787E+02  0.82864798912E+02 -0.27699982819E+03  0.29411312655E+03  0.00000000000E+00 0. -1.
         -2    1    6    6    0  503 -0.66495491043E+02  0.30564003993E+03 -0.12575907411E+04  0.12959058440E+04  0.00000000000E+00 0.  1.
<mgrwt>
<rscale>  0 0.12936785E+04</rscale>
<asrwt>0</asrwt>
<pdfrwt beam="1">  1        1 0.41823646E+00 0.12936785E+04</pdfrwt>
<pdfrwt beam="2">  1       -2 0.23677953E-01 0.12936785E+04</pdfrwt>
<totfact> 0.13097263E+01</totfact>
</mgrwt>
</event>
<event>
12    4  0.4381187E-008  0.1466639E+04  0.7818608E-02  0.8906946E-01
         -4   -1    0    0    0  501 -0.00000000000E+00  0.00000000000E+00  0.12883873980E+04  0.12883873980E+04  0.00000000000E+00 0.  1.
          3   -1    0    0  501    0  0.00000000000E+00 -0.00000000000E+00 -0.41738797079E+03  0.41738797079E+03  0.00000000000E+00 0. -1.
        -24    2    1    2    0    0  0.13303572638E+03  0.32400368699E+03  0.62974212402E+03  0.72512903427E+03  0.80994320184E+02 0.  0.
        254    2    1    2    0    0 -0.13303572638E+03 -0.32400368699E+03  0.24125730315E+03  0.98064633449E+03  0.88362053697E+03 0.  0.
         23    2    4    4    0    0  0.14698970342E+03 -0.28129831511E+03  0.49126352642E+03  0.59227741373E+03  0.93370056336E+02 0.  0.
         23    2    4    4    0    0 -0.28002542980E+03 -0.42705371872E+02 -0.25000622327E+03  0.38836892077E+03  0.89940629426E+02 0.  0.
          3    1    3    3  502    0  0.40667944489E+02  0.98886821033E+02  0.12289114898E+03  0.16289481140E+03  0.00000000000E+00 0. -1.
         -4    1    3    3    0  502  0.92367781891E+02  0.22511686595E+03  0.50685097504E+03  0.56223422287E+03  0.00000000000E+00 0.  1.
         11    1    5    5    0    0  0.14472214700E+03 -0.18677518028E+03  0.35207512498E+03  0.42401221849E+03  0.00000000000E+00 0.  1.
        -11    1    5    5    0    0  0.22675564204E+01 -0.94523134839E+02  0.13918840144E+03  0.16826519523E+03  0.00000000000E+00 0. -1.
          3    1    6    6  503    0 -0.11955005617E+02  0.63766068033E+01 -0.45971461261E+02  0.47926595165E+02  0.00000000000E+00 0. -1.
         -3    1    6    6    0  503 -0.26807042418E+03 -0.49081978675E+02 -0.20403476201E+03  0.34044232560E+03  0.00000000000E+00 0.  1.
<mgrwt>
<rscale>  0 0.14666389E+04</rscale>
<asrwt>0</asrwt>
<pdfrwt beam="1">  1        3 0.64213535E-01 0.14666389E+04</pdfrwt>
<pdfrwt beam="2">  1       -4 0.19821344E+00 0.14666389E+04</pdfrwt>
<totfact> 0.70435220E-01</totfact>
</mgrwt>
</event>
<event>
12    4  0.4381187E-008  0.1562545E+04  0.7818608E-02  0.8843894E-01
         -2   -1    0    0    0  501 -0.00000000000E+00  0.00000000000E+00  0.58065656822E+03  0.58065656822E+03  0.00000000000E+00 0.  1.
          1   -1    0    0  501    0  0.00000000000E+00 -0.00000000000E+00 -0.10512012973E+04  0.10512012973E+04  0.00000000000E+00 0. -1.
        -24    2    1    2    0    0 -0.40346861789E+03 -0.27936097224E+03 -0.32255891628E+03  0.59275726086E+03  0.80544629804E+02 0.  0.
        254    2    1    2    0    0  0.40346861789E+03  0.27936097224E+03 -0.14798581278E+03  0.10391006046E+04  0.90388095862E+03 0.  0.
         23    2    4    4    0    0  0.52455085658E+03  0.50599895364E+03 -0.13309887303E+02  0.73477902353E+03  0.92382455538E+02 0.  0.
         23    2    4    4    0    0 -0.12108223869E+03 -0.22663798140E+03 -0.13467592547E+03  0.30432158112E+03  0.91914833910E+02 0.  0.
          1    1    3    3  502    0 -0.15420595130E+03 -0.13616839088E+03 -0.17255868634E+03  0.26851034677E+03  0.00000000000E+00 0. -1.
         -2    1    3    3    0  502 -0.24926266659E+03 -0.14319258137E+03 -0.15000022995E+03  0.32424691409E+03  0.00000000000E+00 0.  1.
         11    1    5    5    0    0  0.34169312236E+03  0.27275827346E+03 -0.27427274107E+02  0.43806794105E+03  0.00000000000E+00 0. -1.
        -11    1    5    5    0    0  0.18285773422E+03  0.23324068019E+03  0.14117386804E+02  0.29671108248E+03  0.00000000000E+00 0.  1.
          1    1    6    6  503    0 -0.10571723265E+03 -0.14551025785E+03 -0.12942350957E+03  0.22158477666E+03  0.00000000000E+00 0. -1.
         -1    1    6    6    0  503 -0.15365006037E+02 -0.81127723546E+02 -0.52524159042E+01  0.82736804453E+02  0.00000000000E+00 0.  1.
<mgrwt>
<rscale>  0 0.15625453E+04</rscale>
<asrwt>0</asrwt>
<pdfrwt beam="1">  1        1 0.16172327E+00 0.15625453E+04</pdfrwt>
<pdfrwt beam="2">  1       -2 0.89331781E-01 0.15625453E+04</pdfrwt>
<totfact> 0.12529835E+01</totfact>
</mgrwt>
</event>
<event>
12    4  0.4381187E-008  0.1761216E+04  0.7818608E-02  0.8727201E-01
         -2   -1    0    0    0  501 -0.00000000000E+00  0.00000000000E+00  0.66584384797E+03  0.66584384797E+03  0.00000000000E+00 0.  1.
          1   -1    0    0  501    0  0.00000000000E+00 -0.00000000000E+00 -0.11646425749E+04  0.11646425749E+04  0.00000000000E+00 0. -1.
        -24    2    1    2    0    0 -0.58342147534E+03  0.98113752685E+02 -0.45806502292E+03  0.75227897627E+03  0.78058737898E+02 0.  0.
        254    2    1    2    0    0  0.58342147534E+03 -0.98113752685E+02 -0.40733703977E+02  0.10782074466E+04  0.90048050333E+03 0.  0.
         23    2    4    4    0    0  0.28916793467E+01  0.19319612521E+03 -0.30372234598E+03  0.37117767928E+03  0.90512438582E+02 0.  0.
         23    2    4    4    0    0  0.58052979599E+03 -0.29130987790E+03  0.26298864201E+03  0.70702976730E+03  0.94083882952E+02 0.  0.
          1    1    3    3  502    0 -0.39658385458E+03  0.57181288788E+02 -0.35328844111E+03  0.53419207793E+03  0.00000000000E+00 0. -1.
         -2    1    3    3    0  502 -0.18683762076E+03  0.40932463896E+02 -0.10477658181E+03  0.21808689834E+03  0.00000000000E+00 0.  1.
         11    1    5    5    0    0 -0.27622555612E+02  0.11868805412E+03 -0.12208480517E+03  0.17249509970E+03  0.00000000000E+00 0.  1.
        -11    1    5    5    0    0  0.30514234958E+02  0.74508071096E+02 -0.18163754081E+03  0.19868257957E+03  0.00000000000E+00 0. -1.
          3    1    6    6  503    0  0.25830742682E+03 -0.10070078301E+03  0.15384079478E+03  0.31706523712E+03  0.00000000000E+00 0. -1.
         -3    1    6    6    0  503  0.32222236917E+03 -0.19060909488E+03  0.10914784722E+03  0.38996453018E+03  0.00000000000E+00 0.  1.
<mgrwt>
<rscale>  0 0.17612156E+04</rscale>
<asrwt>0</asrwt>
<pdfrwt beam="1">  1        1 0.17917578E+00 0.17612156E+04</pdfrwt>
<pdfrwt beam="2">  1       -2 0.10243752E+00 0.17612156E+04</pdfrwt>
<totfact> 0.73472419E+00</totfact>
</mgrwt>
</event>
<event>
12    4  0.4381187E-008  0.1626560E+04  0.7818608E-02  0.8804395E-01
         -2   -1    0    0    0  501 -0.00000000000E+00  0.00000000000E+00  0.37334264692E+03  0.37334264692E+03  0.00000000000E+00 0.  1.
          1   -1    0    0  501    0  0.00000000000E+00 -0.00000000000E+00 -0.17716288479E+04  0.17716288479E+04  0.00000000000E+00 0. -1.
        -24    2    1    2    0    0  0.49236059771E+02  0.53957330009E+03 -0.28357358034E+03  0.61667655210E+03  0.79450982930E+02 0.  0.
        254    2    1    2    0    0 -0.49236059771E+02 -0.53957330009E+03 -0.11147126206E+04  0.15282949427E+04  0.89416870311E+03 0.  0.
         23    2    4    4    0    0  0.56751058139E+02 -0.53392946670E+03 -0.16612390874E+03  0.56928584202E+03  0.90486788318E+02 0.  0.
         23    2    4    4    0    0 -0.10598711791E+03 -0.56438333891E+01 -0.94858871190E+03  0.95900910071E+03  0.92805112412E+02 0.  0.
          1    1    3    3  502    0  0.40399109285E+02  0.23246796781E+03 -0.16226460576E+03  0.28636208962E+03  0.00000000000E+00 0. -1.
         -2    1    3    3    0  502  0.88369504855E+01  0.30710533228E+03 -0.12130897458E+03  0.33031446248E+03  0.00000000000E+00 0.  1.
         11    1    5    5    0    0  0.40151759048E+02 -0.48736652088E+03 -0.17435813346E+03  0.51917150166E+03  0.00000000000E+00 0. -1.
        -11    1    5    5    0    0  0.16599299091E+02 -0.46562945819E+02  0.82342247117E+01  0.50114340365E+02  0.00000000000E+00 0.  1.
          4    1    6    6  503    0 -0.92859146076E+02  0.34197863453E+02 -0.68109986169E+03  0.68825092551E+03  0.00000000000E+00 0. -1.
         -4    1    6    6    0  503 -0.13127971834E+02 -0.39841696842E+02 -0.26748885020E+03  0.27075817520E+03  0.00000000000E+00 0.  1.
<mgrwt>
<rscale>  0 0.16265603E+04</rscale>
<asrwt>0</asrwt>
<pdfrwt beam="1">  1        1 0.27255829E+00 0.16265603E+04</pdfrwt>
<pdfrwt beam="2">  1       -2 0.57437330E-01 0.16265603E+04</pdfrwt>
<totfact> 0.10165028E+01</totfact>
</mgrwt>
</event>
<event>
12    4  0.4381187E-008  0.1082846E+04  0.7818608E-02  0.9222074E-01
          1   -1    0    0  501    0  0.00000000000E+00  0.00000000000E+00  0.49640954607E+03  0.49640954607E+03  0.00000000000E+00 0. -1.
         -2   -1    0    0    0  501 -0.00000000000E+00 -0.00000000000E+00 -0.59051863105E+03  0.59051863105E+03  0.00000000000E+00 0.  1.
        -24    2    1    2    0    0 -0.11280124050E+03 -0.93389552733E+02  0.18885487950E+02  0.16839428157E+03  0.80958285511E+02 0.  0.
        254    2    1    2    0    0  0.11280124050E+03  0.93389552733E+02 -0.11299457293E+03  0.91853389555E+03  0.89971718631E+03 0.  0.
         23    2    4    4    0    0 -0.16311314847E+03 -0.37649064203E+02  0.32467134763E+03  0.37681788505E+03  0.92503423085E+02 0.  0.
         23    2    4    4    0    0  0.27591438897E+03  0.13103861694E+03 -0.43766592056E+03  0.54171601050E+03  0.92762647870E+02 0.  0.
          1    1    3    3  502    0 -0.10592386404E+03 -0.52652672146E+02  0.36045902692E+02  0.12365870757E+03  0.00000000000E+00 0. -1.
         -2    1    3    3    0  502 -0.68773764593E+01 -0.40736880588E+02 -0.17160414742E+02  0.44735574000E+02  0.00000000000E+00 0.  1.
         11    1    5    5    0    0 -0.16495897362E+03 -0.34427299628E+02  0.32987555683E+03  0.37042487083E+03  0.00000000000E+00 0. -1.
        -11    1    5    5    0    0  0.18458251451E+01 -0.32217645746E+01 -0.52042091987E+01  0.63930142205E+01  0.00000000000E+00 0.  1.
          3    1    6    6  503    0  0.26467790161E+03  0.14357782879E+03 -0.40192577979E+03  0.50220843977E+03  0.00000000000E+00 0. -1.
         -3    1    6    6    0  503  0.11236487367E+02 -0.12539211857E+02 -0.35740140770E+02  0.39507570725E+02  0.00000000000E+00 0.  1.
<mgrwt>
<rscale>  0 0.10828464E+04</rscale>
<asrwt>0</asrwt>
<pdfrwt beam="1">  1        1 0.76370699E-01 0.10828464E+04</pdfrwt>
<pdfrwt beam="2">  1       -2 0.90849020E-01 0.10828464E+04</pdfrwt>
<totfact> 0.40400362E+01</totfact>
</mgrwt>
</event>
<event>
12    4  0.4381187E-008  0.2022786E+04  0.7818608E-02  0.8596041E-01
          1   -1    0    0  501    0  0.00000000000E+00  0.00000000000E+00  0.17809131747E+04  0.17809131747E+04  0.00000000000E+00 0. -1.
         -2   -1    0    0    0  501 -0.00000000000E+00 -0.00000000000E+00 -0.57437697269E+03  0.57437697269E+03  0.00000000000E+00 0.  1.
        -24    2    1    2    0    0  0.45993307893E+03 -0.37670954043E+03 -0.15277893557E+03  0.61907216755E+03  0.80376803420E+02 0.  0.
        254    2    1    2    0    0 -0.45993307893E+03  0.37670954043E+03  0.13593151376E+04  0.17362179799E+04  0.90181301572E+03 0.  0.
         23    2    4    4    0    0 -0.32992008271E+03 -0.22451229568E+03  0.29965388623E+03  0.50723981182E+03  0.90811581186E+02 0.  0.
         23    2    4    4    0    0 -0.13001299622E+03  0.60122183611E+03  0.10596612514E+04  0.12289781680E+04  0.95573502865E+02 0.  0.
          3    1    3    3  502    0  0.16821450531E+02 -0.16735304219E+02 -0.24154769592E+02  0.33859777012E+02  0.00000000000E+00 0. -1.
         -4    1    3    3    0  502  0.44311162840E+03 -0.35997423621E+03 -0.12862416598E+03  0.58521239054E+03  0.00000000000E+00 0.  1.
         11    1    5    5    0    0 -0.25174991035E+03 -0.12980660360E+03  0.23732336984E+03  0.36952693214E+03  0.00000000000E+00 0. -1.
        -11    1    5    5    0    0 -0.78170172361E+02 -0.94705692076E+02  0.62330516389E+02  0.13771287969E+03  0.00000000000E+00 0.  1.
          3    1    6    6  503    0 -0.99097668111E+02  0.55812974742E+03  0.93362872844E+03  0.10922416241E+04  0.00000000000E+00 0. -1.
         -3    1    6    6    0  503 -0.30915328109E+02  0.43092088692E+02  0.12603252293E+03  0.13673654397E+03  0.00000000000E+00 0.  1.
<mgrwt>
<rscale>  0 0.20227857E+04</rscale>
<asrwt>0</asrwt>
<pdfrwt beam="1">  1        1 0.27398664E+00 0.20227857E+04</pdfrwt>
<pdfrwt beam="2">  1       -2 0.88365689E-01 0.20227857E+04</pdfrwt>
<totfact> 0.37617492E+00</totfact>
</mgrwt>
</event>
<event>
12    4  0.4381187E-008  0.1996177E+04  0.7818608E-02  0.8608410E-01
         -4   -1    0    0    0  501 -0.00000000000E+00  0.00000000000E+00  0.59683056733E+03  0.59683056733E+03  0.00000000000E+00 0.  1.
          3   -1    0    0  501    0  0.00000000000E+00 -0.00000000000E+00 -0.16691185803E+04  0.16691185803E+04  0.00000000000E+00 0. -1.
        -24    2    1    2    0    0 -0.12883274510E+03  0.16697201098E+02  0.45470278899E+03  0.48190341603E+03  0.92734046280E+02 0.  0.
        254    2    1    2    0    0  0.12883274510E+03 -0.16697201098E+02 -0.15269908020E+04  0.17840457316E+04  0.91336826662E+03 0.  0.
         23    2    4    4    0    0 -0.34019716342E+03  0.61545308191E+02 -0.10292077934E+04  0.10895407019E+04  0.91150009389E+02 0.  0.
         23    2    4    4    0    0  0.46902990852E+03 -0.78242509289E+02 -0.49778300860E+03  0.69450502971E+03  0.91860586230E+02 0.  0.
          1    1    3    3  502    0 -0.79198369094E+02  0.40553069454E+02  0.16952028977E+03  0.19145250521E+03  0.00000000000E+00 0. -1.
         -2    1    3    3    0  502 -0.49634376004E+02 -0.23855868356E+02  0.28518249922E+03  0.29045091082E+03  0.00000000000E+00 0.  1.
         11    1    5    5    0    0 -0.34590797327E+03  0.61326520894E+02 -0.10037926317E+04  0.10634909100E+04  0.00000000000E+00 0. -1.
        -11    1    5    5    0    0  0.57108098486E+01  0.21878729693E+00 -0.25415161675E+02  0.26049791937E+02  0.00000000000E+00 0.  1.
          1    1    6    6  503    0  0.35461954272E+03 -0.78913063057E+02 -0.42405414941E+03  0.55839431697E+03  0.00000000000E+00 0. -1.
         -1    1    6    6    0  503  0.11441036580E+03  0.67055376822E+00 -0.73728859192E+02  0.13611071274E+03  0.00000000000E+00 0.  1.
<mgrwt>
<rscale>  0 0.19961773E+04</rscale>
<asrwt>0</asrwt>
<pdfrwt beam="1">  1        3 0.25678747E+00 0.19961773E+04</pdfrwt>
<pdfrwt beam="2">  1       -4 0.91820088E-01 0.19961773E+04</pdfrwt>
<totfact> 0.14532594E-01</totfact>
</mgrwt>
</event>
<event>
12    4  0.4381187E-008  0.2123780E+04  0.7818608E-02  0.8550840E-01
          1   -1    0    0  501    0  0.00000000000E+00  0.00000000000E+00  0.15163252833E+04  0.15163252833E+04  0.00000000000E+00 0. -1.
         -2   -1    0    0    0  501 -0.00000000000E+00 -0.00000000000E+00 -0.74364676801E+03  0.74364676801E+03  0.00000000000E+00 0.  1.
        -24    2    1    2    0    0 -0.30041238714E+03  0.30373056974E+03  0.11180846782E+04  0.11996250703E+04  0.80542538006E+02 0.  0.
        254    2    1    2    0    0  0.30041238714E+03 -0.30373056974E+03 -0.34540616290E+03  0.10603469810E+04  0.90693464007E+03 0.  0.
         23    2    4    4    0    0  0.47329108524E+03 -0.51344503568E+03 -0.31481199863E+03  0.77198645327E+03  0.96053284810E+02 0.  0.
         23    2    4    4    0    0 -0.17287869810E+03  0.20971446594E+03 -0.30594164267E+02  0.28836052770E+03  0.91370616545E+02 0.  0.
          3    1    3    3  502    0 -0.28505106140E+03  0.30101742746E+03  0.10323019862E+04  0.11124356116E+04  0.00000000000E+00 0. -1.
         -4    1    3    3    0  502 -0.15361325746E+02  0.27131422720E+01  0.85782691964E+02  0.87189458710E+02  0.00000000000E+00 0.  1.
         11    1    5    5    0    0  0.25509218695E+03 -0.28285069970E+03 -0.22362624634E+03  0.44168454830E+03  0.00000000000E+00 0. -1.
        -11    1    5    5    0    0  0.21819889830E+03 -0.23059433598E+03 -0.91185752292E+02  0.33030190497E+03  0.00000000000E+00 0.  1.
          1    1    6    6  503    0 -0.13215921311E+03  0.11236157652E+03  0.13500582120E+02  0.17399266423E+03  0.00000000000E+00 0. -1.
         -1    1    6    6    0  503 -0.40719484991E+02  0.97352889424E+02 -0.44094746387E+02  0.11436786348E+03  0.00000000000E+00 0.  1.
<mgrwt>
<rscale>  0 0.21237800E+04</rscale>
<asrwt>0</asrwt>
<pdfrwt beam="1">  1        1 0.23328081E+00 0.21237800E+04</pdfrwt>
<pdfrwt beam="2">  1       -2 0.11440719E+00 0.21237800E+04</pdfrwt>
<totfact> 0.30663052E+00</totfact>
</mgrwt>
</event>
<event>
12    4  0.4381187E-008  0.1581176E+04  0.7818608E-02  0.8832196E-01
          1   -1    0    0  501    0  0.00000000000E+00  0.00000000000E+00  0.16335368824E+04  0.16335368824E+04  0.00000000000E+00 0. -1.
         -2   -1    0    0    0  501 -0.00000000000E+00 -0.00000000000E+00 -0.38262340821E+03  0.38262340821E+03  0.00000000000E+00 0.  1.
        -24    2    1    2    0    0  0.14111862707E+03 -0.23617243037E+03  0.10540123674E+04  0.10923143237E+04  0.80725630679E+02 0.  0.
        254    2    1    2    0    0 -0.14111862707E+03  0.23617243037E+03  0.19690110683E+03  0.92384596690E+03  0.85966821561E+03 0.  0.
         23    2    4    4    0    0 -0.43071068095E+03  0.11410532723E+03  0.34069944723E+03  0.56827025825E+03  0.91231884175E+02 0.  0.
         23    2    4    4    0    0  0.28959205388E+03  0.12206710313E+03 -0.14379834040E+03  0.35557570865E+03  0.83619295288E+02 0.  0.
          1    1    3    3  502    0  0.76067666947E+02 -0.18856166935E+03  0.68179435700E+03  0.71146703251E+03  0.00000000000E+00 0. -1.
         -2    1    3    3    0  502  0.65050960119E+02 -0.47610761013E+02  0.37221801036E+03  0.38084729120E+03  0.00000000000E+00 0.  1.
         11    1    5    5    0    0 -0.11794942322E+03  0.68094635947E+02  0.76050234802E+02  0.15598905121E+03  0.00000000000E+00 0. -1.
        -11    1    5    5    0    0 -0.31276125772E+03  0.46010691287E+02  0.26464921242E+03  0.41228120704E+03  0.00000000000E+00 0.  1.
          3    1    6    6  503    0  0.12166661848E+03  0.12141216582E+02 -0.34526295014E+02  0.12705211624E+03  0.00000000000E+00 0. -1.
         -3    1    6    6    0  503  0.16792543540E+03  0.10992588655E+03 -0.10927204538E+03  0.22852359241E+03  0.00000000000E+00 0.  1.
<mgrwt>
<rscale>  0 0.15811761E+04</rscale>
<asrwt>0</asrwt>
<pdfrwt beam="1">  1        1 0.25131336E+00 0.15811761E+04</pdfrwt>
<pdfrwt beam="2">  1       -2 0.58865140E-01 0.15811761E+04</pdfrwt>
<totfact> 0.12036023E+01</totfact>
</mgrwt>
</event>
<event>
12    4  0.4381187E-008  0.1658394E+04  0.7818608E-02  0.8785456E-01
         -2   -1    0    0    0  501 -0.00000000000E+00  0.00000000000E+00  0.38192012982E+03  0.38192012982E+03  0.00000000000E+00 0.  1.
          1   -1    0    0  501    0  0.00000000000E+00 -0.00000000000E+00 -0.18002908136E+04  0.18002908136E+04  0.00000000000E+00 0. -1.
        -24    2    1    2    0    0 -0.25431298216E+03  0.33059687469E+03  0.26064320301E+02  0.42540050622E+03  0.79478647788E+02 0.  0.
        254    2    1    2    0    0  0.25431298216E+03 -0.33059687469E+03 -0.14444350040E+04  0.17568104372E+04  0.90885699907E+03 0.  0.
         23    2    4    4    0    0  0.45777264818E+03 -0.52044816052E+03 -0.90726629423E+03  0.11452185303E+04  0.89281958983E+02 0.  0.
         23    2    4    4    0    0 -0.20345966602E+03  0.18985128583E+03 -0.53716870980E+03  0.61159190689E+03  0.89750160724E+02 0.  0.
          1    1    3    3  502    0 -0.31138468700E+01 -0.43867404443E+01 -0.20367414163E+01  0.57522038953E+01  0.00000000000E+00 0. -1.
         -2    1    3    3    0  502 -0.25119913529E+03  0.33498361513E+03  0.28101061718E+02  0.41964830233E+03  0.00000000000E+00 0.  1.
         11    1    5    5    0    0  0.28004297965E+03 -0.32032527210E+03 -0.48400963102E+03  0.64443593422E+03  0.00000000000E+00 0.  1.
        -11    1    5    5    0    0  0.17772966853E+03 -0.20012288843E+03 -0.42325666321E+03  0.50078259605E+03  0.00000000000E+00 0. -1.
          3    1    6    6  503    0 -0.39103572445E+02  0.74559210297E+02 -0.10136418045E+03  0.13176821429E+03  0.00000000000E+00 0. -1.
         -3    1    6    6    0  503 -0.16435609357E+03  0.11529207554E+03 -0.43580452935E+03  0.47982369260E+03  0.00000000000E+00 0.  1.
<mgrwt>
<rscale>  0 0.16583936E+04</rscale>
<asrwt>0</asrwt>
<pdfrwt beam="1">  1        1 0.27696782E+00 0.16583936E+04</pdfrwt>
<pdfrwt beam="2">  1       -2 0.58756943E-01 0.16583936E+04</pdfrwt>
<totfact> 0.92413360E+00</totfact>
</mgrwt>
</event>
<event>
12    4  0.4381187E-008  0.1733528E+04  0.7818608E-02  0.8742470E-01
         -2   -1    0    0    0  501 -0.00000000000E+00  0.00000000000E+00  0.34914823603E+03  0.34914823603E+03  0.00000000000E+00 0.  1.
          1   -1    0    0  501    0  0.00000000000E+00 -0.00000000000E+00 -0.21517509530E+04  0.21517509530E+04  0.00000000000E+00 0. -1.
        -24    2    1    2    0    0 -0.22047354246E+03 -0.58323443898E+03 -0.81974048164E+03  0.10333254082E+04  0.83761256996E+02 0.  0.
        254    2    1    2    0    0  0.22047354246E+03  0.58323443898E+03 -0.98286223537E+03  0.14675737809E+04  0.89385884510E+03 0.  0.
         23    2    4    4    0    0 -0.25020906400E+03 -0.20535572029E+02 -0.77379861271E+02  0.27827551435E+03  0.91778720449E+02 0.  0.
         23    2    4    4    0    0  0.47068260647E+03  0.60377001101E+03 -0.90548237410E+03  0.11892982666E+04  0.91933099713E+02 0.  0.
          3    1    3    3  502    0 -0.75576869635E+02 -0.13575168996E+03 -0.25210810865E+03  0.29613997197E+03  0.00000000000E+00 0. -1.
         -4    1    3    3    0  502 -0.14489667283E+03 -0.44748274902E+03 -0.56763237299E+03  0.73718543619E+03  0.00000000000E+00 0.  1.
         11    1    5    5    0    0 -0.23495357260E+03 -0.27659100849E+02 -0.94047327567E+02  0.25458418443E+03  0.00000000000E+00 0. -1.
        -11    1    5    5    0    0 -0.15255491405E+02  0.71235288204E+01  0.16667466295E+02  0.23691329924E+02  0.00000000000E+00 0.  1.
          1    1    6    6  503    0  0.45177208079E+03  0.57045942762E+03 -0.82435696115E+03  0.10995846356E+04  0.00000000000E+00 0. -1.
         -1    1    6    6    0  503  0.18910525676E+02  0.33310583392E+02 -0.81125412951E+02  0.89713630925E+02  0.00000000000E+00 0.  1.
<mgrwt>
<rscale>  0 0.17335283E+04</rscale>
<asrwt>0</asrwt>
<pdfrwt beam="1">  1        1 0.33103860E+00 0.17335283E+04</pdfrwt>
<pdfrwt beam="2">  1       -2 0.53715114E-01 0.17335283E+04</pdfrwt>
<totfact> 0.63969720E+00</totfact>
</mgrwt>
</event>
<event>
12    4  0.4381187E-008  0.1095293E+04  0.7818608E-02  0.9209791E-01
         -2   -1    0    0    0  501 -0.00000000000E+00  0.00000000000E+00  0.10722363440E+03  0.10722363440E+03  0.00000000000E+00 0.  1.
          1   -1    0    0  501    0  0.00000000000E+00 -0.00000000000E+00 -0.27971160802E+04  0.27971160802E+04  0.00000000000E+00 0. -1.
        -24    2    1    2    0    0 -0.12505236140E+03  0.95384610838E+02 -0.60177547384E+03  0.62668390221E+03  0.76568108890E+02 0.  0.
        254    2    1    2    0    0  0.12505236140E+03 -0.95384610838E+02 -0.20881169720E+04  0.22776558124E+04  0.89596160299E+03 0.  0.
         23    2    4    4    0    0 -0.30769162853E+03 -0.25346323483E+03 -0.12724133293E+04  0.13365471624E+04  0.91678171665E+02 0.  0.
         23    2    4    4    0    0  0.43274398993E+03  0.15807862399E+03 -0.81570364269E+03  0.94110864998E+03  0.89759936385E+02 0.  0.
          3    1    3    3  502    0  0.96941380803E+01  0.14787595539E+02 -0.71315640122E+02  0.73474960503E+02  0.00000000000E+00 0. -1.
         -2    1    3    3    0  502 -0.13474649948E+03  0.80597015298E+02 -0.53045983371E+03  0.55320894171E+03  0.00000000000E+00 0.  1.
         11    1    5    5    0    0 -0.11623064624E+03 -0.14172595214E+03 -0.67080822894E+03  0.69539879828E+03  0.00000000000E+00 0.  1.
        -11    1    5    5    0    0 -0.19146098229E+03 -0.11173728269E+03 -0.60160510036E+03  0.64114836416E+03  0.00000000000E+00 0. -1.
          2    1    6    6  503    0  0.13982655542E+03  0.66301645560E+02 -0.35787960417E+03  0.38990407139E+03  0.00000000000E+00 0. -1.
         -2    1    6    6    0  503  0.29291743451E+03  0.91776978433E+02 -0.45782403851E+03  0.55120457858E+03  0.00000000000E+00 0.  1.
<mgrwt>
<rscale>  0 0.10952935E+04</rscale>
<asrwt>0</asrwt>
<pdfrwt beam="1">  1        1 0.43032553E+00 0.10952935E+04</pdfrwt>
<pdfrwt beam="2">  1       -2 0.16495944E-01 0.10952935E+04</pdfrwt>
<totfact> 0.22186895E+01</totfact>
</mgrwt>
</event>
<event>
12    4  0.4381187E-008  0.1777514E+04  0.7818608E-02  0.8718350E-01
         -2   -1    0    0    0  501 -0.00000000000E+00  0.00000000000E+00  0.42900033175E+03  0.42900033175E+03  0.00000000000E+00 0.  1.
          1   -1    0    0  501    0  0.00000000000E+00 -0.00000000000E+00 -0.18412312466E+04  0.18412312466E+04  0.00000000000E+00 0. -1.
        -24    2    1    2    0    0  0.33583532521E+03  0.15733670252E+03  0.17064482508E+03  0.41598623885E+03  0.79904261224E+02 0.  0.
        254    2    1    2    0    0 -0.33583532521E+03 -0.15733670252E+03 -0.15828757400E+04  0.18542453395E+04  0.89173424706E+03 0.  0.
         23    2    4    4    0    0 -0.36745760758E+03  0.13039079689E+03 -0.21996433050E+03  0.45792003568E+03  0.96330675807E+02 0.  0.
         23    2    4    4    0    0  0.31622282364E+02 -0.28772749941E+03 -0.13629114095E+04  0.13963253039E+04  0.91704751546E+02 0.  0.
          1    1    3    3  502    0  0.22313461390E+03  0.91819652944E+02  0.69826157798E+02  0.25118836936E+03  0.00000000000E+00 0. -1.
         -2    1    3    3    0  502  0.11270071131E+03  0.65517049575E+02  0.10081866728E+03  0.16479786949E+03  0.00000000000E+00 0.  1.
         11    1    5    5    0    0  0.31491383830E+01  0.43491306248E+01  0.42083675836E+01  0.68221966744E+01  0.00000000000E+00 0. -1.
        -11    1    5    5    0    0 -0.37060674596E+03  0.12604166627E+03 -0.22417269808E+03  0.45109783900E+03  0.00000000000E+00 0.  1.
          4    1    6    6  503    0  0.14178185762E+02 -0.10707590763E+02 -0.19826185506E+03  0.19905636544E+03  0.00000000000E+00 0. -1.
         -4    1    6    6    0  503  0.17444096602E+02 -0.27701990865E+03 -0.11646495544E+04  0.11972689384E+04  0.00000000000E+00 0.  1.
<mgrwt>
<rscale>  0 0.17775138E+04</rscale>
<asrwt>0</asrwt>
<pdfrwt beam="1">  1        1 0.28326635E+00 0.17775138E+04</pdfrwt>
<pdfrwt beam="2">  1       -2 0.66000050E-01 0.17775138E+04</pdfrwt>
<totfact> 0.66969424E+00</totfact>
</mgrwt>
</event>
<event>
12    4  0.4381187E-008  0.1607054E+04  0.7818608E-02  0.8816226E-01
          1   -1    0    0  501    0  0.00000000000E+00  0.00000000000E+00  0.11064568927E+04  0.11064568927E+04  0.00000000000E+00 0. -1.
         -2   -1    0    0    0  501 -0.00000000000E+00 -0.00000000000E+00 -0.58353433106E+03  0.58353433106E+03  0.00000000000E+00 0.  1.
        -24    2    1    2    0    0 -0.79250611915E+02  0.45614248749E+03  0.49661832069E+03  0.68345214840E+03  0.78297217832E+02 0.  0.
        254    2    1    2    0    0  0.79250611915E+02 -0.45614248749E+03  0.26304240959E+02  0.10065390754E+04  0.89335455939E+03 0.  0.
         23    2    4    4    0    0  0.11627010942E+02  0.16906827700E+03  0.26544062421E+03  0.32754061172E+03  0.90026983040E+02 0.  0.
         23    2    4    4    0    0  0.67623600973E+02 -0.62521076449E+03 -0.23913638325E+03  0.67899846365E+03  0.91603779440E+02 0.  0.
          3    1    3    3  502    0 -0.68300048152E+02  0.39217654489E+03  0.46218824584E+03  0.60998796180E+03  0.00000000000E+00 0. -1.
         -4    1    3    3    0  502 -0.10950563763E+02  0.63965942592E+02  0.34430074851E+02  0.73464186599E+02  0.00000000000E+00 0.  1.
         11    1    5    5    0    0 -0.13025247044E+02  0.13769529886E+03  0.24807367400E+03  0.28402499912E+03  0.00000000000E+00 0.  1.
        -11    1    5    5    0    0  0.24652257986E+02  0.31372978138E+02  0.17366950207E+02  0.43515612607E+02  0.00000000000E+00 0. -1.
          1    1    6    6  503    0 -0.80208022344E+01 -0.47201249926E+02 -0.41821915737E+02  0.63571722479E+02  0.00000000000E+00 0. -1.
         -1    1    6    6    0  503  0.75644403208E+02 -0.57800951456E+03 -0.19731446751E+03  0.61542674117E+03  0.00000000000E+00 0.  1.
<mgrwt>
<rscale>  0 0.16070539E+04</rscale>
<asrwt>0</asrwt>
<pdfrwt beam="1">  1        1 0.17022414E+00 0.16070539E+04</pdfrwt>
<pdfrwt beam="2">  1       -2 0.89774512E-01 0.16070539E+04</pdfrwt>
<totfact> 0.11207073E+01</totfact>
</mgrwt>
</event>
<event>
12    4  0.4381187E-008  0.1572114E+04  0.7818608E-02  0.8837865E-01
         -2   -1    0    0    0  501 -0.00000000000E+00  0.00000000000E+00  0.36716413459E+03  0.36716413459E+03  0.00000000000E+00 0.  1.
          1   -1    0    0  501    0  0.00000000000E+00 -0.00000000000E+00 -0.16828601434E+04  0.16828601434E+04  0.00000000000E+00 0. -1.
        -24    2    1    2    0    0  0.12872716950E+03 -0.18403284981E+03 -0.10668507410E+04  0.10931112262E+04  0.79264590517E+02 0.  0.
        254    2    1    2    0    0 -0.12872716950E+03  0.18403284981E+03 -0.24884526785E+03  0.95691305181E+03  0.89628112075E+03 0.  0.
         23    2    4    4    0    0  0.15786210146E+03 -0.26327517636E+03 -0.26696454513E+03  0.41734540450E+03  0.93128173694E+02 0.  0.
         23    2    4    4    0    0 -0.28658927096E+03  0.44730802617E+03  0.18119277282E+02  0.53956764731E+03  0.92666376357E+02 0.  0.
          3    1    3    3  502    0  0.12918057989E+03 -0.16951608307E+03 -0.86998488834E+03  0.89571034971E+03  0.00000000000E+00 0. -1.
         -4    1    3    3    0  502 -0.45341038814E+00 -0.14516766739E+02 -0.19686585265E+03  0.19740087649E+03  0.00000000000E+00 0.  1.
         11    1    5    5    0    0  0.13272453480E+03 -0.20952235748E+03 -0.25702299038E+03  0.35717816003E+03  0.00000000000E+00 0. -1.
        -11    1    5    5    0    0  0.25137566665E+02 -0.53752818884E+02 -0.99415547448E+01  0.60167244465E+02  0.00000000000E+00 0.  1.
          3    1    6    6  503    0 -0.10892280699E+03  0.15672079683E+03  0.50533960515E+02  0.19743167732E+03  0.00000000000E+00 0.  1.
         -3    1    6    6    0  503 -0.17766646397E+03  0.29058722934E+03 -0.32414683233E+02  0.34213596999E+03  0.00000000000E+00 0. -1.
<mgrwt>
<rscale>  0 0.15721144E+04</rscale>
<asrwt>0</asrwt>
<pdfrwt beam="1">  1        1 0.25890156E+00 0.15721144E+04</pdfrwt>
<pdfrwt beam="2">  1       -2 0.56486790E-01 0.15721144E+04</pdfrwt>
<totfact> 0.12153586E+01</totfact>
</mgrwt>
</event>
<event>
12    4  0.4381187E-008  0.1242075E+04  0.7818608E-02  0.9076805E-01
         -4   -1    0    0    0  501 -0.00000000000E+00  0.00000000000E+00  0.30163787349E+03  0.30163787349E+03  0.00000000000E+00 0.  1.
          3   -1    0    0  501    0  0.00000000000E+00 -0.00000000000E+00 -0.12786450584E+04  0.12786450584E+04  0.00000000000E+00 0. -1.
        -24    2    1    2    0    0  0.10753416067E+02 -0.13052529200E+03  0.90901028797E+02  0.17879727999E+03  0.80950494040E+02 0.  0.
        254    2    1    2    0    0 -0.10753416067E+02  0.13052529200E+03 -0.10679082137E+04  0.14014856520E+04  0.89809887642E+03 0.  0.
         23    2    4    4    0    0 -0.30590496617E+03 -0.14130384094E+03 -0.12470662396E+03  0.37141488779E+03  0.94088538213E+02 0.  0.
         23    2    4    4    0    0  0.29515155011E+03  0.27182913294E+03 -0.94320158979E+03  0.10300707642E+04  0.10203443120E+03 0.  0.
          1    1    3    3  502    0  0.29064316481E+02 -0.54282522286E+02  0.39313281537E+01  0.61699125272E+02  0.00000000000E+00 0. -1.
         -2    1    3    3    0  502 -0.18310900414E+02 -0.76242769717E+02  0.86969700643E+02  0.11709815472E+03  0.00000000000E+00 0.  1.
         11    1    5    5    0    0 -0.29384102540E+03 -0.12987473895E+03 -0.91109562122E+02  0.33393255057E+03  0.00000000000E+00 0.  1.
        -11    1    5    5    0    0 -0.12063940776E+02 -0.11429101988E+02 -0.33597061838E+02  0.37482337220E+02  0.00000000000E+00 0. -1.
          2    1    6    6  503    0  0.43650578859E+02  0.90982554615E+02 -0.17923016743E+03  0.20568580698E+03  0.00000000000E+00 0. -1.
         -2    1    6    6    0  503  0.25150097125E+03  0.18084657832E+03 -0.76397142236E+03  0.82438495717E+03  0.00000000000E+00 0.  1.
<mgrwt>
<rscale>  0 0.12420753E+04</rscale>
<asrwt>0</asrwt>
<pdfrwt beam="1">  1        3 0.19671462E+00 0.12420753E+04</pdfrwt>
<pdfrwt beam="2">  1       -4 0.46405827E-01 0.12420753E+04</pdfrwt>
<totfact> 0.15707943E+00</totfact>
</mgrwt>
</event>
<event>
12    4  0.4381187E-008  0.1423602E+04  0.7818608E-02  0.8936909E-01
          1   -1    0    0  501    0  0.00000000000E+00  0.00000000000E+00  0.52464938716E+03  0.52464938716E+03  0.00000000000E+00 0. -1.
         -2   -1    0    0    0  501 -0.00000000000E+00 -0.00000000000E+00 -0.96571261768E+03  0.96571261768E+03  0.00000000000E+00 0.  1.
        -24    2    1    2    0    0  0.46006107235E+03 -0.54949885217E+02 -0.28413610250E+03  0.54952182682E+03  0.81026126821E+02 0.  0.
        254    2    1    2    0    0 -0.46006107235E+03  0.54949885217E+02 -0.15692712802E+03  0.94084017802E+03  0.80366562505E+03 0.  0.
         23    2    4    4    0    0  0.20852982799E+03  0.64765640299E+02 -0.11726283754E+03  0.26487089149E+03  0.93417015401E+02 0.  0.
         23    2    4    4    0    0 -0.66859090035E+03 -0.98157550826E+01 -0.39664290483E+02  0.67596928653E+03  0.90835451874E+02 0.  0.
          3    1    3    3  502    0  0.39602205433E+03 -0.50751868194E+02 -0.20882069521E+03  0.45057219442E+03  0.00000000000E+00 0. -1.
         -4    1    3    3    0  502  0.64039018029E+02 -0.41980170224E+01 -0.75315407287E+02  0.98949632398E+02  0.00000000000E+00 0.  1.
         11    1    5    5    0    0  0.14909380750E+03  0.20664455419E+02 -0.11735281255E+03  0.19086033052E+03  0.00000000000E+00 0. -1.
        -11    1    5    5    0    0  0.59436020495E+02  0.44101184881E+02  0.89975013145E-01  0.74010560974E+02  0.00000000000E+00 0.  1.
          1    1    6    6  503    0 -0.34945226663E+03 -0.28446193505E+02  0.18254016331E+02  0.35108301253E+03  0.00000000000E+00 0. -1.
         -1    1    6    6    0  503 -0.31913863372E+03  0.18630438423E+02 -0.57918306814E+02  0.32488627400E+03  0.00000000000E+00 0.  1.
<mgrwt>
<rscale>  0 0.14236018E+04</rscale>
<asrwt>0</asrwt>
<pdfrwt beam="1">  1        1 0.80715291E-01 0.14236018E+04</pdfrwt>
<pdfrwt beam="2">  1       -2 0.14857117E+00 0.14236018E+04</pdfrwt>
<totfact> 0.10836080E+01</totfact>
</mgrwt>
</event>
<event>
12    4  0.4381187E-008  0.1922836E+04  0.7818608E-02  0.8643572E-01
         -2   -1    0    0    0  501 -0.00000000000E+00  0.00000000000E+00  0.53847612405E+03  0.53847612405E+03  0.00000000000E+00 0.  1.
          1   -1    0    0  501    0  0.00000000000E+00 -0.00000000000E+00 -0.17165569481E+04  0.17165569481E+04  0.00000000000E+00 0. -1.
        -24    2    1    2    0    0  0.42912308025E+03  0.36722052198E+03  0.12270541156E+03  0.58333642337E+03  0.78912831842E+02 0.  0.
        254    2    1    2    0    0 -0.42912308025E+03 -0.36722052198E+03 -0.13007862357E+04  0.16716966488E+04  0.88517078862E+03 0.  0.
         23    2    4    4    0    0  0.17743853001E+03  0.74206226667E+02 -0.61736545577E+03  0.65279930624E+03  0.89531180232E+02 0.  0.
         23    2    4    4    0    0 -0.60656161027E+03 -0.44142674865E+03 -0.68342077989E+03  0.10188973426E+04  0.91177140068E+02 0.  0.
          3    1    3    3  502    0  0.96631282381E+01  0.25886355365E+02 -0.39475355231E+01  0.27911690707E+02  0.00000000000E+00 0. -1.
         -4    1    3    3    0  502  0.41945995202E+03  0.34133416661E+03  0.12665294709E+03  0.55542473266E+03  0.00000000000E+00 0.  1.
         11    1    5    5    0    0  0.64221517679E+02 -0.14177073732E+02 -0.24558661387E+03  0.25424039345E+03  0.00000000000E+00 0.  1.
        -11    1    5    5    0    0  0.11321701233E+03  0.88383300399E+02 -0.37177884190E+03  0.39855891278E+03  0.00000000000E+00 0. -1.
          3    1    6    6  503    0 -0.59877459387E+03 -0.44289268912E+03 -0.66348812316E+03  0.99744746122E+03  0.00000000000E+00 0. -1.
         -3    1    6    6    0  503 -0.77870164017E+01  0.14659404713E+01 -0.19932656737E+02  0.21449881363E+02  0.00000000000E+00 0.  1.
<mgrwt>
<rscale>  0 0.19228364E+04</rscale>
<asrwt>0</asrwt>
<pdfrwt beam="1">  1        1 0.26408569E+00 0.19228364E+04</pdfrwt>
<pdfrwt beam="2">  1       -2 0.82842480E-01 0.19228364E+04</pdfrwt>
<totfact> 0.48627031E+00</totfact>
</mgrwt>
</event>
<event>
12    4  0.4381187E-008  0.1204840E+04  0.7818608E-02  0.9108631E-01
         -2   -1    0    0    0  501 -0.00000000000E+00  0.00000000000E+00  0.26832878939E+03  0.26832878939E+03  0.00000000000E+00 0.  1.
          1   -1    0    0  501    0  0.00000000000E+00 -0.00000000000E+00 -0.13524814653E+04  0.13524814653E+04  0.00000000000E+00 0. -1.
        -24    2    1    2    0    0 -0.29997673856E+01 -0.24230728319E+03 -0.36338619996E+03  0.44412630265E+03  0.80478719514E+02 0.  0.
        254    2    1    2    0    0  0.29997673856E+01  0.24230728319E+03 -0.72076647593E+03  0.11766839520E+04  0.89797493952E+03 0.  0.
         23    2    4    4    0    0  0.33620743191E+03  0.21685056775E+02 -0.68032696898E+03  0.76497217119E+03  0.93978502944E+02 0.  0.
         23    2    4    4    0    0 -0.33320766453E+03  0.22062222642E+03 -0.40439506944E+02  0.41171178081E+03  0.90386515861E+02 0.  0.
          3    1    3    3  502    0 -0.15360034226E+02 -0.12462209424E+03 -0.25231420598E+03  0.28183160852E+03  0.00000000000E+00 0. -1.
         -4    1    3    3    0  502  0.12360266840E+02 -0.11768518896E+03 -0.11107199398E+03  0.16229469413E+03  0.00000000000E+00 0.  1.
         11    1    5    5    0    0  0.26783617617E+03  0.45233911828E+02 -0.58790500846E+03  0.64762228422E+03  0.00000000000E+00 0. -1.
        -11    1    5    5    0    0  0.68371255742E+02 -0.23548855053E+02 -0.92421960519E+02  0.11734988697E+03  0.00000000000E+00 0.  1.
          3    1    6    6  503    0 -0.28416647762E+03  0.22202378269E+03 -0.33679649021E+02  0.36218705919E+03  0.00000000000E+00 0. -1.
         -3    1    6    6    0  503 -0.49041186906E+02 -0.14015562721E+01 -0.67598579237E+01  0.49524721627E+02  0.00000000000E+00 0.  1.
<mgrwt>
<rscale>  0 0.12048398E+04</rscale>
<asrwt>0</asrwt>
<pdfrwt beam="1">  1        1 0.20807407E+00 0.12048398E+04</pdfrwt>
<pdfrwt beam="2">  1       -2 0.41281352E-01 0.12048398E+04</pdfrwt>
<totfact> 0.40035018E+01</totfact>
</mgrwt>
</event>
<event>
12    4  0.4381187E-008  0.1377239E+04  0.7818608E-02  0.8970461E-01
          1   -1    0    0  501    0  0.00000000000E+00  0.00000000000E+00  0.12849845961E+04  0.12849845961E+04  0.00000000000E+00 0. -1.
         -2   -1    0    0    0  501 -0.00000000000E+00 -0.00000000000E+00 -0.36902916879E+03  0.36902916879E+03  0.00000000000E+00 0.  1.
        -24    2    1    2    0    0  0.33348544764E+03  0.15488548056E+03  0.32039021961E+03  0.49308610407E+03  0.72677075737E+02 0.  0.
        254    2    1    2    0    0 -0.33348544764E+03 -0.15488548056E+03  0.59556520774E+03  0.11609276609E+04  0.92620357438E+03 0.  0.
         23    2    4    4    0    0 -0.58809081231E+03  0.12134463784E+03  0.32228644813E+03  0.68755765323E+03  0.91058482349E+02 0.  0.
         23    2    4    4    0    0  0.25460536468E+03 -0.27623011839E+03  0.27327875961E+03  0.47337000763E+03  0.90944563544E+02 0.  0.
          3    1    3    3  502    0  0.31610422764E+03  0.15547183280E+03  0.31965209311E+03  0.47567933963E+03  0.00000000000E+00 0. -1.
         -4    1    3    3    0  502  0.17381220000E+02 -0.58635224017E+00  0.73812649909E+00  0.17406764443E+02  0.00000000000E+00 0.  1.
         11    1    5    5    0    0 -0.36083001548E+03  0.48075005886E+02  0.15304408180E+03  0.39488225744E+03  0.00000000000E+00 0.  1.
        -11    1    5    5    0    0 -0.22726079683E+03  0.73269631949E+02  0.16924236633E+03  0.29267539579E+03  0.00000000000E+00 0. -1.
          2    1    6    6  503    0  0.16754121328E+03 -0.23113000260E+03  0.22812599645E+03  0.36542113582E+03  0.00000000000E+00 0. -1.
         -2    1    6    6    0  503  0.87064151397E+02 -0.45100115792E+02  0.45152763157E+02  0.10794887180E+03  0.00000000000E+00 0.  1.
<mgrwt>
<rscale>  0 0.13772390E+04</rscale>
<asrwt>0</asrwt>
<pdfrwt beam="1">  1        1 0.19768994E+00 0.13772390E+04</pdfrwt>
<pdfrwt beam="2">  1       -2 0.56773719E-01 0.13772390E+04</pdfrwt>
<totfact> 0.23115253E+01</totfact>
</mgrwt>
</event>
<event>
12    4  0.4381187E-008  0.2782934E+04  0.7818608E-02  0.8308586E-01
         -2   -1    0    0    0  501 -0.00000000000E+00  0.00000000000E+00  0.68393016001E+03  0.68393016001E+03  0.00000000000E+00 0.  1.
          1   -1    0    0  501    0  0.00000000000E+00 -0.00000000000E+00 -0.28309620779E+04  0.28309620779E+04  0.00000000000E+00 0. -1.
        -24    2    1    2    0    0  0.10194719469E+04  0.61397799236E+03 -0.14289820128E+04  0.18616126308E+04  0.85556813652E+02 0.  0.
        254    2    1    2    0    0 -0.10194719469E+04 -0.61397799236E+03 -0.71804990501E+03  0.16532796071E+04  0.89523503486E+03 0.  0.
         23    2    4    4    0    0 -0.43452261493E+03  0.11951730610E+03  0.13584743511E+02  0.45997605998E+03  0.91099622148E+02 0.  0.
         23    2    4    4    0    0 -0.58494933196E+03 -0.73349529846E+03 -0.73163464852E+03  0.11933035471E+04  0.92211836978E+02 0.  0.
          3    1    3    3  502    0  0.47398719377E+03  0.27122664835E+03 -0.71960915250E+03  0.90336320879E+03  0.00000000000E+00 0. -1.
         -4    1    3    3    0  502  0.54548475312E+03  0.34275134401E+03 -0.70937286034E+03  0.95824942197E+03  0.00000000000E+00 0.  1.
         11    1    5    5    0    0 -0.37254730287E+03  0.13310238316E+03  0.28080279062E+01  0.39562055344E+03  0.00000000000E+00 0. -1.
        -11    1    5    5    0    0 -0.61975312055E+02 -0.13585077059E+02  0.10776715604E+02  0.64355506541E+02  0.00000000000E+00 0.  1.
          3    1    6    6  503    0 -0.21673288690E+03 -0.27501054565E+03 -0.21752879330E+03  0.41221683663E+03  0.00000000000E+00 0. -1.
         -3    1    6    6    0  503 -0.36821644506E+03 -0.45848475281E+03 -0.51410585522E+03  0.78108671052E+03  0.00000000000E+00 0.  1.
<mgrwt>
<rscale>  0 0.27829340E+04</rscale>
<asrwt>0</asrwt>
<pdfrwt beam="1">  1        1 0.43553263E+00 0.27829340E+04</pdfrwt>
<pdfrwt beam="2">  1       -2 0.10522002E+00 0.27829340E+04</pdfrwt>
<totfact> 0.44158227E-01</totfact>
</mgrwt>
</event>
<event>
12    4  0.4381187E-008  0.2032467E+04  0.7818608E-02  0.8591590E-01
          1   -1    0    0  501    0  0.00000000000E+00  0.00000000000E+00  0.27026232985E+04  0.27026232985E+04  0.00000000000E+00 0. -1.
         -2   -1    0    0    0  501 -0.00000000000E+00 -0.00000000000E+00 -0.38212164445E+03  0.38212164445E+03  0.00000000000E+00 0.  1.
        -24    2    1    2    0    0  0.66178787713E+03  0.42106235217E+03  0.61424133498E+03  0.99929317965E+03  0.77702912206E+02 0.  0.
        254    2    1    2    0    0 -0.66178787713E+03 -0.42106235217E+03  0.17062603191E+04  0.20854517633E+04  0.90693333926E+03 0.  0.
         23    2    4    4    0    0 -0.38066322847E+03 -0.51632449072E+03  0.16466071880E+04  0.17693187933E+04  0.87625838704E+02 0.  0.
         23    2    4    4    0    0 -0.28112464866E+03  0.95262138544E+02  0.59653131104E+02  0.31613297000E+03  0.90970410294E+02 0.  0.
          1    1    3    3  502    0  0.28971205049E+02  0.19582316258E+01  0.26658917160E+02  0.39419072252E+02  0.00000000000E+00 0. -1.
         -2    1    3    3    0  502  0.63281667208E+03  0.41910412055E+03  0.58758241782E+03  0.95987410740E+03  0.00000000000E+00 0.  1.
         11    1    5    5    0    0 -0.55962403216E+02 -0.63481776008E+02  0.14825696007E+03  0.17070984936E+03  0.00000000000E+00 0. -1.
        -11    1    5    5    0    0 -0.32470082526E+03 -0.45284271471E+03  0.14983502279E+04  0.15986089440E+04  0.00000000000E+00 0.  1.
          4    1    6    6  503    0 -0.33882517404E+02  0.27350086278E+02 -0.19617945771E+02  0.47758936350E+02  0.00000000000E+00 0. -1.
         -4    1    6    6    0  503 -0.24724213125E+03  0.67912052266E+02  0.79271076874E+02  0.26837403365E+03  0.00000000000E+00 0.  1.
<mgrwt>
<rscale>  0 0.20324673E+04</rscale>
<asrwt>0</asrwt>
<pdfrwt beam="1">  1        1 0.41578819E+00 0.20324673E+04</pdfrwt>
<pdfrwt beam="2">  1       -2 0.58787947E-01 0.20324673E+04</pdfrwt>
<totfact> 0.21493387E+00</totfact>
</mgrwt>
</event>
<event>
12    4  0.4381187E-008  0.2037269E+04  0.7818608E-02  0.8589392E-01
         -2   -1    0    0    0  501 -0.00000000000E+00  0.00000000000E+00  0.89912285254E+03  0.89912285254E+03  0.00000000000E+00 0.  1.
          1   -1    0    0  501    0  0.00000000000E+00 -0.00000000000E+00 -0.11540319373E+04  0.11540319373E+04  0.00000000000E+00 0. -1.
        -24    2    1    2    0    0 -0.23374256021E+03 -0.56117679689E+03 -0.65225626522E+03  0.89518553610E+03  0.79774223344E+02 0.  0.
        254    2    1    2    0    0  0.23374256021E+03  0.56117679689E+03  0.39734718046E+03  0.11579692537E+04  0.90191630928E+03 0.  0.
         23    2    4    4    0    0  0.19923195657E+03  0.29056981820E+03  0.67030957431E+03  0.76270504952E+03  0.90993820575E+02 0.  0.
         23    2    4    4    0    0  0.34510603640E+02  0.27060697869E+03 -0.27296239385E+03  0.39526420421E+03  0.85476335869E+02 0.  0.
          3    1    3    3  502    0 -0.21461695838E+03 -0.54886256414E+03 -0.61700750572E+03  0.85323432611E+03  0.00000000000E+00 0. -1.
         -4    1    3    3    0  502 -0.19125601831E+02 -0.12314232749E+02 -0.35248759501E+02  0.41951209994E+02  0.00000000000E+00 0.  1.
         11    1    5    5    0    0  0.20616337761E+03  0.29023326711E+03  0.64815108116E+03  0.73948530183E+03  0.00000000000E+00 0.  1.
        -11    1    5    5    0    0 -0.69314210391E+01  0.33655108374E+00  0.22158493147E+02  0.23219747691E+02  0.00000000000E+00 0. -1.
          3    1    6    6  503    0  0.16643948044E+02  0.68434095577E+02 -0.12716016265E+03  0.14536145778E+03  0.00000000000E+00 0. -1.
         -3    1    6    6    0  503  0.17866655596E+02  0.20217288312E+03 -0.14580223120E+03  0.24990274643E+03  0.00000000000E+00 0.  1.
<mgrwt>
<rscale>  0 0.20372692E+04</rscale>
<asrwt>0</asrwt>
<pdfrwt beam="1">  1        1 0.17754337E+00 0.20372692E+04</pdfrwt>
<pdfrwt beam="2">  1       -2 0.13832659E+00 0.20372692E+04</pdfrwt>
<totfact> 0.34718127E+00</totfact>
</mgrwt>
</event>
<event>
12    4  0.4381187E-008  0.1415043E+04  0.7818608E-02  0.8943001E-01
          1   -1    0    0  501    0  0.00000000000E+00  0.00000000000E+00  0.10612373437E+04  0.10612373437E+04  0.00000000000E+00 0. -1.
         -2   -1    0    0    0  501 -0.00000000000E+00 -0.00000000000E+00 -0.47170087275E+03  0.47170087275E+03  0.00000000000E+00 0.  1.
        -24    2    1    2    0    0 -0.29637282339E+03  0.45622885909E+02  0.48745987563E+03  0.57784264526E+03  0.79791566994E+02 0.  0.
        254    2    1    2    0    0  0.29637282339E+03 -0.45622885909E+02  0.10207659532E+03  0.95509557119E+03  0.90103807946E+03 0.  0.
         23    2    4    4    0    0 -0.30904109554E+03  0.15589085458E+02 -0.36420417666E+02  0.32434827264E+03  0.90143978325E+02 0.  0.
         23    2    4    4    0    0  0.60541391893E+03 -0.61211971368E+02  0.13849701299E+03  0.63074729854E+03  0.91585006122E+02 0.  0.
          3    1    3    3  502    0 -0.17641238582E+03  0.10486604547E+02  0.34974066853E+03  0.39185435300E+03  0.00000000000E+00 0. -1.
         -4    1    3    3    0  502 -0.11996043757E+03  0.35136281363E+02  0.13771920711E+03  0.18598829225E+03  0.00000000000E+00 0.  1.
         11    1    5    5    0    0 -0.85863254314E+02  0.29246089045E+02  0.21814819888E+02  0.93293721828E+02  0.00000000000E+00 0. -1.
        -11    1    5    5    0    0 -0.22317784122E+03 -0.13657003587E+02 -0.58235237554E+02  0.23105455082E+03  0.00000000000E+00 0.  1.
          1    1    6    6  503    0  0.30733910840E+03 -0.73330357551E+02  0.52675627389E+02  0.32032700575E+03  0.00000000000E+00 0. -1.
         -1    1    6    6    0  503  0.29807481053E+03  0.12118386183E+02  0.85821385598E+02  0.31042029280E+03  0.00000000000E+00 0.  1.
<mgrwt>
<rscale>  0 0.14150429E+04</rscale>
<asrwt>0</asrwt>
<pdfrwt beam="1">  1        1 0.16326728E+00 0.14150429E+04</pdfrwt>
<pdfrwt beam="2">  1       -2 0.72569365E-01 0.14150429E+04</pdfrwt>
<totfact> 0.19899449E+01</totfact>
</mgrwt>
</event>
<event>
12    4  0.4381187E-008  0.1122791E+04  0.7818608E-02  0.9183258E-01
          1   -1    0    0  501    0  0.00000000000E+00  0.00000000000E+00  0.17047152201E+04  0.17047152201E+04  0.00000000000E+00 0. -1.
         -2   -1    0    0    0  501 -0.00000000000E+00 -0.00000000000E+00 -0.18487847143E+03  0.18487847143E+03  0.00000000000E+00 0.  1.
        -24    2    1    2    0    0 -0.99865823898E+02 -0.44443625429E+02  0.22926868891E+02  0.13638707184E+03  0.78277540986E+02 0.  0.
        254    2    1    2    0    0  0.99865823898E+02  0.44443625429E+02  0.14969098798E+04  0.17532066197E+04  0.90611580085E+03 0.  0.
         23    2    4    4    0    0 -0.61525920902E+02  0.37949315698E+03  0.12090224271E+04  0.12718855826E+04  0.90317278573E+02 0.  0.
         23    2    4    4    0    0  0.16139174480E+03 -0.33504953156E+03  0.28788745265E+03  0.48132103709E+03  0.10239761456E+03 0.  0.
          3    1    3    3  502    0 -0.34846920472E+02  0.45208564387E+00  0.42523863936E+02  0.54979916805E+02  0.00000000000E+00 0. -1.
         -4    1    3    3    0  502 -0.65018903426E+02 -0.44895711073E+02 -0.19596995045E+02  0.81407155031E+02  0.00000000000E+00 0.  1.
         11    1    5    5    0    0 -0.19596736193E+02  0.32684118626E+03  0.10169228611E+04  0.10683357611E+04  0.00000000000E+00 0.  1.
        -11    1    5    5    0    0 -0.41929184710E+02  0.52651970728E+02  0.19209956607E+03  0.20354982151E+03  0.00000000000E+00 0. -1.
          4    1    6    6  503    0  0.13259141260E+03 -0.18215850966E+03  0.13222145074E+03  0.26123689895E+03  0.00000000000E+00 0. -1.
         -4    1    6    6    0  503  0.28800332201E+02 -0.15289102190E+03  0.15566600191E+03  0.22008413814E+03  0.00000000000E+00 0.  1.
<mgrwt>
<rscale>  0 0.11227914E+04</rscale>
<asrwt>0</asrwt>
<pdfrwt beam="1">  1        1 0.26226387E+00 0.11227914E+04</pdfrwt>
<pdfrwt beam="2">  1       -2 0.28442843E-01 0.11227914E+04</pdfrwt>
<totfact> 0.46811384E+01</totfact>
</mgrwt>
</event>
<event>
12    4  0.4381187E-008  0.2270815E+04  0.7818608E-02  0.8489518E-01
          1   -1    0    0  501    0  0.00000000000E+00  0.00000000000E+00  0.27082074891E+04  0.27082074891E+04  0.00000000000E+00 0. -1.
         -2   -1    0    0    0  501 -0.00000000000E+00 -0.00000000000E+00 -0.47601616919E+03  0.47601616919E+03  0.00000000000E+00 0.  1.
        -24    2    1    2    0    0  0.62580252764E+03 -0.50609196467E+03  0.21793167235E+03  0.83759321308E+03  0.79437374569E+02 0.  0.
        254    2    1    2    0    0 -0.62580252764E+03  0.50609196467E+03  0.20142596476E+04  0.23466304452E+04  0.89536285287E+03 0.  0.
         23    2    4    4    0    0 -0.32637176889E+02 -0.23249171068E+03  0.40601695508E+03  0.47792223147E+03  0.91882047631E+02 0.  0.
         23    2    4    4    0    0 -0.59316535075E+03  0.73858367535E+03  0.16082426925E+04  0.18687082137E+04  0.90966209912E+02 0.  0.
          3    1    3    3  502    0  0.57446248819E+01 -0.91796888337E+01  0.13134478879E+02  0.17022982627E+02  0.00000000000E+00 0. -1.
         -4    1    3    3    0  502  0.62005790276E+03 -0.49691227584E+03  0.20479719348E+03  0.82057023045E+03  0.00000000000E+00 0.  1.
         11    1    5    5    0    0  0.68789038474E+01  0.64480104931E+01  0.10190900665E+02  0.13883465484E+02  0.00000000000E+00 0. -1.
        -11    1    5    5    0    0 -0.39516080736E+02 -0.23893972117E+03  0.39582605441E+03  0.46403876599E+03  0.00000000000E+00 0.  1.
          1    1    6    6  503    0 -0.16062758573E+03  0.16688135934E+03  0.33032604901E+03  0.40344257094E+03  0.00000000000E+00 0. -1.
         -1    1    6    6    0  503 -0.43253776502E+03  0.57170231601E+03  0.12779166435E+04  0.14652656428E+04  0.00000000000E+00 0.  1.
<mgrwt>
<rscale>  0 0.22708153E+04</rscale>
<asrwt>0</asrwt>
<pdfrwt beam="1">  1        1 0.41664730E+00 0.22708153E+04</pdfrwt>
<pdfrwt beam="2">  1       -2 0.73233258E-01 0.22708153E+04</pdfrwt>
<totfact> 0.12984345E+00</totfact>
</mgrwt>
</event>
<event>
12    4  0.4381187E-008  0.1374244E+04  0.7818608E-02  0.8972676E-01
          1   -1    0    0  501    0  0.00000000000E+00  0.00000000000E+00  0.19083129859E+04  0.19083129859E+04  0.00000000000E+00 0. -1.
         -2   -1    0    0    0  501 -0.00000000000E+00 -0.00000000000E+00 -0.24741062840E+03  0.24741062840E+03  0.00000000000E+00 0.  1.
        -24    2    1    2    0    0 -0.22500623777E+03 -0.29136016318E+03  0.34074557289E+03  0.50814007659E+03  0.81118680160E+02 0.  0.
        254    2    1    2    0    0  0.22500623777E+03  0.29136016318E+03  0.13201567846E+04  0.16475835377E+04  0.91443918664E+03 0.  0.
         23    2    4    4    0    0 -0.23497503034E+03  0.41172844398E+03  0.81912323014E+03  0.95084449118E+03  0.91699529908E+02 0.  0.
         23    2    4    4    0    0  0.45998126811E+03 -0.12036828080E+03  0.50103355447E+03  0.69673904654E+03  0.91320239956E+02 0.  0.
          1    1    3    3  502    0 -0.84805448640E+02 -0.56826788922E+02  0.11438871843E+03  0.15331675369E+03  0.00000000000E+00 0. -1.
         -2    1    3    3    0  502 -0.14020078913E+03 -0.23453337426E+03  0.22635685446E+03  0.35482332290E+03  0.00000000000E+00 0.  1.
         11    1    5    5    0    0 -0.24505653854E+02  0.89483757638E+02  0.10913905554E+03  0.14324525611E+03  0.00000000000E+00 0.  1.
        -11    1    5    5    0    0 -0.21046937648E+03  0.32224468634E+03  0.70998417460E+03  0.80759923507E+03  0.00000000000E+00 0. -1.
          4    1    6    6  503    0  0.35422560378E+03 -0.52405501840E+02  0.38257085775E+03  0.52400627496E+03  0.00000000000E+00 0. -1.
         -4    1    6    6    0  503  0.10575566433E+03 -0.67962778963E+02  0.11846269672E+03  0.17273277158E+03  0.00000000000E+00 0.  1.
<mgrwt>
<rscale>  0 0.13742444E+04</rscale>
<asrwt>0</asrwt>
<pdfrwt beam="1">  1        1 0.29358660E+00 0.13742444E+04</pdfrwt>
<pdfrwt beam="2">  1       -2 0.38063175E-01 0.13742444E+04</pdfrwt>
<totfact> 0.19231901E+01</totfact>
</mgrwt>
</event>
<event>
12    4  0.4381187E-008  0.2149404E+04  0.7818608E-02  0.8539787E-01
         -2   -1    0    0    0  501 -0.00000000000E+00  0.00000000000E+00  0.64697830359E+03  0.64697830359E+03  0.00000000000E+00 0.  1.
          1   -1    0    0  501    0  0.00000000000E+00 -0.00000000000E+00 -0.17851977612E+04  0.17851977612E+04  0.00000000000E+00 0. -1.
        -24    2    1    2    0    0  0.40812550863E+03 -0.46080355665E+03  0.26620868853E+03  0.67552054888E+03  0.80960468688E+02 0.  0.
        254    2    1    2    0    0 -0.40812550863E+03  0.46080355665E+03 -0.14044281461E+04  0.17566555159E+04  0.85703782604E+03 0.  0.
         23    2    4    4    0    0 -0.30821902228E+03  0.68938788244E+03 -0.84326399351E+03  0.11357916082E+04  0.93133217761E+02 0.  0.
         23    2    4    4    0    0 -0.99906486354E+02 -0.22858432579E+03 -0.56116415258E+03  0.62086390771E+03  0.91294500072E+02 0.  0.
          1    1    3    3  502    0  0.10340703119E+03 -0.82762297391E+02  0.31176321916E+02  0.13606827337E+03  0.00000000000E+00 0. -1.
         -2    1    3    3    0  502  0.30471847744E+03 -0.37804125926E+03  0.23503236662E+03  0.53945227551E+03  0.00000000000E+00 0.  1.
         11    1    5    5    0    0 -0.17987156783E+01 -0.17004074727E+01  0.87448082026E+00  0.26251629225E+01  0.00000000000E+00 0. -1.
        -11    1    5    5    0    0 -0.30642030660E+03  0.69108828991E+03 -0.84413847433E+03  0.11331664452E+04  0.00000000000E+00 0.  1.
          2    1    6    6  503    0 -0.57435116130E+02 -0.13600831959E+03 -0.43100276178E+03  0.45558801150E+03  0.00000000000E+00 0. -1.
         -2    1    6    6    0  503 -0.42471370224E+02 -0.92576006197E+02 -0.13016139080E+03  0.16527589621E+03  0.00000000000E+00 0.  1.
<mgrwt>
<rscale>  0 0.21494038E+04</rscale>
<asrwt>0</asrwt>
<pdfrwt beam="1">  1        1 0.27464581E+00 0.21494038E+04</pdfrwt>
<pdfrwt beam="2">  1       -2 0.99535125E-01 0.21494038E+04</pdfrwt>
<totfact> 0.28004317E+00</totfact>
</mgrwt>
</event>
<event>
12    4  0.4381187E-008  0.2298920E+04  0.7818608E-02  0.8478347E-01
          1   -1    0    0  501    0  0.00000000000E+00  0.00000000000E+00  0.30637715623E+04  0.30637715623E+04  0.00000000000E+00 0. -1.
         -2   -1    0    0    0  501 -0.00000000000E+00 -0.00000000000E+00 -0.43125239950E+03  0.43125239950E+03  0.00000000000E+00 0.  1.
        -24    2    1    2    0    0  0.60423845311E+03 -0.74726306113E+03  0.13503915912E+04  0.16592558378E+04  0.77886424416E+02 0.  0.
        254    2    1    2    0    0 -0.60423845311E+03  0.74726306113E+03  0.12821275716E+04  0.18357681240E+04  0.89592818034E+03 0.  0.
         23    2    4    4    0    0 -0.78109236646E+03  0.48812236126E+03  0.67245101427E+03  0.11440996109E+04  0.91677851983E+02 0.  0.
         23    2    4    4    0    0  0.17685391335E+03  0.25914069987E+03  0.60967655733E+03  0.69166851306E+03  0.90931943826E+02 0.  0.
          3    1    3    3  502    0  0.56468649241E+03 -0.69067981830E+03  0.12837244840E+04  0.15632843622E+04  0.00000000000E+00 0. -1.
         -4    1    3    3    0  502  0.39551960698E+02 -0.56583242836E+02  0.66667107146E+02  0.95971475659E+02  0.00000000000E+00 0.  1.
         11    1    5    5    0    0 -0.11305332617E+01  0.10593528921E+02  0.11814836035E+02  0.15908843798E+02  0.00000000000E+00 0. -1.
        -11    1    5    5    0    0 -0.77996183320E+03  0.47752883234E+03  0.66063617824E+03  0.11281907671E+04  0.00000000000E+00 0.  1.
          2    1    6    6  503    0  0.41446697043E+02  0.33915044402E+02  0.49564627082E+02  0.72970618679E+02  0.00000000000E+00 0. -1.
         -2    1    6    6    0  503  0.13540721631E+03  0.22522565547E+03  0.56011193024E+03  0.61869789438E+03  0.00000000000E+00 0.  1.
<mgrwt>
<rscale>  0 0.22989205E+04</rscale>
<asrwt>0</asrwt>
<pdfrwt beam="1">  1        1 0.47134946E+00 0.22989205E+04</pdfrwt>
<pdfrwt beam="2">  1       -2 0.66346525E-01 0.22989205E+04</pdfrwt>
<totfact> 0.89138172E-01</totfact>
</mgrwt>
</event>
<event>
12    4  0.4381187E-008  0.2519640E+04  0.7818608E-02  0.8396022E-01
          1   -1    0    0  501    0  0.00000000000E+00  0.00000000000E+00  0.14729678707E+04  0.14729678707E+04  0.00000000000E+00 0. -1.
         -2   -1    0    0    0  501 -0.00000000000E+00 -0.00000000000E+00 -0.10775156736E+04  0.10775156736E+04  0.00000000000E+00 0.  1.
        -24    2    1    2    0    0 -0.54215294338E+03 -0.60690024562E+03 -0.58385634122E+03  0.10047216728E+04  0.79496480589E+02 0.  0.
        254    2    1    2    0    0  0.54215294338E+03  0.60690024562E+03  0.97930853830E+03  0.15457618716E+04  0.87639992489E+03 0.  0.
         23    2    4    4    0    0  0.13096053916E+03  0.72483352297E+03  0.73756677817E+03  0.10461489275E+04  0.88817382198E+02 0.  0.
         23    2    4    4    0    0  0.41119240422E+03 -0.11793327735E+03  0.24174176013E+03  0.49961294411E+03  0.90479633815E+02 0.  0.
          1    1    3    3  502    0 -0.35916541668E+02 -0.29875760326E+02 -0.56981503608E+02  0.73684806940E+02  0.00000000000E+00 0. -1.
         -2    1    3    3    0  502 -0.50623640171E+03 -0.57702448529E+03 -0.52687483761E+03  0.93103686584E+03  0.00000000000E+00 0.  1.
         11    1    5    5    0    0  0.11654437385E+03  0.68157516342E+03  0.71708839349E+03  0.99616417249E+03  0.00000000000E+00 0.  1.
        -11    1    5    5    0    0  0.14416165313E+02  0.43258359547E+02  0.20478384679E+02  0.49984754996E+02  0.00000000000E+00 0. -1.
          1    1    6    6  503    0  0.42244029926E+02  0.46654949207E+01  0.51519174998E+02  0.66787351345E+02  0.00000000000E+00 0. -1.
         -1    1    6    6    0  503  0.36894837429E+03 -0.12259877227E+03  0.19022258513E+03  0.43282559276E+03  0.00000000000E+00 0.  1.
<mgrwt>
<rscale>  0 0.25196396E+04</rscale>
<asrwt>0</asrwt>
<pdfrwt beam="1">  1        1 0.22661044E+00 0.25196396E+04</pdfrwt>
<pdfrwt beam="2">  1       -2 0.16577164E+00 0.25196396E+04</pdfrwt>
<totfact> 0.12158317E+00</totfact>
</mgrwt>
</event>
<event>
12    4  0.4381187E-008  0.1780377E+04  0.7818608E-02  0.8716805E-01
         -2   -1    0    0    0  501 -0.00000000000E+00  0.00000000000E+00  0.63903228336E+03  0.63903228336E+03  0.00000000000E+00 0.  1.
          1   -1    0    0  501    0  0.00000000000E+00 -0.00000000000E+00 -0.12400559943E+04  0.12400559943E+04  0.00000000000E+00 0. -1.
        -24    2    1    2    0    0 -0.61922624870E+03 -0.17557051275E+03 -0.94424569169E+02  0.65490907519E+03  0.75655439190E+02 0.  0.
        254    2    1    2    0    0  0.61922624870E+03  0.17557051275E+03 -0.50659914173E+03  0.12241792024E+04  0.90978342324E+03 0.  0.
         23    2    4    4    0    0  0.36408464895E+03 -0.88888869658E+02  0.19112313203E+03  0.43020382248E+03  0.89935613229E+02 0.  0.
         23    2    4    4    0    0  0.25514159975E+03  0.26445938241E+03 -0.69772227376E+03  0.79397537994E+03  0.92436636600E+02 0.  0.
          3    1    3    3  502    0 -0.10371132657E+03 -0.58224043714E+02 -0.26587488712E+02  0.12187277416E+03  0.00000000000E+00 0. -1.
         -2    1    3    3    0  502 -0.51551492213E+03 -0.11734646904E+03 -0.67837080457E+02  0.53303630103E+03  0.00000000000E+00 0.  1.
         11    1    5    5    0    0  0.61196495900E+02 -0.46040973768E+01  0.70482103083E+02  0.93455527809E+02  0.00000000000E+00 0. -1.
        -11    1    5    5    0    0  0.30288815305E+03 -0.84284772281E+02  0.12064102895E+03  0.33674829467E+03  0.00000000000E+00 0.  1.
          4    1    6    6  503    0  0.11791830189E+03  0.10490925160E+03 -0.20924901441E+03  0.26209888787E+03  0.00000000000E+00 0. -1.
         -4    1    6    6    0  503  0.13722329786E+03  0.15955013081E+03 -0.48847325935E+03  0.53187649207E+03  0.00000000000E+00 0.  1.
<mgrwt>
<rscale>  0 0.17803773E+04</rscale>
<asrwt>0</asrwt>
<pdfrwt beam="1">  1        1 0.19077784E+00 0.17803773E+04</pdfrwt>
<pdfrwt beam="2">  1       -2 0.98312659E-01 0.17803773E+04</pdfrwt>
<totfact> 0.71235271E+00</totfact>
</mgrwt>
</event>
<event>
12    4  0.4381187E-008  0.2675716E+04  0.7818608E-02  0.8342928E-01
         -2   -1    0    0    0  501 -0.00000000000E+00  0.00000000000E+00  0.96974074749E+03  0.96974074749E+03  0.00000000000E+00 0.  1.
          1   -1    0    0  501    0  0.00000000000E+00 -0.00000000000E+00 -0.18457135039E+04  0.18457135039E+04  0.00000000000E+00 0. -1.
        -24    2    1    2    0    0  0.10241385606E+03 -0.81542151332E+03  0.51206245830E+03  0.97052876629E+03  0.65706032527E+02 0.  0.
        254    2    1    2    0    0 -0.10241385606E+03  0.81542151332E+03 -0.13880352147E+04  0.18449254851E+04  0.89538117357E+03 0.  0.
         23    2    4    4    0    0  0.20063982681E+03  0.84451609689E+03 -0.83954874245E+03  0.12109218199E+04  0.89586745823E+02 0.  0.
         23    2    4    4    0    0 -0.30305368287E+03 -0.29094583577E+02 -0.54848647229E+03  0.63400366519E+03  0.91843386736E+02 0.  0.
          3    1    3    3  502    0  0.54727574324E+02 -0.37494243851E+03  0.27368444935E+03  0.46741856767E+03  0.00000000000E+00 0. -1.
         -4    1    3    3    0  502  0.47686281736E+02 -0.44047907480E+03  0.23837800895E+03  0.50311019862E+03  0.00000000000E+00 0.  1.
         11    1    5    5    0    0  0.16261785302E+03  0.54326256529E+03 -0.58440049827E+03  0.81431119564E+03  0.00000000000E+00 0.  1.
        -11    1    5    5    0    0  0.38021973788E+02  0.30125353160E+03 -0.25514824419E+03  0.39661062430E+03  0.00000000000E+00 0. -1.
          1    1    6    6  503    0 -0.24698162021E+03  0.11901068894E+02 -0.45044172590E+03  0.51384754995E+03  0.00000000000E+00 0.  1.
         -1    1    6    6    0  503 -0.56072062664E+02 -0.40995652471E+02 -0.98044746395E+02  0.12015611524E+03  0.00000000000E+00 0. -1.
<mgrwt>
<rscale>  0 0.26757157E+04</rscale>
<asrwt>0</asrwt>
<pdfrwt beam="1">  1        1 0.28395592E+00 0.26757157E+04</pdfrwt>
<pdfrwt beam="2">  1       -2 0.14919089E+00 0.26757157E+04</pdfrwt>
<totfact> 0.88636894E-01</totfact>
</mgrwt>
</event>
<event>
12    4  0.4381187E-008  0.1900349E+04  0.7818608E-02  0.8654683E-01
          1   -1    0    0  501    0  0.00000000000E+00  0.00000000000E+00  0.16217246712E+04  0.16217246712E+04  0.00000000000E+00 0. -1.
         -2   -1    0    0    0  501 -0.00000000000E+00 -0.00000000000E+00 -0.55671079198E+03  0.55671079198E+03  0.00000000000E+00 0.  1.
        -24    2    1    2    0    0 -0.26704938103E+03  0.58704393476E+03  0.82660106178E+03  0.10519534209E+04  0.86027502368E+02 0.  0.
        254    2    1    2    0    0  0.26704938103E+03 -0.58704393476E+03  0.23841281742E+03  0.11264820423E+04  0.89229208602E+03 0.  0.
         23    2    4    4    0    0 -0.97280064508E+02  0.22474525884E+02  0.37343064900E+03  0.39815451511E+03  0.95436120114E+02 0.  0.
         23    2    4    4    0    0  0.36432944554E+03 -0.60951846064E+03 -0.13501783158E+03  0.72832752715E+03  0.89344687647E+02 0.  0.
          1    1    3    3  502    0 -0.13874621063E+03  0.26524216589E+03  0.44765839317E+03  0.53851829542E+03  0.00000000000E+00 0. -1.
         -2    1    3    3    0  502 -0.12830317040E+03  0.32180176886E+03  0.37894266861E+03  0.51343512548E+03  0.00000000000E+00 0.  1.
         11    1    5    5    0    0 -0.63069281248E+02 -0.23873315953E+02  0.11441214185E+03  0.13280740813E+03  0.00000000000E+00 0.  1.
        -11    1    5    5    0    0 -0.34210783260E+02  0.46347841837E+02  0.25901850715E+03  0.26534710697E+03  0.00000000000E+00 0. -1.
          3    1    6    6  503    0  0.12021694278E+03 -0.22817612671E+03 -0.78598841965E+01  0.25802758750E+03  0.00000000000E+00 0. -1.
         -3    1    6    6    0  503  0.24411250276E+03 -0.38134233393E+03 -0.12715794738E+03  0.47029993965E+03  0.00000000000E+00 0.  1.
<mgrwt>
<rscale>  0 0.19003490E+04</rscale>
<asrwt>0</asrwt>
<pdfrwt beam="1">  1        1 0.24949610E+00 0.19003490E+04</pdfrwt>
<pdfrwt beam="2">  1       -2 0.85647815E-01 0.19003490E+04</pdfrwt>
<totfact> 0.52435203E+00</totfact>
</mgrwt>
</event>
<event>
12    4  0.4381187E-008  0.1483100E+04  0.7818608E-02  0.8895770E-01
          1   -1    0    0  501    0  0.00000000000E+00  0.00000000000E+00  0.63479205841E+03  0.63479205841E+03  0.00000000000E+00 0. -1.
         -2   -1    0    0    0  501 -0.00000000000E+00 -0.00000000000E+00 -0.86626232549E+03  0.86626232549E+03  0.00000000000E+00 0.  1.
        -24    2    1    2    0    0 -0.11961499913E+02  0.31918667031E+03 -0.42845631150E+03  0.54038386804E+03  0.80104344389E+02 0.  0.
        254    2    1    2    0    0  0.11961499913E+02 -0.31918667031E+03  0.19698604443E+03  0.96067051585E+03  0.88434220206E+03 0.  0.
         23    2    4    4    0    0  0.12500428548E+03 -0.53148578436E+03  0.35637026669E+03  0.65825810696E+03  0.90558036785E+02 0.  0.
         23    2    4    4    0    0 -0.11304278557E+03  0.21229911405E+03 -0.15938422226E+03  0.30241240890E+03  0.90555781453E+02 0.  0.
          3    1    3    3  502    0 -0.32115588018E+02  0.60790423277E+02 -0.70781908652E+02  0.98676061678E+02  0.00000000000E+00 0. -1.
         -4    1    3    3    0  502  0.20154088105E+02  0.25839624704E+03 -0.35767440285E+03  0.44170780637E+03  0.00000000000E+00 0.  1.
         11    1    5    5    0    0  0.10849188113E+03 -0.36477440396E+03  0.20396109786E+03  0.43177654348E+03  0.00000000000E+00 0. -1.
        -11    1    5    5    0    0  0.16512404347E+02 -0.16671138040E+03  0.15240916883E+03  0.22648156348E+03  0.00000000000E+00 0.  1.
          3    1    6    6  503    0 -0.82269000616E+02  0.67156089953E+02 -0.46261012533E+02  0.11583699824E+03  0.00000000000E+00 0. -1.
         -3    1    6    6    0  503 -0.30773784954E+02  0.14514302410E+03 -0.11312320973E+03  0.18657541066E+03  0.00000000000E+00 0.  1.
<mgrwt>
<rscale>  0 0.14831001E+04</rscale>
<asrwt>0</asrwt>
<pdfrwt beam="1">  1        1 0.97660317E-01 0.14831001E+04</pdfrwt>
<pdfrwt beam="2">  1       -2 0.13327113E+00 0.14831001E+04</pdfrwt>
<totfact> 0.10898735E+01</totfact>
</mgrwt>
</event>
<event>
12    4  0.4381187E-008  0.1244179E+04  0.7818608E-02  0.9075042E-01
          1   -1    0    0  501    0  0.00000000000E+00  0.00000000000E+00  0.11272681996E+04  0.11272681996E+04  0.00000000000E+00 0. -1.
         -2   -1    0    0    0  501 -0.00000000000E+00 -0.00000000000E+00 -0.34330368890E+03  0.34330368890E+03  0.00000000000E+00 0.  1.
        -24    2    1    2    0    0 -0.14106201125E+03  0.27136187958E+03  0.33470709713E+03  0.46025346056E+03  0.79174783780E+02 0.  0.
        254    2    1    2    0    0  0.14106201125E+03 -0.27136187958E+03  0.44925741354E+03  0.10103184279E+04  0.85168969785E+03 0.  0.
         23    2    4    4    0    0 -0.19634667683E+03  0.77849313241E+01 -0.14997816209E+03  0.26257589294E+03  0.88543931421E+02 0.  0.
         23    2    4    4    0    0  0.33740868809E+03 -0.27914681090E+03  0.59923557563E+03  0.74774253495E+03  0.90928865880E+02 0.  0.
          3    1    3    3  502    0 -0.14531809023E+03  0.27109451251E+03  0.31567591644E+03  0.44075034461E+03  0.00000000000E+00 0. -1.
         -4    1    3    3    0  502  0.42560789726E+01  0.26736707263E+00  0.19031180689E+02  0.19503115950E+02  0.00000000000E+00 0.  1.
         11    1    5    5    0    0 -0.20468214571E+03  0.23661506141E+01 -0.14757805909E+03  0.25234829693E+03  0.00000000000E+00 0.  1.
        -11    1    5    5    0    0  0.83354688730E+01  0.54187807100E+01 -0.24001029952E+01  0.10227596008E+02  0.00000000000E+00 0. -1.
          3    1    6    6  503    0  0.36774973851E+02 -0.13862919295E+02  0.99936369842E+02  0.10738648542E+03  0.00000000000E+00 0. -1.
         -3    1    6    6    0  503  0.30063371424E+03 -0.26528389161E+03  0.49929920578E+03  0.64035604954E+03  0.00000000000E+00 0.  1.
<mgrwt>
<rscale>  0 0.12441790E+04</rscale>
<asrwt>0</asrwt>
<pdfrwt beam="1">  1        1 0.17342587E+00 0.12441790E+04</pdfrwt>
<pdfrwt beam="2">  1       -2 0.52815953E-01 0.12441790E+04</pdfrwt>
<totfact> 0.35380386E+01</totfact>
</mgrwt>
</event>
<event>
12    4  0.4381187E-008  0.1370852E+04  0.7818608E-02  0.8975192E-01
         -2   -1    0    0    0  501 -0.00000000000E+00  0.00000000000E+00  0.21941078114E+03  0.21941078114E+03  0.00000000000E+00 0.  1.
          1   -1    0    0  501    0  0.00000000000E+00 -0.00000000000E+00 -0.21412297579E+04  0.21412297579E+04  0.00000000000E+00 0. -1.
        -24    2    1    2    0    0 -0.13797773185E+03  0.35040099361E+03 -0.51392411383E+03  0.64213464515E+03  0.80001230710E+02 0.  0.
        254    2    1    2    0    0  0.13797773185E+03 -0.35040099361E+03 -0.14078948629E+04  0.17185058938E+04  0.91064584303E+03 0.  0.
         23    2    4    4    0    0  0.62852762301E+02 -0.42293850833E+03 -0.16415849728E+03  0.46701387800E+03  0.91249649074E+02 0.  0.
         23    2    4    4    0    0  0.75124969544E+02  0.72537514723E+02 -0.12437363656E+04  0.12514920158E+04  0.91905747912E+02 0.  0.
          3    1    3    3  502    0 -0.10910242426E+03  0.22539698735E+03 -0.39192228984E+03  0.46509162770E+03  0.00000000000E+00 0. -1.
         -4    1    3    3    0  502 -0.28875307586E+02  0.12500400626E+03 -0.12200182399E+03  0.17704301745E+03  0.00000000000E+00 0.  1.
         11    1    5    5    0    0 -0.21681230370E+02 -0.84684119528E+02 -0.46667045867E+02  0.99092325740E+02  0.00000000000E+00 0.  1.
        -11    1    5    5    0    0  0.84533992671E+02 -0.33825438881E+03 -0.11749145141E+03  0.36792155226E+03  0.00000000000E+00 0. -1.
          2    1    6    6  503    0  0.44859096781E+02  0.92193606478E+02 -0.96416330391E+03  0.96959933799E+03  0.00000000000E+00 0. -1.
         -2    1    6    6    0  503  0.30265872764E+02 -0.19656091754E+02 -0.27957306170E+03  0.28189267785E+03  0.00000000000E+00 0.  1.
<mgrwt>
<rscale>  0 0.13708521E+04</rscale>
<asrwt>0</asrwt>
<pdfrwt beam="1">  1        1 0.32941995E+00 0.13708521E+04</pdfrwt>
<pdfrwt beam="2">  1       -2 0.33755506E-01 0.13708521E+04</pdfrwt>
<totfact> 0.16854070E+01</totfact>
</mgrwt>
</event>
<event>
12    4  0.4381187E-008  0.1159551E+04  0.7818608E-02  0.9149017E-01
         -2   -1    0    0    0  501 -0.00000000000E+00  0.00000000000E+00  0.81029909331E+03  0.81029909331E+03  0.00000000000E+00 0.  1.
          1   -1    0    0  501    0  0.00000000000E+00 -0.00000000000E+00 -0.41483415284E+03  0.41483415284E+03  0.00000000000E+00 0. -1.
        -24    2    1    2    0    0  0.21355512117E+03 -0.23881373025E+02  0.65696301603E+02  0.23857178703E+03  0.80152253646E+02 0.  0.
        254    2    1    2    0    0 -0.21355512117E+03  0.23881373025E+02  0.32976863887E+03  0.98656145913E+03  0.90464360259E+03 0.  0.
         23    2    4    4    0    0 -0.49528153892E+03 -0.21526245490E+03  0.19886132150E+03  0.58288096916E+03  0.92534705593E+02 0.  0.
         23    2    4    4    0    0  0.28172641775E+03  0.23914382792E+03  0.13090731736E+03  0.40368048997E+03  0.96237556880E+02 0.  0.
          1    1    3    3  502    0  0.13670094492E+03 -0.77945510693E+01  0.11506104775E+01  0.13692781775E+03  0.00000000000E+00 0. -1.
         -2    1    3    3    0  502  0.76854176248E+02 -0.16086821956E+02  0.64545691125E+02  0.10164396928E+03  0.00000000000E+00 0.  1.
         11    1    5    5    0    0 -0.40215189905E+03 -0.20209911562E+03  0.18955642497E+03  0.48836650243E+03  0.00000000000E+00 0.  1.
        -11    1    5    5    0    0 -0.93129639864E+02 -0.13163339275E+02  0.93048965328E+01  0.94514466731E+02  0.00000000000E+00 0. -1.
          3    1    6    6  503    0  0.30916829331E+01 -0.80686412372E+01  0.69965285217E+01  0.11118133212E+02  0.00000000000E+00 0. -1.
         -3    1    6    6    0  503  0.27863473481E+03  0.24721246916E+03  0.12391078884E+03  0.39256235676E+03  0.00000000000E+00 0.  1.
<mgrwt>
<rscale>  0 0.11595512E+04</rscale>
<asrwt>0</asrwt>
<pdfrwt beam="1">  1        1 0.63820639E-01 0.11595512E+04</pdfrwt>
<pdfrwt beam="2">  1       -2 0.12466140E+00 0.11595512E+04</pdfrwt>
<totfact> 0.23912564E+01</totfact>
</mgrwt>
</event>
<event>
12    4  0.4381187E-008  0.1391760E+04  0.7818608E-02  0.8959805E-01
          1   -1    0    0  501    0  0.00000000000E+00  0.00000000000E+00  0.15254122567E+04  0.15254122567E+04  0.00000000000E+00 0. -1.
         -2   -1    0    0    0  501 -0.00000000000E+00 -0.00000000000E+00 -0.31745434765E+03  0.31745434765E+03  0.00000000000E+00 0.  1.
        -24    2    1    2    0    0 -0.49826327538E+01  0.29148975751E+03  0.66911588660E+03  0.73414679570E+03  0.79147599936E+02 0.  0.
        254    2    1    2    0    0  0.49826327538E+01 -0.29148975751E+03  0.53884202249E+03  0.11087198087E+04  0.92407671956E+03 0.  0.
         23    2    4    4    0    0 -0.32942626748E+03 -0.42603366217E+03  0.48675543663E+03  0.73147603253E+03  0.89999911551E+02 0.  0.
         23    2    4    4    0    0  0.33440890024E+03  0.13454390465E+03  0.52086585862E+02  0.37724377616E+03  0.98328426146E+02 0.  0.
          1    1    3    3  502    0  0.13666755399E+02  0.27249561407E+03  0.57688110823E+03  0.63814767329E+03  0.00000000000E+00 0. -1.
         -2    1    3    3    0  502 -0.18649388153E+02  0.18994143448E+02  0.92234778365E+02  0.95999122412E+02  0.00000000000E+00 0.  1.
         11    1    5    5    0    0 -0.22367987072E+03 -0.30817810709E+03  0.39410535137E+03  0.54801957833E+03  0.00000000000E+00 0.  1.
        -11    1    5    5    0    0 -0.10574639676E+03 -0.11785555508E+03  0.92650085257E+02  0.18345645421E+03  0.00000000000E+00 0. -1.
          4    1    6    6  503    0  0.15521852395E+02 -0.13512828144E+02  0.10813495813E+02  0.23247712101E+02  0.00000000000E+00 0. -1.
         -4    1    6    6    0  503  0.31888704784E+03  0.14805673280E+03  0.41273090049E+02  0.35399606406E+03  0.00000000000E+00 0.  1.
<mgrwt>
<rscale>  0 0.13917597E+04</rscale>
<asrwt>0</asrwt>
<pdfrwt beam="1">  1        1 0.23467880E+00 0.13917597E+04</pdfrwt>
<pdfrwt beam="2">  1       -2 0.48839131E-01 0.13917597E+04</pdfrwt>
<totfact> 0.21350055E+01</totfact>
</mgrwt>
</event>
<event>
12    4  0.4381187E-008  0.1375071E+04  0.7818608E-02  0.8972064E-01
          1   -1    0    0  501    0  0.00000000000E+00  0.00000000000E+00  0.11044039268E+04  0.11044039268E+04  0.00000000000E+00 0. -1.
         -2   -1    0    0    0  501 -0.00000000000E+00 -0.00000000000E+00 -0.42801837575E+03  0.42801837575E+03  0.00000000000E+00 0.  1.
        -24    2    1    2    0    0 -0.21067805016E+03  0.12303334255E+03 -0.14365524997E+03  0.29401984395E+03  0.79299392171E+02 0.  0.
        254    2    1    2    0    0  0.21067805016E+03 -0.12303334255E+03  0.82004080097E+03  0.12384024585E+04  0.89534981425E+03 0.  0.
         23    2    4    4    0    0 -0.31656418177E+03 -0.22690237284E+02  0.51847018861E+03  0.61615134908E+03  0.10051577216E+03 0.  0.
         23    2    4    4    0    0  0.52724223192E+03 -0.10034310527E+03  0.30157061236E+03  0.62225110947E+03  0.90545563636E+02 0.  0.
          1    1    3    3  502    0 -0.30091134803E+02  0.12355752253E+02  0.80256074720E+01  0.33504497949E+02  0.00000000000E+00 0. -1.
         -2    1    3    3    0  502 -0.18058691535E+03  0.11067759030E+03 -0.15168085744E+03  0.26051534601E+03  0.00000000000E+00 0.  1.
         11    1    5    5    0    0 -0.25059788632E+03 -0.95667427014E+01  0.31978477063E+03  0.40639035756E+03  0.00000000000E+00 0.  1.
        -11    1    5    5    0    0 -0.65966295449E+02 -0.13123494582E+02  0.19868541798E+03  0.20976099152E+03  0.00000000000E+00 0. -1.
          1    1    6    6  503    0  0.62939000022E+01  0.52958442661E+01 -0.39799920958E+01  0.91378050324E+01  0.00000000000E+00 0. -1.
         -1    1    6    6    0  503  0.52094833192E+03 -0.10563894954E+03  0.30555060446E+03  0.61311330443E+03  0.00000000000E+00 0.  1.
<mgrwt>
<rscale>  0 0.13750712E+04</rscale>
<asrwt>0</asrwt>
<pdfrwt beam="1">  1        1 0.16990829E+00 0.13750712E+04</pdfrwt>
<pdfrwt beam="2">  1       -2 0.65848982E-01 0.13750712E+04</pdfrwt>
<totfact> 0.22883212E+01</totfact>
</mgrwt>
</event>
<event>
12    4  0.4381187E-008  0.1725495E+04  0.7818608E-02  0.8746956E-01
          1   -1    0    0  501    0  0.00000000000E+00  0.00000000000E+00  0.28652637320E+04  0.28652637320E+04  0.00000000000E+00 0. -1.
         -2   -1    0    0    0  501 -0.00000000000E+00 -0.00000000000E+00 -0.25977824333E+03  0.25977824333E+03  0.00000000000E+00 0.  1.
        -24    2    1    2    0    0 -0.34425530151E+03  0.24664296896E+03  0.12024360588E+03  0.44775824767E+03  0.81758527671E+02 0.  0.
        254    2    1    2    0    0  0.34425530151E+03 -0.24664296896E+03  0.24852418828E+04  0.26772837277E+04  0.90115285918E+03 0.  0.
         23    2    4    4    0    0 -0.27821868720E+03 -0.20145837626E+03  0.10873914878E+04  0.11435416012E+04  0.85299651687E+02 0.  0.
         23    2    4    4    0    0  0.62247398871E+03 -0.45184592705E+02  0.13978503950E+04  0.15337421265E+04  0.94147064437E+02 0.  0.
          1    1    3    3  502    0 -0.31649596355E+02  0.92488143482E+01  0.30903742388E+02  0.45191578971E+02  0.00000000000E+00 0. -1.
         -2    1    3    3    0  502 -0.31260570516E+03  0.23739415461E+03  0.89339863492E+02  0.40256666870E+03  0.00000000000E+00 0.  1.
         11    1    5    5    0    0 -0.10770230330E+03 -0.12390520446E+03  0.44155863927E+03  0.47109056214E+03  0.00000000000E+00 0. -1.
        -11    1    5    5    0    0 -0.17051638390E+03 -0.77553171797E+02  0.64583284858E+03  0.67245103906E+03  0.00000000000E+00 0.  1.
          4    1    6    6  503    0  0.53494331573E+01  0.85741904161E+01  0.40121401474E+02  0.41374630302E+02  0.00000000000E+00 0. -1.
         -4    1    6    6    0  503  0.61712455556E+03 -0.53758783121E+02  0.13577289935E+04  0.14923674962E+04  0.00000000000E+00 0.  1.
<mgrwt>
<rscale>  0 0.17254949E+04</rscale>
<asrwt>0</asrwt>
<pdfrwt beam="1">  1        1 0.44080978E+00 0.17254949E+04</pdfrwt>
<pdfrwt beam="2">  1       -2 0.39965886E-01 0.17254949E+04</pdfrwt>
<totfact> 0.37086358E+00</totfact>
</mgrwt>
</event>
<event>
12    4  0.4381187E-008  0.1139006E+04  0.7818608E-02  0.9167987E-01
         -2   -1    0    0    0  501 -0.00000000000E+00  0.00000000000E+00  0.46992036450E+03  0.46992036450E+03  0.00000000000E+00 0.  1.
          1   -1    0    0  501    0  0.00000000000E+00 -0.00000000000E+00 -0.69018822959E+03  0.69018822959E+03  0.00000000000E+00 0. -1.
        -24    2    1    2    0    0 -0.37219529639E+02 -0.13278582243E+03  0.10353960519E+03  0.19250585871E+03  0.85561017823E+02 0.  0.
        254    2    1    2    0    0  0.37219529639E+02  0.13278582243E+03 -0.32380747028E+03  0.96760273538E+03  0.90132480698E+03 0.  0.
         23    2    4    4    0    0  0.32807175829E+03 -0.24836776451E+03 -0.14283266751E+03  0.44674663995E+03  0.99316485874E+02 0.  0.
         23    2    4    4    0    0 -0.29085222865E+03  0.38115358694E+03 -0.18097480277E+03  0.52085609543E+03  0.93091982257E+02 0.  0.
          3    1    3    3  502    0  0.15903127928E+02 -0.12821225950E+02 -0.63211049759E+01  0.21383397318E+02  0.00000000000E+00 0. -1.
         -4    1    3    3    0  502 -0.53122657566E+02 -0.11996459648E+03  0.10986071017E+03  0.17112246140E+03  0.00000000000E+00 0.  1.
         11    1    5    5    0    0  0.32805573879E+03 -0.22439934603E+03 -0.14401749805E+03  0.42274894914E+03  0.00000000000E+00 0. -1.
        -11    1    5    5    0    0  0.16019495770E-01 -0.23968418475E+02  0.11848305409E+01  0.23997690810E+02  0.00000000000E+00 0.  1.
          4    1    6    6  503    0 -0.22005025378E+03  0.23370279857E+03 -0.15027517043E+03  0.35443157181E+03  0.00000000000E+00 0. -1.
         -4    1    6    6    0  503 -0.70801974871E+02  0.14745078836E+03 -0.30699632336E+02  0.16642452361E+03  0.00000000000E+00 0.  1.
<mgrwt>
<rscale>  0 0.11390057E+04</rscale>
<asrwt>0</asrwt>
<pdfrwt beam="1">  1        1 0.10618280E+00 0.11390057E+04</pdfrwt>
<pdfrwt beam="2">  1       -2 0.72295441E-01 0.11390057E+04</pdfrwt>
<totfact> 0.41971582E+01</totfact>
</mgrwt>
</event>
<event>
12    4  0.4381187E-008  0.2153585E+04  0.7818608E-02  0.8537999E-01
         -2   -1    0    0    0  501 -0.00000000000E+00  0.00000000000E+00  0.92623386292E+03  0.92623386292E+03  0.00000000000E+00 0.  1.
          1   -1    0    0  501    0  0.00000000000E+00 -0.00000000000E+00 -0.12518238836E+04  0.12518238836E+04  0.00000000000E+00 0. -1.
        -24    2    1    2    0    0  0.34444133230E+03  0.44960428027E+01  0.68843665048E+03  0.77427710721E+03  0.83066065454E+02 0.  0.
        254    2    1    2    0    0 -0.34444133230E+03 -0.44960428027E+01 -0.10140266711E+04  0.14037806393E+04  0.90757365963E+03 0.  0.
         23    2    4    4    0    0 -0.91891868025E+02  0.41176362875E+03 -0.26746763213E+03  0.50786200984E+03  0.91605051371E+02 0.  0.
         23    2    4    4    0    0 -0.25254946428E+03 -0.41625967155E+03 -0.74655903900E+03  0.89591862944E+03  0.90919996633E+02 0.  0.
          1    1    3    3  502    0  0.63626815065E+02 -0.31841573335E+02  0.14290333189E+03  0.15963589713E+03  0.00000000000E+00 0. -1.
         -2    1    3    3    0  502  0.28081451724E+03  0.36337616137E+02  0.54553331859E+03  0.61464121008E+03  0.00000000000E+00 0.  1.
         11    1    5    5    0    0 -0.68299628477E+02  0.23675834399E+03 -0.10481078090E+03  0.26777724416E+03  0.00000000000E+00 0. -1.
        -11    1    5    5    0    0 -0.23592239548E+02  0.17500528476E+03 -0.16265685123E+03  0.24008476568E+03  0.00000000000E+00 0.  1.
          3    1    6    6  503    0 -0.15778649118E+03 -0.23968253663E+03 -0.51613851413E+03  0.59054488477E+03  0.00000000000E+00 0. -1.
         -3    1    6    6    0  503 -0.94762973097E+02 -0.17657713492E+03 -0.23042052488E+03  0.30537374466E+03  0.00000000000E+00 0.  1.
<mgrwt>
<rscale>  0 0.21535846E+04</rscale>
<asrwt>0</asrwt>
<pdfrwt beam="1">  1        1 0.19258829E+00 0.21535846E+04</pdfrwt>
<pdfrwt beam="2">  1       -2 0.14249752E+00 0.21535846E+04</pdfrwt>
<totfact> 0.26988000E+00</totfact>
</mgrwt>
</event>
<event>
12    4  0.4381187E-008  0.1597715E+04  0.7818608E-02  0.8821953E-01
          1   -1    0    0  501    0  0.00000000000E+00  0.00000000000E+00  0.15918832486E+04  0.15918832486E+04  0.00000000000E+00 0. -1.
         -2   -1    0    0    0  501 -0.00000000000E+00 -0.00000000000E+00 -0.40089207146E+03  0.40089207146E+03  0.00000000000E+00 0.  1.
        -24    2    1    2    0    0  0.25387001208E+03 -0.20869826778E+03  0.95141723407E+03  0.10097133004E+04  0.79506261756E+02 0.  0.
        254    2    1    2    0    0 -0.25387001208E+03  0.20869826778E+03  0.23957394306E+03  0.98306201968E+03  0.89499179344E+03 0.  0.
         23    2    4    4    0    0 -0.58025201775E+03  0.16958207490E+03  0.13710493823E+03  0.62654507685E+03  0.91161861567E+02 0.  0.
         23    2    4    4    0    0  0.32638200567E+03  0.39116192876E+02  0.10246900483E+03  0.35651694283E+03  0.92461577991E+02 0.  0.
          1    1    3    3  502    0  0.24591452040E+03 -0.19959553461E+03  0.94355307885E+03  0.99529128469E+03  0.00000000000E+00 0. -1.
         -2    1    3    3    0  502  0.79554916791E+01 -0.91027331649E+01  0.78641552209E+01  0.14422015680E+02  0.00000000000E+00 0.  1.
         11    1    5    5    0    0 -0.74437846162E+02 -0.89135577354E+01  0.17685549640E+02  0.77027417968E+02  0.00000000000E+00 0.  1.
        -11    1    5    5    0    0 -0.50581417159E+03  0.17849563264E+03  0.11941938859E+03  0.54951765888E+03  0.00000000000E+00 0. -1.
          3    1    6    6  503    0  0.11630894469E+03 -0.62920675265E+01 -0.42476428857E+01  0.11655643783E+03  0.00000000000E+00 0. -1.
         -3    1    6    6    0  503  0.21007306097E+03  0.45408260402E+02  0.10671664772E+03  0.23996050500E+03  0.00000000000E+00 0.  1.
<mgrwt>
<rscale>  0 0.15977151E+04</rscale>
<asrwt>0</asrwt>
<pdfrwt beam="1">  1        1 0.24490511E+00 0.15977151E+04</pdfrwt>
<pdfrwt beam="2">  1       -2 0.61675704E-01 0.15977151E+04</pdfrwt>
<totfact> 0.11629126E+01</totfact>
</mgrwt>
</event>
<event>
12    4  0.4381187E-008  0.1330432E+04  0.7818608E-02  0.9005774E-01
          3   -1    0    0  501    0  0.00000000000E+00  0.00000000000E+00  0.52762464524E+03  0.52762464524E+03  0.00000000000E+00 0. -1.
         -4   -1    0    0    0  501 -0.00000000000E+00 -0.00000000000E+00 -0.83868822510E+03  0.83868822510E+03  0.00000000000E+00 0.  1.
        -24    2    1    2    0    0  0.63423980048E+02  0.38454180102E+02  0.26825350731E+03  0.28859355598E+03  0.76321498632E+02 0.  0.
        254    2    1    2    0    0 -0.63423980048E+02 -0.38454180102E+02 -0.57931708717E+03  0.10777193144E+04  0.90574240700E+03 0.  0.
         23    2    4    4    0    0 -0.30251075860E+03 -0.22823149075E+03  0.29228274916E+02  0.39090812809E+03  0.91392013399E+02 0.  0.
         23    2    4    4    0    0  0.23908677855E+03  0.18977731065E+03 -0.60854536209E+03  0.68681118627E+03  0.90577218702E+02 0.  0.
          3    1    3    3  502    0  0.37941252119E+02  0.44416752339E+02  0.24987914559E+03  0.25661639446E+03  0.00000000000E+00 0. -1.
         -4    1    3    3    0  502  0.25482727928E+02 -0.59625722373E+01  0.18374361718E+02  0.31977161520E+02  0.00000000000E+00 0.  1.
         11    1    5    5    0    0 -0.13675529348E+03 -0.13927846996E+03  0.50426217871E+02  0.20160185004E+03  0.00000000000E+00 0. -1.
        -11    1    5    5    0    0 -0.16575546512E+03 -0.88953020789E+02 -0.21197942955E+02  0.18930627805E+03  0.00000000000E+00 0.  1.
          4    1    6    6  503    0  0.11846883624E+03  0.52748641413E+02 -0.18837831981E+03  0.22869996875E+03  0.00000000000E+00 0.  1.
         -4    1    6    6    0  503  0.12061794231E+03  0.13702866924E+03 -0.42016704228E+03  0.45811121752E+03  0.00000000000E+00 0. -1.
<mgrwt>
<rscale>  0 0.13304324E+04</rscale>
<asrwt>0</asrwt>
<pdfrwt beam="1">  1        3 0.81173025E-01 0.13304324E+04</pdfrwt>
<pdfrwt beam="2">  1       -4 0.12902895E+00 0.13304324E+04</pdfrwt>
<totfact> 0.13895371E+00</totfact>
</mgrwt>
</event>
<event>
12    4  0.4381187E-008  0.1305622E+04  0.7818608E-02  0.9025119E-01
         -4   -1    0    0    0  501 -0.00000000000E+00  0.00000000000E+00  0.45497942105E+03  0.45497942105E+03  0.00000000000E+00 0.  1.
          3   -1    0    0  501    0  0.00000000000E+00 -0.00000000000E+00 -0.93666203165E+03  0.93666203165E+03  0.00000000000E+00 0. -1.
        -24    2    1    2    0    0  0.13582246485E+03 -0.13001908747E+03 -0.42355433512E+03  0.47045407670E+03  0.81092899938E+02 0.  0.
        254    2    1    2    0    0 -0.13582246485E+03  0.13001908747E+03 -0.58128275481E+02  0.92118737599E+03  0.89991920760E+03 0.  0.
         23    2    4    4    0    0 -0.27808372491E+03  0.46093813052E+03 -0.19411397058E+00  0.54589364911E+03  0.90583222650E+02 0.  0.
         23    2    4    4    0    0  0.14226126006E+03 -0.33091904306E+03 -0.57934161510E+02  0.37529372688E+03  0.87996222623E+02 0.  0.
          1    1    3    3  502    0  0.32156080418E+02 -0.76008162709E+02 -0.22978851381E+03  0.24415981526E+03  0.00000000000E+00 0. -1.
         -2    1    3    3    0  502  0.10366638444E+03 -0.54010924757E+02 -0.19376582131E+03  0.22629426145E+03  0.00000000000E+00 0.  1.
         11    1    5    5    0    0  0.98429086650E+00  0.18454066317E+02  0.12994557522E+02  0.22591589526E+02  0.00000000000E+00 0.  1.
        -11    1    5    5    0    0 -0.27906801578E+03  0.44248406421E+03 -0.13188671493E+02  0.52330205958E+03  0.00000000000E+00 0. -1.
          1    1    6    6  503    0  0.10471582537E+03 -0.24152531542E+03 -0.81380885739E+02  0.27554079668E+03  0.00000000000E+00 0. -1.
         -1    1    6    6    0  503  0.37545434686E+02 -0.89393727641E+02  0.23446724228E+02  0.99752930205E+02  0.00000000000E+00 0.  1.
<mgrwt>
<rscale>  0 0.13056216E+04</rscale>
<asrwt>0</asrwt>
<pdfrwt beam="1">  1        3 0.14410185E+00 0.13056216E+04</pdfrwt>
<pdfrwt beam="2">  1       -4 0.69996834E-01 0.13056216E+04</pdfrwt>
<totfact> 0.15071650E+00</totfact>
</mgrwt>
</event>
<event>
12    4  0.4381187E-008  0.1112411E+04  0.7818608E-02  0.9193179E-01
         -4   -1    0    0    0  501 -0.00000000000E+00  0.00000000000E+00  0.36971838685E+03  0.36971838685E+03  0.00000000000E+00 0.  1.
          1   -1    0    0  501    0  0.00000000000E+00 -0.00000000000E+00 -0.83675679809E+03  0.83675679809E+03  0.00000000000E+00 0. -1.
        -24    2    1    2    0    0  0.39213637023E+02 -0.98091671451E+02  0.66693656776E+02  0.14955296130E+03  0.82209239399E+02 0.  0.
        254    2    1    2    0    0 -0.39213637023E+02  0.98091671451E+02 -0.53373206801E+03  0.10569222236E+04  0.90612084241E+03 0.  0.
         23    2    4    4    0    0  0.26371816118E+03 -0.19806758126E+03 -0.52106837404E+03  0.62324103642E+03  0.90216981613E+02 0.  0.
         23    2    4    4    0    0 -0.30293179820E+03  0.29615925271E+03 -0.12663693969E+02  0.43368118721E+03  0.91875054667E+02 0.  0.
          1    1    3    3  502    0 -0.21927574424E+02 -0.29647388633E+02  0.13660756511E+01  0.36900573649E+02  0.00000000000E+00 0. -1.
         -2    1    3    3    0  502  0.61141211448E+02 -0.68444282817E+02  0.65327581125E+02  0.11265238765E+03  0.00000000000E+00 0.  1.
         11    1    5    5    0    0  0.12299113540E+03 -0.45868442116E+02 -0.16058782603E+03  0.20741066326E+03  0.00000000000E+00 0. -1.
        -11    1    5    5    0    0  0.14072702578E+03 -0.15219913914E+03 -0.36048054802E+03  0.41583037316E+03  0.00000000000E+00 0.  1.
          3    1    6    6  503    0 -0.16769559836E+03  0.14234764702E+03 -0.49800707700E+02  0.22553220792E+03  0.00000000000E+00 0. -1.
         -3    1    6    6    0  503 -0.13523619985E+03  0.15381160569E+03  0.37137013730E+02  0.20814897930E+03  0.00000000000E+00 0.  1.
<mgrwt>
<rscale>  0 0.11124107E+04</rscale>
<asrwt>0</asrwt>
<pdfrwt beam="1">  1        1 0.12873181E+00 0.11124107E+04</pdfrwt>
<pdfrwt beam="2">  1       -4 0.56879753E-01 0.11124107E+04</pdfrwt>
<totfact> 0.29228185E+01</totfact>
</mgrwt>
</event>
<event>
12    4  0.4381187E-008  0.2422055E+04  0.7818608E-02  0.8431292E-01
         -2   -1    0    0    0  501 -0.00000000000E+00  0.00000000000E+00  0.10263425256E+04  0.10263425256E+04  0.00000000000E+00 0.  1.
          1   -1    0    0  501    0  0.00000000000E+00 -0.00000000000E+00 -0.14289454339E+04  0.14289454339E+04  0.00000000000E+00 0. -1.
        -24    2    1    2    0    0 -0.95102559392E+03 -0.30692587487E+02 -0.61108980762E+03  0.11346141884E+04  0.92341151883E+02 0.  0.
        254    2    1    2    0    0  0.95102559392E+03  0.30692587487E+02  0.20848689932E+03  0.13206737711E+04  0.89180755057E+03 0.  0.
         23    2    4    4    0    0  0.10393040555E+04  0.96104066713E+02  0.36363696475E+03  0.11100508731E+04  0.10291835261E+03 0.  0.
         23    2    4    4    0    0 -0.88278461617E+02 -0.65411479226E+02 -0.15515006543E+03  0.21062289796E+03  0.90657122965E+02 0.  0.
          3    1    3    3  502    0 -0.94546030831E+03 -0.26467985210E+02 -0.59590545148E+03  0.11178993944E+04  0.00000000000E+00 0. -1.
         -4    1    3    3    0  502 -0.55652856134E+01 -0.42246022768E+01 -0.15184356132E+02  0.16714794031E+02  0.00000000000E+00 0.  1.
         11    1    5    5    0    0  0.60666422501E+03  0.10535650384E+03  0.22695831868E+03  0.65624046906E+03  0.00000000000E+00 0.  1.
        -11    1    5    5    0    0  0.43263983053E+03 -0.92524371321E+01  0.13667864607E+03  0.45381040407E+03  0.00000000000E+00 0. -1.
          1    1    6    6  503    0 -0.29204700087E+01  0.20740712317E+02 -0.27191175639E+02  0.34322970808E+02  0.00000000000E+00 0. -1.
         -1    1    6    6    0  503 -0.85357991608E+02 -0.86152191542E+02 -0.12795888979E+03  0.17629992716E+03  0.00000000000E+00 0.  1.
<mgrwt>
<rscale>  0 0.24220549E+04</rscale>
<asrwt>0</asrwt>
<pdfrwt beam="1">  1        1 0.21983776E+00 0.24220549E+04</pdfrwt>
<pdfrwt beam="2">  1       -2 0.15789885E+00 0.24220549E+04</pdfrwt>
<totfact> 0.15032654E+00</totfact>
</mgrwt>
</event>
<event>
12    4  0.4381187E-008  0.1402450E+04  0.7818608E-02  0.8952047E-01
         -2   -1    0    0    0  501 -0.00000000000E+00  0.00000000000E+00  0.24169003048E+03  0.24169003048E+03  0.00000000000E+00 0.  1.
          1   -1    0    0  501    0  0.00000000000E+00 -0.00000000000E+00 -0.20344933425E+04  0.20344933425E+04  0.00000000000E+00 0. -1.
        -24    2    1    2    0    0 -0.70972034359E+02  0.38754003730E+03 -0.79252255217E+03  0.88809728528E+03  0.73487973543E+02 0.  0.
        254    2    1    2    0    0  0.70972034359E+02 -0.38754003730E+03 -0.10002807598E+04  0.13880860877E+04  0.87806439294E+03 0.  0.
         23    2    4    4    0    0  0.39312925815E+03  0.51871000462E+02 -0.37401884864E+03  0.55303799748E+03  0.93379404660E+02 0.  0.
         23    2    4    4    0    0 -0.32215722379E+03 -0.43941103776E+03 -0.62626191117E+03  0.83504809019E+03  0.90741360989E+02 0.  0.
          1    1    3    3  502    0 -0.69078017473E+02  0.35277183721E+03 -0.66539127293E+03  0.75628386715E+03  0.00000000000E+00 0. -1.
         -2    1    3    3    0  502 -0.18940168860E+01  0.34768200092E+02 -0.12713127924E+03  0.13181341813E+03  0.00000000000E+00 0.  1.
         11    1    5    5    0    0  0.11299990303E+03 -0.27223906577E+02 -0.11133681323E+03  0.16095342542E+03  0.00000000000E+00 0.  1.
        -11    1    5    5    0    0  0.28012935512E+03  0.79094907039E+02 -0.26268203541E+03  0.39208457206E+03  0.00000000000E+00 0. -1.
          3    1    6    6  503    0 -0.21449940353E+03 -0.34838754609E+03 -0.49746139112E+03  0.64408983228E+03  0.00000000000E+00 0. -1.
         -3    1    6    6    0  503 -0.10765782026E+03 -0.91023491667E+02 -0.12880052005E+03  0.19095825791E+03  0.00000000000E+00 0.  1.
<mgrwt>
<rscale>  0 0.14024504E+04</rscale>
<asrwt>0</asrwt>
<pdfrwt beam="1">  1        1 0.31299899E+00 0.14024504E+04</pdfrwt>
<pdfrwt beam="2">  1       -2 0.37183080E-01 0.14024504E+04</pdfrwt>
<totfact> 0.16493363E+01</totfact>
</mgrwt>
</event>
<event>
12    4  0.4381187E-008  0.2641278E+04  0.7818608E-02  0.8354314E-01
         -2   -1    0    0    0  501 -0.00000000000E+00  0.00000000000E+00  0.12117610334E+04  0.12117610334E+04  0.00000000000E+00 0.  1.
          1   -1    0    0  501    0  0.00000000000E+00 -0.00000000000E+00 -0.14393002958E+04  0.14393002958E+04  0.00000000000E+00 0. -1.
        -24    2    1    2    0    0 -0.22345440041E+03  0.10279507410E+04 -0.60861753005E+03  0.12178253560E+04  0.77901891690E+02 0.  0.
        254    2    1    2    0    0  0.22345440041E+03 -0.10279507410E+04  0.38107826768E+03  0.14332359732E+04  0.89572881702E+03 0.  0.
         23    2    4    4    0    0  0.55302332899E+03 -0.57893197586E+03  0.31173199022E+03  0.86406298448E+03  0.91820326426E+02 0.  0.
         23    2    4    4    0    0 -0.32956892858E+03 -0.44901876518E+03  0.69346277462E+02  0.56917298870E+03  0.94421685511E+02 0.  0.
          1    1    3    3  502    0 -0.25795260805E+02  0.93539451773E+02 -0.31995471348E+02  0.10217012628E+03  0.00000000000E+00 0. -1.
         -2    1    3    3    0  502 -0.19765913960E+03  0.93441128927E+03 -0.57662205871E+03  0.11156552297E+04  0.00000000000E+00 0.  1.
         11    1    5    5    0    0  0.33336115193E+03 -0.28598292269E+03  0.18502891067E+03  0.47660422519E+03  0.00000000000E+00 0. -1.
        -11    1    5    5    0    0  0.21966217705E+03 -0.29294905317E+03  0.12670307956E+03  0.38745875929E+03  0.00000000000E+00 0.  1.
          3    1    6    6  503    0 -0.29058761020E+03 -0.43538805646E+03  0.68032268704E+02  0.52785633320E+03  0.00000000000E+00 0. -1.
         -3    1    6    6    0  503 -0.38981318375E+02 -0.13630708718E+02  0.13140087582E+01  0.41316655497E+02  0.00000000000E+00 0.  1.
<mgrwt>
<rscale>  0 0.26412785E+04</rscale>
<asrwt>0</asrwt>
<pdfrwt beam="1">  1        1 0.22143081E+00 0.26412785E+04</pdfrwt>
<pdfrwt beam="2">  1       -2 0.18642477E+00 0.26412785E+04</pdfrwt>
<totfact> 0.91043765E-01</totfact>
</mgrwt>
</event>
<event>
12    4  0.4381187E-008  0.1152185E+04  0.7818608E-02  0.9155770E-01
         -2   -1    0    0    0  501 -0.00000000000E+00  0.00000000000E+00  0.22326067972E+03  0.22326067972E+03  0.00000000000E+00 0.  1.
          1   -1    0    0  501    0  0.00000000000E+00 -0.00000000000E+00 -0.14865252186E+04  0.14865252186E+04  0.00000000000E+00 0. -1.
        -24    2    1    2    0    0  0.31361473603E+02  0.18243625633E+03 -0.36066427550E+03  0.41302781164E+03  0.79036219041E+02 0.  0.
        254    2    1    2    0    0 -0.31361473603E+02 -0.18243625633E+03 -0.90260026338E+03  0.12967580867E+04  0.91248439451E+03 0.  0.
         23    2    4    4    0    0  0.11802119858E+03  0.30994431169E+03 -0.13762216616E+03  0.37041524756E+03  0.90956667405E+02 0.  0.
         23    2    4    4    0    0 -0.14938267218E+03 -0.49238056802E+03 -0.76497809723E+03  0.92634283911E+03  0.90364593864E+02 0.  0.
          3    1    3    3  502    0  0.35310250381E+02  0.89181280128E+02 -0.25280462317E+03  0.27038914920E+03  0.00000000000E+00 0. -1.
         -4    1    3    3    0  502 -0.39487767773E+01  0.93254976199E+02 -0.10785965233E+03  0.14263866245E+03  0.00000000000E+00 0.  1.
         11    1    5    5    0    0  0.87927696040E+02  0.21817589524E+03 -0.51021439866E+02  0.24069729604E+03  0.00000000000E+00 0. -1.
        -11    1    5    5    0    0  0.30093502538E+02  0.91768416445E+02 -0.86600726290E+02  0.12971795152E+03  0.00000000000E+00 0.  1.
          3    1    6    6  503    0 -0.13142784990E+03 -0.32351093999E+03 -0.56255800879E+03  0.66212092648E+03  0.00000000000E+00 0. -1.
         -3    1    6    6    0  503 -0.17954822277E+02 -0.16886962802E+03 -0.20242008843E+03  0.26422191263E+03  0.00000000000E+00 0.  1.
<mgrwt>
<rscale>  0 0.11521851E+04</rscale>
<asrwt>0</asrwt>
<pdfrwt beam="1">  1        1 0.22869617E+00 0.11521851E+04</pdfrwt>
<pdfrwt beam="2">  1       -2 0.34347799E-01 0.11521851E+04</pdfrwt>
<totfact> 0.46245533E+01</totfact>
</mgrwt>
</event>
<event>
12    4  0.4381187E-008  0.2908004E+04  0.7818608E-02  0.8270500E-01
         -2   -1    0    0    0  501 -0.00000000000E+00  0.00000000000E+00  0.17060619586E+04  0.17060619586E+04  0.00000000000E+00 0.  1.
          1   -1    0    0  501    0  0.00000000000E+00 -0.00000000000E+00 -0.12391823728E+04  0.12391823728E+04  0.00000000000E+00 0. -1.
        -24    2    1    2    0    0  0.19483304069E+03  0.19804498592E+01  0.15259947038E+04  0.15404325419E+04  0.79427602566E+02 0.  0.
        254    2    1    2    0    0 -0.19483304069E+03 -0.19804498592E+01 -0.10591151180E+04  0.14048117896E+04  0.90211279501E+03 0.  0.
         23    2    4    4    0    0 -0.48521853870E+03  0.15162886160E+03 -0.36601191872E+03  0.63306605414E+03  0.91539949178E+02 0.  0.
         23    2    4    4    0    0  0.29038549801E+03 -0.15360931146E+03 -0.69310319932E+03  0.77174573543E+03  0.85322196508E+02 0.  0.
          3    1    3    3  502    0  0.48594930560E+02  0.81926101240E+01  0.18421022279E+03  0.19068820707E+03  0.00000000000E+00 0. -1.
         -4    1    3    3    0  502  0.14623811013E+03 -0.62121602648E+01  0.13417844810E+04  0.13497443348E+04  0.00000000000E+00 0.  1.
         11    1    5    5    0    0 -0.35331626997E+03  0.15006042895E+03 -0.25715276047E+03  0.46203686128E+03  0.00000000000E+00 0. -1.
        -11    1    5    5    0    0 -0.13190226873E+03  0.15684326466E+01 -0.10885915825E+03  0.17102919287E+03  0.00000000000E+00 0.  1.
          4    1    6    6  503    0  0.14932793115E+03 -0.12524852059E+03 -0.37531546091E+03  0.42290391122E+03  0.00000000000E+00 0. -1.
         -4    1    6    6    0  503  0.14105756686E+03 -0.28360790871E+02 -0.31778773842E+03  0.34884182421E+03  0.00000000000E+00 0.  1.
<mgrwt>
<rscale>  0 0.29080041E+04</rscale>
<asrwt>0</asrwt>
<pdfrwt beam="1">  1        1 0.19064344E+00 0.29080041E+04</pdfrwt>
<pdfrwt beam="2">  1       -2 0.26247107E+00 0.29080041E+04</pdfrwt>
<totfact> 0.40593428E-01</totfact>
</mgrwt>
</event>
<event>
12    4  0.4381187E-008  0.1385268E+04  0.7818608E-02  0.8964552E-01
          1   -1    0    0  501    0  0.00000000000E+00  0.00000000000E+00  0.83284268776E+03  0.83284268776E+03  0.00000000000E+00 0. -1.
         -2   -1    0    0    0  501 -0.00000000000E+00 -0.00000000000E+00 -0.57602960904E+03  0.57602960904E+03  0.00000000000E+00 0.  1.
        -24    2    1    2    0    0  0.24639731969E+03 -0.26587911568E+03  0.22020620791E+03  0.43153557228E+03  0.79553961804E+02 0.  0.
        254    2    1    2    0    0 -0.24639731969E+03  0.26587911568E+03  0.36606870810E+02  0.97733672451E+03  0.90688679932E+03 0.  0.
         23    2    4    4    0    0  0.19249830285E+02 -0.30610895058E+03 -0.78489946072E+02  0.32986232551E+03  0.92602573217E+02 0.  0.
         23    2    4    4    0    0 -0.26564714998E+03  0.57198806625E+03  0.11509681688E+03  0.64747439900E+03  0.90758271714E+02 0.  0.
          1    1    3    3  502    0 -0.42038432951E+00  0.34736488092E+01  0.87357117306E+01  0.94103994854E+01  0.00000000000E+00 0. -1.
         -2    1    3    3    0  502  0.24681770402E+03 -0.26935276449E+03  0.21147049618E+03  0.42212517280E+03  0.00000000000E+00 0.  1.
         11    1    5    5    0    0  0.96102841661E+01 -0.11590794926E+03 -0.76864915888E+02  0.13941027781E+03  0.00000000000E+00 0. -1.
        -11    1    5    5    0    0  0.96395461193E+01 -0.19020100131E+03 -0.16250301840E+01  0.19045204770E+03  0.00000000000E+00 0.  1.
          2    1    6    6  503    0 -0.24056151593E+03  0.54276982773E+03  0.12708784862E+03  0.60714104631E+03  0.00000000000E+00 0. -1.
         -2    1    6    6    0  503 -0.25085634042E+02  0.29218238521E+02 -0.11991031741E+02  0.40333352697E+02  0.00000000000E+00 0.  1.
<mgrwt>
<rscale>  0 0.13852683E+04</rscale>
<asrwt>0</asrwt>
<pdfrwt beam="1">  1        1 0.12812964E+00 0.13852683E+04</pdfrwt>
<pdfrwt beam="2">  1       -2 0.88619940E-01 0.13852683E+04</pdfrwt>
<totfact> 0.19402137E+01</totfact>
</mgrwt>
</event>
<event>
12    4  0.4381187E-008  0.2638599E+04  0.7818608E-02  0.8355207E-01
          1   -1    0    0  501    0  0.00000000000E+00  0.00000000000E+00  0.85948261058E+03  0.85948261058E+03  0.00000000000E+00 0. -1.
         -2   -1    0    0    0  501 -0.00000000000E+00 -0.00000000000E+00 -0.20251151308E+04  0.20251151308E+04  0.00000000000E+00 0.  1.
        -24    2    1    2    0    0  0.37456830207E+03  0.63326042214E+03  0.47544963806E+03  0.87978308667E+03  0.81521445591E+02 0.  0.
        254    2    1    2    0    0 -0.37456830207E+03 -0.63326042214E+03 -0.16410821583E+04  0.20048146547E+04  0.88589557756E+03 0.  0.
         23    2    4    4    0    0 -0.18582949464E+03  0.10613900723E+03 -0.49226790341E+02  0.23713482588E+03  0.89507311569E+02 0.  0.
         23    2    4    4    0    0 -0.18873880743E+03 -0.73939942937E+03 -0.15918553679E+04  0.17676798288E+04  0.91403562538E+02 0.  0.
          3    1    3    3  502    0  0.97118187665E+02  0.22655414521E+03  0.18465798211E+03  0.30798911254E+03  0.00000000000E+00 0. -1.
         -4    1    3    3    0  502  0.27745011440E+03  0.40670627693E+03  0.29079165595E+03  0.57179397413E+03  0.00000000000E+00 0.  1.
         11    1    5    5    0    0  0.21472414496E+01  0.82477982850E+01 -0.21827706305E+02  0.23432575295E+02  0.00000000000E+00 0. -1.
        -11    1    5    5    0    0 -0.18797673609E+03  0.97891208943E+02 -0.27399084035E+02  0.21370225058E+03  0.00000000000E+00 0.  1.
          1    1    6    6  503    0 -0.13694970137E+02 -0.61062517802E+02 -0.81440586693E+02  0.10270711975E+03  0.00000000000E+00 0. -1.
         -1    1    6    6    0  503 -0.17504383730E+03 -0.67833691156E+03 -0.15104147812E+04  0.16649727091E+04  0.00000000000E+00 0.  1.
<mgrwt>
<rscale>  0 0.26385991E+04</rscale>
<asrwt>0</asrwt>
<pdfrwt beam="1">  1        1 0.13222810E+00 0.26385991E+04</pdfrwt>
<pdfrwt beam="2">  1       -2 0.31155617E+00 0.26385991E+04</pdfrwt>
<totfact> 0.40864419E-01</totfact>
</mgrwt>
</event>
<event>
12    4  0.4381187E-008  0.2276479E+04  0.7818608E-02  0.8487253E-01
          1   -1    0    0  501    0  0.00000000000E+00  0.00000000000E+00  0.13184535930E+04  0.13184535930E+04  0.00000000000E+00 0. -1.
         -2   -1    0    0    0  501 -0.00000000000E+00 -0.00000000000E+00 -0.98265856064E+03  0.98265856064E+03  0.00000000000E+00 0.  1.
        -24    2    1    2    0    0  0.50003301238E+03 -0.74340973449E+03 -0.20571240966E+03  0.92281427923E+03  0.81102106439E+02 0.  0.
        254    2    1    2    0    0 -0.50003301238E+03  0.74340973449E+03  0.54150744202E+03  0.13782978744E+04  0.89653983405E+03 0.  0.
         23    2    4    4    0    0 -0.38119399822E+03  0.24985555080E+03  0.69891060543E+03  0.83910588835E+03  0.88803135865E+02 0.  0.
         23    2    4    4    0    0 -0.11883901415E+03  0.49355418369E+03 -0.15740316341E+03  0.53919198606E+03  0.90740280222E+02 0.  0.
          3    1    3    3  502    0 -0.27181616088E+01 -0.94019574292E+01 -0.64067178059E+00  0.98079389457E+01  0.00000000000E+00 0. -1.
         -4    1    3    3    0  502  0.50275117398E+03 -0.73400777706E+03 -0.20507173787E+03  0.91300634028E+03  0.00000000000E+00 0.  1.
         11    1    5    5    0    0 -0.11977468084E+03  0.12143533112E+03  0.21690640716E+03  0.27593641166E+03  0.00000000000E+00 0. -1.
        -11    1    5    5    0    0 -0.26141931738E+03  0.12842021967E+03  0.48200419827E+03  0.56316947669E+03  0.00000000000E+00 0.  1.
          3    1    6    6  503    0 -0.77170901505E+02  0.43656728699E+03 -0.15083215474E+03  0.46829123739E+03  0.00000000000E+00 0. -1.
         -3    1    6    6    0  503 -0.41668112648E+02  0.56986896700E+02 -0.65710086646E+01  0.70900748670E+02  0.00000000000E+00 0.  1.
<mgrwt>
<rscale>  0 0.22764795E+04</rscale>
<asrwt>0</asrwt>
<pdfrwt beam="1">  1        1 0.20283901E+00 0.22764795E+04</pdfrwt>
<pdfrwt beam="2">  1       -2 0.15117824E+00 0.22764795E+04</pdfrwt>
<totfact> 0.20468885E+00</totfact>
</mgrwt>
</event>
<event>
12    4  0.4381187E-008  0.1688260E+04  0.7818608E-02  0.8768089E-01
         -2   -1    0    0    0  501 -0.00000000000E+00  0.00000000000E+00  0.29736528075E+03  0.29736528075E+03  0.00000000000E+00 0.  1.
          1   -1    0    0  501    0  0.00000000000E+00 -0.00000000000E+00 -0.23962292784E+04  0.23962292784E+04  0.00000000000E+00 0. -1.
        -24    2    1    2    0    0 -0.21324900224E+03 -0.37967042403E+03 -0.14187185086E+04  0.14856872077E+04  0.69853452068E+02 0.  0.
        254    2    1    2    0    0  0.21324900224E+03  0.37967042403E+03 -0.68014548913E+03  0.12079073515E+04  0.89823021301E+03 0.  0.
         23    2    4    4    0    0  0.22627400865E+03  0.24385664485E+03  0.13927332081E+03  0.37222180577E+03  0.92119621016E+02 0.  0.
         23    2    4    4    0    0 -0.13025006409E+02  0.13581377919E+03 -0.81941880994E+03  0.83568554572E+03  0.91148844411E+02 0.  0.
          3    1    3    3  502    0 -0.16596613277E+03 -0.23744245836E+03 -0.87643738016E+03  0.92307429799E+03  0.00000000000E+00 0. -1.
         -4    1    3    3    0  502 -0.47282869467E+02 -0.14222796568E+03 -0.54228112839E+03  0.56261290972E+03  0.00000000000E+00 0.  1.
         11    1    5    5    0    0  0.11878915760E+03  0.19140779606E+03  0.98472904329E+02  0.24585508180E+03  0.00000000000E+00 0.  1.
        -11    1    5    5    0    0  0.10748485105E+03  0.52448848783E+02  0.40800416482E+02  0.12636672397E+03  0.00000000000E+00 0. -1.
          1    1    6    6  503    0 -0.95675255585E+01  0.14915214827E+03 -0.77056661345E+03  0.78492726201E+03  0.00000000000E+00 0. -1.
         -1    1    6    6    0  503 -0.34574808504E+01 -0.13338369087E+02 -0.48852196488E+02  0.50758283713E+02  0.00000000000E+00 0.  1.
<mgrwt>
<rscale>  0 0.16882599E+04</rscale>
<asrwt>0</asrwt>
<pdfrwt beam="1">  1        1 0.36865067E+00 0.16882599E+04</pdfrwt>
<pdfrwt beam="2">  1       -2 0.45748503E-01 0.16882599E+04</pdfrwt>
<totfact> 0.60645385E+00</totfact>
</mgrwt>
</event>
<event>
12    4  0.4381187E-008  0.1743108E+04  0.7818608E-02  0.8737153E-01
          1   -1    0    0  501    0  0.00000000000E+00  0.00000000000E+00  0.21877342808E+04  0.21877342808E+04  0.00000000000E+00 0. -1.
         -2   -1    0    0    0  501 -0.00000000000E+00 -0.00000000000E+00 -0.34721150002E+03  0.34721150002E+03  0.00000000000E+00 0.  1.
        -24    2    1    2    0    0  0.27621773519E+01  0.16530241885E+03 -0.20618165600E+03  0.27655162810E+03  0.81470291695E+02 0.  0.
        254    2    1    2    0    0 -0.27621773519E+01 -0.16530241885E+03  0.20467044368E+04  0.22583941527E+04  0.94021943088E+03 0.  0.
         23    2    4    4    0    0 -0.16354662187E+03 -0.51201606682E+03  0.99561028695E+03  0.11355164193E+04  0.96175593331E+02 0.  0.
         23    2    4    4    0    0  0.16078444452E+03  0.34671364797E+03  0.10510941498E+04  0.11228777334E+04  0.99967500590E+02 0.  0.
          1    1    3    3  502    0 -0.12006135712E+02  0.37949818310E+02 -0.81303913803E+01  0.40625598685E+02  0.00000000000E+00 0. -1.
         -2    1    3    3    0  502  0.14768313064E+02  0.12735260054E+03 -0.19805126462E+03  0.23592602941E+03  0.00000000000E+00 0.  1.
         11    1    5    5    0    0 -0.62562386054E+02 -0.18662898436E+03  0.27240393830E+03  0.33607787126E+03  0.00000000000E+00 0. -1.
        -11    1    5    5    0    0 -0.10098423582E+03 -0.32538708246E+03  0.72320634865E+03  0.79943854801E+03  0.00000000000E+00 0.  1.
          1    1    6    6  503    0  0.23984034334E+02  0.16666736879E+02  0.16329426163E+03  0.16588559282E+03  0.00000000000E+00 0. -1.
         -1    1    6    6    0  503  0.13680041018E+03  0.33004691109E+03  0.88779988817E+03  0.95699214060E+03  0.00000000000E+00 0.  1.
<mgrwt>
<rscale>  0 0.17431081E+04</rscale>
<asrwt>0</asrwt>
<pdfrwt beam="1">  1        1 0.33657450E+00 0.17431081E+04</pdfrwt>
<pdfrwt beam="2">  1       -2 0.53417155E-01 0.17431081E+04</pdfrwt>
<totfact> 0.61113113E+00</totfact>
</mgrwt>
</event>
<event>
12    4  0.4381187E-008  0.1830829E+04  0.7818608E-02  0.8690074E-01
         -2   -1    0    0    0  501 -0.00000000000E+00  0.00000000000E+00  0.42278243980E+03  0.42278243980E+03  0.00000000000E+00 0.  1.
          1   -1    0    0  501    0  0.00000000000E+00 -0.00000000000E+00 -0.19820692551E+04  0.19820692551E+04  0.00000000000E+00 0. -1.
        -24    2    1    2    0    0  0.12619730204E+03 -0.47571121384E+03  0.48518354101E+02  0.50096630530E+03  0.79914268704E+02 0.  0.
        254    2    1    2    0    0 -0.12619730204E+03  0.47571121384E+03 -0.16078051694E+04  0.19038853896E+04  0.89303706305E+03 0.  0.
         23    2    4    4    0    0  0.28001828240E+03  0.42388261781E+02 -0.10231808197E+04  0.10654211433E+04  0.89533343019E+02 0.  0.
         23    2    4    4    0    0 -0.40621558445E+03  0.43332295206E+03 -0.58462434973E+03  0.83846424636E+03  0.91960754095E+02 0.  0.
          1    1    3    3  502    0  0.41381872711E+02 -0.25190839992E+03 -0.65848020165E+01  0.25536965551E+03  0.00000000000E+00 0. -1.
         -2    1    3    3    0  502  0.84815429332E+02 -0.22380281393E+03  0.55103156117E+02  0.24559664979E+03  0.00000000000E+00 0.  1.
         11    1    5    5    0    0  0.24693164166E+03  0.60330532791E+02 -0.94593038291E+03  0.97948930477E+03  0.00000000000E+00 0. -1.
        -11    1    5    5    0    0  0.33086640743E+02 -0.17942271010E+02 -0.77250436788E+02  0.85931838503E+02  0.00000000000E+00 0.  1.
          1    1    6    6  503    0 -0.38060123141E+03  0.42632084353E+03 -0.57362025719E+03  0.80972029642E+03  0.00000000000E+00 0. -1.
         -1    1    6    6    0  503 -0.25614353034E+02  0.70021085326E+01 -0.11004092538E+02  0.28743949935E+02  0.00000000000E+00 0.  1.
<mgrwt>
<rscale>  0 0.18308294E+04</rscale>
<asrwt>0</asrwt>
<pdfrwt beam="1">  1        1 0.30493373E+00 0.18308294E+04</pdfrwt>
<pdfrwt beam="2">  1       -2 0.65043452E-01 0.18308294E+04</pdfrwt>
<totfact> 0.55215057E+00</totfact>
</mgrwt>
</event>
<event>
12    4  0.4381187E-008  0.2360940E+04  0.7818608E-02  0.8454273E-01
          1   -1    0    0  501    0  0.00000000000E+00  0.00000000000E+00  0.11720195318E+04  0.11720195318E+04  0.00000000000E+00 0. -1.
         -2   -1    0    0    0  501 -0.00000000000E+00 -0.00000000000E+00 -0.11889814987E+04  0.11889814987E+04  0.00000000000E+00 0.  1.
        -24    2    1    2    0    0 -0.46136834402E+03 -0.89294923926E+03  0.97687571400E+02  0.10130307977E+04  0.80432845718E+02 0.  0.
        254    2    1    2    0    0  0.46136834402E+03  0.89294923926E+03 -0.11464953835E+03  0.13479702328E+04  0.89087605147E+03 0.  0.
         23    2    4    4    0    0 -0.17800338852E+03 -0.43757929763E+02 -0.26590500074E+02  0.20680698601E+03  0.91989738691E+02 0.  0.
         23    2    4    4    0    0  0.63937173255E+03  0.93670716903E+03 -0.88059038278E+02  0.11411632468E+04  0.91008948533E+02 0.  0.
          3    1    3    3  502    0 -0.44733296237E+03 -0.82492352589E+03  0.98553559364E+02  0.94356685341E+03  0.00000000000E+00 0. -1.
         -2    1    3    3    0  502 -0.14035381649E+02 -0.68025713370E+02 -0.86598796385E+00  0.69463944264E+02  0.00000000000E+00 0.  1.
         11    1    5    5    0    0 -0.14449350104E+02  0.22730547833E+02  0.51557705619E+01  0.27423411409E+02  0.00000000000E+00 0. -1.
        -11    1    5    5    0    0 -0.16355403842E+03 -0.66488477597E+02 -0.31746270636E+02  0.17938357460E+03  0.00000000000E+00 0.  1.
          1    1    6    6  503    0  0.34638199998E+03  0.56611098089E+03 -0.81822204120E+02  0.66869799287E+03  0.00000000000E+00 0. -1.
         -1    1    6    6    0  503  0.29298973257E+03  0.37059618814E+03 -0.62368341577E+01  0.47246525391E+03  0.00000000000E+00 0.  1.
<mgrwt>
<rscale>  0 0.23609401E+04</rscale>
<asrwt>0</asrwt>
<pdfrwt beam="1">  1        1 0.18031070E+00 0.23609401E+04</pdfrwt>
<pdfrwt beam="2">  1       -2 0.18292023E+00 0.23609401E+04</pdfrwt>
<totfact> 0.15300065E+00</totfact>
</mgrwt>
</event>
<event>
12    4  0.4381187E-008  0.1884148E+04  0.7818608E-02  0.8662787E-01
         -2   -1    0    0    0  501 -0.00000000000E+00  0.00000000000E+00  0.48338935334E+03  0.48338935334E+03  0.00000000000E+00 0.  1.
          1   -1    0    0  501    0  0.00000000000E+00 -0.00000000000E+00 -0.18360011699E+04  0.18360011699E+04  0.00000000000E+00 0. -1.
        -24    2    1    2    0    0 -0.80860475686E+02 -0.69289811073E+03 -0.75271289619E+03  0.10293202265E+04  0.79228884383E+02 0.  0.
        254    2    1    2    0    0  0.80860475686E+02  0.69289811073E+03 -0.59989892041E+03  0.12900702968E+04  0.90429887077E+03 0.  0.
         23    2    4    4    0    0  0.42865123521E+03  0.50588923735E+03 -0.15459006948E+03  0.68746485031E+03  0.95100099462E+02 0.  0.
         23    2    4    4    0    0 -0.34779075953E+03  0.18700887337E+03 -0.44530885093E+03  0.60260544651E+03  0.94353697967E+02 0.  0.
          1    1    3    3  502    0 -0.70271096578E+02 -0.53889661955E+03 -0.53654032982E+03  0.76369046027E+03  0.00000000000E+00 0. -1.
         -2    1    3    3    0  502 -0.10589379108E+02 -0.15400149117E+03 -0.21617256637E+03  0.26562976619E+03  0.00000000000E+00 0.  1.
         11    1    5    5    0    0  0.34418633005E+03  0.34057448325E+03 -0.11337697349E+03  0.49730226880E+03  0.00000000000E+00 0.  1.
        -11    1    5    5    0    0  0.84464905164E+02  0.16531475410E+03 -0.41213095987E+02  0.19016258151E+03  0.00000000000E+00 0. -1.
          1    1    6    6  503    0 -0.85941130876E+02  0.85788740161E+02 -0.17410758964E+03  0.21227114426E+03  0.00000000000E+00 0. -1.
         -1    1    6    6    0  503 -0.26184962865E+03  0.10122013321E+03 -0.27120126129E+03  0.39033430225E+03  0.00000000000E+00 0.  1.
<mgrwt>
<rscale>  0 0.18841480E+04</rscale>
<asrwt>0</asrwt>
<pdfrwt beam="1">  1        1 0.28246172E+00 0.18841480E+04</pdfrwt>
<pdfrwt beam="2">  1       -2 0.74367592E-01 0.18841480E+04</pdfrwt>
<totfact> 0.51537535E+00</totfact>
</mgrwt>
</event>
<event>
12    4  0.4381187E-008  0.2323822E+04  0.7818608E-02  0.8468587E-01
         -2   -1    0    0    0  501 -0.00000000000E+00  0.00000000000E+00  0.38094912549E+03  0.38094912549E+03  0.00000000000E+00 0.  1.
          1   -1    0    0  501    0  0.00000000000E+00 -0.00000000000E+00 -0.35438776325E+04  0.35438776325E+04  0.00000000000E+00 0. -1.
        -24    2    1    2    0    0 -0.34652322397E+03 -0.59618276927E+02 -0.29167049826E+04  0.29388986583E+04  0.79527885393E+02 0.  0.
        254    2    1    2    0    0  0.34652322397E+03  0.59618276927E+02 -0.24622352445E+03  0.98592809973E+03  0.88757845296E+03 0.  0.
         23    2    4    4    0    0 -0.25235484013E+03 -0.14866184087E+03 -0.13697696286E+03  0.33633172729E+03  0.92590680734E+02 0.  0.
         23    2    4    4    0    0  0.59887806410E+03  0.20828011780E+03 -0.10924656159E+03  0.64959637244E+03  0.89471183832E+02 0.  0.
          1    1    3    3  502    0 -0.31125568360E+03 -0.30092869612E+02 -0.24334392241E+04  0.24534490292E+04  0.00000000000E+00 0. -1.
         -2    1    3    3    0  502 -0.35267540371E+02 -0.29525407315E+02 -0.48326575851E+03  0.48544962914E+03  0.00000000000E+00 0.  1.
         11    1    5    5    0    0 -0.25433561532E+03 -0.15246698733E+03 -0.14277744485E+03  0.32911728335E+03  0.00000000000E+00 0. -1.
        -11    1    5    5    0    0  0.19807751887E+01  0.38051464552E+01  0.58004819955E+01  0.72144439338E+01  0.00000000000E+00 0.  1.
          3    1    6    6  503    0  0.38347605693E+03  0.16989912978E+03 -0.46592932345E+02  0.42200770358E+03  0.00000000000E+00 0. -1.
         -3    1    6    6    0  503  0.21540200717E+03  0.38380988018E+02 -0.62653629245E+02  0.22758866886E+03  0.00000000000E+00 0.  1.
<mgrwt>
<rscale>  0 0.23238219E+04</rscale>
<asrwt>0</asrwt>
<pdfrwt beam="1">  1        1 0.54521193E+00 0.23238219E+04</pdfrwt>
<pdfrwt beam="2">  1       -2 0.58607559E-01 0.23238219E+04</pdfrwt>
<totfact> 0.49882961E-01</totfact>
</mgrwt>
</event>
<event>
12    4  0.4381187E-008  0.1693873E+04  0.7818608E-02  0.8764866E-01
          1   -1    0    0  501    0  0.00000000000E+00  0.00000000000E+00  0.28124639537E+04  0.28124639537E+04  0.00000000000E+00 0. -1.
         -2   -1    0    0    0  501 -0.00000000000E+00 -0.00000000000E+00 -0.25504381900E+03  0.25504381900E+03  0.00000000000E+00 0.  1.
        -24    2    1    2    0    0 -0.92604197798E+02 -0.59373827703E+03  0.78710458070E+03  0.99374040851E+03  0.82980115075E+02 0.  0.
        254    2    1    2    0    0  0.92604197798E+02  0.59373827703E+03  0.17703155541E+04  0.20737673642E+04  0.89743704010E+03 0.  0.
         23    2    4    4    0    0  0.32916853329E+03 -0.24341943316E+02  0.98843299669E+03  0.10453910361E+04  0.83055257828E+02 0.  0.
         23    2    4    4    0    0 -0.23656433549E+03  0.61808022035E+03  0.78188255736E+03  0.10283763282E+04  0.90728689937E+02 0.  0.
          3    1    3    3  502    0  0.79880208519E+01 -0.80551306878E+01  0.23967419434E+02  0.26516613695E+02  0.00000000000E+00 0. -1.
         -4    1    3    3    0  502 -0.10059221865E+03 -0.58568314635E+03  0.76313716126E+03  0.96722379482E+03  0.00000000000E+00 0.  1.
         11    1    5    5    0    0  0.32128154452E+03 -0.91606513834E+01  0.90940846151E+03  0.96453589786E+03  0.00000000000E+00 0. -1.
        -11    1    5    5    0    0  0.78869887665E+01 -0.15181291933E+02  0.79024535179E+02  0.80855138221E+02  0.00000000000E+00 0.  1.
          1    1    6    6  503    0 -0.15349476778E+03  0.27818182382E+03  0.38928796434E+03  0.50248471620E+03  0.00000000000E+00 0. -1.
         -1    1    6    6    0  503 -0.83069567707E+02  0.33989839653E+03  0.39259459303E+03  0.52589161195E+03  0.00000000000E+00 0.  1.
<mgrwt>
<rscale>  0 0.16938731E+04</rscale>
<asrwt>0</asrwt>
<pdfrwt beam="1">  1        1 0.43268674E+00 0.16938731E+04</pdfrwt>
<pdfrwt beam="2">  1       -2 0.39237513E-01 0.16938731E+04</pdfrwt>
<totfact> 0.42053066E+00</totfact>
</mgrwt>
</event>
<event>
12    4  0.4381187E-008  0.1559101E+04  0.7818608E-02  0.8846076E-01
         -2   -1    0    0    0  501 -0.00000000000E+00  0.00000000000E+00  0.73833055814E+03  0.73833055814E+03  0.00000000000E+00 0.  1.
          1   -1    0    0  501    0  0.00000000000E+00 -0.00000000000E+00 -0.82307146747E+03  0.82307146747E+03  0.00000000000E+00 0. -1.
        -24    2    1    2    0    0  0.22241667947E+03  0.31438582962E+03 -0.36331854495E+03  0.53540372960E+03  0.79681612677E+02 0.  0.
        254    2    1    2    0    0 -0.22241667947E+03 -0.31438582962E+03  0.27857763561E+03  0.10259982960E+04  0.90926309458E+03 0.  0.
         23    2    4    4    0    0  0.13017143135E+03 -0.45160091553E+03  0.39346691246E+03  0.61971463296E+03  0.91334695837E+02 0.  0.
         23    2    4    4    0    0 -0.35258811082E+03  0.13721508591E+03 -0.11488927684E+03  0.40628366304E+03  0.93383688232E+02 0.  0.
          1    1    3    3  502    0  0.19606688772E+03  0.26655067232E+03 -0.34441569469E+03  0.47761245390E+03  0.00000000000E+00 0. -1.
         -2    1    3    3    0  502  0.26349791747E+02  0.47835157302E+02 -0.18902850256E+02  0.57791275701E+02  0.00000000000E+00 0.  1.
         11    1    5    5    0    0  0.26148960984E+02 -0.93843625643E+02  0.37385526236E+02  0.10434592376E+03  0.00000000000E+00 0.  1.
        -11    1    5    5    0    0  0.10402247036E+03 -0.35775728989E+03  0.35608138622E+03  0.51536870920E+03  0.00000000000E+00 0. -1.
          2    1    6    6  503    0 -0.13016409323E+02  0.59531424607E+01 -0.28836214906E+02  0.32193075450E+02  0.00000000000E+00 0. -1.
         -2    1    6    6    0  503 -0.33957170149E+03  0.13126194345E+03 -0.86053061937E+02  0.37409058759E+03  0.00000000000E+00 0.  1.
<mgrwt>
<rscale>  0 0.15591008E+04</rscale>
<asrwt>0</asrwt>
<pdfrwt beam="1">  1        1 0.12662638E+00 0.15591008E+04</pdfrwt>
<pdfrwt beam="2">  1       -2 0.11358932E+00 0.15591008E+04</pdfrwt>
<totfact> 0.10821507E+01</totfact>
</mgrwt>
</event>
<event>
12    4  0.4381187E-008  0.1259825E+04  0.7818608E-02  0.9062045E-01
          1   -1    0    0  501    0  0.00000000000E+00  0.00000000000E+00  0.36765296838E+04  0.36765296838E+04  0.00000000000E+00 0. -1.
         -2   -1    0    0    0  501 -0.00000000000E+00 -0.00000000000E+00 -0.10792513776E+03  0.10792513776E+03  0.00000000000E+00 0.  1.
        -24    2    1    2    0    0 -0.30385909929E+03  0.55728933402E+02  0.82801513619E+03  0.88727068530E+03  0.78766344216E+02 0.  0.
        254    2    1    2    0    0  0.30385909929E+03 -0.55728933402E+02  0.27405894099E+04  0.28971841363E+04  0.88736099746E+03 0.  0.
         23    2    4    4    0    0  0.18111699616E+03  0.65006142609E+02  0.26860081690E+04  0.26943849192E+04  0.89671868759E+02 0.  0.
         23    2    4    4    0    0  0.12274210313E+03 -0.12073507601E+03  0.54581240851E+02  0.20279921706E+03  0.92227046610E+02 0.  0.
          1    1    3    3  502    0 -0.26547235559E+03  0.20697669012E+02  0.67228823345E+03  0.72310126118E+03  0.00000000000E+00 0. -1.
         -2    1    3    3    0  502 -0.38386743702E+02  0.35031264390E+02  0.15572690275E+03  0.16416942412E+03  0.00000000000E+00 0.  1.
         11    1    5    5    0    0  0.16576928564E+03  0.26799582026E+02  0.23197158677E+04  0.23257857555E+04  0.00000000000E+00 0. -1.
        -11    1    5    5    0    0  0.15347710512E+02  0.38206560582E+02  0.36629230134E+03  0.36859916374E+03  0.00000000000E+00 0.  1.
          3    1    6    6  503    0  0.12009941798E+03 -0.81443138748E+02  0.13254565058E+02  0.14571389276E+03  0.00000000000E+00 0. -1.
         -3    1    6    6    0  503  0.26426851555E+01 -0.39291937262E+02  0.41326675792E+02  0.57085324302E+02  0.00000000000E+00 0.  1.
<mgrwt>
<rscale>  0 0.12598253E+04</rscale>
<asrwt>0</asrwt>
<pdfrwt beam="1">  1        1 0.56561986E+00 0.12598253E+04</pdfrwt>
<pdfrwt beam="2">  1       -2 0.16603870E-01 0.12598253E+04</pdfrwt>
<totfact> 0.47156546E+00</totfact>
</mgrwt>
</event>
<event>
12    4  0.4381187E-008  0.2306286E+04  0.7818608E-02  0.8475447E-01
          1   -1    0    0  501    0  0.00000000000E+00  0.00000000000E+00  0.73858647308E+03  0.73858647308E+03  0.00000000000E+00 0. -1.
         -2   -1    0    0    0  501 -0.00000000000E+00 -0.00000000000E+00 -0.18003826510E+04  0.18003826510E+04  0.00000000000E+00 0.  1.
        -24    2    1    2    0    0  0.34527480051E+03 -0.47774835053E+03 -0.12521556490E+04  0.13862643231E+04  0.79855056159E+02 0.  0.
        254    2    1    2    0    0 -0.34527480051E+03  0.47774835053E+03  0.19035947113E+03  0.11527048009E+04  0.97212831223E+03 0.  0.
         23    2    4    4    0    0 -0.54883724308E+03  0.41154946907E+03 -0.17957724000E+03  0.71566413743E+03  0.96601695587E+02 0.  0.
         23    2    4    4    0    0  0.20356244256E+03  0.66198881460E+02  0.36993671113E+03  0.43704066347E+03  0.91276565182E+02 0.  0.
          3    1    3    3  502    0  0.27785162417E+02 -0.20060150277E+02 -0.43097600800E+02  0.55062038415E+02  0.00000000000E+00 0. -1.
         -4    1    3    3    0  502  0.31748963809E+03 -0.45768820026E+03 -0.12090580482E+04  0.13312022847E+04  0.00000000000E+00 0.  1.
         11    1    5    5    0    0 -0.36652743815E+03  0.22764776065E+03 -0.83580381296E+02  0.43949009770E+03  0.00000000000E+00 0. -1.
        -11    1    5    5    0    0 -0.18230980493E+03  0.18390170843E+03 -0.95996858706E+02  0.27617403972E+03  0.00000000000E+00 0.  1.
          4    1    6    6  503    0 -0.80648838594E+01 -0.28660137476E+01  0.61219239741E+01  0.10523038516E+02  0.00000000000E+00 0.  1.
         -4    1    6    6    0  503  0.21162732642E+03  0.69064895208E+02  0.36381478716E+03  0.42651762495E+03  0.00000000000E+00 0. -1.
<mgrwt>
<rscale>  0 0.23062856E+04</rscale>
<asrwt>0</asrwt>
<pdfrwt beam="1">  1        1 0.11362869E+00 0.23062856E+04</pdfrwt>
<pdfrwt beam="2">  1       -2 0.27698194E+00 0.23062856E+04</pdfrwt>
<totfact> 0.87272105E-01</totfact>
</mgrwt>
</event>
<event>
12    4  0.4381187E-008  0.1380428E+04  0.7818608E-02  0.8968109E-01
         -2   -1    0    0    0  501 -0.00000000000E+00  0.00000000000E+00  0.58042474145E+03  0.58042474145E+03  0.00000000000E+00 0.  1.
          1   -1    0    0  501    0  0.00000000000E+00 -0.00000000000E+00 -0.82076979559E+03  0.82076979559E+03  0.00000000000E+00 0. -1.
        -24    2    1    2    0    0 -0.26390220423E+03 -0.15296996554E+03  0.18567224590E+03  0.36853460068E+03  0.91100961823E+02 0.  0.
        254    2    1    2    0    0  0.26390220423E+03  0.15296996554E+03 -0.42601730004E+03  0.10326599364E+04  0.88986045001E+03 0.  0.
         23    2    4    4    0    0  0.62801832446E+02  0.16544283813E+03 -0.67270438164E+03  0.70145208224E+03  0.90489976023E+02 0.  0.
         23    2    4    4    0    0  0.20110037178E+03 -0.12472872590E+02  0.24668708160E+03  0.33120785412E+03  0.90814064560E+02 0.  0.
          1    1    3    3  502    0 -0.19188607072E+02  0.87781610464E+01 -0.49633972514E+00  0.21106991871E+02  0.00000000000E+00 0. -1.
         -2    1    3    3    0  502 -0.24471359716E+03 -0.16174812659E+03  0.18616858562E+03  0.34742760880E+03  0.00000000000E+00 0.  1.
         11    1    5    5    0    0  0.23618061902E+02  0.23414148929E+02 -0.40994258946E+02  0.52787919874E+02  0.00000000000E+00 0. -1.
        -11    1    5    5    0    0  0.39183770545E+02  0.14202868920E+03 -0.63171012269E+03  0.64866416237E+03  0.00000000000E+00 0.  1.
          1    1    6    6  503    0  0.27990303199E+02  0.31593621399E+02  0.42198482220E+02  0.59685223364E+02  0.00000000000E+00 0. -1.
         -1    1    6    6    0  503  0.17311006858E+03 -0.44066493989E+02  0.20448859938E+03  0.27152263076E+03  0.00000000000E+00 0.  1.
<mgrwt>
<rscale>  0 0.13804276E+04</rscale>
<asrwt>0</asrwt>
<pdfrwt beam="1">  1        1 0.12627228E+00 0.13804276E+04</pdfrwt>
<pdfrwt beam="2">  1       -2 0.89296114E-01 0.13804276E+04</pdfrwt>
<totfact> 0.19531859E+01</totfact>
</mgrwt>
</event>
<event>
12    4  0.4381187E-008  0.2139507E+04  0.7818608E-02  0.8544037E-01
         -2   -1    0    0    0  501 -0.00000000000E+00  0.00000000000E+00  0.13574066474E+04  0.13574066474E+04  0.00000000000E+00 0.  1.
          1   -1    0    0  501    0  0.00000000000E+00 -0.00000000000E+00 -0.84305763592E+03  0.84305763592E+03  0.00000000000E+00 0. -1.
        -24    2    1    2    0    0  0.14594255335E+02  0.15635169656E+03  0.11114110332E+04  0.11252165509E+04  0.78860359835E+02 0.  0.
        254    2    1    2    0    0 -0.14594255335E+02 -0.15635169656E+03 -0.59706202169E+03  0.10752477325E+04  0.88034980725E+03 0.  0.
         23    2    4    4    0    0 -0.38118801989E+02  0.84886614802E+02 -0.75607747172E+03  0.76826031520E+03  0.99558968628E+02 0.  0.
         23    2    4    4    0    0  0.23524546654E+02 -0.24123831136E+03  0.15901545002E+03  0.30698741727E+03  0.10102491700E+03 0.  0.
          3    1    3    3  502    0 -0.45871997665E+01  0.12539455854E+03  0.62663593311E+03  0.63907544967E+03  0.00000000000E+00 0. -1.
         -4    1    3    3    0  502  0.19181455101E+02  0.30957138015E+02  0.48477510009E+03  0.48614110120E+03  0.00000000000E+00 0.  1.
         11    1    5    5    0    0 -0.46573139937E+02  0.82394003621E+02 -0.75299938178E+03  0.75892417154E+03  0.00000000000E+00 0. -1.
        -11    1    5    5    0    0  0.84543379486E+01  0.24926111811E+01 -0.30780899374E+01  0.93361436531E+01  0.00000000000E+00 0.  1.
          3    1    6    6  503    0  0.42423379392E+02 -0.21329540535E+03  0.16466917531E+03  0.27278308298E+03  0.00000000000E+00 0. -1.
         -3    1    6    6    0  503 -0.18898832738E+02 -0.27942906007E+02 -0.56537252832E+01  0.34204334295E+02  0.00000000000E+00 0.  1.
<mgrwt>
<rscale>  0 0.21395065E+04</rscale>
<asrwt>0</asrwt>
<pdfrwt beam="1">  1        1 0.12970117E+00 0.21395065E+04</pdfrwt>
<pdfrwt beam="2">  1       -2 0.20883179E+00 0.21395065E+04</pdfrwt>
<totfact> 0.18992585E+00</totfact>
</mgrwt>
</event>
<event>
12    4  0.4381187E-008  0.1982614E+04  0.7818608E-02  0.8614793E-01
         -2   -1    0    0    0  501 -0.00000000000E+00  0.00000000000E+00  0.42779287984E+03  0.42779287984E+03  0.00000000000E+00 0.  1.
          1   -1    0    0  501    0  0.00000000000E+00 -0.00000000000E+00 -0.22971154325E+04  0.22971154325E+04  0.00000000000E+00 0. -1.
        -24    2    1    2    0    0 -0.50591215054E+03 -0.13875317616E+03  0.53782632322E+02  0.53316355885E+03  0.78557373823E+02 0.  0.
        254    2    1    2    0    0  0.50591215054E+03  0.13875317616E+03 -0.19231051850E+04  0.21917447535E+04  0.91115968085E+03 0.  0.
         23    2    4    4    0    0  0.29810356328E+03 -0.36858887937E+03 -0.10664917917E+04  0.11707017028E+04  0.91729160144E+02 0.  0.
         23    2    4    4    0    0  0.20780858727E+03  0.50734205553E+03 -0.85661339330E+03  0.10210430507E+04  0.90343984340E+02 0.  0.
          3    1    3    3  502    0 -0.68670001758E+02  0.50954211851E+01 -0.54363294915E+01  0.69073049280E+02  0.00000000000E+00 0. -1.
         -4    1    3    3    0  502 -0.43724214879E+03 -0.14384859735E+03  0.59218961814E+02  0.46409050957E+03  0.00000000000E+00 0.  1.
         11    1    5    5    0    0  0.58397587967E+02 -0.45135185197E+02 -0.24478206662E+03  0.25566721214E+03  0.00000000000E+00 0. -1.
        -11    1    5    5    0    0  0.23970597531E+03 -0.32345369417E+03 -0.82170972507E+03  0.91503449069E+03  0.00000000000E+00 0.  1.
          4    1    6    6  503    0  0.52740040968E+02  0.12654889246E+03 -0.14767407588E+03  0.20150376371E+03  0.00000000000E+00 0. -1.
         -4    1    6    6    0  503  0.15506854630E+03  0.38079316307E+03 -0.70893931742E+03  0.81953928696E+03  0.00000000000E+00 0.  1.
<mgrwt>
<rscale>  0 0.19826141E+04</rscale>
<asrwt>0</asrwt>
<pdfrwt beam="1">  1        1 0.35340238E+00 0.19826141E+04</pdfrwt>
<pdfrwt beam="2">  1       -2 0.65814288E-01 0.19826141E+04</pdfrwt>
<totfact> 0.32433947E+00</totfact>
</mgrwt>
</event>
<event>
12    4  0.4381187E-008  0.1843242E+04  0.7818608E-02  0.8683636E-01
         -2   -1    0    0    0  501 -0.00000000000E+00  0.00000000000E+00  0.45177845971E+03  0.45177845971E+03  0.00000000000E+00 0.  1.
          1   -1    0    0  501    0  0.00000000000E+00 -0.00000000000E+00 -0.18800923565E+04  0.18800923565E+04  0.00000000000E+00 0. -1.
        -24    2    1    2    0    0  0.40600916622E+03 -0.56267120013E+03 -0.62898354545E+03  0.93981834935E+03  0.78714082701E+02 0.  0.
        254    2    1    2    0    0 -0.40600916622E+03  0.56267120013E+03 -0.79933035137E+03  0.13920524669E+04  0.90412318710E+03 0.  0.
         23    2    4    4    0    0 -0.28139265119E+03 -0.34972006670E+02 -0.70785322759E+03  0.76806343161E+03  0.91980311843E+02 0.  0.
         23    2    4    4    0    0 -0.12461651502E+03  0.59764320680E+03 -0.91477123779E+02  0.62398903528E+03  0.91036111132E+02 0.  0.
          3    1    3    3  502    0  0.32198892963E+03 -0.46236440426E+03 -0.54776352980E+03  0.78581333515E+03  0.00000000000E+00 0. -1.
         -4    1    3    3    0  502  0.84020236591E+02 -0.10030679587E+03 -0.81220015656E+02  0.15400501420E+03  0.00000000000E+00 0.  1.
         11    1    5    5    0    0 -0.11207075079E+03 -0.66308303435E+01 -0.17213936342E+03  0.20551345828E+03  0.00000000000E+00 0. -1.
        -11    1    5    5    0    0 -0.16932190040E+03 -0.28341176326E+02 -0.53571386417E+03  0.56254997333E+03  0.00000000000E+00 0.  1.
          1    1    6    6  503    0 -0.37248322049E+01 -0.19393685695E+01 -0.45541828543E+01  0.61948451856E+01  0.00000000000E+00 0. -1.
         -1    1    6    6    0  503 -0.12089168282E+03  0.59958257537E+03 -0.86922940925E+02  0.61779419010E+03  0.00000000000E+00 0.  1.
<mgrwt>
<rscale>  0 0.18432420E+04</rscale>
<asrwt>0</asrwt>
<pdfrwt beam="1">  1        1 0.28924498E+00 0.18432420E+04</pdfrwt>
<pdfrwt beam="2">  1       -2 0.69504379E-01 0.18432420E+04</pdfrwt>
<totfact> 0.56013625E+00</totfact>
</mgrwt>
</event>
<event>
12    4  0.4381187E-008  0.1498150E+04  0.7818608E-02  0.8885684E-01
          3   -1    0    0  501    0  0.00000000000E+00  0.00000000000E+00  0.13462599565E+04  0.13462599565E+04  0.00000000000E+00 0. -1.
         -4   -1    0    0    0  501 -0.00000000000E+00 -0.00000000000E+00 -0.41679415729E+03  0.41679415729E+03  0.00000000000E+00 0.  1.
        -24    2    1    2    0    0  0.31672790398E+03 -0.28800934466E+03  0.52113630044E+02  0.43857113095E+03  0.79767529076E+02 0.  0.
        254    2    1    2    0    0 -0.31672790398E+03  0.28800934466E+03  0.87735216916E+03  0.13244829828E+04  0.89512144166E+03 0.  0.
         23    2    4    4    0    0 -0.47946964471E+03  0.44033682850E+03  0.86062760299E+03  0.10829403969E+04  0.91062448295E+02 0.  0.
         23    2    4    4    0    0  0.16274174073E+03 -0.15232748384E+03  0.16724566171E+02  0.24154258593E+03  0.91512694172E+02 0.  0.
          1    1    3    3  502    0  0.16968193052E+02 -0.19718433630E+02  0.23847841146E+02  0.35291014828E+02  0.00000000000E+00 0. -1.
         -2    1    3    3    0  502  0.29975971093E+03 -0.26829091103E+03  0.28265788898E+02  0.40328011612E+03  0.00000000000E+00 0.  1.
         11    1    5    5    0    0 -0.23142238222E+03  0.16084370698E+03  0.41010888718E+03  0.49761060721E+03  0.00000000000E+00 0.  1.
        -11    1    5    5    0    0 -0.24804726250E+03  0.27949312152E+03  0.45051871581E+03  0.58532978970E+03  0.00000000000E+00 0. -1.
          3    1    6    6  503    0  0.73239054238E+02 -0.14628322064E+02 -0.93001549201E+01  0.75262472412E+02  0.00000000000E+00 0. -1.
         -3    1    6    6    0  503  0.89502686491E+02 -0.13769916178E+03  0.26024721091E+02  0.16628011352E+03  0.00000000000E+00 0.  1.
<mgrwt>
<rscale>  0 0.14981499E+04</rscale>
<asrwt>0</asrwt>
<pdfrwt beam="1">  1        3 0.20711691E+00 0.14981499E+04</pdfrwt>
<pdfrwt beam="2">  1       -4 0.64122179E-01 0.14981499E+04</pdfrwt>
<totfact> 0.66891277E-01</totfact>
</mgrwt>
</event>
<event>
12    4  0.4381187E-008  0.1107647E+04  0.7818608E-02  0.9197771E-01
          1   -1    0    0  501    0  0.00000000000E+00  0.00000000000E+00  0.58315661831E+03  0.58315661831E+03  0.00000000000E+00 0. -1.
         -2   -1    0    0    0  501 -0.00000000000E+00 -0.00000000000E+00 -0.52596545766E+03  0.52596545766E+03  0.00000000000E+00 0.  1.
        -24    2    1    2    0    0 -0.16351665560E+02  0.12135240609E+03  0.13644183244E+03  0.19781224217E+03  0.74293513058E+02 0.  0.
        254    2    1    2    0    0  0.16351665560E+02 -0.12135240609E+03 -0.79250671787E+02  0.91130983380E+03  0.89956164923E+03 0.  0.
         23    2    4    4    0    0 -0.42718181066E+03 -0.95878094454E+02  0.15553763614E+02  0.44764868531E+03  0.92035414615E+02 0.  0.
         23    2    4    4    0    0  0.44353347622E+03 -0.25474311632E+02 -0.94804435401E+02  0.46366114848E+03  0.92859542108E+02 0.  0.
          1    1    3    3  502    0 -0.45139837106E+01  0.12281376141E+03  0.96877593265E+02  0.15648918211E+03  0.00000000000E+00 0. -1.
         -2    1    3    3    0  502 -0.11837681849E+02 -0.14613553258E+01  0.39564239175E+02  0.41323060057E+02  0.00000000000E+00 0.  1.
         11    1    5    5    0    0 -0.23823330570E+02  0.89820530999E+01 -0.15365360105E+02  0.29737562921E+02  0.00000000000E+00 0. -1.
        -11    1    5    5    0    0 -0.40335848009E+03 -0.10486014755E+03  0.30919123720E+02  0.41791112239E+03  0.00000000000E+00 0.  1.
          4    1    6    6  503    0  0.83400735709E+02 -0.13756870415E+02  0.17343376746E+02  0.86288625655E+02  0.00000000000E+00 0. -1.
         -4    1    6    6    0  503  0.36013274051E+03 -0.11717441217E+02 -0.11214781215E+03  0.37737252283E+03  0.00000000000E+00 0.  1.
<mgrwt>
<rscale>  0 0.11076466E+04</rscale>
<asrwt>0</asrwt>
<pdfrwt beam="1">  1        1 0.89716403E-01 0.11076466E+04</pdfrwt>
<pdfrwt beam="2">  1       -2 0.80917763E-01 0.11076466E+04</pdfrwt>
<totfact> 0.41919427E+01</totfact>
</mgrwt>
</event>
<event>
12    4  0.4381187E-008  0.2573130E+04  0.7818608E-02  0.8377386E-01
          1   -1    0    0  501    0  0.00000000000E+00  0.00000000000E+00  0.78501556663E+03  0.78501556663E+03  0.00000000000E+00 0. -1.
         -2   -1    0    0    0  501 -0.00000000000E+00 -0.00000000000E+00 -0.21085570058E+04  0.21085570058E+04  0.00000000000E+00 0.  1.
        -24    2    1    2    0    0 -0.19623858631E+03 -0.10805836480E+04 -0.84646779364E+03  0.13888812355E+04  0.79452863265E+02 0.  0.
        254    2    1    2    0    0  0.19623858631E+03  0.10805836480E+04 -0.47707364552E+03  0.15046913369E+04  0.91122234010E+03 0.  0.
         23    2    4    4    0    0  0.55093320081E+03  0.72602032644E+03 -0.28022805461E+03  0.95779228946E+03  0.90583668530E+02 0.  0.
         23    2    4    4    0    0 -0.35469461451E+03  0.35456332157E+03 -0.19684559091E+03  0.54689904747E+03  0.93951918046E+02 0.  0.
          1    1    3    3  502    0 -0.13803048421E+02 -0.24668638870E+03 -0.20649615393E+03  0.32200211196E+03  0.00000000000E+00 0. -1.
         -2    1    3    3    0  502 -0.18243553789E+03 -0.83389725930E+03 -0.63997163970E+03  0.10668791235E+04  0.00000000000E+00 0.  1.
         11    1    5    5    0    0  0.32986465571E+03  0.36427245881E+03 -0.13464694169E+03  0.50954382956E+03  0.00000000000E+00 0.  1.
        -11    1    5    5    0    0  0.22106854510E+03  0.36174786763E+03 -0.14558111292E+03  0.44824845990E+03  0.00000000000E+00 0. -1.
          4    1    6    6  503    0 -0.20292782041E+03  0.14006165370E+03 -0.78966644390E+02  0.25890673622E+03  0.00000000000E+00 0. -1.
         -4    1    6    6    0  503 -0.15176679410E+03  0.21450166787E+03 -0.11787894652E+03  0.28799231126E+03  0.00000000000E+00 0.  1.
<mgrwt>
<rscale>  0 0.25731304E+04</rscale>
<asrwt>0</asrwt>
<pdfrwt beam="1">  1        1 0.12077163E+00 0.25731304E+04</pdfrwt>
<pdfrwt beam="2">  1       -2 0.32439338E+00 0.25731304E+04</pdfrwt>
<totfact> 0.39684129E-01</totfact>
</mgrwt>
</event>
<event>
12    4  0.4381187E-008  0.1214976E+04  0.7818608E-02  0.9099848E-01
          3   -1    0    0  501    0  0.00000000000E+00  0.00000000000E+00  0.30028061799E+03  0.30028061799E+03  0.00000000000E+00 0. -1.
         -4   -1    0    0    0  501 -0.00000000000E+00 -0.00000000000E+00 -0.12289901544E+04  0.12289901544E+04  0.00000000000E+00 0.  1.
        -24    2    1    2    0    0 -0.34969705109E+02  0.25224705193E+03 -0.35746307601E+03  0.44590944514E+03  0.78765011746E+02 0.  0.
        254    2    1    2    0    0  0.34969705109E+02 -0.25224705193E+03 -0.57124646040E+03  0.10833613272E+04  0.88458905225E+03 0.  0.
         23    2    4    4    0    0 -0.67177558049E+02 -0.22527112800E+03 -0.78704564777E+03  0.82642448186E+03  0.90976189902E+02 0.  0.
         23    2    4    4    0    0  0.10214726316E+03 -0.26975923924E+02  0.21579918736E+03  0.25693684539E+03  0.91024663735E+02 0.  0.
          3    1    3    3  502    0  0.20791772500E+02  0.46689195060E+02 -0.47157791202E+02  0.69541613514E+02  0.00000000000E+00 0. -1.
         -4    1    3    3    0  502 -0.55761477609E+02  0.20555785687E+03 -0.31030528481E+03  0.37636783163E+03  0.00000000000E+00 0.  1.
         11    1    5    5    0    0  0.14466604108E+02 -0.10920329215E+03 -0.34482725866E+03  0.36199513804E+03  0.00000000000E+00 0. -1.
        -11    1    5    5    0    0 -0.81644162156E+02 -0.11606783585E+03 -0.44221838911E+03  0.46442934382E+03  0.00000000000E+00 0.  1.
          3    1    6    6  503    0  0.45651647332E+02 -0.22208396274E+02  0.18616488546E+03  0.19296282115E+03  0.00000000000E+00 0. -1.
         -3    1    6    6    0  503  0.56495615825E+02 -0.47675276494E+01  0.29634301907E+02  0.63974024235E+02  0.00000000000E+00 0.  1.
<mgrwt>
<rscale>  0 0.12149764E+04</rscale>
<asrwt>0</asrwt>
<pdfrwt beam="1">  1        3 0.46197019E-01 0.12149764E+04</pdfrwt>
<pdfrwt beam="2">  1       -4 0.18907541E+00 0.12149764E+04</pdfrwt>
<totfact> 0.16363989E+00</totfact>
</mgrwt>
</event>
<event>
12    4  0.4381187E-008  0.1175418E+04  0.7818608E-02  0.9134649E-01
         -2   -1    0    0    0  501 -0.00000000000E+00  0.00000000000E+00  0.39434610966E+03  0.39434610966E+03  0.00000000000E+00 0.  1.
          1   -1    0    0  501    0  0.00000000000E+00 -0.00000000000E+00 -0.87588579403E+03  0.87588579403E+03  0.00000000000E+00 0. -1.
        -24    2    1    2    0    0 -0.96552138495E+02  0.30281708144E+02  0.12286179258E+03  0.17515221117E+03  0.73102528726E+02 0.  0.
        254    2    1    2    0    0  0.96552138495E+02 -0.30281708144E+02 -0.60440147695E+03  0.10950796925E+04  0.90755665957E+03 0.  0.
         23    2    4    4    0    0 -0.19504304693E+03 -0.38246538771E+03 -0.35459746976E+03  0.56416315831E+03  0.90659476541E+02 0.  0.
         23    2    4    4    0    0  0.29159518542E+03  0.35218367957E+03 -0.24980400719E+03  0.53091653420E+03  0.10202562408E+03 0.  0.
          3    1    3    3  502    0 -0.35066031054E+02 -0.14203660068E+02  0.99742450827E+01  0.39126155678E+02  0.00000000000E+00 0. -1.
         -4    1    3    3    0  502 -0.61486107441E+02  0.44485368212E+02  0.11288754749E+03  0.13602605549E+03  0.00000000000E+00 0.  1.
         11    1    5    5    0    0  0.41779591785E+01 -0.56778996110E+02 -0.49590503953E+02  0.75501839875E+02  0.00000000000E+00 0.  1.
        -11    1    5    5    0    0 -0.19922100610E+03 -0.32568639160E+03 -0.30500696581E+03  0.48866131844E+03  0.00000000000E+00 0. -1.
          1    1    6    6  503    0  0.20820356244E+03  0.17398373683E+03 -0.15561399404E+03  0.31278551634E+03  0.00000000000E+00 0. -1.
         -1    1    6    6    0  503  0.83391622984E+02  0.17819994274E+03 -0.94190013144E+02  0.21813101786E+03  0.00000000000E+00 0.  1.
<mgrwt>
<rscale>  0 0.11754185E+04</rscale>
<asrwt>0</asrwt>
<pdfrwt beam="1">  1        1 0.13475166E+00 0.11754185E+04</pdfrwt>
<pdfrwt beam="2">  1       -2 0.60668632E-01 0.11754185E+04</pdfrwt>
<totfact> 0.41881417E+01</totfact>
</mgrwt>
</event>
<event>
12    4  0.4381187E-008  0.1359188E+04  0.7818608E-02  0.8983902E-01
         -2   -1    0    0    0  501 -0.00000000000E+00  0.00000000000E+00  0.65806040579E+03  0.65806040579E+03  0.00000000000E+00 0.  1.
          1   -1    0    0  501    0  0.00000000000E+00 -0.00000000000E+00 -0.70183212186E+03  0.70183212186E+03  0.00000000000E+00 0. -1.
        -24    2    1    2    0    0  0.71310081937E+01  0.23006956109E+03  0.29850741128E+03  0.38629624250E+03  0.84470457306E+02 0.  0.
        254    2    1    2    0    0 -0.71310081937E+01 -0.23006956109E+03 -0.34227912735E+03  0.97359628516E+03  0.88190241593E+03 0.  0.
         23    2    4    4    0    0 -0.33448527534E+03 -0.28813131260E+03 -0.42379119194E+03  0.61937098683E+03  0.95505980151E+02 0.  0.
         23    2    4    4    0    0  0.32735426715E+03  0.58061751512E+02  0.81512064585E+02  0.35422529832E+03  0.91100834734E+02 0.  0.
          1    1    3    3  502    0  0.39920074535E+02  0.96604483543E+02  0.98528790260E+02  0.14364526133E+03  0.00000000000E+00 0. -1.
         -2    1    3    3    0  502 -0.32789066341E+02  0.13346507755E+03  0.19997862102E+03  0.24265098117E+03  0.00000000000E+00 0.  1.
         11    1    5    5    0    0 -0.65929893814E+02 -0.13147166718E+02 -0.58698965068E+02  0.89247786477E+02  0.00000000000E+00 0. -1.
        -11    1    5    5    0    0 -0.26855538153E+03 -0.27498414588E+03 -0.36509222687E+03  0.53012320036E+03  0.00000000000E+00 0.  1.
          1    1    6    6  503    0  0.57901385187E+02 -0.21353226509E+02  0.30041001473E+02  0.68636669925E+02  0.00000000000E+00 0. -1.
         -1    1    6    6    0  503  0.26945288196E+03  0.79414978021E+02  0.51471063112E+02  0.28558862840E+03  0.00000000000E+00 0.  1.
<mgrwt>
<rscale>  0 0.13591879E+04</rscale>
<asrwt>0</asrwt>
<pdfrwt beam="1">  1        1 0.10797417E+00 0.13591879E+04</pdfrwt>
<pdfrwt beam="2">  1       -2 0.10124006E+00 0.13591879E+04</pdfrwt>
<totfact> 0.18643852E+01</totfact>
</mgrwt>
</event>
<event>
12    4  0.4381187E-008  0.1747086E+04  0.7818608E-02  0.8734956E-01
         -2   -1    0    0    0  501 -0.00000000000E+00  0.00000000000E+00  0.49833048139E+03  0.49833048139E+03  0.00000000000E+00 0.  1.
          1   -1    0    0  501    0  0.00000000000E+00 -0.00000000000E+00 -0.15312673337E+04  0.15312673337E+04  0.00000000000E+00 0. -1.
        -24    2    1    2    0    0 -0.11699525106E+03  0.43031594423E+03  0.14952090941E+03  0.47606983798E+03  0.73663339943E+02 0.  0.
        254    2    1    2    0    0  0.11699525106E+03 -0.43031594423E+03 -0.11824577617E+04  0.15535279771E+04  0.90353921704E+03 0.  0.
         23    2    4    4    0    0 -0.32056747414E+03 -0.40494038648E+03 -0.43133883995E+03  0.67912446355E+03  0.91742139006E+02 0.  0.
         23    2    4    4    0    0  0.43756272520E+03 -0.25375557760E+02 -0.75111892176E+03  0.87440351354E+03  0.91086840088E+02 0.  0.
          1    1    3    3  502    0 -0.58526886088E+02  0.16377524937E+03  0.93653026567E+02  0.19753130913E+03  0.00000000000E+00 0. -1.
         -2    1    3    3    0  502 -0.58468364973E+02  0.26654069487E+03  0.55867882847E+02  0.27853852886E+03  0.00000000000E+00 0.  1.
         11    1    5    5    0    0 -0.10879982221E+02 -0.47033941884E+02 -0.63133354264E+02  0.79475695171E+02  0.00000000000E+00 0. -1.
        -11    1    5    5    0    0 -0.30968749192E+03 -0.35790644459E+03 -0.36820548568E+03  0.59964876838E+03  0.00000000000E+00 0.  1.
          4    1    6    6  503    0  0.58750146713E+02  0.24065652068E+02 -0.13967585202E+03  0.15342776472E+03  0.00000000000E+00 0. -1.
         -4    1    6    6    0  503  0.37881257849E+03 -0.49441209827E+02 -0.61144306974E+03  0.72097574882E+03  0.00000000000E+00 0.  1.
<mgrwt>
<rscale>  0 0.17470858E+04</rscale>
<asrwt>0</asrwt>
<pdfrwt beam="1">  1        1 0.23557959E+00 0.17470858E+04</pdfrwt>
<pdfrwt beam="2">  1       -2 0.76666228E-01 0.17470858E+04</pdfrwt>
<totfact> 0.78717580E+00</totfact>
</mgrwt>
</event>
<event>
12    4  0.4381187E-008  0.3061183E+04  0.7818608E-02  0.8226472E-01
          3   -1    0    0  501    0  0.00000000000E+00  0.00000000000E+00  0.26558297846E+04  0.26558297846E+04  0.00000000000E+00 0. -1.
         -4   -1    0    0    0  501 -0.00000000000E+00 -0.00000000000E+00 -0.88210090460E+03  0.88210090460E+03  0.00000000000E+00 0.  1.
        -24    2    1    2    0    0  0.81005991371E+03  0.92395368474E+03  0.42517837830E+02  0.12321295685E+04  0.80299637309E+02 0.  0.
        254    2    1    2    0    0 -0.81005991371E+03 -0.92395368474E+03  0.17312110422E+04  0.23058011207E+04  0.89985535516E+03 0.  0.
         23    2    4    4    0    0 -0.36258497475E+03  0.52582176802E+02  0.78442527542E+03  0.87045473577E+03  0.90198032523E+02 0.  0.
         23    2    4    4    0    0 -0.44747493896E+03 -0.97653586155E+03  0.94678576675E+03  0.14353463849E+04  0.99799031333E+02 0.  0.
          3    1    3    3  502    0  0.21747767283E+03  0.28804993385E+03 -0.12851233804E+02  0.36115710817E+03  0.00000000000E+00 0. -1.
         -4    1    3    3    0  502  0.59258224089E+03  0.63590375089E+03  0.55369071634E+02  0.87097246036E+03  0.00000000000E+00 0.  1.
         11    1    5    5    0    0 -0.23610651811E+03  0.64763708245E+02  0.58273568622E+03  0.63207713595E+03  0.00000000000E+00 0. -1.
        -11    1    5    5    0    0 -0.12647845664E+03 -0.12181531443E+02  0.20168958920E+03  0.23837759982E+03  0.00000000000E+00 0.  1.
          4    1    6    6  503    0 -0.39877481143E+03 -0.82580625673E+03  0.76506422731E+03  0.11942782740E+04  0.00000000000E+00 0. -1.
         -4    1    6    6    0  503 -0.48700127534E+02 -0.15072960482E+03  0.18172153944E+03  0.24106811089E+03  0.00000000000E+00 0.  1.
<mgrwt>
<rscale>  0 0.30611827E+04</rscale>
<asrwt>0</asrwt>
<pdfrwt beam="1">  1        3 0.40858919E+00 0.30611827E+04</pdfrwt>
<pdfrwt beam="2">  1       -4 0.13570783E+00 0.30611827E+04</pdfrwt>
<totfact> 0.75388797E-03</totfact>
</mgrwt>
</event>
<event>
12    4  0.4381187E-008  0.2810720E+04  0.7818608E-02  0.8299948E-01
         -2   -1    0    0    0  501 -0.00000000000E+00  0.00000000000E+00  0.52316429979E+03  0.52316429979E+03  0.00000000000E+00 0.  1.
          1   -1    0    0  501    0  0.00000000000E+00 -0.00000000000E+00 -0.37751741513E+04  0.37751741513E+04  0.00000000000E+00 0. -1.
        -24    2    1    2    0    0 -0.17219582133E+03  0.72953054671E+03  0.87803477840E+02  0.75889335567E+03  0.79645810238E+02 0.  0.
        254    2    1    2    0    0  0.17219582133E+03 -0.72953054671E+03 -0.33398133294E+04  0.35394450954E+04  0.90080646600E+03 0.  0.
         23    2    4    4    0    0  0.46400335979E+03 -0.40529714631E+03 -0.26184600167E+04  0.26915620615E+04  0.92782418947E+02 0.  0.
         23    2    4    4    0    0 -0.29180753846E+03 -0.32423340040E+03 -0.72135331271E+03  0.84788303396E+03  0.90973073426E+02 0.  0.
          1    1    3    3  502    0  0.26555193509E+01  0.70876518135E+00 -0.28129037564E+01  0.39327545878E+01  0.00000000000E+00 0. -1.
         -2    1    3    3    0  502 -0.17485134068E+03  0.72882178153E+03  0.90616381597E+02  0.75496060108E+03  0.00000000000E+00 0.  1.
         11    1    5    5    0    0  0.47858980863E+02 -0.71707881663E+02 -0.47376299904E+03  0.48154322921E+03  0.00000000000E+00 0. -1.
        -11    1    5    5    0    0  0.41614437892E+03 -0.33358926465E+03 -0.21446970176E+04  0.22100188323E+04  0.00000000000E+00 0.  1.
          2    1    6    6  503    0 -0.75451187264E+01 -0.31637825093E+02 -0.94844362874E+02  0.10026631519E+03  0.00000000000E+00 0. -1.
         -2    1    6    6    0  503 -0.28426241973E+03 -0.29259557531E+03 -0.62650894984E+03  0.74761671877E+03  0.00000000000E+00 0.  1.
<mgrwt>
<rscale>  0 0.28107197E+04</rscale>
<asrwt>0</asrwt>
<pdfrwt beam="1">  1        1 0.58079600E+00 0.28107197E+04</pdfrwt>
<pdfrwt beam="2">  1       -2 0.80486819E-01 0.28107197E+04</pdfrwt>
<totfact> 0.15513887E-01</totfact>
</mgrwt>
</event>
<event>
12    4  0.4381187E-008  0.2288721E+04  0.7818608E-02  0.8482381E-01
          1   -1    0    0  501    0  0.00000000000E+00  0.00000000000E+00  0.46179341198E+04  0.46179341198E+04  0.00000000000E+00 0. -1.
         -2   -1    0    0    0  501 -0.00000000000E+00 -0.00000000000E+00 -0.28358166376E+03  0.28358166376E+03  0.00000000000E+00 0.  1.
        -24    2    1    2    0    0  0.46805554278E+03 -0.39164066441E+03  0.34471230476E+04  0.35018341567E+04  0.87901960232E+02 0.  0.
        254    2    1    2    0    0 -0.46805554278E+03  0.39164066441E+03  0.88722940850E+03  0.13996816269E+04  0.89413322959E+03 0.  0.
         23    2    4    4    0    0  0.13044739068E+03  0.41027791288E+03  0.56067102235E+03  0.71186371213E+03  0.83984890395E+02 0.  0.
         23    2    4    4    0    0 -0.59850293346E+03 -0.18637248477E+02  0.32655838615E+03  0.68781791478E+03  0.88881921295E+02 0.  0.
          1    1    3    3  502    0  0.27690212131E+03 -0.22776491527E+03  0.17737026592E+04  0.18095780626E+04  0.00000000000E+00 0. -1.
         -2    1    3    3    0  502  0.19115342147E+03 -0.16387574914E+03  0.16734203884E+04  0.16922560940E+04  0.00000000000E+00 0.  1.
         11    1    5    5    0    0  0.10947236105E+03  0.28025317416E+03  0.33260465066E+03  0.44849960212E+03  0.00000000000E+00 0.  1.
        -11    1    5    5    0    0  0.20975029633E+02  0.13002473872E+03  0.22806637169E+03  0.26336411001E+03  0.00000000000E+00 0. -1.
          4    1    6    6  503    0 -0.43716138920E+02 -0.24972388671E+01 -0.13130480251E+00  0.43787603782E+02  0.00000000000E+00 0. -1.
         -4    1    6    6    0  503 -0.55478679454E+03 -0.16140009610E+02  0.32668969095E+03  0.64403031099E+03  0.00000000000E+00 0.  1.
<mgrwt>
<rscale>  0 0.22887214E+04</rscale>
<asrwt>0</asrwt>
<pdfrwt beam="1">  1        1 0.71045135E+00 0.22887214E+04</pdfrwt>
<pdfrwt beam="2">  1       -2 0.43627952E-01 0.22887214E+04</pdfrwt>
<totfact> 0.96827528E-02</totfact>
</mgrwt>
</event>
<event>
12    4  0.4381187E-008  0.2785545E+04  0.7818608E-02  0.8307770E-01
         -2   -1    0    0    0  501 -0.00000000000E+00  0.00000000000E+00  0.56136732428E+03  0.56136732428E+03  0.00000000000E+00 0.  1.
          1   -1    0    0  501    0  0.00000000000E+00 -0.00000000000E+00 -0.34555179568E+04  0.34555179568E+04  0.00000000000E+00 0. -1.
        -24    2    1    2    0    0  0.58076990248E+03  0.76622034155E+03 -0.15613830771E+03  0.97715198994E+03  0.77843104245E+02 0.  0.
        254    2    1    2    0    0 -0.58076990248E+03 -0.76622034155E+03 -0.27380123248E+04  0.30397332912E+04  0.90491971966E+03 0.  0.
         23    2    4    4    0    0 -0.33779352963E+03 -0.82086998266E+03 -0.12939211541E+04  0.15716762170E+04  0.89454909778E+02 0.  0.
         23    2    4    4    0    0 -0.24297637285E+03  0.54649641109E+02 -0.14440911707E+04  0.14680570742E+04  0.88137180896E+02 0.  0.
          1    1    3    3  502    0  0.29069466461E+03  0.37779943522E+03 -0.38145353880E+02  0.47821634153E+03  0.00000000000E+00 0. -1.
         -2    1    3    3    0  502  0.29007523787E+03  0.38842090633E+03 -0.11799295383E+03  0.49893564841E+03  0.00000000000E+00 0.  1.
         11    1    5    5    0    0 -0.23467289453E+02 -0.18898585124E+02 -0.33717975352E+02  0.45219155850E+02  0.00000000000E+00 0.  1.
        -11    1    5    5    0    0 -0.31432624018E+03 -0.80197139754E+03 -0.12602031788E+04  0.15264570611E+04  0.00000000000E+00 0. -1.
          3    1    6    6  503    0 -0.24821420062E+03  0.53589400581E+02 -0.13412058348E+04  0.13650330416E+04  0.00000000000E+00 0. -1.
         -3    1    6    6    0  503  0.52378277745E+01  0.10602405281E+01 -0.10288533591E+03  0.10302403261E+03  0.00000000000E+00 0.  1.
<mgrwt>
<rscale>  0 0.27855447E+04</rscale>
<asrwt>0</asrwt>
<pdfrwt beam="1">  1        1 0.53161815E+00 0.27855447E+04</pdfrwt>
<pdfrwt beam="2">  1       -2 0.86364203E-01 0.27855447E+04</pdfrwt>
<totfact> 0.23991954E-01</totfact>
</mgrwt>
</event>
<event>
12    4  0.4381187E-008  0.1876886E+04  0.7818608E-02  0.8666448E-01
         -2   -1    0    0    0  501 -0.00000000000E+00  0.00000000000E+00  0.69973346231E+03  0.69973346231E+03  0.00000000000E+00 0.  1.
          1   -1    0    0  501    0  0.00000000000E+00 -0.00000000000E+00 -0.12585873157E+04  0.12585873157E+04  0.00000000000E+00 0. -1.
        -24    2    1    2    0    0 -0.16933283898E+03 -0.37101044474E+03  0.38157385940E+03  0.56472019040E+03  0.83593796461E+02 0.  0.
        254    2    1    2    0    0  0.16933283898E+03  0.37101044474E+03 -0.94042771275E+03  0.13936005876E+04  0.94413767762E+03 0.  0.
         23    2    4    4    0    0  0.10734289501E+01 -0.25125647831E+03 -0.22284398819E+02  0.26825214397E+03  0.91277862442E+02 0.  0.
         23    2    4    4    0    0  0.16825941002E+03  0.62226692305E+03 -0.91814331393E+03  0.11253484436E+04  0.88851685422E+02 0.  0.
          3    1    3    3  502    0 -0.84078594456E+02 -0.10785147003E+03  0.95643789907E+02  0.16687984954E+03  0.00000000000E+00 0. -1.
         -4    1    3    3    0  502 -0.85254244519E+02 -0.26315897470E+03  0.28593006949E+03  0.39784034086E+03  0.00000000000E+00 0.  1.
         11    1    5    5    0    0 -0.12012257056E+02 -0.25162035531E+03 -0.13074076056E+02  0.25224596922E+03  0.00000000000E+00 0.  1.
        -11    1    5    5    0    0  0.13085686006E+02  0.36387699505E+00 -0.92103227635E+01  0.16006174750E+02  0.00000000000E+00 0. -1.
          1    1    6    6  503    0  0.17039222935E+02  0.10309672187E+03 -0.20789789826E+03  0.23268176826E+03  0.00000000000E+00 0. -1.
         -1    1    6    6    0  503  0.15122018709E+03  0.51917020118E+03 -0.71024541567E+03  0.89266667534E+03  0.00000000000E+00 0.  1.
<mgrwt>
<rscale>  0 0.18768864E+04</rscale>
<asrwt>0</asrwt>
<pdfrwt beam="1">  1        1 0.19362882E+00 0.18768864E+04</pdfrwt>
<pdfrwt beam="2">  1       -2 0.10765130E+00 0.18768864E+04</pdfrwt>
<totfact> 0.55151295E+00</totfact>
</mgrwt>
</event>
<event>
12    4  0.4381187E-008  0.1709982E+04  0.7818608E-02  0.8755692E-01
         -2   -1    0    0    0  501 -0.00000000000E+00  0.00000000000E+00  0.14116953387E+04  0.14116953387E+04  0.00000000000E+00 0.  1.
          1   -1    0    0  501    0  0.00000000000E+00 -0.00000000000E+00 -0.51782375512E+03  0.51782375512E+03  0.00000000000E+00 0. -1.
        -24    2    1    2    0    0 -0.54406340864E+03  0.81748083638E+02 -0.51567220514E+02  0.55819145614E+03  0.78935300563E+02 0.  0.
        254    2    1    2    0    0  0.54406340864E+03 -0.81748083638E+02  0.94543880405E+03  0.13713276376E+04  0.82704124187E+03 0.  0.
         23    2    4    4    0    0  0.22829426800E+02 -0.37184750723E+03  0.44679363105E+03  0.58867202788E+03  0.90102476645E+02 0.  0.
         23    2    4    4    0    0  0.52123398184E+03  0.29009942360E+03  0.49864517300E+03  0.78265560976E+03  0.89778925910E+02 0.  0.
          3    1    3    3  502    0 -0.45203087619E+03  0.54222354716E+02 -0.15349533085E+02  0.45553000445E+03  0.00000000000E+00 0. -1.
         -4    1    3    3    0  502 -0.92032532447E+02  0.27525728922E+02 -0.36217687429E+02  0.10266145169E+03  0.00000000000E+00 0.  1.
         11    1    5    5    0    0  0.51455798961E+02 -0.15798131155E+03  0.21918867838E+03  0.27504448872E+03  0.00000000000E+00 0. -1.
        -11    1    5    5    0    0 -0.28626372161E+02 -0.21386619568E+03  0.22760495267E+03  0.31362753916E+03  0.00000000000E+00 0.  1.
          4    1    6    6  503    0  0.19273396007E+03  0.11470927457E+03  0.13295461905E+03  0.26073267491E+03  0.00000000000E+00 0. -1.
         -4    1    6    6    0  503  0.32850002177E+03  0.17539014903E+03  0.36569055395E+03  0.52192293486E+03  0.00000000000E+00 0.  1.
<mgrwt>
<rscale>  0 0.17099817E+04</rscale>
<asrwt>0</asrwt>
<pdfrwt beam="1">  1        1 0.79665194E-01 0.17099817E+04</pdfrwt>
<pdfrwt beam="2">  1       -2 0.21718390E+00 0.17099817E+04</pdfrwt>
<totfact> 0.36148531E+00</totfact>
</mgrwt>
</event>
<event>
12    4  0.4381187E-008  0.1267754E+04  0.7818608E-02  0.9055535E-01
          1   -1    0    0  501    0  0.00000000000E+00  0.00000000000E+00  0.68090044009E+03  0.68090044009E+03  0.00000000000E+00 0. -1.
         -2   -1    0    0    0  501 -0.00000000000E+00 -0.00000000000E+00 -0.59010072631E+03  0.59010072631E+03  0.00000000000E+00 0.  1.
        -24    2    1    2    0    0  0.17597183690E+03  0.25125606594E+03  0.22388742666E+02  0.31775526444E+03  0.79821389537E+02 0.  0.
        254    2    1    2    0    0 -0.17597183690E+03 -0.25125606594E+03  0.68410971114E+02  0.95324590197E+03  0.89994554869E+03 0.  0.
         23    2    4    4    0    0 -0.15252122515E+03 -0.35580926216E+03  0.41658361402E+03  0.57604000674E+03  0.91745445284E+02 0.  0.
         23    2    4    4    0    0 -0.23450611753E+02  0.10455319622E+03 -0.34817264291E+03  0.37720589523E+03  0.97871324185E+02 0.  0.
          3    1    3    3  502    0  0.47359165253E+02  0.73956727153E+02  0.42943545855E+02  0.97758049057E+02  0.00000000000E+00 0. -1.
         -4    1    3    3    0  502  0.12861267165E+03  0.17729933878E+03 -0.20554803189E+02  0.21999721538E+03  0.00000000000E+00 0.  1.
         11    1    5    5    0    0 -0.13408804619E+02 -0.11814272106E+02 -0.38541257908E+00  0.17875167400E+02  0.00000000000E+00 0. -1.
        -11    1    5    5    0    0 -0.13911242053E+03 -0.34399499005E+03  0.41696902660E+03  0.55816483934E+03  0.00000000000E+00 0.  1.
          1    1    6    6  503    0 -0.50513986833E+02  0.20090101141E+02 -0.16429775356E+03  0.17305787140E+03  0.00000000000E+00 0. -1.
         -1    1    6    6    0  503  0.27063375080E+02  0.84463095080E+02 -0.18387488935E+03  0.20414802383E+03  0.00000000000E+00 0.  1.
<mgrwt>
<rscale>  0 0.12677537E+04</rscale>
<asrwt>0</asrwt>
<pdfrwt beam="1">  1        1 0.10475391E+00 0.12677537E+04</pdfrwt>
<pdfrwt beam="2">  1       -2 0.90784728E-01 0.12677537E+04</pdfrwt>
<totfact> 0.25382191E+01</totfact>
</mgrwt>
</event>
<event>
12    4  0.4381187E-008  0.2957513E+04  0.7818608E-02  0.8255968E-01
          1   -1    0    0  501    0  0.00000000000E+00  0.00000000000E+00  0.13657843459E+04  0.13657843459E+04  0.00000000000E+00 0. -1.
         -2   -1    0    0    0  501 -0.00000000000E+00 -0.00000000000E+00 -0.16010736110E+04  0.16010736110E+04  0.00000000000E+00 0.  1.
        -24    2    1    2    0    0  0.12412698533E+04  0.56721960716E+02 -0.60967595952E+03  0.13863753586E+04  0.79772361893E+02 0.  0.
        254    2    1    2    0    0 -0.12412698533E+04 -0.56721960716E+02  0.37438669440E+03  0.15804825982E+04  0.90210399442E+03 0.  0.
         23    2    4    4    0    0 -0.40788893258E+03 -0.21066695446E+03  0.53773168452E+03  0.71278119565E+03  0.90264729047E+02 0.  0.
         23    2    4    4    0    0 -0.83338092075E+03  0.15394499374E+03 -0.16334499012E+03  0.86770140258E+03  0.89450087049E+02 0.  0.
          3    1    3    3  502    0  0.42797010179E+01 -0.27180972089E+01 -0.81534979953E+01  0.96012198600E+01  0.00000000000E+00 0. -1.
         -4    1    3    3    0  502  0.12369901523E+04  0.59440057925E+02 -0.60152246153E+03  0.13767741387E+04  0.00000000000E+00 0.  1.
         11    1    5    5    0    0 -0.35145009077E+03 -0.17089245931E+03  0.49831400904E+03  0.63327580924E+03  0.00000000000E+00 0.  1.
        -11    1    5    5    0    0 -0.56438841807E+02 -0.39774495144E+02  0.39417675478E+02  0.79505386412E+02  0.00000000000E+00 0. -1.
          4    1    6    6  503    0 -0.30204776676E+03  0.80372427377E+02 -0.23904727216E+02  0.31347091806E+03  0.00000000000E+00 0. -1.
         -4    1    6    6    0  503 -0.53133315399E+03  0.73572566365E+02 -0.13944026290E+03  0.55423048452E+03  0.00000000000E+00 0.  1.
<mgrwt>
<rscale>  0 0.29575133E+04</rscale>
<asrwt>0</asrwt>
<pdfrwt beam="1">  1        1 0.21012067E+00 0.29575133E+04</pdfrwt>
<pdfrwt beam="2">  1       -2 0.24631902E+00 0.29575133E+04</pdfrwt>
<totfact> 0.41240249E-01</totfact>
</mgrwt>
</event>
<event>
12    4  0.4381187E-008  0.1258350E+04  0.7818608E-02  0.9063262E-01
          1   -1    0    0  501    0  0.00000000000E+00  0.00000000000E+00  0.80876977797E+03  0.80876977797E+03  0.00000000000E+00 0. -1.
         -2   -1    0    0    0  501 -0.00000000000E+00 -0.00000000000E+00 -0.48946125352E+03  0.48946125352E+03  0.00000000000E+00 0.  1.
        -24    2    1    2    0    0  0.31799133454E+02  0.20550002605E+03 -0.14022648395E+03  0.26299392808E+03  0.79125810022E+02 0.  0.
        254    2    1    2    0    0 -0.31799133454E+02 -0.20550002605E+03  0.45953500840E+03  0.10352371034E+04  0.90404755999E+03 0.  0.
         23    2    4    4    0    0  0.90464257451E+02 -0.14807796971E+03 -0.24389462479E+03  0.31266770314E+03  0.90363917563E+02 0.  0.
         23    2    4    4    0    0 -0.12226339090E+03 -0.57422056341E+02  0.70342963319E+03  0.72256940026E+03  0.95119188554E+02 0.  0.
          1    1    3    3  502    0  0.36949829286E+02  0.44898093637E+02 -0.59410474775E+02  0.83130819853E+02  0.00000000000E+00 0. -1.
         -2    1    3    3    0  502 -0.51506958319E+01  0.16060193241E+03 -0.80816009172E+02  0.17986310823E+03  0.00000000000E+00 0.  1.
         11    1    5    5    0    0  0.11113599539E+02 -0.43800467447E+02 -0.13476800361E+03  0.14214220992E+03  0.00000000000E+00 0. -1.
        -11    1    5    5    0    0  0.79350657912E+02 -0.10427750226E+03 -0.10912662118E+03  0.17052549322E+03  0.00000000000E+00 0.  1.
          4    1    6    6  503    0 -0.13752128518E+02 -0.40457547422E+02  0.34648378643E+03  0.34910879170E+03  0.00000000000E+00 0. -1.
         -4    1    6    6    0  503 -0.10851126239E+03 -0.16964508919E+02  0.35694584676E+03  0.37346060856E+03  0.00000000000E+00 0.  1.
<mgrwt>
<rscale>  0 0.12583505E+04</rscale>
<asrwt>0</asrwt>
<pdfrwt beam="1">  1        1 0.12442612E+00 0.12583505E+04</pdfrwt>
<pdfrwt beam="2">  1       -2 0.75301731E-01 0.12583505E+04</pdfrwt>
<totfact> 0.29693832E+01</totfact>
</mgrwt>
</event>
<event>
12    4  0.4381187E-008  0.1160783E+04  0.7818608E-02  0.9147893E-01
         -2   -1    0    0    0  501 -0.00000000000E+00  0.00000000000E+00  0.29417141031E+03  0.29417141031E+03  0.00000000000E+00 0.  1.
          1   -1    0    0  501    0  0.00000000000E+00 -0.00000000000E+00 -0.11450952513E+04  0.11450952513E+04  0.00000000000E+00 0. -1.
        -24    2    1    2    0    0 -0.21663724573E+03 -0.16994794812E+02 -0.17913780932E+03  0.29253596971E+03  0.79160719805E+02 0.  0.
        254    2    1    2    0    0  0.21663724573E+03  0.16994794812E+02 -0.67178603163E+03  0.11467306918E+04  0.90358966796E+03 0.  0.
         23    2    4    4    0    0 -0.16034637498E+03  0.23607035489E+03  0.45235730106E+02  0.30260711965E+03  0.89914543639E+02 0.  0.
         23    2    4    4    0    0  0.37698362071E+03 -0.21907556008E+03 -0.71702176174E+03  0.84412357220E+03  0.91179202859E+02 0.  0.
          1    1    3    3  502    0 -0.16352195002E+03  0.19146965363E+02 -0.14693544212E+03  0.22067183457E+03  0.00000000000E+00 0. -1.
         -2    1    3    3    0  502 -0.53115295708E+02 -0.36141760175E+02 -0.32202367202E+02  0.71864135144E+02  0.00000000000E+00 0.  1.
         11    1    5    5    0    0 -0.16317472723E+02  0.56609032814E+02 -0.21980614240E+02  0.62880759494E+02  0.00000000000E+00 0. -1.
        -11    1    5    5    0    0 -0.14402890225E+03  0.17946132207E+03  0.67216344346E+02  0.23972636015E+03  0.00000000000E+00 0.  1.
          1    1    6    6  503    0  0.13538434792E+03 -0.12722542363E+03 -0.26967434384E+03  0.32747439870E+03  0.00000000000E+00 0. -1.
         -1    1    6    6    0  503  0.24159927279E+03 -0.91850136445E+02 -0.44734741790E+03  0.51664917350E+03  0.00000000000E+00 0.  1.
<mgrwt>
<rscale>  0 0.11607830E+04</rscale>
<asrwt>0</asrwt>
<pdfrwt beam="1">  1        1 0.17616850E+00 0.11607830E+04</pdfrwt>
<pdfrwt beam="2">  1       -2 0.45257139E-01 0.11607830E+04</pdfrwt>
<totfact> 0.47256742E+01</totfact>
</mgrwt>
</event>
<event>
12    4  0.4381187E-008  0.2005348E+04  0.7818608E-02  0.8604124E-01
          1   -1    0    0  501    0  0.00000000000E+00  0.00000000000E+00  0.52869269496E+03  0.52869269496E+03  0.00000000000E+00 0. -1.
         -2   -1    0    0    0  501 -0.00000000000E+00 -0.00000000000E+00 -0.19015867696E+04  0.19015867696E+04  0.00000000000E+00 0.  1.
        -24    2    1    2    0    0 -0.40618892150E+03  0.50372448273E+03 -0.11151081231E+04  0.12913270385E+04  0.73017803299E+02 0.  0.
        254    2    1    2    0    0  0.40618892150E+03 -0.50372448273E+03 -0.25778595153E+03  0.11389524261E+04  0.90112775878E+03 0.  0.
         23    2    4    4    0    0 -0.11031655370E+03  0.21563597313E+02 -0.36139976854E+03  0.38940308224E+03  0.91598236950E+02 0.  0.
         23    2    4    4    0    0  0.51650547520E+03 -0.52528808005E+03  0.10361381701E+03  0.74954934385E+03  0.91558302943E+02 0.  0.
          3    1    3    3  502    0 -0.80303809237E+02  0.74519646425E+02 -0.14699865388E+03  0.18333162227E+03  0.00000000000E+00 0. -1.
         -4    1    3    3    0  502 -0.32588511226E+03  0.42920483631E+03 -0.96810946926E+03  0.11079954162E+04  0.00000000000E+00 0.  1.
         11    1    5    5    0    0  0.47853305721E+01  0.15449501947E+02 -0.87389568481E+01  0.18383575982E+02  0.00000000000E+00 0. -1.
        -11    1    5    5    0    0 -0.11510188427E+03  0.61140953665E+01 -0.35266081169E+03  0.37101950626E+03  0.00000000000E+00 0.  1.
          3    1    6    6  503    0  0.34675849263E+03 -0.39873702794E+03  0.47769466190E+02  0.53057948656E+03  0.00000000000E+00 0. -1.
         -3    1    6    6    0  503  0.16974698257E+03 -0.12655105210E+03  0.55844350817E+02  0.21896985729E+03  0.00000000000E+00 0.  1.
<mgrwt>
<rscale>  0 0.20053479E+04</rscale>
<asrwt>0</asrwt>
<pdfrwt beam="1">  1        1 0.81337338E-01 0.20053479E+04</pdfrwt>
<pdfrwt beam="2">  1       -2 0.29255181E+00 0.20053479E+04</pdfrwt>
<totfact> 0.11760692E+00</totfact>
</mgrwt>
</event>
<event>
12    4  0.4381187E-008  0.2648737E+04  0.7818608E-02  0.8351832E-01
          1   -1    0    0  501    0  0.00000000000E+00  0.00000000000E+00  0.21341116612E+04  0.21341116612E+04  0.00000000000E+00 0. -1.
         -2   -1    0    0    0  501 -0.00000000000E+00 -0.00000000000E+00 -0.82186511935E+03  0.82186511935E+03  0.00000000000E+00 0.  1.
        -24    2    1    2    0    0  0.65774730994E+03  0.22928783170E+03  0.16316422540E+04  0.17759303547E+04  0.80422299669E+02 0.  0.
        254    2    1    2    0    0 -0.65774730994E+03 -0.22928783170E+03 -0.31939571216E+03  0.11800464258E+04  0.89738036119E+03 0.  0.
         23    2    4    4    0    0 -0.36791307876E+03 -0.26768548144E+03 -0.60421560652E+03  0.76168592686E+03  0.89852109112E+02 0.  0.
         23    2    4    4    0    0 -0.28983423119E+03  0.38397649743E+02  0.28481989436E+03  0.41836049897E+03  0.91787111281E+02 0.  0.
          3    1    3    3  502    0  0.65102722564E+03  0.22379263391E+03  0.16255827503E+04  0.17653438389E+04  0.00000000000E+00 0. -1.
         -4    1    3    3    0  502  0.67200842997E+01  0.54951977830E+01  0.60595036765E+01  0.10586515785E+02  0.00000000000E+00 0.  1.
         11    1    5    5    0    0 -0.22036097018E+03 -0.17641262686E+03 -0.44020849815E+03  0.52293775341E+03  0.00000000000E+00 0. -1.
        -11    1    5    5    0    0 -0.14755210858E+03 -0.91272854583E+02 -0.16400710837E+03  0.23874817345E+03  0.00000000000E+00 0.  1.
          2    1    6    6  503    0 -0.25036692620E+03  0.24706869061E+02  0.27981854366E+03  0.37628771504E+03  0.00000000000E+00 0. -1.
         -2    1    6    6    0  503 -0.39467304987E+02  0.13690780682E+02  0.50013507040E+01  0.42072783928E+02  0.00000000000E+00 0.  1.
<mgrwt>
<rscale>  0 0.26487370E+04</rscale>
<asrwt>0</asrwt>
<pdfrwt beam="1">  1        1 0.32832487E+00 0.26487370E+04</pdfrwt>
<pdfrwt beam="2">  1       -2 0.12644079E+00 0.26487370E+04</pdfrwt>
<totfact> 0.86756293E-01</totfact>
</mgrwt>
</event>
<event>
12    4  0.4381187E-008  0.1637522E+04  0.7818608E-02  0.8797823E-01
          1   -1    0    0  501    0  0.00000000000E+00  0.00000000000E+00  0.28788306163E+04  0.28788306163E+04  0.00000000000E+00 0. -1.
         -2   -1    0    0    0  501 -0.00000000000E+00 -0.00000000000E+00 -0.23286172627E+03  0.23286172627E+03  0.00000000000E+00 0.  1.
        -24    2    1    2    0    0 -0.35881244198E+03 -0.59896257542E+02  0.17002028979E+04  0.17404866935E+04  0.79184002641E+02 0.  0.
        254    2    1    2    0    0  0.35881244198E+03  0.59896257542E+02  0.94576599220E+03  0.13712056491E+04  0.92379526403E+03 0.  0.
         23    2    4    4    0    0  0.59932635658E+02  0.20396469533E+03 -0.11222637716E+03  0.25880208042E+03  0.95865736012E+02 0.  0.
         23    2    4    4    0    0  0.29887980632E+03 -0.14406843779E+03  0.10579923694E+04  0.11124035686E+04  0.89492974735E+02 0.  0.
          3    1    3    3  502    0 -0.31388020414E+03 -0.51045906407E+02  0.13313694370E+04  0.13688210419E+04  0.00000000000E+00 0. -1.
         -4    1    3    3    0  502 -0.44932237839E+02 -0.88503511356E+01  0.36883346088E+03  0.37166565160E+03  0.00000000000E+00 0.  1.
         11    1    5    5    0    0 -0.14715782813E+01 -0.99577688711E+01 -0.88555151726E+01  0.13406821118E+02  0.00000000000E+00 0.  1.
        -11    1    5    5    0    0  0.61404213940E+02  0.21392246420E+03 -0.10337086198E+03  0.24539525930E+03  0.00000000000E+00 0. -1.
          2    1    6    6  503    0  0.14886530150E+03 -0.11841107601E+03  0.63421864670E+03  0.66212940785E+03  0.00000000000E+00 0. -1.
         -2    1    6    6    0  503  0.15001450482E+03 -0.25657361778E+02  0.42377372266E+03  0.45027416080E+03  0.00000000000E+00 0.  1.
<mgrwt>
<rscale>  0 0.16375219E+04</rscale>
<asrwt>0</asrwt>
<pdfrwt beam="1">  1        1 0.44289699E+00 0.16375219E+04</pdfrwt>
<pdfrwt beam="2">  1       -2 0.35824883E-01 0.16375219E+04</pdfrwt>
<totfact> 0.45204811E+00</totfact>
</mgrwt>
</event>
<event>
12    4  0.4381187E-008  0.2413174E+04  0.7818608E-02  0.8434588E-01
         -2   -1    0    0    0  501 -0.00000000000E+00  0.00000000000E+00  0.12366775116E+04  0.12366775116E+04  0.00000000000E+00 0.  1.
          1   -1    0    0  501    0  0.00000000000E+00 -0.00000000000E+00 -0.11772286126E+04  0.11772286126E+04  0.00000000000E+00 0. -1.
        -24    2    1    2    0    0  0.20267247591E+03  0.86627757621E+03  0.55957938338E+03  0.10541212359E+04  0.80805458565E+02 0.  0.
        254    2    1    2    0    0 -0.20267247591E+03 -0.86627757621E+03 -0.50013048438E+03  0.13597848883E+04  0.89853851866E+03 0.  0.
         23    2    4    4    0    0  0.21955398631E+03 -0.79011780389E+03 -0.31126152943E+03  0.88198030975E+03  0.92279088361E+02 0.  0.
         23    2    4    4    0    0 -0.42222646222E+03 -0.76159772320E+02 -0.18886895495E+03  0.47780457856E+03  0.92467490678E+02 0.  0.
          3    1    3    3  502    0  0.76531808207E+02  0.18063586094E+03  0.12421844082E+03  0.23219959725E+03  0.00000000000E+00 0. -1.
         -4    1    3    3    0  502  0.12614066770E+03  0.68564171527E+03  0.43536094256E+03  0.82192163864E+03  0.00000000000E+00 0.  1.
         11    1    5    5    0    0  0.48177322304E+02 -0.10919644548E+03 -0.75834098350E+02  0.14140625362E+03  0.00000000000E+00 0.  1.
        -11    1    5    5    0    0  0.17137666400E+03 -0.68092135841E+03 -0.23542743108E+03  0.74057405613E+03  0.00000000000E+00 0. -1.
          3    1    6    6  503    0 -0.36530309842E+03 -0.96545971377E+02 -0.15413964027E+03  0.40807659453E+03  0.00000000000E+00 0. -1.
         -3    1    6    6    0  503 -0.56923363797E+02  0.20386199057E+02 -0.34729314684E+02  0.69727984026E+02  0.00000000000E+00 0.  1.
<mgrwt>
<rscale>  0 0.24131740E+04</rscale>
<asrwt>0</asrwt>
<pdfrwt beam="1">  1        1 0.18111209E+00 0.24131740E+04</pdfrwt>
<pdfrwt beam="2">  1       -2 0.19025808E+00 0.24131740E+04</pdfrwt>
<totfact> 0.13463396E+00</totfact>
</mgrwt>
</event>
<event>
12    4  0.4381187E-008  0.1555569E+04  0.7818608E-02  0.8848318E-01
          1   -1    0    0  501    0  0.00000000000E+00  0.00000000000E+00  0.16493837220E+04  0.16493837220E+04  0.00000000000E+00 0. -1.
         -2   -1    0    0    0  501 -0.00000000000E+00 -0.00000000000E+00 -0.36677266210E+03  0.36677266210E+03  0.00000000000E+00 0.  1.
        -24    2    1    2    0    0 -0.13004869257E+03  0.48259421967E+03  0.25185281900E+03  0.56398493941E+03  0.69565265353E+02 0.  0.
        254    2    1    2    0    0  0.13004869257E+03 -0.48259421967E+03  0.10307582409E+04  0.14521714447E+04  0.89248501964E+03 0.  0.
         23    2    4    4    0    0 -0.35863537092E+03 -0.27429863572E+03  0.32750980303E+03  0.56612597707E+03  0.96834291452E+02 0.  0.
         23    2    4    4    0    0  0.48868406349E+03 -0.20829558395E+03  0.70324843791E+03  0.88604546764E+03  0.91208777606E+02 0.  0.
          3    1    3    3  502    0 -0.25446354746E+02  0.34677684454E+02  0.35040775077E+02  0.55478957154E+02  0.00000000000E+00 0. -1.
         -4    1    3    3    0  502 -0.10460233782E+03  0.44791653522E+03  0.21681204392E+03  0.50850598226E+03  0.00000000000E+00 0.  1.
         11    1    5    5    0    0 -0.25011301536E+03 -0.17518219852E+03  0.27226374124E+03  0.40911229256E+03  0.00000000000E+00 0.  1.
        -11    1    5    5    0    0 -0.10852235556E+03 -0.99116437208E+02  0.55246061790E+02  0.15701368452E+03  0.00000000000E+00 0. -1.
          4    1    6    6  503    0  0.28446559268E+03 -0.15566479835E+03  0.37349529220E+03  0.49462201342E+03  0.00000000000E+00 0.  1.
         -4    1    6    6    0  503  0.20421847080E+03 -0.52630785599E+02  0.32975314571E+03  0.39142345422E+03  0.00000000000E+00 0. -1.
<mgrwt>
<rscale>  0 0.15555692E+04</rscale>
<asrwt>0</asrwt>
<pdfrwt beam="1">  1        1 0.25375134E+00 0.15555692E+04</pdfrwt>
<pdfrwt beam="2">  1       -2 0.56426564E-01 0.15555692E+04</pdfrwt>
<totfact> 0.12856831E+01</totfact>
</mgrwt>
</event>
<event>
12    4  0.4381187E-008  0.1504974E+04  0.7818608E-02  0.8881152E-01
         -2   -1    0    0    0  501 -0.00000000000E+00  0.00000000000E+00  0.84648408049E+03  0.84648408049E+03  0.00000000000E+00 0.  1.
          1   -1    0    0  501    0  0.00000000000E+00 -0.00000000000E+00 -0.66892796262E+03  0.66892796262E+03  0.00000000000E+00 0. -1.
        -24    2    1    2    0    0 -0.37983367034E+03 -0.26286845679E+03  0.21254364249E+03  0.51473602708E+03  0.80030837262E+02 0.  0.
        254    2    1    2    0    0  0.37983367034E+03  0.26286845679E+03 -0.34987524612E+02  0.10006760160E+04  0.88699206281E+03 0.  0.
         23    2    4    4    0    0  0.17182090300E+03 -0.11290669776E+03 -0.38052474825E+03  0.44130102236E+03  0.87619422480E+02 0.  0.
         23    2    4    4    0    0  0.20801276734E+03  0.37577515455E+03  0.34553722364E+03  0.55937499368E+03  0.95016485286E+02 0.  0.
          3    1    3    3  502    0 -0.37757877161E+03 -0.25138407425E+03  0.19522697867E+03  0.49383525062E+03  0.00000000000E+00 0. -1.
         -4    1    3    3    0  502 -0.22548987277E+01 -0.11484382538E+02  0.17316663821E+02  0.20900776456E+02  0.00000000000E+00 0.  1.
         11    1    5    5    0    0  0.70948151603E+02 -0.37402710538E+02 -0.71007801427E+02  0.10712007671E+03  0.00000000000E+00 0. -1.
        -11    1    5    5    0    0  0.10087275139E+03 -0.75503987224E+02 -0.30951694682E+03  0.33418094564E+03  0.00000000000E+00 0.  1.
          2    1    6    6  503    0  0.76132793970E+02  0.64069329957E+02  0.10130772325E+03  0.14200118362E+03  0.00000000000E+00 0. -1.
         -2    1    6    6    0  503  0.13187997337E+03  0.31170582460E+03  0.24422950038E+03  0.41737381006E+03  0.00000000000E+00 0.  1.
<mgrwt>
<rscale>  0 0.15049742E+04</rscale>
<asrwt>0</asrwt>
<pdfrwt beam="1">  1        1 0.10291199E+00 0.15049742E+04</pdfrwt>
<pdfrwt beam="2">  1       -2 0.13022832E+00 0.15049742E+04</pdfrwt>
<totfact> 0.10676297E+01</totfact>
</mgrwt>
</event>
<event>
12    4  0.4381187E-008  0.1731130E+04  0.7818608E-02  0.8743806E-01
          1   -1    0    0  501    0  0.00000000000E+00  0.00000000000E+00  0.42646100962E+03  0.42646100962E+03  0.00000000000E+00 0. -1.
         -2   -1    0    0    0  501 -0.00000000000E+00 -0.00000000000E+00 -0.17567903328E+04  0.17567903328E+04  0.00000000000E+00 0.  1.
        -24    2    1    2    0    0 -0.52674943374E+02 -0.55475666716E+03 -0.84456803791E+03  0.10149777687E+04  0.79718823228E+02 0.  0.
        254    2    1    2    0    0  0.52674943374E+02  0.55475666716E+03 -0.48576128530E+03  0.11682735738E+04  0.90463777697E+03 0.  0.
         23    2    4    4    0    0 -0.12709558864E+03 -0.21069568426E+03 -0.60755957309E+02  0.26979871357E+03  0.92488374816E+02 0.  0.
         23    2    4    4    0    0  0.17977053202E+03  0.76545235142E+03 -0.42500532800E+03  0.89847486023E+03  0.91612221688E+02 0.  0.
          1    1    3    3  502    0 -0.24999539915E+02 -0.20262974914E+03 -0.24305002992E+03  0.31742260360E+03  0.00000000000E+00 0. -1.
         -2    1    3    3    0  502 -0.27675403459E+02 -0.35212691802E+03 -0.60151800800E+03  0.69755516505E+03  0.00000000000E+00 0.  1.
         11    1    5    5    0    0 -0.17508945440E+02 -0.17695390396E+02  0.21710432069E+02  0.33030786734E+02  0.00000000000E+00 0. -1.
        -11    1    5    5    0    0 -0.10958664320E+03 -0.19300029387E+03 -0.82466389377E+02  0.23676792684E+03  0.00000000000E+00 0.  1.
          2    1    6    6  503    0  0.44742213181E+02  0.69503495690E+02 -0.45870555920E+02  0.94534170826E+02  0.00000000000E+00 0. -1.
         -2    1    6    6    0  503  0.13502831884E+03  0.69594885573E+03 -0.37913477208E+03  0.80394068940E+03  0.00000000000E+00 0.  1.
<mgrwt>
<rscale>  0 0.17311298E+04</rscale>
<asrwt>0</asrwt>
<pdfrwt beam="1">  1        1 0.65609384E-01 0.17311298E+04</pdfrwt>
<pdfrwt beam="2">  1       -2 0.27027544E+00 0.17311298E+04</pdfrwt>
<totfact> 0.22083663E+00</totfact>
</mgrwt>
</event>
<event>
12    4  0.4381187E-008  0.1142435E+04  0.7818608E-02  0.9164791E-01
          1   -1    0    0  501    0  0.00000000000E+00  0.00000000000E+00  0.14184474149E+04  0.14184474149E+04  0.00000000000E+00 0. -1.
         -2   -1    0    0    0  501 -0.00000000000E+00 -0.00000000000E+00 -0.23003297517E+03  0.23003297517E+03  0.00000000000E+00 0.  1.
        -24    2    1    2    0    0 -0.17473662142E+03  0.44343043346E+02  0.24937025636E+03  0.32315758526E+03  0.98722377406E+02 0.  0.
        254    2    1    2    0    0  0.17473662142E+03 -0.44343043346E+02  0.93904418340E+03  0.13253228048E+04  0.91770222090E+03 0.  0.
         23    2    4    4    0    0  0.28190352176E+03 -0.18054382464E+02 -0.72131206473E+02  0.30420215978E+03  0.86835976170E+02 0.  0.
         23    2    4    4    0    0 -0.10716690035E+03 -0.26288660882E+02  0.10111753899E+04  0.10211206450E+04  0.89642983191E+02 0.  0.
          1    1    3    3  502    0 -0.61700089484E+02 -0.25268055938E+02  0.12282470809E+03  0.13975437242E+03  0.00000000000E+00 0. -1.
         -2    1    3    3    0  502 -0.11303653193E+03  0.69611099284E+02  0.12654554826E+03  0.18340321284E+03  0.00000000000E+00 0.  1.
         11    1    5    5    0    0  0.78062548845E+02  0.33996803797E+02 -0.21091391297E+02  0.87717677736E+02  0.00000000000E+00 0. -1.
        -11    1    5    5    0    0  0.20384097292E+03 -0.52051186262E+02 -0.51039815176E+02  0.21648448204E+03  0.00000000000E+00 0.  1.
          4    1    6    6  503    0  0.11732656250E+02  0.12459036094E+02  0.12212947707E+03  0.12332271475E+03  0.00000000000E+00 0. -1.
         -4    1    6    6    0  503 -0.11889955660E+03 -0.38747696975E+02  0.88904591280E+03  0.89779793030E+03  0.00000000000E+00 0.  1.
<mgrwt>
<rscale>  0 0.11424354E+04</rscale>
<asrwt>0</asrwt>
<pdfrwt beam="1">  1        1 0.21822267E+00 0.11424354E+04</pdfrwt>
<pdfrwt beam="2">  1       -2 0.35389689E-01 0.11424354E+04</pdfrwt>
<totfact> 0.48746257E+01</totfact>
</mgrwt>
</event>
<event>
12    4  0.4381187E-008  0.1454444E+04  0.7818608E-02  0.8915326E-01
         -2   -1    0    0    0  501 -0.00000000000E+00  0.00000000000E+00  0.22566441724E+03  0.22566441724E+03  0.00000000000E+00 0.  1.
          1   -1    0    0  501    0  0.00000000000E+00 -0.00000000000E+00 -0.23435311806E+04  0.23435311806E+04  0.00000000000E+00 0. -1.
        -24    2    1    2    0    0 -0.23019757291E+03 -0.38149487956E+03 -0.70187360579E+03  0.83514439836E+03  0.79437660485E+02 0.  0.
        254    2    1    2    0    0  0.23019757291E+03  0.38149487956E+03 -0.14159931576E+04  0.17340511995E+04  0.89630780118E+03 0.  0.
         23    2    4    4    0    0 -0.77408463942E+02  0.56882821799E+03 -0.59001013878E+03  0.82838083411E+03  0.92440416410E+02 0.  0.
         23    2    4    4    0    0  0.30760603685E+03 -0.18733333843E+03 -0.82598301880E+03  0.90567036539E+03  0.90970378694E+02 0.  0.
          3    1    3    3  502    0 -0.12971439720E+03 -0.19103812664E+03 -0.43244898750E+03  0.49023822521E+03  0.00000000000E+00 0. -1.
         -4    1    3    3    0  502 -0.10048317571E+03 -0.19045675292E+03 -0.26942461829E+03  0.34490617314E+03  0.00000000000E+00 0.  1.
         11    1    5    5    0    0 -0.32121632532E+02  0.42118412005E+03 -0.38360692286E+03  0.57059804901E+03  0.00000000000E+00 0. -1.
        -11    1    5    5    0    0 -0.45286831410E+02  0.14764409794E+03 -0.20640321592E+03  0.25778278510E+03  0.00000000000E+00 0.  1.
          3    1    6    6  503    0  0.20767366021E+03 -0.17081448988E+03 -0.56510417134E+03  0.62581839503E+03  0.00000000000E+00 0. -1.
         -3    1    6    6    0  503  0.99932376637E+02 -0.16518848554E+02 -0.26087884746E+03  0.27985197035E+03  0.00000000000E+00 0.  1.
<mgrwt>
<rscale>  0 0.14544437E+04</rscale>
<asrwt>0</asrwt>
<pdfrwt beam="1">  1        1 0.36054326E+00 0.14544437E+04</pdfrwt>
<pdfrwt beam="2">  1       -2 0.34717602E-01 0.14544437E+04</pdfrwt>
<totfact> 0.11548348E+01</totfact>
</mgrwt>
</event>
<event>
12    4  0.4381187E-008  0.1433267E+04  0.7818608E-02  0.8930084E-01
         -2   -1    0    0    0  501 -0.00000000000E+00  0.00000000000E+00  0.31604576084E+03  0.31604576084E+03  0.00000000000E+00 0.  1.
          1   -1    0    0  501    0  0.00000000000E+00 -0.00000000000E+00 -0.16249648453E+04  0.16249648453E+04  0.00000000000E+00 0. -1.
        -24    2    1    2    0    0  0.37056124029E+03 -0.22754161210E+03 -0.29087404639E+03  0.52923166352E+03  0.79922617381E+02 0.  0.
        254    2    1    2    0    0 -0.37056124029E+03  0.22754161210E+03 -0.10180450380E+04  0.14117789426E+04  0.87613541488E+03 0.  0.
         23    2    4    4    0    0 -0.35274712140E+03  0.41082777281E+03 -0.22735876247E+03  0.59471815722E+03  0.93742674832E+02 0.  0.
         23    2    4    4    0    0 -0.17814118881E+02 -0.18328616071E+03 -0.79068627556E+03  0.81706078535E+03  0.92154115841E+02 0.  0.
          1    1    3    3  502    0  0.18467198450E+03 -0.13954927649E+03 -0.19343479875E+03  0.30165338353E+03  0.00000000000E+00 0. -1.
         -2    1    3    3    0  502  0.18588925578E+03 -0.87992335610E+02 -0.97439247644E+02  0.22757827999E+03  0.00000000000E+00 0.  1.
         11    1    5    5    0    0 -0.24123764141E+03  0.31819687865E+03 -0.12936090048E+03  0.41973693641E+03  0.00000000000E+00 0.  1.
        -11    1    5    5    0    0 -0.11150947999E+03  0.92630894163E+02 -0.97997861987E+02  0.17498122081E+03  0.00000000000E+00 0. -1.
          1    1    6    6  503    0  0.12569165244E+02 -0.13521186034E+03 -0.40391931024E+03  0.42613500241E+03  0.00000000000E+00 0. -1.
         -1    1    6    6    0  503 -0.30383284125E+02 -0.48074300368E+02 -0.38676696532E+03  0.39092578294E+03  0.00000000000E+00 0.  1.
<mgrwt>
<rscale>  0 0.14332666E+04</rscale>
<asrwt>0</asrwt>
<pdfrwt beam="1">  1        1 0.24999459E+00 0.14332666E+04</pdfrwt>
<pdfrwt beam="2">  1       -2 0.48622425E-01 0.14332666E+04</pdfrwt>
<totfact> 0.18340988E+01</totfact>
</mgrwt>
</event>
<event>
12    4  0.4381187E-008  0.1514131E+04  0.7818608E-02  0.8875110E-01
          1   -1    0    0  501    0  0.00000000000E+00  0.00000000000E+00  0.35557628294E+03  0.35557628294E+03  0.00000000000E+00 0. -1.
         -2   -1    0    0    0  501 -0.00000000000E+00 -0.00000000000E+00 -0.16118850801E+04  0.16118850801E+04  0.00000000000E+00 0.  1.
        -24    2    1    2    0    0  0.25469726979E+03  0.16946158916E+03 -0.89750458339E+03  0.95149710344E+03  0.79021080774E+02 0.  0.
        254    2    1    2    0    0 -0.25469726979E+03 -0.16946158916E+03 -0.35880421380E+03  0.10159642596E+04  0.89991943169E+03 0.  0.
         23    2    4    4    0    0  0.14403631879E+03 -0.29051841116E+03  0.13621654630E+03  0.36244477569E+03  0.87543472537E+02 0.  0.
         23    2    4    4    0    0 -0.39873358859E+03  0.12105682199E+03 -0.49502076010E+03  0.65351948393E+03  0.91645698908E+02 0.  0.
          3    1    3    3  502    0  0.12601916381E+02  0.37864332787E+02 -0.13253430841E+03  0.13841191748E+03  0.00000000000E+00 0. -1.
         -4    1    3    3    0  502  0.24209535341E+03  0.13159725638E+03 -0.76497027498E+03  0.81308518596E+03  0.00000000000E+00 0.  1.
         11    1    5    5    0    0  0.11807616329E+03 -0.22223651966E+03  0.14236766378E+03  0.28913595885E+03  0.00000000000E+00 0. -1.
        -11    1    5    5    0    0  0.25960155507E+02 -0.68281891499E+02 -0.61511174808E+01  0.73308816843E+02  0.00000000000E+00 0.  1.
          3    1    6    6  503    0 -0.40542293516E+02  0.25024634618E+02 -0.22046666268E+02  0.52497289405E+02  0.00000000000E+00 0.  1.
         -3    1    6    6    0  503 -0.35819129507E+03  0.96032187376E+02 -0.47297409383E+03  0.60102219452E+03  0.00000000000E+00 0. -1.
<mgrwt>
<rscale>  0 0.15141309E+04</rscale>
<asrwt>0</asrwt>
<pdfrwt beam="1">  1        1 0.54704044E-01 0.15141309E+04</pdfrwt>
<pdfrwt beam="2">  1       -2 0.24798232E+00 0.15141309E+04</pdfrwt>
<totfact> 0.39179158E+00</totfact>
</mgrwt>
</event>
<event>
12    4  0.4381187E-008  0.1269367E+04  0.7818608E-02  0.9054217E-01
          1   -1    0    0  501    0  0.00000000000E+00  0.00000000000E+00  0.22985414083E+04  0.22985414083E+04  0.00000000000E+00 0. -1.
         -2   -1    0    0    0  501 -0.00000000000E+00 -0.00000000000E+00 -0.17525155889E+03  0.17525155889E+03  0.00000000000E+00 0.  1.
        -24    2    1    2    0    0 -0.18100268217E+03 -0.36964752027E+02  0.58862118584E+02  0.20973418128E+03  0.79970706806E+02 0.  0.
        254    2    1    2    0    0  0.18100268217E+03  0.36964752027E+02  0.20644277308E+04  0.22640587859E+04  0.91102797234E+03 0.  0.
         23    2    4    4    0    0 -0.10666875491E+03  0.53904999009E+02 -0.29339932758E+02  0.14854958500E+03  0.83199611515E+02 0.  0.
         23    2    4    4    0    0  0.28767143708E+03 -0.16940246982E+02  0.20937676635E+04  0.21155092009E+04  0.92056082844E+02 0.  0.
          1    1    3    3  502    0 -0.33690716070E+02 -0.35237320364E+02  0.36103354221E+02  0.60664530673E+02  0.00000000000E+00 0. -1.
         -2    1    3    3    0  502 -0.14731196610E+03 -0.17274316629E+01  0.22758764363E+02  0.14906965060E+03  0.00000000000E+00 0.  1.
         11    1    5    5    0    0 -0.66611439516E+02  0.70337502148E+02 -0.11420469840E+01  0.96880092662E+02  0.00000000000E+00 0. -1.
        -11    1    5    5    0    0 -0.40057315398E+02 -0.16432503139E+02 -0.28197885774E+02  0.51669492338E+02  0.00000000000E+00 0.  1.
          3    1    6    6  503    0  0.13919721857E+03 -0.52877791866E+02  0.95422509726E+03  0.96577298718E+03  0.00000000000E+00 0. -1.
         -3    1    6    6    0  503  0.14847421852E+03  0.35937544885E+02  0.11395425663E+04  0.11497362137E+04  0.00000000000E+00 0.  1.
<mgrwt>
<rscale>  0 0.12693667E+04</rscale>
<asrwt>0</asrwt>
<pdfrwt beam="1">  1        1 0.35362173E+00 0.12693667E+04</pdfrwt>
<pdfrwt beam="2">  1       -2 0.26961780E-01 0.12693667E+04</pdfrwt>
<totfact> 0.20223679E+01</totfact>
</mgrwt>
</event>
<event>
12    4  0.4381187E-008  0.1264647E+04  0.7818608E-02  0.9058080E-01
          1   -1    0    0  501    0  0.00000000000E+00  0.00000000000E+00  0.87780569482E+03  0.87780569482E+03  0.00000000000E+00 0. -1.
         -2   -1    0    0    0  501 -0.00000000000E+00 -0.00000000000E+00 -0.45549174399E+03  0.45549174399E+03  0.00000000000E+00 0.  1.
        -24    2    1    2    0    0  0.37045296310E+02 -0.92637091864E+01 -0.26510933040E+03  0.28006093674E+03  0.81810762934E+02 0.  0.
        254    2    1    2    0    0 -0.37045296310E+02  0.92637091864E+01  0.68742328123E+03  0.10532365021E+04  0.79705595251E+03 0.  0.
         23    2    4    4    0    0  0.11199374707E+03  0.35041853056E+03  0.49762914335E+03  0.62555858509E+03  0.91394929459E+02 0.  0.
         23    2    4    4    0    0 -0.14903904338E+03 -0.34115482138E+03  0.18979413788E+03  0.42767791698E+03  0.91034813668E+02 0.  0.
          1    1    3    3  502    0  0.14146065276E+02 -0.89739636829E+01 -0.30805445340E+01  0.17033289218E+02  0.00000000000E+00 0. -1.
         -2    1    3    3    0  502  0.22899231035E+02 -0.28974550346E+00 -0.26202878587E+03  0.26302764752E+03  0.00000000000E+00 0.  1.
         11    1    5    5    0    0  0.60952480785E+02  0.74659152781E+02  0.15838734424E+03  0.18540697081E+03  0.00000000000E+00 0. -1.
        -11    1    5    5    0    0  0.51041266283E+02  0.27575937778E+03  0.33924179911E+03  0.44015161429E+03  0.00000000000E+00 0.  1.
          3    1    6    6  503    0 -0.92030537064E+02 -0.21077703893E+03  0.66544348213E+02  0.23942583439E+03  0.00000000000E+00 0. -1.
         -3    1    6    6    0  503 -0.57008506314E+02 -0.13037778244E+03  0.12324978967E+03  0.18825208259E+03  0.00000000000E+00 0.  1.
<mgrwt>
<rscale>  0 0.12646474E+04</rscale>
<asrwt>0</asrwt>
<pdfrwt beam="1">  1        1 0.13504703E+00 0.12646474E+04</pdfrwt>
<pdfrwt beam="2">  1       -2 0.70075653E-01 0.12646474E+04</pdfrwt>
<totfact> 0.30394611E+01</totfact>
</mgrwt>
</event>
<event>
12    4  0.4381187E-008  0.2045928E+04  0.7818608E-02  0.8585444E-01
         -2   -1    0    0    0  501 -0.00000000000E+00  0.00000000000E+00  0.45680343889E+03  0.45680343889E+03  0.00000000000E+00 0.  1.
          1   -1    0    0  501    0  0.00000000000E+00 -0.00000000000E+00 -0.22908228958E+04  0.22908228958E+04  0.00000000000E+00 0. -1.
        -24    2    1    2    0    0 -0.42076024470E+03 -0.25508707778E+03 -0.15703895311E+04  0.16475228839E+04  0.78101042825E+02 0.  0.
        254    2    1    2    0    0  0.42076024470E+03  0.25508707778E+03 -0.26362992577E+03  0.11001034507E+04  0.94795477939E+03 0.  0.
         23    2    4    4    0    0 -0.15206731654E+03  0.16535433035E+03 -0.42677496299E+03  0.49068905432E+03  0.90401082232E+02 0.  0.
         23    2    4    4    0    0  0.57282756125E+03  0.89732747429E+02  0.16314503722E+03  0.60941439640E+03  0.92661871836E+02 0.  0.
          3    1    3    3  502    0 -0.40540020013E+03 -0.22595264820E+03 -0.14351183886E+04  0.15082999406E+04  0.00000000000E+00 0. -1.
         -4    1    3    3    0  502 -0.15360044572E+02 -0.29134429582E+02 -0.13527114252E+03  0.13922294335E+03  0.00000000000E+00 0.  1.
         11    1    5    5    0    0  0.74898163536E+01 -0.24872578722E+01 -0.32405727054E+02  0.33352885132E+02  0.00000000000E+00 0. -1.
        -11    1    5    5    0    0 -0.15955713290E+03  0.16784158822E+03 -0.39436923593E+03  0.45733616919E+03  0.00000000000E+00 0.  1.
          1    1    6    6  503    0  0.15326962639E+03 -0.16981311275E+02  0.39469436865E+02  0.15917845254E+03  0.00000000000E+00 0. -1.
         -1    1    6    6    0  503  0.41955793485E+03  0.10671405870E+03  0.12367560035E+03  0.45023594386E+03  0.00000000000E+00 0.  1.
<mgrwt>
<rscale>  0 0.20459284E+04</rscale>
<asrwt>0</asrwt>
<pdfrwt beam="1">  1        1 0.35243429E+00 0.20459284E+04</pdfrwt>
<pdfrwt beam="2">  1       -2 0.70277452E-01 0.20459284E+04</pdfrwt>
<totfact> 0.28249295E+00</totfact>
</mgrwt>
</event>
<event>
12    4  0.4381187E-008  0.2601337E+04  0.7818608E-02  0.8367747E-01
          1   -1    0    0  501    0  0.00000000000E+00  0.00000000000E+00  0.18321260669E+04  0.18321260669E+04  0.00000000000E+00 0. -1.
         -2   -1    0    0    0  501 -0.00000000000E+00 -0.00000000000E+00 -0.92337455803E+03  0.92337455803E+03  0.00000000000E+00 0.  1.
        -24    2    1    2    0    0  0.27942875081E+03  0.42487927924E+02 -0.76961095734E+03  0.82358881843E+03  0.78178420230E+02 0.  0.
        254    2    1    2    0    0 -0.27942875081E+03 -0.42487927924E+02  0.16783624662E+04  0.19319118065E+04  0.91405525505E+03 0.  0.
         23    2    4    4    0    0 -0.94623473181E+02  0.41150377428E+03  0.55905171910E+03  0.70649626365E+03  0.91154747535E+02 0.  0.
         23    2    4    4    0    0 -0.18480527763E+03 -0.45399170221E+03  0.11193107471E+04  0.12254155428E+04  0.92332268105E+02 0.  0.
          3    1    3    3  502    0  0.58916592105E+02 -0.22657353534E+02 -0.17846186507E+03  0.18929648116E+03  0.00000000000E+00 0. -1.
         -4    1    3    3    0  502  0.22051215871E+03  0.65145281458E+02 -0.59114909227E+03  0.63429233727E+03  0.00000000000E+00 0.  1.
         11    1    5    5    0    0 -0.34482716329E+02  0.42751486100E+02  0.44979876712E+02  0.70992510860E+02  0.00000000000E+00 0.  1.
        -11    1    5    5    0    0 -0.60140756851E+02  0.36875228818E+03  0.51407184239E+03  0.63550375279E+03  0.00000000000E+00 0. -1.
          4    1    6    6  503    0 -0.31008645104E+02 -0.49316319771E+02  0.75283260066E+02  0.95190360400E+02  0.00000000000E+00 0. -1.
         -4    1    6    6    0  503 -0.15379663253E+03 -0.40467538244E+03  0.10440274870E+04  0.11302251824E+04  0.00000000000E+00 0.  1.
<mgrwt>
<rscale>  0 0.26013370E+04</rscale>
<asrwt>0</asrwt>
<pdfrwt beam="1">  1        1 0.28186555E+00 0.26013370E+04</pdfrwt>
<pdfrwt beam="2">  1       -2 0.14205762E+00 0.26013370E+04</pdfrwt>
<totfact> 0.10365352E+00</totfact>
</mgrwt>
</event>
<event>
12    4  0.4381187E-008  0.1376824E+04  0.7818608E-02  0.8970767E-01
          1   -1    0    0  501    0  0.00000000000E+00  0.00000000000E+00  0.13383336191E+04  0.13383336191E+04  0.00000000000E+00 0. -1.
         -2   -1    0    0    0  501 -0.00000000000E+00 -0.00000000000E+00 -0.35410545656E+03  0.35410545656E+03  0.00000000000E+00 0.  1.
        -24    2    1    2    0    0  0.21729033775E+03 -0.32488912482E+03  0.29440102293E+03  0.49596791453E+03  0.80896079212E+02 0.  0.
        254    2    1    2    0    0 -0.21729033775E+03  0.32488912482E+03  0.68982713956E+03  0.11964711611E+04  0.89605453101E+03 0.  0.
         23    2    4    4    0    0 -0.32270903455E+03  0.57474411764E+03  0.34644037287E+03  0.75013446485E+03  0.90602768465E+02 0.  0.
         23    2    4    4    0    0  0.10541869679E+03 -0.24985499282E+03  0.34338676669E+03  0.44633669624E+03  0.88098557328E+02 0.  0.
          1    1    3    3  502    0  0.11557421217E+03 -0.12964830877E+03  0.17032476059E+03  0.24326242323E+03  0.00000000000E+00 0. -1.
         -2    1    3    3    0  502  0.10171612559E+03 -0.19524081605E+03  0.12407626234E+03  0.25270549130E+03  0.00000000000E+00 0.  1.
         11    1    5    5    0    0 -0.11249684093E+03  0.15731685765E+03  0.14237984449E+03  0.24015859976E+03  0.00000000000E+00 0.  1.
        -11    1    5    5    0    0 -0.21021219361E+03  0.41742726000E+03  0.20406052838E+03  0.50997586509E+03  0.00000000000E+00 0. -1.
          1    1    6    6  503    0  0.77386690335E+02 -0.15113210762E+03  0.27438354622E+03  0.32267002376E+03  0.00000000000E+00 0. -1.
         -1    1    6    6    0  503  0.28032006459E+02 -0.98722885202E+02  0.69003220472E+02  0.12366667249E+03  0.00000000000E+00 0.  1.
<mgrwt>
<rscale>  0 0.13768242E+04</rscale>
<asrwt>0</asrwt>
<pdfrwt beam="1">  1        1 0.20589748E+00 0.13768242E+04</pdfrwt>
<pdfrwt beam="2">  1       -2 0.54477763E-01 0.13768242E+04</pdfrwt>
<totfact> 0.23080775E+01</totfact>
</mgrwt>
</event>
<event>
12    4  0.4381187E-008  0.2044546E+04  0.7818608E-02  0.8586073E-01
          1   -1    0    0  501    0  0.00000000000E+00  0.00000000000E+00  0.12478273050E+04  0.12478273050E+04  0.00000000000E+00 0. -1.
         -2   -1    0    0    0  501 -0.00000000000E+00 -0.00000000000E+00 -0.83748902709E+03  0.83748902709E+03  0.00000000000E+00 0.  1.
        -24    2    1    2    0    0  0.23895416676E+03 -0.66655347847E+03  0.58740681474E+03  0.92338874164E+03  0.78786856223E+02 0.  0.
        254    2    1    2    0    0 -0.23895416676E+03  0.66655347847E+03 -0.17706853686E+03  0.11619275904E+04  0.90406295420E+03 0.  0.
         23    2    4    4    0    0 -0.26795481986E+03  0.33051477241E+03 -0.51615888056E+03  0.67508624844E+03  0.91003585523E+02 0.  0.
         23    2    4    4    0    0  0.29000653103E+02  0.33603870606E+03  0.33909034370E+03  0.48684134198E+03  0.90935038462E+02 0.  0.
          1    1    3    3  502    0  0.22090605464E+03 -0.60485991486E+03  0.56049390028E+03  0.85370276667E+03  0.00000000000E+00 0. -1.
         -2    1    3    3    0  502  0.18048112123E+02 -0.61693563613E+02  0.26912914464E+02  0.69685974969E+02  0.00000000000E+00 0.  1.
         11    1    5    5    0    0 -0.14067942363E+02  0.12053241855E+02 -0.63615727710E+02  0.66258195369E+02  0.00000000000E+00 0. -1.
        -11    1    5    5    0    0 -0.25388687750E+03  0.31846153055E+03 -0.45254315285E+03  0.60882805307E+03  0.00000000000E+00 0.  1.
          2    1    6    6  503    0  0.26050788955E+02  0.26060036406E+03  0.20356837690E+03  0.33170962818E+03  0.00000000000E+00 0. -1.
         -2    1    6    6    0  503  0.29498641477E+01  0.75438342008E+02  0.13552196680E+03  0.15513171380E+03  0.00000000000E+00 0.  1.
<mgrwt>
<rscale>  0 0.20445456E+04</rscale>
<asrwt>0</asrwt>
<pdfrwt beam="1">  1        1 0.19197343E+00 0.20445456E+04</pdfrwt>
<pdfrwt beam="2">  1       -2 0.12884447E+00 0.20445456E+04</pdfrwt>
<totfact> 0.35520488E+00</totfact>
</mgrwt>
</event>
<event>
12    4  0.4381187E-008  0.1197688E+04  0.7818608E-02  0.9114883E-01
          1   -1    0    0  501    0  0.00000000000E+00  0.00000000000E+00  0.65728955490E+03  0.65728955490E+03  0.00000000000E+00 0. -1.
         -2   -1    0    0    0  501 -0.00000000000E+00 -0.00000000000E+00 -0.54559510750E+03  0.54559510750E+03  0.00000000000E+00 0.  1.
        -24    2    1    2    0    0  0.23401438999E+03  0.15860431765E+03 -0.26849591540E+02  0.29456888305E+03  0.78306206589E+02 0.  0.
        254    2    1    2    0    0 -0.23401438999E+03 -0.15860431765E+03  0.13854403894E+03  0.90831577935E+03  0.85201234732E+03 0.  0.
         23    2    4    4    0    0 -0.49341841002E+03 -0.14056943791E+03 -0.11447333673E+03  0.53350754889E+03  0.91129938415E+02 0.  0.
         23    2    4    4    0    0  0.25940402003E+03 -0.18034879745E+02  0.25301737568E+03  0.37480823046E+03  0.94062291760E+02 0.  0.
          1    1    3    3  502    0  0.16429215204E+02 -0.25794183853E+01  0.12683482534E+02  0.20915143810E+02  0.00000000000E+00 0. -1.
         -2    1    3    3    0  502  0.21758517479E+03  0.16118373604E+03 -0.39533074074E+02  0.27365373924E+03  0.00000000000E+00 0.  1.
         11    1    5    5    0    0 -0.12499105758E+03 -0.26213895744E+02  0.10143026607E+02  0.12811250444E+03  0.00000000000E+00 0. -1.
        -11    1    5    5    0    0 -0.36842735244E+03 -0.11435554216E+03 -0.12461636334E+03  0.40539504445E+03  0.00000000000E+00 0.  1.
          3    1    6    6  503    0  0.11991739022E+03  0.10125873733E+02  0.58534426780E+02  0.13382448548E+03  0.00000000000E+00 0. -1.
         -3    1    6    6    0  503  0.13948662981E+03 -0.28160753478E+02  0.19448294890E+03  0.24098374498E+03  0.00000000000E+00 0.  1.
<mgrwt>
<rscale>  0 0.11976877E+04</rscale>
<asrwt>0</asrwt>
<pdfrwt beam="1">  1        1 0.10112147E+00 0.11976877E+04</pdfrwt>
<pdfrwt beam="2">  1       -2 0.83937708E-01 0.11976877E+04</pdfrwt>
<totfact> 0.32197543E+01</totfact>
</mgrwt>
</event>
<event>
12    4  0.4381187E-008  0.1663201E+04  0.7818608E-02  0.8782635E-01
          1   -1    0    0  501    0  0.00000000000E+00  0.00000000000E+00  0.25884661649E+04  0.25884661649E+04  0.00000000000E+00 0. -1.
         -2   -1    0    0    0  501 -0.00000000000E+00 -0.00000000000E+00 -0.26716968953E+03  0.26716968953E+03  0.00000000000E+00 0.  1.
        -24    2    1    2    0    0 -0.26221108295E+03 -0.46146712024E+03  0.12493861258E+04  0.13598149191E+04  0.80152154640E+02 0.  0.
        254    2    1    2    0    0  0.26221108295E+03  0.46146712024E+03  0.10719103496E+04  0.14958209353E+04  0.89821039734E+03 0.  0.
         23    2    4    4    0    0 -0.15048735746E+03  0.10559446816E+02 -0.76960447638E+02  0.19178073306E+03  0.89994402048E+02 0.  0.
         23    2    4    4    0    0  0.41269844041E+03  0.45090767343E+03  0.11488707973E+04  0.13040402023E+04  0.83540455378E+02 0.  0.
          1    1    3    3  502    0 -0.24613822737E+03 -0.39539798521E+03  0.11334332664E+04  0.12253956761E+04  0.00000000000E+00 0. -1.
         -2    1    3    3    0  502 -0.16072855578E+02 -0.66069135028E+02  0.11595285938E+03  0.13441924300E+03  0.00000000000E+00 0.  1.
         11    1    5    5    0    0 -0.12068106943E+03 -0.30443533201E+02 -0.61206219461E+02  0.13869726217E+03  0.00000000000E+00 0. -1.
        -11    1    5    5    0    0 -0.29806288033E+02  0.41002980017E+02 -0.15754228177E+02  0.53083470893E+02  0.00000000000E+00 0.  1.
          3    1    6    6  503    0  0.18985103570E+03  0.26731885469E+03  0.63226801585E+03  0.71222582774E+03  0.00000000000E+00 0. -1.
         -3    1    6    6    0  503  0.22284740470E+03  0.18358881873E+03  0.51660278142E+03  0.59181437454E+03  0.00000000000E+00 0.  1.
<mgrwt>
<rscale>  0 0.16632014E+04</rscale>
<asrwt>0</asrwt>
<pdfrwt beam="1">  1        1 0.39822555E+00 0.16632014E+04</pdfrwt>
<pdfrwt beam="2">  1       -2 0.41103031E-01 0.16632014E+04</pdfrwt>
<totfact> 0.55357781E+00</totfact>
</mgrwt>
</event>
<event>
12    4  0.4381187E-008  0.1736085E+04  0.7818608E-02  0.8741047E-01
         -2   -1    0    0    0  501 -0.00000000000E+00  0.00000000000E+00  0.79391116254E+03  0.79391116254E+03  0.00000000000E+00 0.  1.
          1   -1    0    0  501    0  0.00000000000E+00 -0.00000000000E+00 -0.94909540821E+03  0.94909540821E+03  0.00000000000E+00 0. -1.
        -24    2    1    2    0    0 -0.53046166649E+03 -0.23393415246E+03 -0.33004976402E+03  0.67188964959E+03  0.79925510311E+02 0.  0.
        254    2    1    2    0    0  0.53046166649E+03  0.23393415246E+03  0.17486551835E+03  0.10711169212E+04  0.88351499252E+03 0.  0.
         23    2    4    4    0    0  0.50017430537E+02  0.45048848234E+03 -0.95309597983E+02  0.47185079489E+03  0.90097930533E+02 0.  0.
         23    2    4    4    0    0  0.48044423595E+03 -0.21655432989E+03  0.27017511633E+03  0.59926612628E+03  0.91667087732E+02 0.  0.
          1    1    3    3  502    0 -0.30520765629E+03 -0.98737199771E+02 -0.15556255713E+03  0.35651151069E+03  0.00000000000E+00 0. -1.
         -2    1    3    3    0  502 -0.22525401020E+03 -0.13519695269E+03 -0.17448720689E+03  0.31537813890E+03  0.00000000000E+00 0.  1.
         11    1    5    5    0    0 -0.18577863291E+02  0.26064522868E+02 -0.10036182298E+02  0.33544318623E+02  0.00000000000E+00 0.  1.
        -11    1    5    5    0    0  0.68595293828E+02  0.42442395948E+03 -0.85273415684E+02  0.43830647627E+03  0.00000000000E+00 0. -1.
          3    1    6    6  503    0  0.22152065607E+02 -0.18617717112E+01 -0.55915463454E+01  0.22922600094E+02  0.00000000000E+00 0.  1.
         -3    1    6    6    0  503  0.45829217034E+03 -0.21469255818E+03  0.27576666268E+03  0.57634352619E+03  0.00000000000E+00 0. -1.
<mgrwt>
<rscale>  0 0.17360846E+04</rscale>
<asrwt>0</asrwt>
<pdfrwt beam="1">  1        1 0.14601468E+00 0.17360846E+04</pdfrwt>
<pdfrwt beam="2">  1       -2 0.12214018E+00 0.17360846E+04</pdfrwt>
<totfact> 0.70142691E+00</totfact>
</mgrwt>
</event>
<event>
12    4  0.4381187E-008  0.2400453E+04  0.7818608E-02  0.8439334E-01
         -2   -1    0    0    0  501 -0.00000000000E+00  0.00000000000E+00  0.16734113373E+04  0.16734113373E+04  0.00000000000E+00 0.  1.
          1   -1    0    0  501    0  0.00000000000E+00 -0.00000000000E+00 -0.86084257503E+03  0.86084257503E+03  0.00000000000E+00 0. -1.
        -24    2    1    2    0    0 -0.22132143126E+03  0.41299258870E+03 -0.61642612794E+03  0.77983214929E+03  0.92795234812E+02 0.  0.
        254    2    1    2    0    0  0.22132143126E+03 -0.41299258870E+03  0.14289948902E+04  0.17544217630E+04  0.90356143794E+03 0.  0.
         23    2    4    4    0    0  0.46814282213E+03 -0.38010942398E+03  0.50178248769E+03  0.79000969587E+03  0.93213617631E+02 0.  0.
         23    2    4    4    0    0 -0.24682139087E+03 -0.32883164715E+02  0.92721240250E+03  0.96441206715E+03  0.91464170065E+02 0.  0.
          1    1    3    3  502    0 -0.20621497635E+03  0.36169181250E+03 -0.49279295556E+03  0.64512826690E+03  0.00000000000E+00 0. -1.
         -2    1    3    3    0  502 -0.15106454909E+02  0.51300776196E+02 -0.12363317238E+03  0.13470388239E+03  0.00000000000E+00 0.  1.
         11    1    5    5    0    0  0.43085147280E+03 -0.35461585995E+03  0.42702177664E+03  0.70266136756E+03  0.00000000000E+00 0. -1.
        -11    1    5    5    0    0  0.37291349330E+02 -0.25493564029E+02  0.74760711050E+02  0.87348328309E+02  0.00000000000E+00 0.  1.
          2    1    6    6  503    0 -0.89089000249E+02  0.23301001286E+02  0.23907409489E+03  0.25619564687E+03  0.00000000000E+00 0.  1.
         -2    1    6    6    0  503 -0.15773239062E+03 -0.56184166000E+02  0.68813830761E+03  0.70821642028E+03  0.00000000000E+00 0. -1.
<mgrwt>
<rscale>  0 0.24004531E+04</rscale>
<asrwt>0</asrwt>
<pdfrwt beam="1">  1        1 0.13243732E+00 0.24004531E+04</pdfrwt>
<pdfrwt beam="2">  1       -2 0.25744790E+00 0.24004531E+04</pdfrwt>
<totfact> 0.89104021E-01</totfact>
</mgrwt>
</event>
<event>
12    4  0.4381187E-008  0.2949560E+04  0.7818608E-02  0.8258283E-01
         -4   -1    0    0    0  501 -0.00000000000E+00  0.00000000000E+00  0.96846978843E+03  0.96846978843E+03  0.00000000000E+00 0.  1.
          3   -1    0    0  501    0  0.00000000000E+00 -0.00000000000E+00 -0.22457855590E+04  0.22457855590E+04  0.00000000000E+00 0. -1.
        -24    2    1    2    0    0  0.11002291386E+04  0.37229103724E+02 -0.14072663056E+04  0.17889901558E+04  0.90538162501E+02 0.  0.
        254    2    1    2    0    0 -0.11002291386E+04 -0.37229103724E+02  0.12995053510E+03  0.14252651916E+04  0.89588144375E+03 0.  0.
         23    2    4    4    0    0  0.77721071682E+02 -0.12800556320E+03  0.16361573367E+03  0.23986165759E+03  0.91310006497E+02 0.  0.
         23    2    4    4    0    0 -0.11779502103E+04  0.90776459478E+02 -0.33665198568E+02  0.11854035340E+04  0.90780666193E+02 0.  0.
          1    1    3    3  502    0  0.35793323685E+03  0.15976540936E+02 -0.52809013785E+03  0.63816192741E+03  0.00000000000E+00 0. -1.
         -2    1    3    3    0  502  0.74229590176E+03  0.21252562788E+02 -0.87917616777E+03  0.11508282284E+04  0.00000000000E+00 0.  1.
         11    1    5    5    0    0 -0.16918989708E+02 -0.49491247569E+02  0.52990444208E+02  0.74455510045E+02  0.00000000000E+00 0. -1.
        -11    1    5    5    0    0  0.94640061390E+02 -0.78514315633E+02  0.11062528946E+03  0.16540614755E+03  0.00000000000E+00 0.  1.
          3    1    6    6  503    0 -0.27936393930E+03  0.59895728542E+02 -0.14575321157E+02  0.28608416396E+03  0.00000000000E+00 0. -1.
         -3    1    6    6    0  503 -0.89858627099E+03  0.30880730936E+02 -0.19089877411E+02  0.89931937007E+03  0.00000000000E+00 0.  1.
<mgrwt>
<rscale>  0 0.29495596E+04</rscale>
<asrwt>0</asrwt>
<pdfrwt beam="1">  1        3 0.34550547E+00 0.29495596E+04</pdfrwt>
<pdfrwt beam="2">  1       -4 0.14899535E+00 0.29495596E+04</pdfrwt>
<totfact> 0.12958162E-02</totfact>
</mgrwt>
</event>
<event>
12    4  0.4381187E-008  0.2002763E+04  0.7818608E-02  0.8605330E-01
          1   -1    0    0  501    0  0.00000000000E+00  0.00000000000E+00  0.86300834962E+03  0.86300834962E+03  0.00000000000E+00 0. -1.
         -2   -1    0    0    0  501 -0.00000000000E+00 -0.00000000000E+00 -0.11619417221E+04  0.11619417221E+04  0.00000000000E+00 0.  1.
        -24    2    1    2    0    0 -0.47343622995E+03  0.46574131250E+03  0.33236235435E+03  0.74696975234E+03  0.80263580337E+02 0.  0.
        254    2    1    2    0    0  0.47343622995E+03 -0.46574131250E+03 -0.63129572678E+03  0.12779803193E+04  0.89086618971E+03 0.  0.
         23    2    4    4    0    0  0.57035482170E+03 -0.24159770424E+03 -0.76271746964E+03  0.98688697026E+03  0.92379003201E+02 0.  0.
         23    2    4    4    0    0 -0.96918591759E+02 -0.22414360826E+03  0.13142174286E+03  0.29109334908E+03  0.88487811764E+02 0.  0.
          3    1    3    3  502    0 -0.25192148850E+03  0.26458891197E+03  0.22504817796E+03  0.42909021325E+03  0.00000000000E+00 0. -1.
         -4    1    3    3    0  502 -0.22151474145E+03  0.20115240054E+03  0.10731417639E+03  0.31787953909E+03  0.00000000000E+00 0.  1.
         11    1    5    5    0    0  0.32367438863E+03 -0.17505953400E+03 -0.40381406753E+03  0.54633025858E+03  0.00000000000E+00 0. -1.
        -11    1    5    5    0    0  0.24668043307E+03 -0.66538170238E+02 -0.35890340212E+03  0.44055671168E+03  0.00000000000E+00 0.  1.
          4    1    6    6  503    0  0.11078806832E+02 -0.16371568923E+02  0.29958345768E+02  0.35892488225E+02  0.00000000000E+00 0. -1.
         -4    1    6    6    0  503 -0.10799739859E+03 -0.20777203934E+03  0.10146339709E+03  0.25520086086E+03  0.00000000000E+00 0.  1.
<mgrwt>
<rscale>  0 0.20027635E+04</rscale>
<asrwt>0</asrwt>
<pdfrwt beam="1">  1        1 0.13277052E+00 0.20027635E+04</pdfrwt>
<pdfrwt beam="2">  1       -2 0.17876026E+00 0.20027635E+04</pdfrwt>
<totfact> 0.29344598E+00</totfact>
</mgrwt>
</event>
<event>
12    4  0.4381187E-008  0.2096236E+04  0.7818608E-02  0.8562903E-01
          1   -1    0    0  501    0  0.00000000000E+00  0.00000000000E+00  0.92107536688E+03  0.92107536688E+03  0.00000000000E+00 0. -1.
         -2   -1    0    0    0  501 -0.00000000000E+00 -0.00000000000E+00 -0.11926830566E+04  0.11926830566E+04  0.00000000000E+00 0.  1.
        -24    2    1    2    0    0  0.38149922579E+03 -0.54972386968E+03  0.41113691052E+03  0.78927159838E+03  0.78600920122E+02 0.  0.
        254    2    1    2    0    0 -0.38149922579E+03  0.54972386968E+03 -0.68274460021E+03  0.13244868251E+04  0.91672633240E+03 0.  0.
         23    2    4    4    0    0 -0.29820888708E+03  0.50837884767E+03  0.32028589365E+02  0.59782755605E+03  0.94838616324E+02 0.  0.
         23    2    4    4    0    0 -0.83290338710E+02  0.41345022009E+02 -0.71477318957E+03  0.72665926903E+03  0.92121058170E+02 0.  0.
          1    1    3    3  502    0  0.20780445342E+03 -0.28571562020E+03  0.26191260100E+03  0.43978894603E+03  0.00000000000E+00 0. -1.
         -2    1    3    3    0  502  0.17369477237E+03 -0.26400824948E+03  0.14922430952E+03  0.34948265235E+03  0.00000000000E+00 0.  1.
         11    1    5    5    0    0 -0.26907858040E+02  0.60156279945E+02  0.33422274398E+02  0.73890860511E+02  0.00000000000E+00 0. -1.
        -11    1    5    5    0    0 -0.27130102904E+03  0.44822256772E+03 -0.13936850326E+01  0.52393669554E+03  0.00000000000E+00 0.  1.
          2    1    6    6  503    0 -0.25690155973E+01  0.11934051431E+02 -0.78032613725E+01  0.14488350932E+02  0.00000000000E+00 0. -1.
         -2    1    6    6    0  503 -0.80721323113E+02  0.29410970578E+02 -0.70696992820E+03  0.71217091809E+03  0.00000000000E+00 0.  1.
<mgrwt>
<rscale>  0 0.20962357E+04</rscale>
<asrwt>0</asrwt>
<pdfrwt beam="1">  1        1 0.14170390E+00 0.20962357E+04</pdfrwt>
<pdfrwt beam="2">  1       -2 0.18348970E+00 0.20962357E+04</pdfrwt>
<totfact> 0.24191703E+00</totfact>
</mgrwt>
</event>
<event>
12    4  0.4381187E-008  0.1518492E+04  0.7818608E-02  0.8872248E-01
         -2   -1    0    0    0  501 -0.00000000000E+00  0.00000000000E+00  0.68460468247E+03  0.68460468247E+03  0.00000000000E+00 0.  1.
          1   -1    0    0  501    0  0.00000000000E+00 -0.00000000000E+00 -0.84202545974E+03  0.84202545974E+03  0.00000000000E+00 0. -1.
        -24    2    1    2    0    0 -0.45232531882E+03 -0.16070144482E+03 -0.14638353421E+03  0.50808989564E+03  0.79398076512E+02 0.  0.
        254    2    1    2    0    0  0.45232531882E+03  0.16070144482E+03 -0.11037243064E+02  0.10185402466E+04  0.89826458504E+03 0.  0.
         23    2    4    4    0    0  0.67412407355E+03  0.28512861393E+03 -0.71624954903E+02  0.74107085701E+03  0.91182717183E+02 0.  0.
         23    2    4    4    0    0 -0.22179875474E+03 -0.12442716911E+03  0.60587711839E+02  0.27746938957E+03  0.92960116735E+02 0.  0.
          3    1    3    3  502    0 -0.43333958819E+03 -0.16686156202E+03 -0.12984335646E+03  0.48216727055E+03  0.00000000000E+00 0. -1.
         -4    1    3    3    0  502 -0.18985730623E+02  0.61601172051E+01 -0.16540177753E+02  0.25922625086E+02  0.00000000000E+00 0.  1.
         11    1    5    5    0    0  0.30771472446E+03  0.17961788898E+03 -0.33857530586E+02  0.35790678964E+03  0.00000000000E+00 0. -1.
        -11    1    5    5    0    0  0.36640934910E+03  0.10551072495E+03 -0.37767424316E+02  0.38316406737E+03  0.00000000000E+00 0.  1.
          2    1    6    6  503    0 -0.20279917494E+03 -0.10819790008E+03  0.82520972275E+02  0.24422121489E+03  0.00000000000E+00 0. -1.
         -2    1    6    6    0  503 -0.18999579802E+02 -0.16229269030E+02 -0.21933260436E+02  0.33248174676E+02  0.00000000000E+00 0.  1.
<mgrwt>
<rscale>  0 0.15184921E+04</rscale>
<asrwt>0</asrwt>
<pdfrwt beam="1">  1        1 0.12954238E+00 0.15184921E+04</pdfrwt>
<pdfrwt beam="2">  1       -2 0.10532380E+00 0.15184921E+04</pdfrwt>
<totfact> 0.12561302E+01</totfact>
</mgrwt>
</event>
<event>
12    4  0.4381187E-008  0.1812820E+04  0.7818608E-02  0.8699512E-01
          1   -1    0    0  501    0  0.00000000000E+00  0.00000000000E+00  0.22359804732E+04  0.22359804732E+04  0.00000000000E+00 0. -1.
         -2   -1    0    0    0  501 -0.00000000000E+00 -0.00000000000E+00 -0.36743554649E+03  0.36743554649E+03  0.00000000000E+00 0.  1.
        -24    2    1    2    0    0  0.33081439102E+03  0.57710126393E+03  0.90420789624E+03  0.11254238820E+04  0.80640959373E+02 0.  0.
        254    2    1    2    0    0 -0.33081439102E+03 -0.57710126393E+03  0.96433703051E+03  0.14779921378E+04  0.90112752746E+03 0.  0.
         23    2    4    4    0    0 -0.46877193404E+03 -0.67440236461E+03  0.47962061159E+03  0.95558432161E+03  0.92410979402E+02 0.  0.
         23    2    4    4    0    0  0.13795754302E+03  0.97301100688E+02  0.48471641892E+03  0.52240781615E+03  0.97263208516E+02 0.  0.
          3    1    3    3  502    0  0.18181127374E+03  0.27971280015E+03  0.39269966912E+03  0.51527431525E+03  0.00000000000E+00 0. -1.
         -4    1    3    3    0  502  0.14900311728E+03  0.29738846378E+03  0.51150822712E+03  0.61014956671E+03  0.00000000000E+00 0.  1.
         11    1    5    5    0    0 -0.47186177007E+03 -0.67370488837E+03  0.48010090493E+03  0.95238053612E+03  0.00000000000E+00 0.  1.
        -11    1    5    5    0    0  0.30898360270E+01 -0.69747624473E+00 -0.48029334658E+00  0.32037854929E+01  0.00000000000E+00 0. -1.
          3    1    6    6  503    0  0.13063726236E+02 -0.79254311369E+01  0.56854188131E+01  0.16303293807E+02  0.00000000000E+00 0. -1.
         -3    1    6    6    0  503  0.12489381679E+03  0.10522653182E+03  0.47903100011E+03  0.50610452235E+03  0.00000000000E+00 0.  1.
<mgrwt>
<rscale>  0 0.18128196E+04</rscale>
<asrwt>0</asrwt>
<pdfrwt beam="1">  1        1 0.34399699E+00 0.18128196E+04</pdfrwt>
<pdfrwt beam="2">  1       -2 0.56528547E-01 0.18128196E+04</pdfrwt>
<totfact> 0.50056607E+00</totfact>
</mgrwt>
</event>
<event>
12    4  0.4381187E-008  0.1563595E+04  0.7818608E-02  0.8843231E-01
          1   -1    0    0  501    0  0.00000000000E+00  0.00000000000E+00  0.94016245957E+03  0.94016245957E+03  0.00000000000E+00 0. -1.
         -2   -1    0    0    0  501 -0.00000000000E+00 -0.00000000000E+00 -0.65010801508E+03  0.65010801508E+03  0.00000000000E+00 0.  1.
        -24    2    1    2    0    0  0.37008601357E+03  0.14968386261E+03  0.42839121028E+03  0.59068820015E+03  0.77618326378E+02 0.  0.
        254    2    1    2    0    0 -0.37008601357E+03 -0.14968386261E+03 -0.13833676580E+03  0.99958227450E+03  0.90590217273E+03 0.  0.
         23    2    4    4    0    0 -0.80376411271E+02  0.26794190390E+03  0.22258043665E+03  0.36945743117E+03  0.93292611269E+02 0.  0.
         23    2    4    4    0    0 -0.28970960230E+03 -0.41762576650E+03 -0.36091720245E+03  0.63012484332E+03  0.91941049790E+02 0.  0.
          1    1    3    3  502    0  0.26046517184E+03  0.96692081452E+02  0.34568618936E+03  0.44349792093E+03  0.00000000000E+00 0. -1.
         -2    1    3    3    0  502  0.10962084173E+03  0.52991781156E+02  0.82705020920E+02  0.14719027922E+03  0.00000000000E+00 0.  1.
         11    1    5    5    0    0 -0.94079049787E+02  0.26416684019E+03  0.21495489110E+03  0.35332788210E+03  0.00000000000E+00 0.  1.
        -11    1    5    5    0    0  0.13702638516E+02  0.37750637092E+01  0.76255455546E+01  0.16129549073E+02  0.00000000000E+00 0. -1.
          4    1    6    6  503    0 -0.10612895128E+03 -0.20465917720E+03 -0.12023163603E+03  0.26000842181E+03  0.00000000000E+00 0. -1.
         -4    1    6    6    0  503 -0.18358065102E+03 -0.21296658931E+03 -0.24068556642E+03  0.37011642151E+03  0.00000000000E+00 0.  1.
<mgrwt>
<rscale>  0 0.15635948E+04</rscale>
<asrwt>0</asrwt>
<pdfrwt beam="1">  1        1 0.14464038E+00 0.15635948E+04</pdfrwt>
<pdfrwt beam="2">  1       -2 0.10001662E+00 0.15635948E+04</pdfrwt>
<totfact> 0.11756099E+01</totfact>
</mgrwt>
</event>
<event>
12    4  0.4757899E-008  0.1822847E+04  0.7818608E-02  0.8694243E-01
         -2   -1    0    0    0  501 -0.00000000000E+00  0.00000000000E+00  0.72111277415E+03  0.72111277415E+03  0.00000000000E+00 0.  1.
          1   -1    0    0  501    0  0.00000000000E+00 -0.00000000000E+00 -0.11519600620E+04  0.11519600620E+04  0.00000000000E+00 0. -1.
        -24    2    1    2    0    0  0.23865539299E+03 -0.54763458187E+03 -0.50815234076E+03  0.78835678667E+03  0.80172250772E+02 0.  0.
        254    2    1    2    0    0 -0.23865539299E+03  0.54763458187E+03  0.77305052892E+02  0.10847160495E+04  0.90209356775E+03 0.  0.
         23    2    4    4    0    0 -0.44432786312E+03  0.68170905984E+03  0.81803097913E+02  0.82249863846E+03  0.87508692323E+02 0.  0.
         23    2    4    4    0    0  0.20567247013E+03 -0.13407447796E+03 -0.44980450213E+01  0.26221741104E+03  0.91981561391E+02 0.  0.
          3    1    3    3  502    0  0.21748840437E+03 -0.51293225831E+03 -0.44402463416E+03  0.71243145873E+03  0.00000000000E+00 0. -1.
         -4    1    3    3    0  502  0.21166988625E+02 -0.34702323563E+02 -0.64127706599E+02  0.75925327933E+02  0.00000000000E+00 0.  1.
         11    1    5    5    0    0 -0.92480681218E+00 -0.64152576261E+00  0.49945641707E+01  0.51198138832E+01  0.00000000000E+00 0. -1.
        -11    1    5    5    0    0 -0.44340305631E+03  0.68235058560E+03  0.76808533743E+02  0.81737882458E+03  0.00000000000E+00 0.  1.
          4    1    6    6  503    0  0.38959291809E+02  0.11704559011E+02  0.93256346516E+00  0.40690205142E+02  0.00000000000E+00 0. -1.
         -4    1    6    6    0  503  0.16671317832E+03 -0.14577903697E+03 -0.54306084865E+01  0.22152720590E+03  0.00000000000E+00 0.  1.
<mgrwt>
<rscale>  0 0.18228474E+04</rscale>
<asrwt>0</asrwt>
<pdfrwt beam="1">  1        1 0.17722462E+00 0.18228474E+04</pdfrwt>
<pdfrwt beam="2">  1       -2 0.11094043E+00 0.18228474E+04</pdfrwt>
<totfact> 0.61629935E+00</totfact>
</mgrwt>
</event>
<event>
12    4  0.4381187E-008  0.1819137E+04  0.7818608E-02  0.8696188E-01
         -2   -1    0    0    0  501 -0.00000000000E+00  0.00000000000E+00  0.23961706673E+03  0.23961706673E+03  0.00000000000E+00 0.  1.
          1   -1    0    0  501    0  0.00000000000E+00 -0.00000000000E+00 -0.34526547444E+04  0.34526547444E+04  0.00000000000E+00 0. -1.
        -24    2    1    2    0    0  0.16096640900E+03  0.13120561205E+03  0.10967060183E+03  0.24793496438E+03  0.79492189519E+02 0.  0.
        254    2    1    2    0    0 -0.16096640900E+03 -0.13120561205E+03 -0.33227082796E+04  0.34443368468E+04  0.88314263045E+03 0.  0.
         23    2    4    4    0    0 -0.35808986379E+03 -0.22423712664E+03 -0.78773735754E+03  0.89838561358E+03  0.89754814431E+02 0.  0.
         23    2    4    4    0    0  0.19712345479E+03  0.93031514592E+02 -0.25349709220E+04  0.25459512332E+04  0.90981246991E+02 0.  0.
          3    1    3    3  502    0  0.24790049339E+02  0.22018205504E+02 -0.11898131593E+02  0.35226601528E+02  0.00000000000E+00 0. -1.
         -2    1    3    3    0  502  0.13617635966E+03  0.10918740655E+03  0.12156873343E+03  0.21270836285E+03  0.00000000000E+00 0.  1.
         11    1    5    5    0    0 -0.44159419951E+02 -0.45654213653E+02 -0.18637342929E+03  0.19689950925E+03  0.00000000000E+00 0.  1.
        -11    1    5    5    0    0 -0.31393044384E+03 -0.17858291299E+03 -0.60136392824E+03  0.70148610433E+03  0.00000000000E+00 0. -1.
          1    1    6    6  503    0 -0.14538992562E+00  0.37499636690E+01 -0.40202926442E+03  0.40204677939E+03  0.00000000000E+00 0. -1.
         -1    1    6    6    0  503  0.19726884472E+03  0.89281550923E+02 -0.21329416576E+04  0.21439044538E+04  0.00000000000E+00 0.  1.
<mgrwt>
<rscale>  0 0.18191372E+04</rscale>
<asrwt>0</asrwt>
<pdfrwt beam="1">  1        1 0.53117762E+00 0.18191372E+04</pdfrwt>
<pdfrwt beam="2">  1       -2 0.36864167E-01 0.18191372E+04</pdfrwt>
<totfact> 0.15711773E+00</totfact>
</mgrwt>
</event>
<event>
12    4  0.4381187E-008  0.1981738E+04  0.7818608E-02  0.8615207E-01
          1   -1    0    0  501    0  0.00000000000E+00  0.00000000000E+00  0.26969735140E+04  0.26969735140E+04  0.00000000000E+00 0. -1.
         -2   -1    0    0    0  501 -0.00000000000E+00 -0.00000000000E+00 -0.36404557815E+03  0.36404557815E+03  0.00000000000E+00 0.  1.
        -24    2    1    2    0    0 -0.62770874423E+01 -0.55070406694E+03  0.17823186720E+04  0.18671524192E+04  0.79271287369E+02 0.  0.
        254    2    1    2    0    0  0.62770874423E+01  0.55070406694E+03  0.55060926387E+03  0.11938666729E+04  0.90489375071E+03 0.  0.
         23    2    4    4    0    0 -0.35700851514E+03  0.50573204801E+03  0.52266366109E+03  0.81576517733E+03  0.95265616341E+02 0.  0.
         23    2    4    4    0    0  0.36328560258E+03  0.44972018929E+02  0.27945602782E+02  0.37810149558E+03  0.90448176980E+02 0.  0.
          1    1    3    3  502    0  0.85598030263E+01 -0.53401915004E+03  0.17111686459E+04  0.17925813392E+04  0.00000000000E+00 0. -1.
         -2    1    3    3    0  502 -0.14836890469E+02 -0.16684916898E+02  0.71150026088E+02  0.74571080071E+02  0.00000000000E+00 0.  1.
         11    1    5    5    0    0 -0.24509310492E+03  0.36567383571E+03  0.42366985209E+03  0.61096982558E+03  0.00000000000E+00 0. -1.
        -11    1    5    5    0    0 -0.11191541022E+03  0.14005821231E+03  0.98993808993E+02  0.20479535175E+03  0.00000000000E+00 0.  1.
          2    1    6    6  503    0  0.26639899709E+03  0.25476826611E+02  0.59898491305E+02  0.27423589044E+03  0.00000000000E+00 0. -1.
         -2    1    6    6    0  503  0.96886605490E+02  0.19495192318E+02 -0.31952888522E+02  0.10386560514E+03  0.00000000000E+00 0.  1.
<mgrwt>
<rscale>  0 0.19817379E+04</rscale>
<asrwt>0</asrwt>
<pdfrwt beam="1">  1        1 0.41491899E+00 0.19817379E+04</pdfrwt>
<pdfrwt beam="2">  1       -2 0.56007014E-01 0.19817379E+04</pdfrwt>
<totfact> 0.24121278E+00</totfact>
</mgrwt>
</event>
<event>
12    4  0.4381187E-008  0.1141445E+04  0.7818608E-02  0.9165713E-01
         -2   -1    0    0    0  501 -0.00000000000E+00  0.00000000000E+00  0.17041899201E+03  0.17041899201E+03  0.00000000000E+00 0.  1.
          1   -1    0    0  501    0  0.00000000000E+00 -0.00000000000E+00 -0.19113129441E+04  0.19113129441E+04  0.00000000000E+00 0. -1.
        -24    2    1    2    0    0  0.17104231077E+03  0.58179695046E+02 -0.49043961528E+03  0.52868384192E+03  0.79594217689E+02 0.  0.
        254    2    1    2    0    0 -0.17104231077E+03 -0.58179695046E+02 -0.12504543368E+04  0.15530480942E+04  0.90315114205E+03 0.  0.
         23    2    4    4    0    0  0.22022203966E+03 -0.12466176536E+03 -0.10775760841E+04  0.11108302395E+04  0.93462833849E+02 0.  0.
         23    2    4    4    0    0 -0.39126435042E+03  0.66482070311E+02 -0.17287825264E+03  0.44221785469E+03  0.90344248205E+02 0.  0.
          3    1    3    3  502    0  0.25970405459E+02  0.27600201723E+02 -0.18893914705E+03  0.19270245038E+03  0.00000000000E+00 0. -1.
         -4    1    3    3    0  502  0.14507190531E+03  0.30579493323E+02 -0.30150046823E+03  0.33598139154E+03  0.00000000000E+00 0.  1.
         11    1    5    5    0    0 -0.71250828187E+01 -0.75882220095E+01 -0.17633485274E+02  0.20476516338E+02  0.00000000000E+00 0. -1.
        -11    1    5    5    0    0  0.22734712248E+03 -0.11707354335E+03 -0.10599425989E+04  0.10903537231E+04  0.00000000000E+00 0.  1.
          1    1    6    6  503    0 -0.53571177598E+02 -0.16058282247E+02 -0.49391991947E+01  0.56143879334E+02  0.00000000000E+00 0. -1.
         -1    1    6    6    0  503 -0.33769317283E+03  0.82540352558E+02 -0.16793905345E+03  0.38607397536E+03  0.00000000000E+00 0.  1.
<mgrwt>
<rscale>  0 0.11414447E+04</rscale>
<asrwt>0</asrwt>
<pdfrwt beam="1">  1        1 0.29404815E+00 0.11414447E+04</pdfrwt>
<pdfrwt beam="2">  1       -2 0.26218306E-01 0.11414447E+04</pdfrwt>
<totfact> 0.39349223E+01</totfact>
</mgrwt>
</event>
<event>
12    4  0.4381187E-008  0.1532822E+04  0.7818608E-02  0.8862915E-01
         -2   -1    0    0    0  501 -0.00000000000E+00  0.00000000000E+00  0.71340399168E+03  0.71340399168E+03  0.00000000000E+00 0.  1.
          1   -1    0    0  501    0  0.00000000000E+00 -0.00000000000E+00 -0.82335629474E+03  0.82335629474E+03  0.00000000000E+00 0. -1.
        -24    2    1    2    0    0 -0.35802635864E+03 -0.12785490066E+03  0.27137021565E+03  0.47367583654E+03  0.78722646521E+02 0.  0.
        254    2    1    2    0    0  0.35802635864E+03  0.12785490066E+03 -0.38132251871E+03  0.10630844499E+04  0.91663075183E+03 0.  0.
         23    2    4    4    0    0  0.71812297955E+02 -0.74438989862E+02  0.27821276272E+03  0.31048557503E+03  0.91108625347E+02 0.  0.
         23    2    4    4    0    0  0.28621406069E+03  0.20229389052E+03 -0.65953528143E+03  0.75259887485E+03  0.92611944618E+02 0.  0.
          1    1    3    3  502    0 -0.21987294492E+03 -0.97851317675E+02  0.12908250270E+03  0.27309574288E+03  0.00000000000E+00 0. -1.
         -2    1    3    3    0  502 -0.13815341373E+03 -0.30003582981E+02  0.14228771294E+03  0.20058009366E+03  0.00000000000E+00 0.  1.
         11    1    5    5    0    0  0.79525011272E+02 -0.27058793248E+02  0.13077655762E+03  0.15543137950E+03  0.00000000000E+00 0.  1.
        -11    1    5    5    0    0 -0.77127133171E+01 -0.47380196614E+02  0.14743620510E+03  0.15505419553E+03  0.00000000000E+00 0. -1.
          4    1    6    6  503    0  0.26518788478E+03  0.20938754894E+03 -0.63643279940E+03  0.72056538082E+03  0.00000000000E+00 0.  1.
         -4    1    6    6    0  503  0.21026175911E+02 -0.70936584253E+01 -0.23102482034E+02  0.32033494025E+02  0.00000000000E+00 0. -1.
<mgrwt>
<rscale>  0 0.15328218E+04</rscale>
<asrwt>0</asrwt>
<pdfrwt beam="1">  1        1 0.12667020E+00 0.15328218E+04</pdfrwt>
<pdfrwt beam="2">  1       -2 0.10975446E+00 0.15328218E+04</pdfrwt>
<totfact> 0.11782507E+01</totfact>
</mgrwt>
</event>
<event>
12    4  0.4381187E-008  0.2314208E+04  0.7818608E-02  0.8472340E-01
         -2   -1    0    0    0  501 -0.00000000000E+00  0.00000000000E+00  0.13931341849E+04  0.13931341849E+04  0.00000000000E+00 0.  1.
          1   -1    0    0  501    0  0.00000000000E+00 -0.00000000000E+00 -0.96106275442E+03  0.96106275442E+03  0.00000000000E+00 0. -1.
        -24    2    1    2    0    0 -0.36356185624E+03  0.30417875448E+03  0.10765804787E+04  0.11791858940E+04  0.82169991026E+02 0.  0.
        254    2    1    2    0    0  0.36356185624E+03 -0.30417875448E+03 -0.64450904829E+03  0.11750110453E+04  0.86055627662E+03 0.  0.
         23    2    4    4    0    0 -0.16335510325E+03 -0.28150155566E+03 -0.52741431133E+03  0.62715772081E+03  0.96088164633E+02 0.  0.
         23    2    4    4    0    0  0.52691695949E+03 -0.22677198817E+02 -0.11709473696E+03  0.54785332447E+03  0.90974447889E+02 0.  0.
          1    1    3    3  502    0 -0.13897762401E+03  0.98921083043E+02  0.29962863823E+03  0.34478613878E+03  0.00000000000E+00 0. -1.
         -2    1    3    3    0  502 -0.22458423223E+03  0.20525767144E+03  0.77695184050E+03  0.83439975521E+03  0.00000000000E+00 0.  1.
         11    1    5    5    0    0 -0.11993559584E+03 -0.11740398005E+03 -0.29426063762E+03  0.33875885897E+03  0.00000000000E+00 0. -1.
        -11    1    5    5    0    0 -0.43419507417E+02 -0.16409757562E+03 -0.23315367370E+03  0.28839886184E+03  0.00000000000E+00 0.  1.
          1    1    6    6  503    0  0.31541307659E+03 -0.56205851762E+02 -0.56757719274E+02  0.32537047400E+03  0.00000000000E+00 0. -1.
         -1    1    6    6    0  503  0.21150388290E+03  0.33528652944E+02 -0.60337017686E+02  0.22248285047E+03  0.00000000000E+00 0.  1.
<mgrwt>
<rscale>  0 0.23142077E+04</rscale>
<asrwt>0</asrwt>
<pdfrwt beam="1">  1        1 0.14785581E+00 0.23142077E+04</pdfrwt>
<pdfrwt beam="2">  1       -2 0.21432834E+00 0.23142077E+04</pdfrwt>
<totfact> 0.13805728E+00</totfact>
</mgrwt>
</event>
<event>
12    4  0.4381187E-008  0.1379869E+04  0.7818608E-02  0.8968520E-01
          1   -1    0    0  501    0  0.00000000000E+00  0.00000000000E+00  0.10771121295E+04  0.10771121295E+04  0.00000000000E+00 0. -1.
         -2   -1    0    0    0  501 -0.00000000000E+00 -0.00000000000E+00 -0.44193161087E+03  0.44193161087E+03  0.00000000000E+00 0.  1.
        -24    2    1    2    0    0 -0.29925259303E+01  0.38254538153E+03  0.32249834157E+03  0.50647852885E+03  0.78520033934E+02 0.  0.
        254    2    1    2    0    0  0.29925259303E+01 -0.38254538153E+03  0.31268217706E+03  0.10125652115E+04  0.88383722459E+03 0.  0.
         23    2    4    4    0    0  0.20831834602E+03 -0.58045143692E+03  0.70551344295E+02  0.62718130989E+03  0.89769144922E+02 0.  0.
         23    2    4    4    0    0 -0.20532582009E+03  0.19790605539E+03  0.24213083276E+03  0.38538390162E+03  0.92563018003E+02 0.  0.
          1    1    3    3  502    0  0.11906525317E+02  0.34735570792E+03  0.31147662322E+03  0.46670701728E+03  0.00000000000E+00 0. -1.
         -2    1    3    3    0  502 -0.14899051248E+02  0.35189673616E+02  0.11021718353E+02  0.39771511572E+02  0.00000000000E+00 0.  1.
         11    1    5    5    0    0  0.72743631914E+02 -0.19293958950E+03 -0.18715882739E+02  0.20704493582E+03  0.00000000000E+00 0.  1.
        -11    1    5    5    0    0  0.13557471411E+03 -0.38751184742E+03  0.89267227034E+02  0.42013637407E+03  0.00000000000E+00 0. -1.
          4    1    6    6  503    0 -0.73363427019E+02  0.11589865268E+03  0.71746470429E+02  0.15479743582E+03  0.00000000000E+00 0. -1.
         -4    1    6    6    0  503 -0.13196239307E+03  0.82007402702E+02  0.17038436233E+03  0.23058646580E+03  0.00000000000E+00 0.  1.
<mgrwt>
<rscale>  0 0.13798694E+04</rscale>
<asrwt>0</asrwt>
<pdfrwt beam="1">  1        1 0.16570956E+00 0.13798694E+04</pdfrwt>
<pdfrwt beam="2">  1       -2 0.67989479E-01 0.13798694E+04</pdfrwt>
<totfact> 0.22381839E+01</totfact>
</mgrwt>
</event>
<event>
12    4  0.4381187E-008  0.2646097E+04  0.7818608E-02  0.8352709E-01
         -2   -1    0    0    0  501 -0.00000000000E+00  0.00000000000E+00  0.11712987825E+04  0.11712987825E+04  0.00000000000E+00 0.  1.
          1   -1    0    0  501    0  0.00000000000E+00 -0.00000000000E+00 -0.14944589674E+04  0.14944589674E+04  0.00000000000E+00 0. -1.
        -24    2    1    2    0    0  0.11018762983E+04  0.55881874717E+02  0.23980294605E+03  0.11314772637E+04  0.74035022638E+02 0.  0.
        254    2    1    2    0    0 -0.11018762983E+04 -0.55881874717E+02 -0.56296313095E+03  0.15342804862E+04  0.90544738257E+03 0.  0.
         23    2    4    4    0    0 -0.17316363456E+03  0.95995368430E+02  0.21844950471E+03  0.30856497269E+03  0.91057131337E+02 0.  0.
         23    2    4    4    0    0 -0.92871266378E+03 -0.15187724315E+03 -0.78141263566E+03  0.12257155135E+04  0.78733118306E+02 0.  0.
          3    1    3    3  502    0  0.17354216169E+03  0.25557559932E+02  0.60098773251E+02  0.18542365895E+03  0.00000000000E+00 0. -1.
         -4    1    3    3    0  502  0.92833413665E+03  0.30324314785E+02  0.17970417280E+03  0.94605360475E+03  0.00000000000E+00 0.  1.
         11    1    5    5    0    0 -0.79952921837E+02  0.54957779664E+02  0.43929593905E+02  0.10650181443E+03  0.00000000000E+00 0. -1.
        -11    1    5    5    0    0 -0.93210712725E+02  0.41037588766E+02  0.17451991081E+03  0.20206315826E+03  0.00000000000E+00 0.  1.
          1    1    6    6  503    0 -0.39355468045E+03 -0.68536110845E+02 -0.38233436785E+03  0.55295755156E+03  0.00000000000E+00 0. -1.
         -1    1    6    6    0  503 -0.53515798333E+03 -0.83341132301E+02 -0.39907826781E+03  0.67275796190E+03  0.00000000000E+00 0.  1.
<mgrwt>
<rscale>  0 0.26460975E+04</rscale>
<asrwt>0</asrwt>
<pdfrwt beam="1">  1        1 0.22991676E+00 0.26460975E+04</pdfrwt>
<pdfrwt beam="2">  1       -2 0.18019981E+00 0.26460975E+04</pdfrwt>
<totfact> 0.91899581E-01</totfact>
</mgrwt>
</event>
<event>
12    4  0.4381187E-008  0.1334990E+04  0.7818608E-02  0.9002269E-01
         -2   -1    0    0    0  501 -0.00000000000E+00  0.00000000000E+00  0.89782519405E+03  0.89782519405E+03  0.00000000000E+00 0.  1.
          1   -1    0    0  501    0  0.00000000000E+00 -0.00000000000E+00 -0.49625407344E+03  0.49625407344E+03  0.00000000000E+00 0. -1.
        -24    2    1    2    0    0  0.29149193740E+03  0.17660720473E+03  0.20676944569E+03  0.40689772917E+03  0.81575143274E+02 0.  0.
        254    2    1    2    0    0 -0.29149193740E+03 -0.17660720473E+03  0.19480167492E+03  0.98718153832E+03  0.90577151794E+03 0.  0.
         23    2    4    4    0    0 -0.38261582315E+03  0.68852582149E+02 -0.24367755733E+03  0.46829253150E+03  0.93720845730E+02 0.  0.
         23    2    4    4    0    0  0.91123885748E+02 -0.24545978688E+03  0.43847923225E+03  0.51888900681E+03  0.91802476837E+02 0.  0.
          1    1    3    3  502    0  0.14309525561E+03  0.74349370673E+02  0.14360544418E+03  0.21593194459E+03  0.00000000000E+00 0. -1.
         -2    1    3    3    0  502  0.14839668179E+03  0.10225783405E+03  0.63164001514E+02  0.19096578458E+03  0.00000000000E+00 0.  1.
         11    1    5    5    0    0 -0.34453545721E+03  0.82725250556E+02 -0.19326286752E+03  0.40360709151E+03  0.00000000000E+00 0.  1.
        -11    1    5    5    0    0 -0.38080365938E+02 -0.13872668407E+02 -0.50414689810E+02  0.64685439995E+02  0.00000000000E+00 0. -1.
          3    1    6    6  503    0 -0.34103503848E+01 -0.13022674402E+01 -0.35798766078E+01  0.51129156810E+01  0.00000000000E+00 0. -1.
         -3    1    6    6    0  503  0.94534236133E+02 -0.24415751944E+03  0.44205910886E+03  0.51377609113E+03  0.00000000000E+00 0.  1.
<mgrwt>
<rscale>  0 0.13349898E+04</rscale>
<asrwt>0</asrwt>
<pdfrwt beam="1">  1        1 0.76346780E-01 0.13349898E+04</pdfrwt>
<pdfrwt beam="2">  1       -2 0.13812695E+00 0.13349898E+04</pdfrwt>
<totfact> 0.14264527E+01</totfact>
</mgrwt>
</event>
<event>
12    4  0.4381187E-008  0.1605035E+04  0.7818608E-02  0.8817461E-01
          1   -1    0    0  501    0  0.00000000000E+00  0.00000000000E+00  0.14766401914E+04  0.14766401914E+04  0.00000000000E+00 0. -1.
         -2   -1    0    0    0  501 -0.00000000000E+00 -0.00000000000E+00 -0.43614838966E+03  0.43614838966E+03  0.00000000000E+00 0.  1.
        -24    2    1    2    0    0 -0.34332658015E+03 -0.41910036497E+03  0.46167623156E+03  0.71620585737E+03  0.79294582348E+02 0.  0.
        254    2    1    2    0    0  0.34332658015E+03  0.41910036497E+03  0.57881557016E+03  0.11965827237E+04  0.89625024060E+03 0.  0.
         23    2    4    4    0    0 -0.12727282174E+03  0.45320711995E+03  0.48347886772E+02  0.48121406409E+03  0.87375011276E+02 0.  0.
         23    2    4    4    0    0  0.47059940189E+03 -0.34106754983E+02  0.53046768339E+03  0.71536865958E+03  0.87916370431E+02 0.  0.
          3    1    3    3  502    0 -0.25768859312E+03 -0.31868882915E+03  0.39130887499E+03  0.56664681812E+03  0.00000000000E+00 0. -1.
         -4    1    3    3    0  502 -0.85637987038E+02 -0.10041153582E+03  0.70367356572E+02  0.14955903925E+03  0.00000000000E+00 0.  1.
         11    1    5    5    0    0 -0.99297662109E+02  0.39941753734E+03  0.14620906730E+02  0.41183511961E+03  0.00000000000E+00 0. -1.
        -11    1    5    5    0    0 -0.27975159629E+02  0.53789582614E+02  0.33726980042E+02  0.69378944478E+02  0.00000000000E+00 0.  1.
          1    1    6    6  503    0  0.21460574251E+03 -0.29396283054E+02  0.18180748505E+03  0.28279626553E+03  0.00000000000E+00 0. -1.
         -1    1    6    6    0  503  0.25599365938E+03 -0.47104719291E+01  0.34866019834E+03  0.43257239405E+03  0.00000000000E+00 0.  1.
<mgrwt>
<rscale>  0 0.16050349E+04</rscale>
<asrwt>0</asrwt>
<pdfrwt beam="1">  1        1 0.22717541E+00 0.16050349E+04</pdfrwt>
<pdfrwt beam="2">  1       -2 0.67099753E-01 0.16050349E+04</pdfrwt>
<totfact> 0.11648866E+01</totfact>
</mgrwt>
</event>
<event>
12    4  0.4381187E-008  0.1428834E+04  0.7818608E-02  0.8933208E-01
         -2   -1    0    0    0  501 -0.00000000000E+00  0.00000000000E+00  0.14988029432E+04  0.14988029432E+04  0.00000000000E+00 0.  1.
          1   -1    0    0  501    0  0.00000000000E+00 -0.00000000000E+00 -0.34053276336E+03  0.34053276336E+03  0.00000000000E+00 0. -1.
        -24    2    1    2    0    0  0.44648848242E+01  0.32277714192E+03  0.72592141729E+03  0.79849810303E+03  0.80201607957E+02 0.  0.
        254    2    1    2    0    0 -0.44648848242E+01 -0.32277714192E+03  0.43234876259E+03  0.10408376036E+04  0.89006316963E+03 0.  0.
         23    2    4    4    0    0  0.28080984645E+03 -0.28496539767E+03 -0.10586085020E+03  0.42374061644E+03  0.91050220698E+02 0.  0.
         23    2    4    4    0    0 -0.28527473127E+03 -0.37811744251E+02  0.53820961279E+03  0.61709698712E+03  0.91256254097E+02 0.  0.
          3    1    3    3  502    0 -0.36466955006E+02  0.11181983760E+03  0.26685790927E+03  0.29162760265E+03  0.00000000000E+00 0. -1.
         -4    1    3    3    0  502  0.40931839830E+02  0.21095730432E+03  0.45906350803E+03  0.50687050038E+03  0.00000000000E+00 0.  1.
         11    1    5    5    0    0  0.25587312948E+03 -0.21637949340E+03 -0.10352096054E+03  0.35072458258E+03  0.00000000000E+00 0. -1.
        -11    1    5    5    0    0  0.24936716966E+02 -0.68585904272E+02 -0.23398896568E+01  0.73016033866E+02  0.00000000000E+00 0.  1.
          2    1    6    6  503    0 -0.28187951214E+03 -0.35578301814E+02  0.54173447884E+03  0.61171735343E+03  0.00000000000E+00 0. -1.
         -2    1    6    6    0  503 -0.33952191304E+01 -0.22334424370E+01 -0.35248660456E+01  0.53796336959E+01  0.00000000000E+00 0.  1.
<mgrwt>
<rscale>  0 0.14288338E+04</rscale>
<asrwt>0</asrwt>
<pdfrwt beam="1">  1        1 0.52389657E-01 0.14288338E+04</pdfrwt>
<pdfrwt beam="2">  1       -2 0.23058506E+00 0.14288338E+04</pdfrwt>
<totfact> 0.53495896E+00</totfact>
</mgrwt>
</event>
<event>
12    4  0.4381187E-008  0.1686140E+04  0.7818608E-02  0.8769309E-01
         -2   -1    0    0    0  501 -0.00000000000E+00  0.00000000000E+00  0.89038451538E+03  0.89038451538E+03  0.00000000000E+00 0.  1.
          1   -1    0    0  501    0  0.00000000000E+00 -0.00000000000E+00 -0.79827014920E+03  0.79827014920E+03  0.00000000000E+00 0. -1.
        -24    2    1    2    0    0  0.55491264906E+03 -0.20319389073E+03 -0.67069946452E+02  0.60012042391E+03  0.80189401803E+02 0.  0.
        254    2    1    2    0    0 -0.55491264906E+03  0.20319389073E+03  0.15918431263E+03  0.10885342407E+04  0.90019516907E+03 0.  0.
         23    2    4    4    0    0 -0.51991760672E+03 -0.62329482880E+02 -0.25373478700E+03  0.58818113678E+03  0.85886118271E+02 0.  0.
         23    2    4    4    0    0 -0.34995042338E+02  0.26552337361E+03  0.41291909963E+03  0.50035310390E+03  0.90131741449E+02 0.  0.
          3    1    3    3  502    0  0.34366579548E+03 -0.15015422208E+03 -0.10920667335E+02  0.37519558949E+03  0.00000000000E+00 0. -1.
         -4    1    3    3    0  502  0.21124685357E+03 -0.53039668649E+02 -0.56149279117E+02  0.22492483442E+03  0.00000000000E+00 0.  1.
         11    1    5    5    0    0 -0.48753372977E+03 -0.74029167383E+02 -0.21998176796E+03  0.53996428912E+03  0.00000000000E+00 0. -1.
        -11    1    5    5    0    0 -0.32383876948E+02  0.11699684503E+02 -0.33753019041E+02  0.48216847657E+02  0.00000000000E+00 0.  1.
          3    1    6    6  503    0 -0.15390401327E+02  0.24218191434E+03  0.39863698339E+03  0.46669089193E+03  0.00000000000E+00 0. -1.
         -3    1    6    6    0  503 -0.19604641010E+02  0.23341459268E+02  0.14282116242E+02  0.33662211963E+02  0.00000000000E+00 0.  1.
<mgrwt>
<rscale>  0 0.16861404E+04</rscale>
<asrwt>0</asrwt>
<pdfrwt beam="1">  1        1 0.12281079E+00 0.16861404E+04</pdfrwt>
<pdfrwt beam="2">  1       -2 0.13698223E+00 0.16861404E+04</pdfrwt>
<totfact> 0.70347620E+00</totfact>
</mgrwt>
</event>
<event>
12    4  0.4381187E-008  0.2138437E+04  0.7818608E-02  0.8544498E-01
          1   -1    0    0  501    0  0.00000000000E+00  0.00000000000E+00  0.15236916671E+04  0.15236916671E+04  0.00000000000E+00 0. -1.
         -2   -1    0    0    0  501 -0.00000000000E+00 -0.00000000000E+00 -0.75030154372E+03  0.75030154372E+03  0.00000000000E+00 0.  1.
        -24    2    1    2    0    0  0.78339491952E+03 -0.25389565534E+03 -0.84152423235E+01  0.82730185022E+03  0.78657048870E+02 0.  0.
        254    2    1    2    0    0 -0.78339491952E+03  0.25389565534E+03  0.78180536573E+03  0.14466913606E+04  0.89639592776E+03 0.  0.
         23    2    4    4    0    0 -0.22928988681E+03 -0.25152319300E+03 -0.99002732431E+01  0.35234668907E+03  0.90622321069E+02 0.  0.
         23    2    4    4    0    0 -0.55410503271E+03  0.50541884834E+03  0.79170563897E+03  0.10943446716E+04  0.91169303276E+02 0.  0.
          1    1    3    3  502    0  0.14773466090E+03 -0.23956270427E+02 -0.21524383257E+02  0.15120427242E+03  0.00000000000E+00 0. -1.
         -2    1    3    3    0  502  0.63566025863E+03 -0.22993938492E+03  0.13109140933E+02  0.67609757780E+03  0.00000000000E+00 0.  1.
         11    1    5    5    0    0 -0.18929532284E+03 -0.16227786945E+03  0.19857701798E+02  0.25012227906E+03  0.00000000000E+00 0.  1.
        -11    1    5    5    0    0 -0.39994563972E+02 -0.89245323548E+02 -0.29757975041E+02  0.10222441001E+03  0.00000000000E+00 0. -1.
          3    1    6    6  503    0 -0.21975888142E+03  0.16310089366E+03  0.23960591132E+03  0.36374009982E+03  0.00000000000E+00 0. -1.
         -3    1    6    6    0  503 -0.33434615129E+03  0.34231795468E+03  0.55209972765E+03  0.73060457174E+03  0.00000000000E+00 0.  1.
<mgrwt>
<rscale>  0 0.21384370E+04</rscale>
<asrwt>0</asrwt>
<pdfrwt beam="1">  1        1 0.23441410E+00 0.21384370E+04</pdfrwt>
<pdfrwt beam="2">  1       -2 0.11543101E+00 0.21384370E+04</pdfrwt>
<totfact> 0.29615519E+00</totfact>
</mgrwt>
</event>
<event>
12    4  0.4381187E-008  0.1760933E+04  0.7818608E-02  0.8727355E-01
          1   -1    0    0  501    0  0.00000000000E+00  0.00000000000E+00  0.93436500810E+03  0.93436500810E+03  0.00000000000E+00 0. -1.
         -2   -1    0    0    0  501 -0.00000000000E+00 -0.00000000000E+00 -0.82967750026E+03  0.82967750026E+03  0.00000000000E+00 0.  1.
        -24    2    1    2    0    0  0.45811524447E+03 -0.31385971724E+03 -0.27432126547E+03  0.62460771882E+03  0.80654487784E+02 0.  0.
        254    2    1    2    0    0 -0.45811524447E+03  0.31385971724E+03  0.37900877331E+03  0.11394347895E+04  0.91993830775E+03 0.  0.
         23    2    4    4    0    0 -0.53718165208E+03  0.45100798908E+03  0.54542151396E+03  0.89333588689E+03  0.92693286512E+02 0.  0.
         23    2    4    4    0    0  0.79066407619E+02 -0.13714827183E+03 -0.16641274065E+03  0.24609890266E+03  0.88376039499E+02 0.  0.
          3    1    3    3  502    0 -0.10700054262E+01  0.30247425712E+01 -0.11553177619E+01  0.34100936006E+01  0.00000000000E+00 0. -1.
         -4    1    3    3    0  502  0.45918524989E+03 -0.31688445981E+03 -0.27316594771E+03  0.62119762522E+03  0.00000000000E+00 0.  1.
         11    1    5    5    0    0 -0.12128900293E+03  0.54806800318E+02  0.10360890945E+03  0.16867013284E+03  0.00000000000E+00 0. -1.
        -11    1    5    5    0    0 -0.41589264915E+03  0.39620118876E+03  0.44181260451E+03  0.72466575405E+03  0.00000000000E+00 0.  1.
          2    1    6    6  503    0 -0.15591415148E+02 -0.35687686285E+01 -0.65729161630E+01  0.17292529101E+02  0.00000000000E+00 0. -1.
         -2    1    6    6    0  503  0.94657822767E+02 -0.13357950321E+03 -0.15983982449E+03  0.22880637356E+03  0.00000000000E+00 0.  1.
<mgrwt>
<rscale>  0 0.17609334E+04</rscale>
<asrwt>0</asrwt>
<pdfrwt beam="1">  1        1 0.14374846E+00 0.17609334E+04</pdfrwt>
<pdfrwt beam="2">  1       -2 0.12764269E+00 0.17609334E+04</pdfrwt>
<totfact> 0.64389888E+00</totfact>
</mgrwt>
</event>
<event>
12    4  0.4381187E-008  0.1823309E+04  0.7818608E-02  0.8694001E-01
          1   -1    0    0  501    0  0.00000000000E+00  0.00000000000E+00  0.53585705039E+03  0.53585705039E+03  0.00000000000E+00 0. -1.
         -2   -1    0    0    0  501 -0.00000000000E+00 -0.00000000000E+00 -0.15509989328E+04  0.15509989328E+04  0.00000000000E+00 0.  1.
        -24    2    1    2    0    0 -0.26237065301E+02 -0.53942431800E+03 -0.87025883639E+03  0.10273626138E+04  0.80352470195E+02 0.  0.
        254    2    1    2    0    0  0.26237065301E+02  0.53942431800E+03 -0.14488304605E+03  0.10594933694E+04  0.89992673278E+03 0.  0.
         23    2    4    4    0    0  0.74101328434E+02  0.61331675087E+03  0.22839861819E+03  0.66493475267E+03  0.91235150763E+02 0.  0.
         23    2    4    4    0    0 -0.47864263133E+02 -0.73892432869E+02 -0.37328166424E+03  0.39455861676E+03  0.92661868540E+02 0.  0.
          1    1    3    3  502    0 -0.42138494266E+02 -0.26938643517E+03 -0.48915337979E+03  0.56001404725E+03  0.00000000000E+00 0. -1.
         -2    1    3    3    0  502  0.15901428965E+02 -0.27003788284E+03 -0.38110545660E+03  0.46734856656E+03  0.00000000000E+00 0.  1.
         11    1    5    5    0    0  0.93252872400E+02  0.56102980421E+03  0.20524404678E+03  0.60462852907E+03  0.00000000000E+00 0. -1.
        -11    1    5    5    0    0 -0.19151543966E+02  0.52286946663E+02  0.23154571408E+02  0.60306223599E+02  0.00000000000E+00 0.  1.
          4    1    6    6  503    0 -0.89841471414E+01  0.22002350483E+02 -0.85375795625E+02  0.88621920568E+02  0.00000000000E+00 0.  1.
         -4    1    6    6    0  503 -0.38880115992E+02 -0.95894783352E+02 -0.28790586862E+03  0.30593669619E+03  0.00000000000E+00 0. -1.
<mgrwt>
<rscale>  0 0.18233088E+04</rscale>
<asrwt>0</asrwt>
<pdfrwt beam="1">  1        1 0.82439547E-01 0.18233088E+04</pdfrwt>
<pdfrwt beam="2">  1       -2 0.23861522E+00 0.18233088E+04</pdfrwt>
<totfact> 0.25052399E+00</totfact>
</mgrwt>
</event>
<event>
12    4  0.4381187E-008  0.1705976E+04  0.7818608E-02  0.8757963E-01
         -4   -1    0    0    0  501 -0.00000000000E+00  0.00000000000E+00  0.37517539415E+03  0.37517539415E+03  0.00000000000E+00 0.  1.
          1   -1    0    0  501    0  0.00000000000E+00 -0.00000000000E+00 -0.19393287453E+04  0.19393287453E+04  0.00000000000E+00 0. -1.
        -24    2    1    2    0    0  0.52982155267E+02  0.11439359325E+02 -0.13885899935E+04  0.13919371231E+04  0.79804866960E+02 0.  0.
        254    2    1    2    0    0 -0.52982155267E+02 -0.11439359325E+02 -0.17556335762E+03  0.92256701635E+03  0.90408486294E+03 0.  0.
         23    2    4    4    0    0  0.34913217834E+03 -0.22900564303E+03 -0.10115747031E+02  0.42834472830E+03  0.95078995732E+02 0.  0.
         23    2    4    4    0    0 -0.40211433361E+03  0.21756628371E+03 -0.16544761059E+03  0.49422228806E+03  0.88610005454E+02 0.  0.
          1    1    3    3  502    0  0.15509715724E+02  0.15002399484E+02 -0.11650707577E+04  0.11652705667E+04  0.00000000000E+00 0. -1.
         -2    1    3    3    0  502  0.37472439543E+02 -0.35630401596E+01 -0.22351923583E+03  0.22666655634E+03  0.00000000000E+00 0.  1.
         11    1    5    5    0    0  0.17665141591E+03 -0.16976645019E+03 -0.19156428130E+02  0.24575056276E+03  0.00000000000E+00 0. -1.
        -11    1    5    5    0    0  0.17248076242E+03 -0.59239192835E+02  0.90406810988E+01  0.18259416554E+03  0.00000000000E+00 0.  1.
          3    1    6    6  503    0 -0.19354224853E+03  0.15425165384E+03 -0.95957654664E+02  0.26544311286E+03  0.00000000000E+00 0. -1.
         -3    1    6    6    0  503 -0.20857208508E+03  0.63314629868E+02 -0.69489955923E+02  0.22877917520E+03  0.00000000000E+00 0.  1.
<mgrwt>
<rscale>  0 0.17059759E+04</rscale>
<asrwt>0</asrwt>
<pdfrwt beam="1">  1        1 0.29835827E+00 0.17059759E+04</pdfrwt>
<pdfrwt beam="2">  1       -4 0.57719291E-01 0.17059759E+04</pdfrwt>
<totfact> 0.43815807E+00</totfact>
</mgrwt>
</event>
<event>
12    4  0.4381187E-008  0.1497351E+04  0.7818608E-02  0.8886217E-01
          1   -1    0    0  501    0  0.00000000000E+00  0.00000000000E+00  0.23038638910E+04  0.23038638910E+04  0.00000000000E+00 0. -1.
         -2   -1    0    0    0  501 -0.00000000000E+00 -0.00000000000E+00 -0.24329337559E+03  0.24329337559E+03  0.00000000000E+00 0.  1.
        -24    2    1    2    0    0 -0.30936130225E+03 -0.34204089678E+03  0.83084132475E+03  0.95536975613E+03  0.98679651513E+02 0.  0.
        254    2    1    2    0    0  0.30936130225E+03  0.34204089678E+03  0.12297291906E+04  0.15917875104E+04  0.89936489015E+03 0.  0.
         23    2    4    4    0    0 -0.15474963217E+03 -0.64881389886E+02  0.82850139426E+03  0.85013985090E+03  0.90366821237E+02 0.  0.
         23    2    4    4    0    0  0.46411093442E+03  0.40692228666E+03  0.40122779636E+03  0.74164765951E+03  0.89848758775E+02 0.  0.
          1    1    3    3  502    0 -0.27385352132E+03 -0.27246136407E+03  0.74570970645E+03  0.83982969246E+03  0.00000000000E+00 0. -1.
         -2    1    3    3    0  502 -0.35507780933E+02 -0.69579532705E+02  0.85131618298E+02  0.11554006367E+03  0.00000000000E+00 0.  1.
         11    1    5    5    0    0 -0.64271824940E+00  0.64530725871E+01  0.16905803052E+03  0.16918236585E+03  0.00000000000E+00 0. -1.
        -11    1    5    5    0    0 -0.15410691392E+03 -0.71334462473E+02  0.65944336374E+03  0.68095748505E+03  0.00000000000E+00 0.  1.
          4    1    6    6  503    0  0.25188077381E+03  0.22283131133E+03  0.16505585007E+03  0.37462134372E+03  0.00000000000E+00 0. -1.
         -4    1    6    6    0  503  0.21223016061E+03  0.18409097533E+03  0.23617194629E+03  0.36702631579E+03  0.00000000000E+00 0.  1.
<mgrwt>
<rscale>  0 0.14973508E+04</rscale>
<asrwt>0</asrwt>
<pdfrwt beam="1">  1        1 0.35444058E+00 0.14973508E+04</pdfrwt>
<pdfrwt beam="2">  1       -2 0.37429752E-01 0.14973508E+04</pdfrwt>
<totfact> 0.10596612E+01</totfact>
</mgrwt>
</event>
<event>
12    4  0.4381187E-008  0.1464374E+04  0.7818608E-02  0.8908496E-01
         -2   -1    0    0    0  501 -0.00000000000E+00  0.00000000000E+00  0.10616451755E+04  0.10616451755E+04  0.00000000000E+00 0.  1.
          1   -1    0    0  501    0  0.00000000000E+00 -0.00000000000E+00 -0.50496890844E+03  0.50496890844E+03  0.00000000000E+00 0. -1.
        -24    2    1    2    0    0  0.23594896761E+03  0.49226962156E+01  0.58641415556E+03  0.63759345297E+03  0.83352871432E+02 0.  0.
        254    2    1    2    0    0 -0.23594896761E+03 -0.49226962156E+01 -0.29737888508E+02  0.92902063095E+03  0.89805280606E+03 0.  0.
         23    2    4    4    0    0 -0.90917625796E+02 -0.42837167098E+03 -0.12026940747E+03  0.46485545564E+03  0.99285251075E+02 0.  0.
         23    2    4    4    0    0 -0.14503134181E+03  0.42344897477E+03  0.90531518966E+02  0.46416517532E+03  0.83127791440E+02 0.  0.
          3    1    3    3  502    0  0.26809436781E+02  0.26875855521E+02  0.63530792193E+02  0.74008236482E+02  0.00000000000E+00 0. -1.
         -4    1    3    3    0  502  0.20913953083E+03 -0.21953159306E+02  0.52288336337E+03  0.56358521649E+03  0.00000000000E+00 0.  1.
         11    1    5    5    0    0 -0.51421515369E+02 -0.17465993308E+03 -0.18139120475E+01  0.18208117625E+03  0.00000000000E+00 0.  1.
        -11    1    5    5    0    0 -0.39496110426E+02 -0.25371173790E+03 -0.11845549543E+03  0.28277427939E+03  0.00000000000E+00 0. -1.
          3    1    6    6  503    0 -0.10853406916E+03  0.36338975737E+03  0.10253593968E+03  0.39286814436E+03  0.00000000000E+00 0. -1.
         -3    1    6    6    0  503 -0.36497272659E+02  0.60059217399E+02 -0.12004420717E+02  0.71297030954E+02  0.00000000000E+00 0.  1.
<mgrwt>
<rscale>  0 0.14643740E+04</rscale>
<asrwt>0</asrwt>
<pdfrwt beam="1">  1        1 0.77687525E-01 0.14643740E+04</pdfrwt>
<pdfrwt beam="2">  1       -2 0.16333003E+00 0.14643740E+04</pdfrwt>
<totfact> 0.88233161E+00</totfact>
</mgrwt>
</event>
<event>
12    4  0.4381187E-008  0.1797617E+04  0.7818608E-02  0.8707568E-01
         -2   -1    0    0    0  501 -0.00000000000E+00  0.00000000000E+00  0.62739484750E+03  0.62739484750E+03  0.00000000000E+00 0.  1.
          1   -1    0    0  501    0  0.00000000000E+00 -0.00000000000E+00 -0.12876364698E+04  0.12876364698E+04  0.00000000000E+00 0. -1.
        -24    2    1    2    0    0 -0.59416591555E+02  0.15656136195E+03 -0.92256299408E+03  0.94118005580E+03  0.81582032200E+02 0.  0.
        254    2    1    2    0    0  0.59416591555E+02 -0.15656136195E+03  0.26232137175E+03  0.97385126152E+03  0.92278490781E+03 0.  0.
         23    2    4    4    0    0  0.46015667066E+03 -0.22547907931E+03  0.13567294001E+03  0.53825620408E+03  0.93421720272E+02 0.  0.
         23    2    4    4    0    0 -0.40074007910E+03  0.68917717361E+02  0.12664843174E+03  0.43559505745E+03  0.91438318241E+02 0.  0.
          3    1    3    3  502    0 -0.39006257698E+02  0.14908797356E+03 -0.87996519519E+03  0.89335740706E+03  0.00000000000E+00 0. -1.
         -4    1    3    3    0  502 -0.20410333857E+02  0.74733883904E+01 -0.42597798890E+02  0.47822648739E+02  0.00000000000E+00 0.  1.
         11    1    5    5    0    0  0.39503984773E+03 -0.18458494239E+03  0.79976035853E+02  0.44331055544E+03  0.00000000000E+00 0. -1.
        -11    1    5    5    0    0  0.65116822926E+02 -0.40894136916E+02  0.55696904158E+02  0.94945648636E+02  0.00000000000E+00 0.  1.
          2    1    6    6  503    0 -0.21010314435E+02  0.12053851350E+02 -0.12421714151E+02  0.27221822633E+02  0.00000000000E+00 0.  1.
         -2    1    6    6    0  503 -0.37972976467E+03  0.56863866011E+02  0.13907014589E+03  0.40837323481E+03  0.00000000000E+00 0. -1.
<mgrwt>
<rscale>  0 0.17976167E+04</rscale>
<asrwt>0</asrwt>
<pdfrwt beam="1">  1        1 0.19809792E+00 0.17976167E+04</pdfrwt>
<pdfrwt beam="2">  1       -2 0.96522285E-01 0.17976167E+04</pdfrwt>
<totfact> 0.68638638E+00</totfact>
</mgrwt>
</event>
<event>
12    4  0.4381187E-008  0.2903788E+04  0.7818608E-02  0.8271751E-01
          1   -1    0    0  501    0  0.00000000000E+00  0.00000000000E+00  0.91579766137E+03  0.91579766137E+03  0.00000000000E+00 0. -1.
         -2   -1    0    0    0  501 -0.00000000000E+00 -0.00000000000E+00 -0.23018140724E+04  0.23018140724E+04  0.00000000000E+00 0.  1.
        -24    2    1    2    0    0  0.23687417603E+03 -0.10844629222E+03 -0.20516004369E+04  0.20696184725E+04  0.79914299910E+02 0.  0.
        254    2    1    2    0    0 -0.23687417603E+03  0.10844629222E+03  0.66558402589E+03  0.11479932613E+04  0.89834094800E+03 0.  0.
         23    2    4    4    0    0  0.36192150636E+02  0.46267567482E+03  0.27035002079E+03  0.54435242458E+03  0.88610250908E+02 0.  0.
         23    2    4    4    0    0 -0.27306632666E+03 -0.35422938260E+03  0.39523400511E+03  0.60364083670E+03  0.90159118696E+02 0.  0.
          1    1    3    3  502    0  0.11321139985E+03 -0.23212331434E+02 -0.11256019206E+04  0.11315190308E+04  0.00000000000E+00 0. -1.
         -2    1    3    3    0  502  0.12366277618E+03 -0.85233960787E+02 -0.92599851630E+03  0.93809944167E+03  0.00000000000E+00 0.  1.
         11    1    5    5    0    0 -0.67823621568E+01  0.30705463745E+02 -0.26262488679E+01  0.31555080785E+02  0.00000000000E+00 0.  1.
        -11    1    5    5    0    0  0.42974512792E+02  0.43197021108E+03  0.27297626966E+03  0.51279734379E+03  0.00000000000E+00 0. -1.
          1    1    6    6  503    0 -0.21926770766E+03 -0.32232036973E+03  0.31080777001E+03  0.49856816812E+03  0.00000000000E+00 0. -1.
         -1    1    6    6    0  503 -0.53798619007E+02 -0.31909012865E+02  0.84426235100E+02  0.10507266858E+03  0.00000000000E+00 0.  1.
<mgrwt>
<rscale>  0 0.29037878E+04</rscale>
<asrwt>0</asrwt>
<pdfrwt beam="1">  1        1 0.14089195E+00 0.29037878E+04</pdfrwt>
<pdfrwt beam="2">  1       -2 0.35412524E+00 0.29037878E+04</pdfrwt>
<totfact> 0.19478545E-01</totfact>
</mgrwt>
</event>
<event>
12    4  0.4381187E-008  0.1826277E+04  0.7818608E-02  0.8692449E-01
         -2   -1    0    0    0  501 -0.00000000000E+00  0.00000000000E+00  0.42905555051E+03  0.42905555051E+03  0.00000000000E+00 0.  1.
          1   -1    0    0  501    0  0.00000000000E+00 -0.00000000000E+00 -0.19433892463E+04  0.19433892463E+04  0.00000000000E+00 0. -1.
        -24    2    1    2    0    0  0.61413164438E+03 -0.30667725270E+03 -0.50090474125E+03  0.85316394722E+03  0.75990440602E+02 0.  0.
        254    2    1    2    0    0 -0.61413164438E+03  0.30667725270E+03 -0.10134289545E+04  0.15192808496E+04  0.89998191096E+03 0.  0.
         23    2    4    4    0    0  0.19584303073E+03  0.17779261708E+03 -0.41451008683E+03  0.50017397340E+03  0.91600677999E+02 0.  0.
         23    2    4    4    0    0 -0.80997467511E+03  0.12888463562E+03 -0.59891886769E+03  0.10191068762E+04  0.84881042369E+02 0.  0.
          3    1    3    3  502    0  0.18775923782E+03 -0.83707398497E+02 -0.19265806362E+03  0.28174028719E+03  0.00000000000E+00 0. -1.
         -4    1    3    3    0  502  0.42637240657E+03 -0.22296985420E+03 -0.30824667763E+03  0.57142366003E+03  0.00000000000E+00 0.  1.
         11    1    5    5    0    0  0.41246147410E+02 -0.23869212070E+01 -0.46226980360E+02  0.61998998236E+02  0.00000000000E+00 0. -1.
        -11    1    5    5    0    0  0.15459688332E+03  0.18017953829E+03 -0.36828310647E+03  0.43817497517E+03  0.00000000000E+00 0.  1.
          4    1    6    6  503    0 -0.10055061685E+03  0.45055280997E+02 -0.80813517110E+02  0.13664270724E+03  0.00000000000E+00 0. -1.
         -4    1    6    6    0  503 -0.70942405826E+03  0.83829354624E+02 -0.51810535058E+03  0.88246416892E+03  0.00000000000E+00 0.  1.
<mgrwt>
<rscale>  0 0.18262770E+04</rscale>
<asrwt>0</asrwt>
<pdfrwt beam="1">  1        1 0.29898297E+00 0.18262770E+04</pdfrwt>
<pdfrwt beam="2">  1       -2 0.66008545E-01 0.18262770E+04</pdfrwt>
<totfact> 0.56841016E+00</totfact>
</mgrwt>
</event>
<event>
12    4  0.4381187E-008  0.1247776E+04  0.7818608E-02  0.9072037E-01
          1   -1    0    0  501    0  0.00000000000E+00  0.00000000000E+00  0.20635749990E+04  0.20635749990E+04  0.00000000000E+00 0. -1.
         -2   -1    0    0    0  501 -0.00000000000E+00 -0.00000000000E+00 -0.18862220313E+03  0.18862220313E+03  0.00000000000E+00 0.  1.
        -24    2    1    2    0    0 -0.27626472605E+01  0.27324446663E+03  0.26185689077E+03  0.38710133246E+03  0.81291079422E+02 0.  0.
        254    2    1    2    0    0  0.27626472605E+01 -0.27324446663E+03  0.16130959051E+04  0.18650958696E+04  0.89545185979E+03 0.  0.
         23    2    4    4    0    0  0.38171437353E+03  0.37364994959E+01  0.10752352737E+04  0.11455447678E+04  0.10208867042E+03 0.  0.
         23    2    4    4    0    0 -0.37895172627E+03 -0.27698096612E+03  0.53786063134E+03  0.71955110189E+03  0.90204562299E+02 0.  0.
          3    1    3    3  502    0  0.10985518360E+02  0.10287027822E+03  0.50045210226E+02  0.11492388273E+03  0.00000000000E+00 0. -1.
         -4    1    3    3    0  502 -0.13748165620E+02  0.17037418841E+03  0.21181168054E+03  0.27217744974E+03  0.00000000000E+00 0.  1.
         11    1    5    5    0    0  0.19349696753E+02 -0.17033615296E+02  0.32735425905E+02  0.41667288413E+02  0.00000000000E+00 0.  1.
        -11    1    5    5    0    0  0.36236467677E+03  0.20770114792E+02  0.10424998478E+04  0.11038774793E+04  0.00000000000E+00 0. -1.
          1    1    6    6  503    0 -0.20906608397E+03 -0.16051687718E+03  0.36751956639E+03  0.45226643365E+03  0.00000000000E+00 0. -1.
         -1    1    6    6    0  503 -0.16988564230E+03 -0.11646408894E+03  0.17034106495E+03  0.26728466825E+03  0.00000000000E+00 0.  1.
<mgrwt>
<rscale>  0 0.12477757E+04</rscale>
<asrwt>0</asrwt>
<pdfrwt beam="1">  1        1 0.31747306E+00 0.12477757E+04</pdfrwt>
<pdfrwt beam="2">  1       -2 0.29018802E-01 0.12477757E+04</pdfrwt>
<totfact> 0.25535954E+01</totfact>
</mgrwt>
</event>
<event>
12    4  0.4381187E-008  0.1721159E+04  0.7818608E-02  0.8749388E-01
         -2   -1    0    0    0  501 -0.00000000000E+00  0.00000000000E+00  0.17931976919E+04  0.17931976919E+04  0.00000000000E+00 0.  1.
          1   -1    0    0  501    0  0.00000000000E+00 -0.00000000000E+00 -0.41300359705E+03  0.41300359705E+03  0.00000000000E+00 0. -1.
        -24    2    1    2    0    0  0.16073006962E+02  0.60966675174E+03  0.35215394909E+03  0.70886093273E+03  0.80743596423E+02 0.  0.
        254    2    1    2    0    0 -0.16073006962E+02 -0.60966675174E+03  0.10280401457E+04  0.14973403562E+04  0.90178140992E+03 0.  0.
         23    2    4    4    0    0  0.17174482124E+03 -0.29822023714E+03  0.10625853984E+04  0.11206078490E+04  0.90788925037E+02 0.  0.
         23    2    4    4    0    0 -0.18781782820E+03 -0.31144651460E+03 -0.34545252708E+02  0.37673250713E+03  0.91975754403E+02 0.  0.
          1    1    3    3  502    0 -0.48179844941E+01  0.50172895558E+03  0.25844175275E+03  0.56439994455E+03  0.00000000000E+00 0. -1.
         -2    1    3    3    0  502  0.20890991457E+02  0.10793779615E+03  0.93712196336E+02  0.14446098818E+03  0.00000000000E+00 0.  1.
         11    1    5    5    0    0  0.90335248252E+02 -0.10596918906E+03  0.54485161510E+03  0.56236394673E+03  0.00000000000E+00 0.  1.
        -11    1    5    5    0    0  0.81409572990E+02 -0.19225104808E+03  0.51773378333E+03  0.55824390231E+03  0.00000000000E+00 0. -1.
          2    1    6    6  503    0 -0.11756897173E+03 -0.21877341184E+03 -0.64590326418E+02  0.25662458788E+03  0.00000000000E+00 0. -1.
         -2    1    6    6    0  503 -0.70248856476E+02 -0.92673102765E+02  0.30045073711E+02  0.12010791925E+03  0.00000000000E+00 0.  1.
<mgrwt>
<rscale>  0 0.17211590E+04</rscale>
<asrwt>0</asrwt>
<pdfrwt beam="1">  1        1 0.63539016E-01 0.17211590E+04</pdfrwt>
<pdfrwt beam="2">  1       -2 0.27587656E+00 0.17211590E+04</pdfrwt>
<totfact> 0.21331232E+00</totfact>
</mgrwt>
</event>
<event>
12    4  0.4381187E-008  0.3148827E+04  0.7818608E-02  0.8202464E-01
         -2   -1    0    0    0  501 -0.00000000000E+00  0.00000000000E+00  0.73796044155E+03  0.73796044155E+03  0.00000000000E+00 0.  1.
          1   -1    0    0  501    0  0.00000000000E+00 -0.00000000000E+00 -0.33589574278E+04  0.33589574278E+04  0.00000000000E+00 0. -1.
        -24    2    1    2    0    0  0.14025256853E+04 -0.24436979785E+03 -0.88143056781E+03  0.16763567809E+04  0.80357421178E+02 0.  0.
        254    2    1    2    0    0 -0.14025256853E+04  0.24436979785E+03 -0.17395664185E+04  0.24205610885E+04  0.89790298067E+03 0.  0.
         23    2    4    4    0    0 -0.31859501690E+02  0.17938982988E+03 -0.60256941529E+03  0.63618466427E+03  0.91898247510E+02 0.  0.
         23    2    4    4    0    0 -0.13706661836E+04  0.64979967970E+02 -0.11369970032E+04  0.17843764242E+04  0.91043148409E+02 0.  0.
          3    1    3    3  502    0  0.74238422074E+03 -0.13573730043E+03 -0.51371898268E+03  0.91294366699E+03  0.00000000000E+00 0. -1.
         -4    1    3    3    0  502  0.66014146454E+03 -0.10863249742E+03 -0.36771158513E+03  0.76341311394E+03  0.00000000000E+00 0.  1.
         11    1    5    5    0    0 -0.33087830088E+02  0.17648705743E+03 -0.60569202282E+03  0.63174782347E+03  0.00000000000E+00 0.  1.
        -11    1    5    5    0    0  0.12283283976E+01  0.29027724491E+01  0.31226075312E+01  0.44368408060E+01  0.00000000000E+00 0. -1.
          4    1    6    6  503    0 -0.80897829235E+03  0.79493725059E+02 -0.64922834890E+03  0.10403184987E+04  0.00000000000E+00 0. -1.
         -4    1    6    6    0  503 -0.56168789124E+03 -0.14513757089E+02 -0.48776865429E+03  0.74405792545E+03  0.00000000000E+00 0.  1.
<mgrwt>
<rscale>  0 0.31488269E+04</rscale>
<asrwt>0</asrwt>
<pdfrwt beam="1">  1        1 0.51676269E+00 0.31488269E+04</pdfrwt>
<pdfrwt beam="2">  1       -2 0.11353237E+00 0.31488269E+04</pdfrwt>
<totfact> 0.14472546E-01</totfact>
</mgrwt>
</event>
<event>
12    4  0.4381187E-008  0.2079353E+04  0.7818608E-02  0.8570393E-01
          1   -1    0    0  501    0  0.00000000000E+00  0.00000000000E+00  0.22231080659E+04  0.22231080659E+04  0.00000000000E+00 0. -1.
         -2   -1    0    0    0  501 -0.00000000000E+00 -0.00000000000E+00 -0.48622360241E+03  0.48622360241E+03  0.00000000000E+00 0.  1.
        -24    2    1    2    0    0 -0.58282917777E+03  0.26963911715E+03 -0.17618609622E+01  0.64675426386E+03  0.76765029236E+02 0.  0.
        254    2    1    2    0    0  0.58282917777E+03 -0.26963911715E+03  0.17386463245E+04  0.20625774045E+04  0.90495270808E+03 0.  0.
         23    2    4    4    0    0  0.10077825942E+03 -0.42132856637E+02  0.14343250725E+04  0.14420341245E+04  0.10120556934E+03 0.  0.
         23    2    4    4    0    0  0.48205091835E+03 -0.22750626051E+03  0.30432125195E+03  0.62054328000E+03  0.91270759362E+02 0.  0.
          3    1    3    3  502    0 -0.24245057907E+02  0.44415497927E+01 -0.13892417788E+02  0.28293982920E+02  0.00000000000E+00 0. -1.
         -4    1    3    3    0  502 -0.55858411986E+03  0.26519756736E+03  0.12130556826E+02  0.61846028094E+03  0.00000000000E+00 0.  1.
         11    1    5    5    0    0  0.10810105348E+03 -0.63388650661E+02  0.12723353223E+04  0.12784917408E+04  0.00000000000E+00 0.  1.
        -11    1    5    5    0    0 -0.73227940642E+01  0.21255794023E+02  0.16198975020E+03  0.16354238368E+03  0.00000000000E+00 0. -1.
          4    1    6    6  503    0  0.13874473455E+03 -0.11244126399E+03  0.10707883037E+03  0.20822827648E+03  0.00000000000E+00 0. -1.
         -4    1    6    6    0  503  0.34330618380E+03 -0.11506499653E+03  0.19724242158E+03  0.41231500353E+03  0.00000000000E+00 0.  1.
<mgrwt>
<rscale>  0 0.20793534E+04</rscale>
<asrwt>0</asrwt>
<pdfrwt beam="1">  1        1 0.34201662E+00 0.20793534E+04</pdfrwt>
<pdfrwt beam="2">  1       -2 0.74803632E-01 0.20793534E+04</pdfrwt>
<totfact> 0.27309353E+00</totfact>
</mgrwt>
</event>
<event>
12    4  0.4381187E-008  0.1359994E+04  0.7818608E-02  0.8983297E-01
         -2   -1    0    0    0  501 -0.00000000000E+00  0.00000000000E+00  0.41076666819E+03  0.41076666819E+03  0.00000000000E+00 0.  1.
          1   -1    0    0  501    0  0.00000000000E+00 -0.00000000000E+00 -0.11256894637E+04  0.11256894637E+04  0.00000000000E+00 0. -1.
        -24    2    1    2    0    0  0.22945628257E+03  0.18928935910E+03  0.10389632274E+03  0.32472916371E+03  0.78574403007E+02 0.  0.
        254    2    1    2    0    0 -0.22945628257E+03 -0.18928935910E+03 -0.81881911826E+03  0.12117269682E+04  0.84222137821E+03 0.  0.
         23    2    4    4    0    0 -0.81419850888E+02  0.95556801008E+02  0.13228560820E+03  0.20404656647E+03  0.91516254370E+02 0.  0.
         23    2    4    4    0    0 -0.14803643168E+03 -0.28484616010E+03 -0.95110472646E+03  0.10076804017E+04  0.88133258582E+02 0.  0.
          1    1    3    3  502    0 -0.58462682457E+01  0.20146375279E+01 -0.92759887249E+00  0.62528438680E+01  0.00000000000E+00 0. -1.
         -2    1    3    3    0  502  0.23530255081E+03  0.18727472157E+03  0.10482392161E+03  0.31847631984E+03  0.00000000000E+00 0.  1.
         11    1    5    5    0    0  0.13412359762E+02  0.85198855866E+01 -0.42029400907E+01  0.16436074659E+02  0.00000000000E+00 0.  1.
        -11    1    5    5    0    0 -0.94832210651E+02  0.87036915421E+02  0.13648854829E+03  0.18761049181E+03  0.00000000000E+00 0. -1.
          3    1    6    6  503    0 -0.10326875618E+03 -0.17690699003E+03 -0.47204279044E+03  0.51457255575E+03  0.00000000000E+00 0. -1.
         -3    1    6    6    0  503 -0.44767675502E+02 -0.10793917007E+03 -0.47906193602E+03  0.49310784597E+03  0.00000000000E+00 0.  1.
<mgrwt>
<rscale>  0 0.13599937E+04</rscale>
<asrwt>0</asrwt>
<pdfrwt beam="1">  1        1 0.17318299E+00 0.13599937E+04</pdfrwt>
<pdfrwt beam="2">  1       -2 0.63194874E-01 0.13599937E+04</pdfrwt>
<totfact> 0.24124450E+01</totfact>
</mgrwt>
</event>
<event>
12    4  0.4381187E-008  0.1678298E+04  0.7818608E-02  0.8773840E-01
          1   -1    0    0  501    0  0.00000000000E+00  0.00000000000E+00  0.14763064853E+04  0.14763064853E+04  0.00000000000E+00 0. -1.
         -2   -1    0    0    0  501 -0.00000000000E+00 -0.00000000000E+00 -0.47698140877E+03  0.47698140877E+03  0.00000000000E+00 0.  1.
        -24    2    1    2    0    0  0.51531364681E+02 -0.16308677958E+03  0.10129563850E+04  0.10303388821E+04  0.79150456710E+02 0.  0.
        254    2    1    2    0    0 -0.51531364681E+02  0.16308677958E+03 -0.13631308506E+02  0.92294901195E+03  0.90686067666E+03 0.  0.
         23    2    4    4    0    0 -0.10791329860E+03  0.34898866752E+03 -0.35653920645E+03  0.51833384919E+03  0.90063329950E+02 0.  0.
         23    2    4    4    0    0  0.56381933917E+02 -0.18590188794E+03  0.34290789795E+03  0.40461516276E+03  0.91592407157E+02 0.  0.
          3    1    3    3  502    0  0.34237991740E+02 -0.14739324256E+03  0.68319656086E+03  0.69975320564E+03  0.00000000000E+00 0. -1.
         -4    1    3    3    0  502  0.17293372941E+02 -0.15693537017E+02  0.32975982417E+03  0.33058567647E+03  0.00000000000E+00 0.  1.
         11    1    5    5    0    0 -0.11850959708E+03  0.27918184471E+03 -0.26520611287E+03  0.40289118794E+03  0.00000000000E+00 0. -1.
        -11    1    5    5    0    0  0.10596298479E+02  0.69806822810E+02 -0.91333093583E+02  0.11544266125E+03  0.00000000000E+00 0.  1.
          1    1    6    6  503    0  0.53831053250E+02 -0.46042142492E+02  0.80324680912E+02  0.10709675785E+03  0.00000000000E+00 0. -1.
         -1    1    6    6    0  503  0.25508806664E+01 -0.13985974545E+03  0.26258321704E+03  0.29751840491E+03  0.00000000000E+00 0.  1.
<mgrwt>
<rscale>  0 0.16782976E+04</rscale>
<asrwt>0</asrwt>
<pdfrwt beam="1">  1        1 0.22712407E+00 0.16782976E+04</pdfrwt>
<pdfrwt beam="2">  1       -2 0.73381756E-01 0.16782976E+04</pdfrwt>
<totfact> 0.95249629E+00</totfact>
</mgrwt>
</event>
<event>
12    4  0.4381187E-008  0.1812721E+04  0.7818608E-02  0.8699563E-01
         -2   -1    0    0    0  501 -0.00000000000E+00  0.00000000000E+00  0.92514142112E+03  0.92514142112E+03  0.00000000000E+00 0.  1.
          1   -1    0    0  501    0  0.00000000000E+00 -0.00000000000E+00 -0.88796129884E+03  0.88796129884E+03  0.00000000000E+00 0. -1.
        -24    2    1    2    0    0 -0.39685975261E+02  0.46932469487E+03  0.48184961260E+03  0.67848555863E+03  0.79517031323E+02 0.  0.
        254    2    1    2    0    0  0.39685975261E+02 -0.46932469487E+03 -0.44466949031E+03  0.11346171613E+04  0.93154951630E+03 0.  0.
         23    2    4    4    0    0 -0.20290950400E+03 -0.17984094598E+03  0.22113788715E+03  0.36373163748E+03  0.99416831110E+02 0.  0.
         23    2    4    4    0    0  0.24259547926E+03 -0.28948374889E+03 -0.66580737746E+03  0.77088552385E+03  0.91168084204E+02 0.  0.
          1    1    3    3  502    0 -0.23027144206E+02  0.64612671025E+02  0.10380937514E+03  0.12442440675E+03  0.00000000000E+00 0. -1.
         -4    1    3    3    0  502 -0.16658831056E+02  0.40471202384E+03  0.37804023746E+03  0.55406115189E+03  0.00000000000E+00 0.  1.
         11    1    5    5    0    0 -0.20751109464E+03 -0.16253856551E+03  0.22360694192E+03  0.34565836335E+03  0.00000000000E+00 0. -1.
        -11    1    5    5    0    0  0.46015906429E+01 -0.17302380466E+02 -0.24690547762E+01  0.18073274128E+02  0.00000000000E+00 0.  1.
          4    1    6    6  503    0  0.24723549435E+03 -0.26261449461E+03 -0.60720999371E+03  0.70625472664E+03  0.00000000000E+00 0. -1.
         -4    1    6    6    0  503 -0.46400150898E+01 -0.26869254276E+02 -0.58597383747E+02  0.64630797205E+02  0.00000000000E+00 0.  1.
<mgrwt>
<rscale>  0 0.18127215E+04</rscale>
<asrwt>0</asrwt>
<pdfrwt beam="1">  1        1 0.13660943E+00 0.18127215E+04</pdfrwt>
<pdfrwt beam="2">  1       -2 0.14232945E+00 0.18127215E+04</pdfrwt>
<totfact> 0.52893254E+00</totfact>
</mgrwt>
</event>
<event>
12    4  0.4381187E-008  0.3301202E+04  0.7818608E-02  0.8162590E-01
         -2   -1    0    0    0  501 -0.00000000000E+00  0.00000000000E+00  0.13331115924E+04  0.13331115924E+04  0.00000000000E+00 0.  1.
          1   -1    0    0  501    0  0.00000000000E+00 -0.00000000000E+00 -0.20437025093E+04  0.20437025093E+04  0.00000000000E+00 0. -1.
        -24    2    1    2    0    0  0.25379590953E+02  0.38811079602E+03  0.11811725853E+04  0.12463020939E+04  0.82620332414E+02 0.  0.
        254    2    1    2    0    0 -0.25379590953E+02 -0.38811079602E+03 -0.18917635022E+04  0.21305120077E+04  0.89946548184E+03 0.  0.
         23    2    4    4    0    0  0.35303641707E+03 -0.17032159356E+03 -0.37658150238E+03  0.55113850846E+03  0.91081669709E+02 0.  0.
         23    2    4    4    0    0 -0.37841600803E+03 -0.21778920246E+03 -0.15151819999E+04  0.15793734993E+04  0.89517292409E+02 0.  0.
          1    1    3    3  502    0 -0.27862707323E+02  0.75165511868E+02  0.23418393463E+03  0.24752434198E+03  0.00000000000E+00 0. -1.
         -2    1    3    3    0  502  0.53242298276E+02  0.31294528415E+03  0.94698865072E+03  0.99877775195E+03  0.00000000000E+00 0.  1.
         11    1    5    5    0    0  0.44373385755E+02 -0.17064951186E+02 -0.11127064279E+02  0.48826442444E+02  0.00000000000E+00 0. -1.
        -11    1    5    5    0    0  0.30866303132E+03 -0.15325664237E+03 -0.36545443810E+03  0.50231206601E+03  0.00000000000E+00 0.  1.
          3    1    6    6  503    0 -0.11379032879E+03 -0.11376350976E+03 -0.51381704050E+03  0.53842207067E+03  0.00000000000E+00 0. -1.
         -3    1    6    6    0  503 -0.26462567924E+03 -0.10402569270E+03 -0.10013649594E+04  0.10409514286E+04  0.00000000000E+00 0.  1.
<mgrwt>
<rscale>  0 0.33012019E+04</rscale>
<asrwt>0</asrwt>
<pdfrwt beam="1">  1        1 0.31441577E+00 0.33012019E+04</pdfrwt>
<pdfrwt beam="2">  1       -2 0.20509409E+00 0.33012019E+04</pdfrwt>
<totfact> 0.25008252E-01</totfact>
</mgrwt>
</event>
<event>
12    4  0.4662073E-008  0.1645284E+04  0.7818608E-02  0.8793201E-01
          1   -1    0    0  501    0  0.00000000000E+00  0.00000000000E+00  0.15869157402E+04  0.15869157402E+04  0.00000000000E+00 0. -1.
         -2   -1    0    0    0  501 -0.00000000000E+00 -0.00000000000E+00 -0.42644967916E+03  0.42644967916E+03  0.00000000000E+00 0.  1.
        -24    2    1    2    0    0 -0.66507048789E+02  0.16391792433E+03  0.10786419314E+04  0.10958682490E+04  0.78527253164E+02 0.  0.
        254    2    1    2    0    0  0.66507048789E+02 -0.16391792433E+03  0.81824129635E+02  0.91749717038E+03  0.89655652137E+03 0.  0.
         23    2    4    4    0    0 -0.11082289100E+02 -0.84299849734E+02 -0.39763049216E+03  0.41672946782E+03  0.91236830591E+02 0.  0.
         23    2    4    4    0    0  0.77589337889E+02 -0.79618074600E+02  0.47945462180E+03  0.50076770256E+03  0.92371069085E+02 0.  0.
          1    1    3    3  502    0 -0.82480610886E+02  0.15409861515E+03  0.97106113506E+03  0.98666567913E+03  0.00000000000E+00 0. -1.
         -4    1    3    3    0  502  0.15973562098E+02  0.98193091863E+01  0.10758079635E+03  0.10920256985E+03  0.00000000000E+00 0.  1.
         11    1    5    5    0    0 -0.49061734297E+02 -0.59214734782E+02 -0.28646199152E+03  0.29660396352E+03  0.00000000000E+00 0. -1.
        -11    1    5    5    0    0  0.37979445196E+02 -0.25085114952E+02 -0.11116850064E+03  0.12012550430E+03  0.00000000000E+00 0.  1.
          4    1    6    6  503    0  0.81039006197E+02 -0.48717586681E+02  0.22003417586E+03  0.23949063097E+03  0.00000000000E+00 0. -1.
         -4    1    6    6    0  503 -0.34496683077E+01 -0.30900487918E+02  0.25942044594E+03  0.26127707158E+03  0.00000000000E+00 0.  1.
<mgrwt>
<rscale>  0 0.16452838E+04</rscale>
<asrwt>0</asrwt>
<pdfrwt beam="1">  1        1 0.24414088E+00 0.16452838E+04</pdfrwt>
<pdfrwt beam="2">  1       -2 0.65607644E-01 0.16452838E+04</pdfrwt>
<totfact> 0.10227049E+01</totfact>
</mgrwt>
</event>
<event>
12    4  0.4381187E-008  0.3304350E+04  0.7818608E-02  0.8161789E-01
          1   -1    0    0  501    0  0.00000000000E+00  0.00000000000E+00  0.11375818695E+04  0.11375818695E+04  0.00000000000E+00 0. -1.
         -4   -1    0    0    0  501 -0.00000000000E+00 -0.00000000000E+00 -0.23995484081E+04  0.23995484081E+04  0.00000000000E+00 0.  1.
        -24    2    1    2    0    0 -0.41922768471E+03  0.50283156278E+03 -0.20633078194E+04  0.21659784445E+04  0.75046867824E+02 0.  0.
        254    2    1    2    0    0  0.41922768471E+03 -0.50283156278E+03  0.80134128082E+03  0.13711518331E+04  0.89962106969E+03 0.  0.
         23    2    4    4    0    0 -0.15678606908E+03  0.10389422964E+03  0.37080276717E+03  0.42571357251E+03  0.91441080873E+02 0.  0.
         23    2    4    4    0    0  0.57601375379E+03 -0.60672579242E+03  0.43053851366E+03  0.94543826064E+03  0.92639414910E+02 0.  0.
          3    1    3    3  502    0 -0.69032179653E+02  0.44432867638E+02 -0.25862784754E+03  0.27134495587E+03  0.00000000000E+00 0. -1.
         -4    1    3    3    0  502 -0.35019550505E+03  0.45839869515E+03 -0.18046799719E+04  0.18946334886E+04  0.00000000000E+00 0.  1.
         11    1    5    5    0    0 -0.10687103050E+03  0.87820415993E+02  0.17531231318E+03  0.22331200097E+03  0.00000000000E+00 0.  1.
        -11    1    5    5    0    0 -0.49915038585E+02  0.16073813643E+02  0.19549045399E+03  0.20240157154E+03  0.00000000000E+00 0. -1.
          3    1    6    6  503    0  0.34792468368E+02 -0.11472167336E+02  0.26118979474E+02  0.44992527905E+02  0.00000000000E+00 0. -1.
         -3    1    6    6    0  503  0.54122128542E+03 -0.59525362508E+03  0.40441953418E+03  0.90044573273E+03  0.00000000000E+00 0.  1.
<mgrwt>
<rscale>  0 0.33043503E+04</rscale>
<asrwt>0</asrwt>
<pdfrwt beam="1">  1        1 0.17501259E+00 0.33043503E+04</pdfrwt>
<pdfrwt beam="2">  1       -4 0.36916130E+00 0.33043503E+04</pdfrwt>
<totfact> 0.52119287E-02</totfact>
</mgrwt>
</event>
<event>
12    4  0.4381187E-008  0.1446293E+04  0.7818608E-02  0.8920974E-01
          1   -1    0    0  501    0  0.00000000000E+00  0.00000000000E+00  0.33566662287E+03  0.33566662287E+03  0.00000000000E+00 0. -1.
         -2   -1    0    0    0  501 -0.00000000000E+00 -0.00000000000E+00 -0.15579182157E+04  0.15579182157E+04  0.00000000000E+00 0.  1.
        -24    2    1    2    0    0  0.55212596956E+02  0.12247903096E+03 -0.92148783297E+03  0.93605861440E+03  0.94954512216E+02 0.  0.
        254    2    1    2    0    0 -0.55212596956E+02 -0.12247903096E+03 -0.30076375991E+03  0.95752622422E+03  0.89908180212E+03 0.  0.
         23    2    4    4    0    0 -0.41605344091E+03 -0.82321252964E+01 -0.36741687961E+03  0.56262463923E+03  0.91559203052E+02 0.  0.
         23    2    4    4    0    0  0.36084084395E+03 -0.11424690567E+03  0.66653119699E+02  0.39490158499E+03  0.90808333016E+02 0.  0.
          3    1    3    3  502    0  0.15931899471E+02  0.53614611690E+02 -0.14307623923E+03  0.15362018825E+03  0.00000000000E+00 0. -1.
         -4    1    3    3    0  502  0.39280697484E+02  0.68864419274E+02 -0.77841159374E+03  0.78243842614E+03  0.00000000000E+00 0.  1.
         11    1    5    5    0    0 -0.83044800620E+01  0.75578831982E+01  0.28882476263E+01  0.11594307305E+02  0.00000000000E+00 0.  1.
        -11    1    5    5    0    0 -0.40774896085E+03 -0.15790008495E+02 -0.37030512723E+03  0.55103033192E+03  0.00000000000E+00 0. -1.
          1    1    6    6  503    0  0.35335104619E+03 -0.12607116178E+03  0.62835224497E+02  0.38039343463E+03  0.00000000000E+00 0. -1.
         -1    1    6    6    0  503  0.74897977667E+01  0.11824256110E+02  0.38178952016E+01  0.14508150362E+02  0.00000000000E+00 0.  1.
<mgrwt>
<rscale>  0 0.14462934E+04</rscale>
<asrwt>0</asrwt>
<pdfrwt beam="1">  1        1 0.51641018E-01 0.14462934E+04</pdfrwt>
<pdfrwt beam="2">  1       -2 0.23967973E+00 0.14462934E+04</pdfrwt>
<totfact> 0.47803389E+00</totfact>
</mgrwt>
</event>
<event>
12    4  0.4381187E-008  0.2773654E+04  0.7818608E-02  0.8311495E-01
         -2   -1    0    0    0  501 -0.00000000000E+00  0.00000000000E+00  0.64651658515E+03  0.64651658515E+03  0.00000000000E+00 0.  1.
          1   -1    0    0  501    0  0.00000000000E+00 -0.00000000000E+00 -0.29748484951E+04  0.29748484951E+04  0.00000000000E+00 0. -1.
        -24    2    1    2    0    0 -0.84577921583E+03  0.65896722999E+03 -0.17422562183E+04  0.20472887660E+04  0.79713668455E+02 0.  0.
        254    2    1    2    0    0  0.84577921583E+03 -0.65896722999E+03 -0.58607569165E+03  0.15740763143E+04  0.99229594107E+03 0.  0.
         23    2    4    4    0    0  0.62693941745E+03 -0.26673006302E+03 -0.81116816251E+03  0.10632396264E+04  0.91031618193E+02 0.  0.
         23    2    4    4    0    0  0.21883979838E+03 -0.39223716697E+03  0.22509247085E+03  0.51083668792E+03  0.92448086934E+02 0.  0.
          3    1    3    3  502    0 -0.59067222592E+03  0.49916825543E+03 -0.12884601052E+04  0.15027282084E+04  0.00000000000E+00 0. -1.
         -4    1    3    3    0  502 -0.25510698991E+03  0.15979897456E+03 -0.45379611307E+03  0.54456055753E+03  0.00000000000E+00 0.  1.
         11    1    5    5    0    0  0.66386199104E+02  0.42151901758E+00 -0.81252652771E+02  0.10492520523E+03  0.00000000000E+00 0. -1.
        -11    1    5    5    0    0  0.56055321835E+03 -0.26715158204E+03 -0.72991550974E+03  0.95831442113E+03  0.00000000000E+00 0.  1.
          1    1    6    6  503    0  0.65368988333E+02 -0.51111676650E+02  0.25218619423E+02  0.86726506278E+02  0.00000000000E+00 0. -1.
         -1    1    6    6    0  503  0.15347081004E+03 -0.34112549032E+03  0.19987385143E+03  0.42411018164E+03  0.00000000000E+00 0.  1.
<mgrwt>
<rscale>  0 0.27736538E+04</rscale>
<asrwt>0</asrwt>
<pdfrwt beam="1">  1        1 0.45766900E+00 0.27736538E+04</pdfrwt>
<pdfrwt beam="2">  1       -2 0.99464090E-01 0.27736538E+04</pdfrwt>
<totfact> 0.39798662E-01</totfact>
</mgrwt>
</event>
<event>
12    4  0.4381187E-008  0.1489198E+04  0.7818608E-02  0.8891668E-01
          1   -1    0    0  501    0  0.00000000000E+00  0.00000000000E+00  0.91672874518E+03  0.91672874518E+03  0.00000000000E+00 0. -1.
         -2   -1    0    0    0  501 -0.00000000000E+00 -0.00000000000E+00 -0.60478925740E+03  0.60478925740E+03  0.00000000000E+00 0.  1.
        -24    2    1    2    0    0  0.17107607548E+03  0.22666765357E+03  0.48396497263E+03  0.56677035963E+03  0.79757739756E+02 0.  0.
        254    2    1    2    0    0 -0.17107607548E+03 -0.22666765357E+03 -0.17202548485E+03  0.95474764295E+03  0.89515643633E+03 0.  0.
         23    2    4    4    0    0  0.32932283646E+03  0.67945917217E+02 -0.30935010024E+02  0.34985065372E+03  0.91478559148E+02 0.  0.
         23    2    4    4    0    0 -0.50039891194E+03 -0.29461357079E+03 -0.14109047482E+03  0.60489698923E+03  0.93795619992E+02 0.  0.
          1    1    3    3  502    0  0.16505895707E+03  0.23344009460E+03  0.46830061088E+03  0.54867494861E+03  0.00000000000E+00 0. -1.
         -2    1    3    3    0  502  0.60171184167E+01 -0.67724410241E+01  0.15664361744E+02  0.18095411029E+02  0.00000000000E+00 0.  1.
         11    1    5    5    0    0  0.88146032400E+02 -0.55097608342E+00  0.27648186548E+02  0.92382080631E+02  0.00000000000E+00 0.  1.
        -11    1    5    5    0    0  0.24117680406E+03  0.68496893300E+02 -0.58583196572E+02  0.25746857309E+03  0.00000000000E+00 0. -1.
          2    1    6    6  503    0 -0.48688492506E+03 -0.30155214336E+03 -0.13420930582E+03  0.58821999557E+03  0.00000000000E+00 0. -1.
         -2    1    6    6    0  503 -0.13513986884E+02  0.69385725732E+01 -0.68811690047E+01  0.16676993665E+02  0.00000000000E+00 0.  1.
<mgrwt>
<rscale>  0 0.14891980E+04</rscale>
<asrwt>0</asrwt>
<pdfrwt beam="1">  1        1 0.14103519E+00 0.14891980E+04</pdfrwt>
<pdfrwt beam="2">  1       -2 0.93044501E-01 0.14891980E+04</pdfrwt>
<totfact> 0.14638902E+01</totfact>
</mgrwt>
</event>
<event>
12    4  0.4381187E-008  0.2536437E+04  0.7818608E-02  0.8390118E-01
         -2   -1    0    0    0  501 -0.00000000000E+00  0.00000000000E+00  0.60293841039E+03  0.60293841039E+03  0.00000000000E+00 0.  1.
          1   -1    0    0  501    0  0.00000000000E+00 -0.00000000000E+00 -0.26675670046E+04  0.26675670046E+04  0.00000000000E+00 0. -1.
        -24    2    1    2    0    0  0.88439382556E+03  0.61954441050E+03 -0.11856800898E+04  0.16056800262E+04  0.79895907205E+02 0.  0.
        254    2    1    2    0    0 -0.88439382556E+03 -0.61954441050E+03 -0.87894850443E+03  0.16648253888E+04  0.91274606899E+03 0.  0.
         23    2    4    4    0    0 -0.73086396811E+03 -0.83629812618E+02 -0.17456371889E+03  0.76207256575E+03  0.95530194534E+02 0.  0.
         23    2    4    4    0    0 -0.15352985744E+03 -0.53591459788E+03 -0.70438478553E+03  0.90275282304E+03  0.89603906536E+02 0.  0.
          1    1    3    3  502    0  0.83444393125E+03  0.57277047609E+03 -0.11336728361E+04  0.15197291838E+04  0.00000000000E+00 0. -1.
         -2    1    3    3    0  502  0.49949894309E+02  0.46773934407E+02 -0.52007253714E+02  0.85950842463E+02  0.00000000000E+00 0.  1.
         11    1    5    5    0    0 -0.25232744604E+03 -0.14569243490E+02 -0.16048725057E+02  0.25325671651E+03  0.00000000000E+00 0. -1.
        -11    1    5    5    0    0 -0.47853652207E+03 -0.69060569129E+02 -0.15851499384E+03  0.50881584924E+03  0.00000000000E+00 0.  1.
          3    1    6    6  503    0 -0.76016127199E+02 -0.15242833063E+03 -0.25829354288E+03  0.30940006766E+03  0.00000000000E+00 0. -1.
         -3    1    6    6    0  503 -0.77513730244E+02 -0.38348626726E+03 -0.44609124265E+03  0.59335275538E+03  0.00000000000E+00 0.  1.
<mgrwt>
<rscale>  0 0.25364374E+04</rscale>
<asrwt>0</asrwt>
<pdfrwt beam="1">  1        1 0.41039491E+00 0.25364374E+04</pdfrwt>
<pdfrwt beam="2">  1       -2 0.92759757E-01 0.25364374E+04</pdfrwt>
<totfact> 0.79352725E-01</totfact>
</mgrwt>
</event>
<event>
12    4  0.4381187E-008  0.1439391E+04  0.7818608E-02  0.8925789E-01
          3   -1    0    0  501    0  0.00000000000E+00  0.00000000000E+00  0.30273861825E+03  0.30273861825E+03  0.00000000000E+00 0. -1.
         -4   -1    0    0    0  501 -0.00000000000E+00 -0.00000000000E+00 -0.17109191512E+04  0.17109191512E+04  0.00000000000E+00 0.  1.
        -24    2    1    2    0    0 -0.74470899381E+02  0.29390391365E+03 -0.85327005588E+03  0.90875235434E+03  0.76391281768E+02 0.  0.
        254    2    1    2    0    0  0.74470899381E+02 -0.29390391365E+03 -0.55491047706E+03  0.11049054151E+04  0.90607114152E+03 0.  0.
         23    2    4    4    0    0  0.25904386163E+02  0.24071229558E+03  0.80852653908E+02  0.26785183790E+03  0.81203503346E+02 0.  0.
         23    2    4    4    0    0  0.48566513218E+02 -0.53461620923E+03 -0.63576313097E+03  0.83705357722E+03  0.91053473566E+02 0.  0.
          1    1    3    3  502    0 -0.17498221517E+02  0.34239791115E+02 -0.52975458471E+02  0.65459531407E+02  0.00000000000E+00 0. -1.
         -2    1    3    3    0  502 -0.56972677864E+02  0.25966412253E+03 -0.80029459741E+03  0.84329282293E+03  0.00000000000E+00 0.  1.
         11    1    5    5    0    0 -0.11562065377E+02 -0.13469561550E+00  0.25631849134E+01  0.11843538981E+02  0.00000000000E+00 0. -1.
        -11    1    5    5    0    0  0.37466451540E+02  0.24084699120E+03  0.78289468995E+02  0.25600829892E+03  0.00000000000E+00 0.  1.
          3    1    6    6  503    0  0.59272060463E+00  0.85752227249E-01  0.27665839356E+01  0.28306638501E+01  0.00000000000E+00 0. -1.
         -3    1    6    6    0  503  0.47973792613E+02 -0.53470196146E+03 -0.63852971491E+03  0.83422291337E+03  0.00000000000E+00 0.  1.
<mgrwt>
<rscale>  0 0.14393906E+04</rscale>
<asrwt>0</asrwt>
<pdfrwt beam="1">  1        3 0.46575171E-01 0.14393906E+04</pdfrwt>
<pdfrwt beam="2">  1       -4 0.26321834E+00 0.14393906E+04</pdfrwt>
<totfact> 0.53374572E-01</totfact>
</mgrwt>
</event>
<event>
12    4  0.4381187E-008  0.2149248E+04  0.7818608E-02  0.8539854E-01
          1   -1    0    0  501    0  0.00000000000E+00  0.00000000000E+00  0.34502349824E+04  0.34502349824E+04  0.00000000000E+00 0. -1.
         -2   -1    0    0    0  501 -0.00000000000E+00 -0.00000000000E+00 -0.33470673647E+03  0.33470673647E+03  0.00000000000E+00 0.  1.
        -24    2    1    2    0    0 -0.86692543591E+03 -0.49872739233E+02  0.15965610861E+04  0.18192384554E+04  0.81081776648E+02 0.  0.
        254    2    1    2    0    0  0.86692543591E+03  0.49872739233E+02  0.15189671598E+04  0.19657032634E+04  0.89592470984E+03 0.  0.
         23    2    4    4    0    0 -0.17584287882E+03  0.25642379676E+02  0.26622294980E+03  0.33286664251E+03  0.91363521340E+02 0.  0.
         23    2    4    4    0    0  0.10427683147E+04  0.24230359558E+02  0.12527442100E+04  0.16328366209E+04  0.93992054613E+02 0.  0.
          3    1    3    3  502    0 -0.43377715388E+03 -0.30778712726E+02  0.71577219329E+03  0.83752001831E+03  0.00000000000E+00 0. -1.
         -4    1    3    3    0  502 -0.43314828203E+03 -0.19094026507E+02  0.88078889279E+03  0.98171843710E+03  0.00000000000E+00 0.  1.
         11    1    5    5    0    0 -0.17126554373E+02  0.15916902729E+02  0.72529521552E+00  0.23392150613E+02  0.00000000000E+00 0. -1.
        -11    1    5    5    0    0 -0.15871632445E+03  0.97254769470E+01  0.26549765458E+03  0.30947449190E+03  0.00000000000E+00 0.  1.
          3    1    6    6  503    0  0.57931996069E+02 -0.88333282292E+01  0.43718324324E+02  0.73112486880E+02  0.00000000000E+00 0. -1.
         -3    1    6    6    0  503  0.98483631866E+03  0.33063687787E+02  0.12090258857E+04  0.15597241340E+04  0.00000000000E+00 0.  1.
<mgrwt>
<rscale>  0 0.21492481E+04</rscale>
<asrwt>0</asrwt>
<pdfrwt beam="1">  1        1 0.53080536E+00 0.21492481E+04</pdfrwt>
<pdfrwt beam="2">  1       -2 0.51493346E-01 0.21492481E+04</pdfrwt>
<totfact> 0.78622666E-01</totfact>
</mgrwt>
</event>
<event>
12    4  0.4381187E-008  0.2151176E+04  0.7818608E-02  0.8539029E-01
          1   -1    0    0  501    0  0.00000000000E+00  0.00000000000E+00  0.13446295318E+04  0.13446295318E+04  0.00000000000E+00 0. -1.
         -2   -1    0    0    0  501 -0.00000000000E+00 -0.00000000000E+00 -0.86037820443E+03  0.86037820443E+03  0.00000000000E+00 0.  1.
        -24    2    1    2    0    0  0.13708581967E+02  0.78326374401E+03  0.62606168015E+03  0.10058936655E+04  0.78605477724E+02 0.  0.
        254    2    1    2    0    0 -0.13708581967E+02 -0.78326374401E+03 -0.14181035279E+03  0.11991140707E+04  0.89670193512E+03 0.  0.
         23    2    4    4    0    0  0.37168298825E+03 -0.93395093984E+02 -0.21276543701E+02  0.39456859253E+03  0.91437386039E+02 0.  0.
         23    2    4    4    0    0 -0.38539157021E+03 -0.68986865003E+03 -0.12053380909E+03  0.80454547815E+03  0.91211899459E+02 0.  0.
          3    1    3    3  502    0 -0.83556285931E+01  0.51378087805E+03  0.45174430696E+03  0.68418822414E+03  0.00000000000E+00 0. -1.
         -4    1    3    3    0  502  0.22064210560E+02  0.26948286596E+03  0.17431737319E+03  0.32170544141E+03  0.00000000000E+00 0.  1.
         11    1    5    5    0    0  0.14534274515E+03 -0.41125829241E+02  0.36073085826E+02  0.15529686062E+03  0.00000000000E+00 0.  1.
        -11    1    5    5    0    0  0.22634024310E+03 -0.52269264743E+02 -0.57349629527E+02  0.23927173191E+03  0.00000000000E+00 0. -1.
          3    1    6    6  503    0 -0.37536053004E+03 -0.68942333147E+03 -0.11592644863E+03  0.79349795146E+03  0.00000000000E+00 0. -1.
         -3    1    6    6    0  503 -0.10031040178E+02 -0.44531856030E+00 -0.46073604568E+01  0.11047526694E+02  0.00000000000E+00 0.  1.
<mgrwt>
<rscale>  0 0.21511764E+04</rscale>
<asrwt>0</asrwt>
<pdfrwt beam="1">  1        1 0.20686608E+00 0.21511764E+04</pdfrwt>
<pdfrwt beam="2">  1       -2 0.13236588E+00 0.21511764E+04</pdfrwt>
<totfact> 0.28024576E+00</totfact>
</mgrwt>
</event>
<event>
12    4  0.4381187E-008  0.2345711E+04  0.7818608E-02  0.8460113E-01
         -2   -1    0    0    0  501 -0.00000000000E+00  0.00000000000E+00  0.28030695315E+04  0.28030695315E+04  0.00000000000E+00 0.  1.
          1   -1    0    0  501    0  0.00000000000E+00 -0.00000000000E+00 -0.49074416321E+03  0.49074416321E+03  0.00000000000E+00 0. -1.
        -24    2    1    2    0    0  0.36558169130E+03 -0.41831694405E+03  0.21514812643E+04  0.22232226855E+04  0.72169523802E+02 0.  0.
        254    2    1    2    0    0 -0.36558169130E+03  0.41831694405E+03  0.16084410402E+03  0.10705910092E+04  0.90091911096E+03 0.  0.
         23    2    4    4    0    0 -0.29622707578E+03  0.61436768592E+03  0.34997999872E+03  0.77196523589E+03  0.90808545769E+02 0.  0.
         23    2    4    4    0    0 -0.69354615523E+02 -0.19605074188E+03 -0.18913589470E+03  0.29862577331E+03  0.10079191307E+03 0.  0.
          3    1    3    3  502    0  0.15722582507E+03 -0.13251713704E+03  0.85304714870E+03  0.87747945252E+03  0.00000000000E+00 0. -1.
         -4    1    3    3    0  502  0.20835586624E+03 -0.28579980700E+03  0.12984341156E+04  0.13457432330E+04  0.00000000000E+00 0.  1.
         11    1    5    5    0    0 -0.23334859096E+03  0.51558767116E+03  0.25294575699E+03  0.61989012538E+03  0.00000000000E+00 0. -1.
        -11    1    5    5    0    0 -0.62878484814E+02  0.98780014757E+02  0.97034241733E+02  0.15207511051E+03  0.00000000000E+00 0.  1.
          1    1    6    6  503    0 -0.73713939873E+02 -0.20622507310E+03 -0.17315879793E+03  0.27918899514E+03  0.00000000000E+00 0. -1.
         -1    1    6    6    0  503  0.43593243504E+01  0.10174331225E+02 -0.15977096765E+02  0.19436778172E+02  0.00000000000E+00 0.  1.
<mgrwt>
<rscale>  0 0.23457110E+04</rscale>
<asrwt>0</asrwt>
<pdfrwt beam="1">  1        1 0.75499104E-01 0.23457110E+04</pdfrwt>
<pdfrwt beam="2">  1       -2 0.43124146E+00 0.23457110E+04</pdfrwt>
<totfact> 0.16576400E-01</totfact>
</mgrwt>
</event>
<event>
12    4  0.4381187E-008  0.1177644E+04  0.7818608E-02  0.9132652E-01
          1   -1    0    0  501    0  0.00000000000E+00  0.00000000000E+00  0.19799752462E+04  0.19799752462E+04  0.00000000000E+00 0. -1.
         -2   -1    0    0    0  501 -0.00000000000E+00 -0.00000000000E+00 -0.17510907542E+03  0.17510907542E+03  0.00000000000E+00 0.  1.
        -24    2    1    2    0    0  0.22150873747E+03 -0.18710791767E+02  0.23392310018E+03  0.33242231038E+03  0.79802012085E+02 0.  0.
        254    2    1    2    0    0 -0.22150873747E+03  0.18710791767E+02  0.15709430706E+04  0.18226620112E+04  0.89711674918E+03 0.  0.
         23    2    4    4    0    0 -0.20492988017E+03  0.19364852777E+01  0.16687266614E+04  0.16837359640E+04  0.91203728772E+02 0.  0.
         23    2    4    4    0    0 -0.16578857304E+02  0.16774306489E+02 -0.97783590838E+02  0.13892604724E+03  0.95825779913E+02 0.  0.
          3    1    3    3  502    0  0.77309693952E+02  0.16297489942E+02  0.12682617487E+03  0.14942314275E+03  0.00000000000E+00 0. -1.
         -4    1    3    3    0  502  0.14419904352E+03 -0.35008281709E+02  0.10709692531E+03  0.18299916762E+03  0.00000000000E+00 0.  1.
         11    1    5    5    0    0 -0.15724767894E+03  0.33071615564E+02  0.10279110821E+04  0.10403950005E+04  0.00000000000E+00 0.  1.
        -11    1    5    5    0    0 -0.47682201227E+02 -0.31135130286E+02  0.64081557929E+03  0.64334096349E+03  0.00000000000E+00 0. -1.
          2    1    6    6  503    0  0.32513895668E+02 -0.77311876445E+01 -0.69676048104E+02  0.77276622295E+02  0.00000000000E+00 0. -1.
         -2    1    6    6    0  503 -0.49092752972E+02  0.24505494134E+02 -0.28107542734E+02  0.61649424942E+02  0.00000000000E+00 0.  1.
<mgrwt>
<rscale>  0 0.11776445E+04</rscale>
<asrwt>0</asrwt>
<pdfrwt beam="1">  1        1 0.30461156E+00 0.11776445E+04</pdfrwt>
<pdfrwt beam="2">  1       -2 0.26939859E-01 0.11776445E+04</pdfrwt>
<totfact> 0.33553546E+01</totfact>
</mgrwt>
</event>
<event>
12    4  0.4381187E-008  0.2577355E+04  0.7818608E-02  0.8375934E-01
          1   -1    0    0  501    0  0.00000000000E+00  0.00000000000E+00  0.79778739098E+03  0.79778739098E+03  0.00000000000E+00 0. -1.
         -2   -1    0    0    0  501 -0.00000000000E+00 -0.00000000000E+00 -0.20816201098E+04  0.20816201098E+04  0.00000000000E+00 0.  1.
        -24    2    1    2    0    0 -0.86823684451E+03 -0.14507730170E+03 -0.13667634359E+04  0.16276739964E+04  0.79985668675E+02 0.  0.
        254    2    1    2    0    0  0.86823684451E+03  0.14507730170E+03  0.82930717100E+02  0.12517335044E+04  0.88604549571E+03 0.  0.
         23    2    4    4    0    0  0.67682014478E+03 -0.28734546765E+03  0.17526286282E+03  0.76149389299E+03  0.92211451633E+02 0.  0.
         23    2    4    4    0    0  0.19141669973E+03  0.43242276934E+03 -0.92332145720E+02  0.49023961137E+03  0.90442506850E+02 0.  0.
          1    1    3    3  502    0 -0.50179755042E+02 -0.19364029381E+02 -0.57445093140E+02  0.78695058141E+02  0.00000000000E+00 0. -1.
         -2    1    3    3    0  502 -0.81805708947E+03 -0.12571327232E+03 -0.13093183428E+04  0.15489789383E+04  0.00000000000E+00 0.  1.
         11    1    5    5    0    0  0.40883293995E+02 -0.24359911668E+02 -0.10411913093E+02  0.48716085214E+02  0.00000000000E+00 0.  1.
        -11    1    5    5    0    0  0.63593685079E+03 -0.26298555598E+03  0.18567477591E+03  0.71277780777E+03  0.00000000000E+00 0. -1.
          4    1    6    6  503    0  0.18654260010E+03  0.38506969359E+03 -0.58537932554E+02  0.43186051003E+03  0.00000000000E+00 0. -1.
         -4    1    6    6    0  503  0.48740996292E+01  0.47353075748E+02 -0.33794213166E+02  0.58379101342E+02  0.00000000000E+00 0.  1.
<mgrwt>
<rscale>  0 0.25773554E+04</rscale>
<asrwt>0</asrwt>
<pdfrwt beam="1">  1        1 0.12273652E+00 0.25773554E+04</pdfrwt>
<pdfrwt beam="2">  1       -2 0.32024924E+00 0.25773554E+04</pdfrwt>
<totfact> 0.41010060E-01</totfact>
</mgrwt>
</event>
<event>
12    4  0.4381187E-008  0.1894649E+04  0.7818608E-02  0.8657524E-01
         -2   -1    0    0    0  501 -0.00000000000E+00  0.00000000000E+00  0.10296461176E+04  0.10296461176E+04  0.00000000000E+00 0.  1.
          1   -1    0    0  501    0  0.00000000000E+00 -0.00000000000E+00 -0.87158489589E+03  0.87158489589E+03  0.00000000000E+00 0. -1.
        -24    2    1    2    0    0 -0.61671137574E+03 -0.42896491501E+03  0.44973959389E+02  0.75646497628E+03  0.76634091825E+02 0.  0.
        254    2    1    2    0    0  0.61671137574E+03  0.42896491501E+03  0.11308726228E+03  0.11447660372E+04  0.85636250017E+03 0.  0.
         23    2    4    4    0    0 -0.40240906516E+02 -0.20116076812E+03  0.72266866815E+01  0.22495032405E+03  0.92007815454E+02 0.  0.
         23    2    4    4    0    0  0.65695228226E+03  0.63012568313E+03  0.10586057559E+03  0.91981571312E+03  0.78802328240E+02 0.  0.
          1    1    3    3  502    0 -0.11870479142E+02  0.25241108107E+01  0.12965852113E+01  0.12204939314E+02  0.00000000000E+00 0. -1.
         -2    1    3    3    0  502 -0.60484089660E+03 -0.43148902582E+03  0.43677374178E+02  0.74426003696E+03  0.00000000000E+00 0.  1.
         11    1    5    5    0    0 -0.14468474667E+02 -0.12670581189E+03 -0.39302088053E+02  0.13344794360E+03  0.00000000000E+00 0. -1.
        -11    1    5    5    0    0 -0.25772431849E+02 -0.74454956227E+02  0.46528774734E+02  0.91502380452E+02  0.00000000000E+00 0.  1.
          2    1    6    6  503    0  0.44121955361E+03  0.40884734052E+03  0.33715464255E+02  0.60246790360E+03  0.00000000000E+00 0. -1.
         -2    1    6    6    0  503  0.21573272865E+03  0.22127834261E+03  0.72145111339E+02  0.31734780952E+03  0.00000000000E+00 0.  1.
<mgrwt>
<rscale>  0 0.18946493E+04</rscale>
<asrwt>0</asrwt>
<pdfrwt beam="1">  1        1 0.13408998E+00 0.18946493E+04</pdfrwt>
<pdfrwt beam="2">  1       -2 0.15840710E+00 0.18946493E+04</pdfrwt>
<totfact> 0.40771682E+00</totfact>
</mgrwt>
</event>
<event>
12    4  0.4381187E-008  0.1464898E+04  0.7818608E-02  0.8908137E-01
          1   -1    0    0  501    0  0.00000000000E+00  0.00000000000E+00  0.93560604715E+03  0.93560604715E+03  0.00000000000E+00 0. -1.
         -2   -1    0    0    0  501 -0.00000000000E+00 -0.00000000000E+00 -0.57340567791E+03  0.57340567791E+03  0.00000000000E+00 0.  1.
        -24    2    1    2    0    0 -0.15341412241E+03 -0.41144359646E+03  0.25196407047E+03  0.51259999437E+03  0.80318960407E+02 0.  0.
        254    2    1    2    0    0  0.15341412241E+03  0.41144359646E+03  0.11023629877E+03  0.99641173068E+03  0.88761622870E+03 0.  0.
         23    2    4    4    0    0  0.15598298110E+03  0.68143045706E+03  0.80978916058E+02  0.70950423761E+03  0.90335597247E+02 0.  0.
         23    2    4    4    0    0 -0.25688586898E+01 -0.26998686060E+03  0.29257382714E+02  0.28690749308E+03  0.92522490284E+02 0.  0.
          1    1    3    3  502    0 -0.15616827860E+03 -0.40292348262E+03  0.25654220997E+03  0.50254330120E+03  0.00000000000E+00 0. -1.
         -2    1    3    3    0  502  0.27541561866E+01 -0.85201138482E+01 -0.45781395057E+01  0.10056693175E+02  0.00000000000E+00 0.  1.
         11    1    5    5    0    0  0.13980345494E+03  0.57477625187E+03  0.36001348634E+02  0.59262875633E+03  0.00000000000E+00 0.  1.
        -11    1    5    5    0    0  0.16179526162E+02  0.10665420519E+03  0.44977567423E+02  0.11687548127E+03  0.00000000000E+00 0. -1.
          2    1    6    6  503    0 -0.10013239066E+02 -0.30248891383E+02 -0.25585202160E+02  0.40863956686E+02  0.00000000000E+00 0. -1.
         -2    1    6    6    0  503  0.74443803766E+01 -0.23973796922E+03  0.54842584874E+02  0.24604353639E+03  0.00000000000E+00 0.  1.
<mgrwt>
<rscale>  0 0.14648984E+04</rscale>
<asrwt>0</asrwt>
<pdfrwt beam="1">  1        1 0.14393939E+00 0.14648984E+04</pdfrwt>
<pdfrwt beam="2">  1       -2 0.88216258E-01 0.14648984E+04</pdfrwt>
<totfact> 0.16018669E+01</totfact>
</mgrwt>
</event>
<event>
12    4  0.4381187E-008  0.2230199E+04  0.7818608E-02  0.8505963E-01
          1   -1    0    0  501    0  0.00000000000E+00  0.00000000000E+00  0.18212070151E+04  0.18212070151E+04  0.00000000000E+00 0. -1.
         -2   -1    0    0    0  501 -0.00000000000E+00 -0.00000000000E+00 -0.68275994208E+03  0.68275994208E+03  0.00000000000E+00 0.  1.
        -24    2    1    2    0    0  0.21143695001E+03 -0.40170660787E+03  0.13872351044E+04  0.14616189408E+04  0.76386586356E+02 0.  0.
        254    2    1    2    0    0 -0.21143695001E+03  0.40170660787E+03 -0.24878803135E+03  0.10423480164E+04  0.90472101785E+03 0.  0.
         23    2    4    4    0    0 -0.39751950020E+03  0.28609549720E+03 -0.49485057274E+03  0.70118438106E+03  0.83126772698E+02 0.  0.
         23    2    4    4    0    0  0.18608255020E+03  0.11561111068E+03  0.24606254139E+03  0.34116363535E+03  0.88618324370E+02 0.  0.
          1    1    3    3  502    0  0.15657597327E+03 -0.27829091719E+03  0.86022465759E+03  0.91757742536E+03  0.00000000000E+00 0. -1.
         -4    1    3    3    0  502  0.54860976732E+02 -0.12341569068E+03  0.52701044680E+03  0.54404151543E+03  0.00000000000E+00 0.  1.
         11    1    5    5    0    0 -0.14474140385E+03  0.11791764642E+03 -0.13515407235E+03  0.23048051674E+03  0.00000000000E+00 0.  1.
        -11    1    5    5    0    0 -0.25277809636E+03  0.16817785078E+03 -0.35969650039E+03  0.47070386431E+03  0.00000000000E+00 0. -1.
          1    1    6    6  503    0  0.16620331200E+03  0.11783987761E+03  0.17907120333E+03  0.27124946735E+03  0.00000000000E+00 0. -1.
         -1    1    6    6    0  503  0.19879238198E+02 -0.22287669338E+01  0.66991338052E+02  0.69914168001E+02  0.00000000000E+00 0.  1.
<mgrwt>
<rscale>  0 0.22301993E+04</rscale>
<asrwt>0</asrwt>
<pdfrwt beam="1">  1        1 0.28018569E+00 0.22301993E+04</pdfrwt>
<pdfrwt beam="2">  1       -2 0.10503999E+00 0.22301993E+04</pdfrwt>
<totfact> 0.23115547E+00</totfact>
</mgrwt>
</event>
<event>
12    4  0.4381187E-008  0.1121158E+04  0.7818608E-02  0.9184811E-01
          1   -1    0    0  501    0  0.00000000000E+00  0.00000000000E+00  0.11855781007E+04  0.11855781007E+04  0.00000000000E+00 0. -1.
         -2   -1    0    0    0  501 -0.00000000000E+00 -0.00000000000E+00 -0.26505978192E+03  0.26505978192E+03  0.00000000000E+00 0.  1.
        -24    2    1    2    0    0 -0.65866104507E+02  0.16462853975E+03  0.23876214785E+03  0.30597020627E+03  0.71899263221E+02 0.  0.
        254    2    1    2    0    0  0.65866104507E+02 -0.16462853975E+03  0.68175617090E+03  0.11446676763E+04  0.90223706024E+03 0.  0.
         23    2    4    4    0    0 -0.70014901931E+02 -0.14004145403E+03 -0.18525860841E+03  0.26199810488E+03  0.99038172588E+02 0.  0.
         23    2    4    4    0    0  0.13588100644E+03 -0.24587085724E+02  0.86701477931E+03  0.88266957146E+03  0.91229228525E+02 0.  0.
          1    1    3    3  502    0 -0.35472606753E+02  0.13908862583E+03  0.21841528729E+03  0.26136026742E+03  0.00000000000E+00 0. -1.
         -2    1    3    3    0  502 -0.30393497754E+02  0.25539913926E+02  0.20346860561E+02  0.44609938845E+02  0.00000000000E+00 0.  1.
         11    1    5    5    0    0 -0.67383933046E+02 -0.44870466305E+02 -0.12628309638E+03  0.15000457863E+03  0.00000000000E+00 0. -1.
        -11    1    5    5    0    0 -0.26309688852E+01 -0.95170987723E+02 -0.58975512032E+02  0.11199352625E+03  0.00000000000E+00 0.  1.
          2    1    6    6  503    0  0.13261144864E+03 -0.39441022892E+02  0.84275734106E+03  0.85403824651E+03  0.00000000000E+00 0. -1.
         -2    1    6    6    0  503  0.32695578020E+01  0.14853937168E+02  0.24257438258E+02  0.28631324951E+02  0.00000000000E+00 0.  1.
<mgrwt>
<rscale>  0 0.11211585E+04</rscale>
<asrwt>0</asrwt>
<pdfrwt beam="1">  1        1 0.18239663E+00 0.11211585E+04</pdfrwt>
<pdfrwt beam="2">  1       -2 0.40778428E-01 0.11211585E+04</pdfrwt>
<totfact> 0.54394948E+01</totfact>
</mgrwt>
</event>
<event>
12    4  0.4381187E-008  0.1762610E+04  0.7818608E-02  0.8726439E-01
          1   -1    0    0  501    0  0.00000000000E+00  0.00000000000E+00  0.10301536710E+04  0.10301536710E+04  0.00000000000E+00 0. -1.
         -2   -1    0    0    0  501 -0.00000000000E+00 -0.00000000000E+00 -0.75396401812E+03  0.75396401812E+03  0.00000000000E+00 0.  1.
        -24    2    1    2    0    0 -0.32765919250E+03 -0.28632435140E+03  0.59219054835E+03  0.73926173758E+03  0.80474160259E+02 0.  0.
        254    2    1    2    0    0  0.32765919250E+03  0.28632435140E+03 -0.31600089543E+03  0.10448559516E+04  0.89583771578E+03 0.  0.
         23    2    4    4    0    0  0.15845080228E+03 -0.10490527367E+03 -0.52214175459E+03  0.56299837259E+03  0.90682867555E+02 0.  0.
         23    2    4    4    0    0  0.16920839022E+03  0.39122962506E+03  0.20614085916E+03  0.48185757899E+03  0.89445926480E+02 0.  0.
          3    1    3    3  502    0 -0.29059240733E+03 -0.21466129795E+03  0.49788232197E+03  0.61515057227E+03  0.00000000000E+00 0. -1.
         -4    1    3    3    0  502 -0.37066785164E+02 -0.71663053450E+02  0.94308226382E+02  0.12411116531E+03  0.00000000000E+00 0.  1.
         11    1    5    5    0    0  0.12693469322E+03 -0.80211477708E+02 -0.48734540189E+03  0.50995278041E+03  0.00000000000E+00 0.  1.
        -11    1    5    5    0    0  0.31516109058E+02 -0.24693795959E+02 -0.34796352696E+02  0.53045592182E+02  0.00000000000E+00 0. -1.
          3    1    6    6  503    0  0.50402066856E+02  0.21077638419E+03  0.76113910152E+02  0.22969627727E+03  0.00000000000E+00 0. -1.
         -3    1    6    6    0  503  0.11880632336E+03  0.18045324088E+03  0.13002694901E+03  0.25216130172E+03  0.00000000000E+00 0.  1.
<mgrwt>
<rscale>  0 0.17626103E+04</rscale>
<asrwt>0</asrwt>
<pdfrwt beam="1">  1        1 0.15848518E+00 0.17626103E+04</pdfrwt>
<pdfrwt beam="2">  1       -2 0.11599446E+00 0.17626103E+04</pdfrwt>
<totfact> 0.68687066E+00</totfact>
</mgrwt>
</event>
<event>
12    4  0.4381187E-008  0.3439792E+04  0.7818608E-02  0.8128209E-01
         -2   -1    0    0    0  501 -0.00000000000E+00  0.00000000000E+00  0.15407571779E+04  0.15407571779E+04  0.00000000000E+00 0.  1.
          1   -1    0    0  501    0  0.00000000000E+00 -0.00000000000E+00 -0.19198626494E+04  0.19198626494E+04  0.00000000000E+00 0. -1.
        -24    2    1    2    0    0 -0.15596961263E+03 -0.14277721202E+04  0.54906761928E+03  0.15397018351E+04  0.79666450306E+02 0.  0.
        254    2    1    2    0    0  0.15596961263E+03  0.14277721202E+04 -0.92817309080E+03  0.19209179922E+04  0.87496337005E+03 0.  0.
         23    2    4    4    0    0  0.51135612536E+03  0.84083011056E+03 -0.50351239153E+03  0.11089207443E+04  0.87750367125E+02 0.  0.
         23    2    4    4    0    0 -0.35538651273E+03  0.58694200964E+03 -0.42466069928E+03  0.81199724789E+03  0.90566687954E+02 0.  0.
          1    1    3    3  502    0 -0.37699220673E+02 -0.28467345582E+03  0.14365458289E+03  0.32108697712E+03  0.00000000000E+00 0. -1.
         -2    1    3    3    0  502 -0.11827039196E+03 -0.11430986644E+04  0.40541303639E+03  0.12186148580E+04  0.00000000000E+00 0.  1.
         11    1    5    5    0    0  0.12484928308E+03  0.14005619273E+03 -0.10181293564E+03  0.21346886066E+03  0.00000000000E+00 0.  1.
        -11    1    5    5    0    0  0.38650684228E+03  0.70077391783E+03 -0.40169945589E+03  0.89545188363E+03  0.00000000000E+00 0. -1.
          3    1    6    6  503    0 -0.31983583347E+03  0.45992871066E+03 -0.34325720852E+03  0.65700448283E+03  0.00000000000E+00 0. -1.
         -3    1    6    6    0  503 -0.35550679255E+02  0.12701329898E+03 -0.81403490758E+02  0.15499276506E+03  0.00000000000E+00 0.  1.
<mgrwt>
<rscale>  0 0.34397919E+04</rscale>
<asrwt>0</asrwt>
<pdfrwt beam="1">  1        1 0.29536348E+00 0.34397919E+04</pdfrwt>
<pdfrwt beam="2">  1       -2 0.23703957E+00 0.34397919E+04</pdfrwt>
<totfact> 0.18814459E-01</totfact>
</mgrwt>
</event>
<event>
12    4  0.4381187E-008  0.1480616E+04  0.7818608E-02  0.8897447E-01
         -2   -1    0    0    0  501 -0.00000000000E+00  0.00000000000E+00  0.18241253137E+03  0.18241253137E+03  0.00000000000E+00 0.  1.
          1   -1    0    0  501    0  0.00000000000E+00 -0.00000000000E+00 -0.30044844049E+04  0.30044844049E+04  0.00000000000E+00 0. -1.
        -24    2    1    2    0    0 -0.25816207580E+02 -0.37714069112E+03 -0.14680323156E+04  0.15187681177E+04  0.92930824897E+02 0.  0.
        254    2    1    2    0    0  0.25816207580E+02  0.37714069112E+03 -0.13540395579E+04  0.16681288186E+04  0.89795826934E+03 0.  0.
         23    2    4    4    0    0 -0.31925774648E+03  0.35208559788E+03 -0.11693863577E+04  0.12656650166E+04  0.92486235810E+02 0.  0.
         23    2    4    4    0    0  0.34507395406E+03  0.25055093235E+02 -0.18465320025E+03  0.40246380197E+03  0.90424090106E+02 0.  0.
          1    1    3    3  502    0 -0.23244995090E+02 -0.37305220675E+03 -0.13542919008E+04  0.14049252049E+04  0.00000000000E+00 0. -1.
         -2    1    3    3    0  502 -0.25712124898E+01 -0.40884843639E+01 -0.11374041475E+03  0.11384291276E+03  0.00000000000E+00 0.  1.
         11    1    5    5    0    0  0.15932272304E+01 -0.34550579368E+01 -0.22259882520E+02  0.22582696211E+02  0.00000000000E+00 0. -1.
        -11    1    5    5    0    0 -0.32085097371E+03  0.35554065582E+03 -0.11471264751E+04  0.12430823204E+04  0.00000000000E+00 0.  1.
          3    1    6    6  503    0  0.13917143422E+03  0.15737540793E+02 -0.12542354567E+03  0.18800910644E+03  0.00000000000E+00 0. -1.
         -3    1    6    6    0  503  0.20590251983E+03  0.93175524414E+01 -0.59229654580E+02  0.21445469554E+03  0.00000000000E+00 0.  1.
<mgrwt>
<rscale>  0 0.14806156E+04</rscale>
<asrwt>0</asrwt>
<pdfrwt beam="1">  1        1 0.46222833E+00 0.14806156E+04</pdfrwt>
<pdfrwt beam="2">  1       -2 0.28063469E-01 0.14806156E+04</pdfrwt>
<totfact> 0.58978170E+00</totfact>
</mgrwt>
</event>
<event>
12    4  0.4381187E-008  0.1358107E+04  0.7818608E-02  0.8984714E-01
         -2   -1    0    0    0  501 -0.00000000000E+00  0.00000000000E+00  0.32928555216E+03  0.32928555216E+03  0.00000000000E+00 0.  1.
          1   -1    0    0  501    0  0.00000000000E+00 -0.00000000000E+00 -0.14003461084E+04  0.14003461084E+04  0.00000000000E+00 0. -1.
        -24    2    1    2    0    0  0.21578336119E+03  0.22583481826E+03 -0.61540658827E+02  0.32893147294E+03  0.82733530681E+02 0.  0.
        254    2    1    2    0    0 -0.21578336119E+03 -0.22583481826E+03 -0.10095198974E+04  0.14007001876E+04  0.91938390688E+03 0.  0.
         23    2    4    4    0    0  0.20188135550E+03 -0.10914261717E+03 -0.91786628585E+03  0.95018635169E+03  0.87791751641E+02 0.  0.
         23    2    4    4    0    0 -0.41766471669E+03 -0.11669220109E+03 -0.91653611528E+02  0.45051383590E+03  0.80631547627E+02 0.  0.
          3    1    3    3  502    0  0.19223009602E+02  0.52608420228E+02  0.10990039466E+02  0.57078463054E+02  0.00000000000E+00 0. -1.
         -4    1    3    3    0  502  0.19656035159E+03  0.17322639803E+03 -0.72530698293E+02  0.27185300989E+03  0.00000000000E+00 0.  1.
         11    1    5    5    0    0  0.45279525360E+01  0.29630396713E+01 -0.13430893345E+03  0.13441789897E+03  0.00000000000E+00 0. -1.
        -11    1    5    5    0    0  0.19735340297E+03 -0.11210565684E+03 -0.78355735240E+03  0.81576845273E+03  0.00000000000E+00 0.  1.
          2    1    6    6  503    0 -0.26587510284E+03 -0.70450638703E+02 -0.18177309048E+02  0.27565064369E+03  0.00000000000E+00 0. -1.
         -2    1    6    6    0  503 -0.15178961385E+03 -0.46241562387E+02 -0.73476302480E+02  0.17486319221E+03  0.00000000000E+00 0.  1.
<mgrwt>
<rscale>  0 0.13581071E+04</rscale>
<asrwt>0</asrwt>
<pdfrwt beam="1">  1        1 0.21543786E+00 0.13581071E+04</pdfrwt>
<pdfrwt beam="2">  1       -2 0.50659316E-01 0.13581071E+04</pdfrwt>
<totfact> 0.24276805E+01</totfact>
</mgrwt>
</event>
<event>
12    4  0.4381187E-008  0.4004838E+04  0.7818608E-02  0.8003571E-01
          1   -1    0    0  501    0  0.00000000000E+00  0.00000000000E+00  0.13299397220E+04  0.13299397220E+04  0.00000000000E+00 0. -1.
         -2   -1    0    0    0  501 -0.00000000000E+00 -0.00000000000E+00 -0.30149352275E+04  0.30149352275E+04  0.00000000000E+00 0.  1.
        -24    2    1    2    0    0  0.16911233274E+04  0.29453086905E+03 -0.16799391901E+04  0.24031262236E+04  0.78571133648E+02 0.  0.
        254    2    1    2    0    0 -0.16911233274E+04 -0.29453086905E+03 -0.50563154504E+01  0.19417487259E+04  0.90758801607E+03 0.  0.
         23    2    4    4    0    0 -0.78479272054E+03 -0.49182051684E+03  0.27111794901E+03  0.96934806097E+03  0.91343779398E+02 0.  0.
         23    2    4    4    0    0 -0.90633060685E+03  0.19728964779E+03 -0.27617426446E+03  0.97240066493E+03  0.94511664666E+02 0.  0.
          3    1    3    3  502    0  0.88809899623E+03  0.14875490901E+03 -0.93541024601E+03  0.12983990829E+04  0.00000000000E+00 0. -1.
         -4    1    3    3    0  502  0.80302433117E+03  0.14577596004E+03 -0.74452894406E+03  0.11047271407E+04  0.00000000000E+00 0.  1.
         11    1    5    5    0    0 -0.14163324499E+03 -0.13146481273E+03  0.48463593209E+02  0.19922774139E+03  0.00000000000E+00 0. -1.
        -11    1    5    5    0    0 -0.64315947555E+03 -0.36035570410E+03  0.22265435580E+03  0.77012031958E+03  0.00000000000E+00 0.  1.
          4    1    6    6  503    0 -0.62662558789E+03  0.96793914134E+02 -0.16600703602E+03  0.65542888647E+03  0.00000000000E+00 0. -1.
         -4    1    6    6    0  503 -0.27970501896E+03  0.10049573365E+03 -0.11016722844E+03  0.31697177846E+03  0.00000000000E+00 0.  1.
<mgrwt>
<rscale>  0 0.40048381E+04</rscale>
<asrwt>0</asrwt>
<pdfrwt beam="1">  1        1 0.20460611E+00 0.40048381E+04</pdfrwt>
<pdfrwt beam="2">  1       -2 0.46383619E+00 0.40048381E+04</pdfrwt>
<totfact> 0.16641545E-02</totfact>
</mgrwt>
</event>
<event>
12    4  0.4381187E-008  0.1859337E+04  0.7818608E-02  0.8675366E-01
         -2   -1    0    0    0  501 -0.00000000000E+00  0.00000000000E+00  0.37509393965E+03  0.37509393965E+03  0.00000000000E+00 0.  1.
          1   -1    0    0  501    0  0.00000000000E+00 -0.00000000000E+00 -0.23041778081E+04  0.23041778081E+04  0.00000000000E+00 0. -1.
        -24    2    1    2    0    0  0.48215660950E+03 -0.18070725785E+03 -0.14535626954E+04  0.15440207468E+04  0.77623759666E+02 0.  0.
        254    2    1    2    0    0 -0.48215660950E+03  0.18070725785E+03 -0.47552117306E+03  0.11352510009E+04  0.89305338024E+03 0.  0.
         23    2    4    4    0    0  0.25086672971E+03  0.93483067828E+02 -0.17870351645E+03  0.33433274773E+03  0.90389376398E+02 0.  0.
         23    2    4    4    0    0 -0.73302333922E+03  0.87224190023E+02 -0.29681765661E+03  0.80091825320E+03  0.91858869289E+02 0.  0.
          1    1    3    3  502    0  0.42336660198E+02 -0.10205542349E+02 -0.19894844448E+03  0.20365910108E+03  0.00000000000E+00 0. -1.
         -2    1    3    3    0  502  0.43981994930E+03 -0.17050171550E+03 -0.12546142509E+04  0.13403616457E+04  0.00000000000E+00 0.  1.
         11    1    5    5    0    0  0.25323217781E+03  0.81454050561E+02 -0.15559533039E+03  0.30817398507E+03  0.00000000000E+00 0.  1.
        -11    1    5    5    0    0 -0.23654480988E+01  0.12029017267E+02 -0.23108186061E+02  0.26158762665E+02  0.00000000000E+00 0. -1.
          3    1    6    6  503    0 -0.23940836651E+02 -0.74714925794E+01 -0.25643255689E+02  0.35868696983E+02  0.00000000000E+00 0. -1.
         -3    1    6    6    0  503 -0.70908250257E+03  0.94695682602E+02 -0.27117440092E+03  0.76504955621E+03  0.00000000000E+00 0.  1.
<mgrwt>
<rscale>  0 0.18593366E+04</rscale>
<asrwt>0</asrwt>
<pdfrwt beam="1">  1        1 0.35448890E+00 0.18593366E+04</pdfrwt>
<pdfrwt beam="2">  1       -2 0.57706760E-01 0.18593366E+04</pdfrwt>
<totfact> 0.42886217E+00</totfact>
</mgrwt>
</event>
<event>
12    4  0.4381187E-008  0.1455978E+04  0.7818608E-02  0.8914267E-01
          1   -1    0    0  501    0  0.00000000000E+00  0.00000000000E+00  0.61704956852E+03  0.61704956852E+03  0.00000000000E+00 0. -1.
         -4   -1    0    0    0  501 -0.00000000000E+00 -0.00000000000E+00 -0.85887387319E+03  0.85887387319E+03  0.00000000000E+00 0.  1.
        -24    2    1    2    0    0 -0.30759449018E+03  0.32471177358E+03 -0.15426665259E+03  0.47988271148E+03  0.80231604649E+02 0.  0.
        254    2    1    2    0    0  0.30759449018E+03 -0.32471177358E+03 -0.87557652075E+02  0.99604073023E+03  0.88565156102E+03 0.  0.
         23    2    4    4    0    0  0.12548541929E+03  0.19605662370E+03  0.24073728598E+03  0.34764937487E+03  0.93385527973E+02 0.  0.
         23    2    4    4    0    0  0.18210907089E+03 -0.52076839728E+03 -0.32829493806E+03  0.64839135536E+03  0.90941442930E+02 0.  0.
          3    1    3    3  502    0 -0.31160025570E+03  0.31538242455E+03 -0.15509262277E+03  0.46969619405E+03  0.00000000000E+00 0. -1.
         -4    1    3    3    0  502  0.40057655154E+01  0.93293490324E+01  0.82597017442E+00  0.10186517435E+02  0.00000000000E+00 0.  1.
         11    1    5    5    0    0  0.16210006460E+02 -0.39353433050E+01  0.42281734943E+02  0.45453232516E+02  0.00000000000E+00 0.  1.
        -11    1    5    5    0    0  0.10927541283E+03  0.19999196701E+03  0.19845555104E+03  0.30219614236E+03  0.00000000000E+00 0. -1.
          4    1    6    6  503    0  0.17359811799E+03 -0.39496965805E+03 -0.23291113625E+03  0.49029066352E+03  0.00000000000E+00 0. -1.
         -4    1    6    6    0  503  0.85109529029E+01 -0.12579873924E+03 -0.95383801809E+02  0.15810069184E+03  0.00000000000E+00 0.  1.
<mgrwt>
<rscale>  0 0.14559777E+04</rscale>
<asrwt>0</asrwt>
<pdfrwt beam="1">  1        1 0.94930703E-01 0.14559777E+04</pdfrwt>
<pdfrwt beam="2">  1       -4 0.13213444E+00 0.14559777E+04</pdfrwt>
<totfact> 0.63738162E+00</totfact>
</mgrwt>
</event>
<event>
12    4  0.4381187E-008  0.1242027E+04  0.7818608E-02  0.9076846E-01
         -2   -1    0    0    0  501 -0.00000000000E+00  0.00000000000E+00  0.89267328895E+03  0.89267328895E+03  0.00000000000E+00 0.  1.
          1   -1    0    0  501    0  0.00000000000E+00 -0.00000000000E+00 -0.43202540487E+03  0.43202540487E+03  0.00000000000E+00 0. -1.
        -24    2    1    2    0    0 -0.84573535650E+02 -0.23898142939E+03  0.30004487832E+03  0.40063346063E+03  0.78838025368E+02 0.  0.
        254    2    1    2    0    0  0.84573535650E+02  0.23898142939E+03  0.16060300576E+03  0.92406523319E+03  0.87397850272E+03 0.  0.
         23    2    4    4    0    0 -0.15921915335E+03 -0.22304890931E+03  0.25527904044E+03  0.38529741833E+03  0.90471859392E+02 0.  0.
         23    2    4    4    0    0  0.24379268900E+03  0.46203033871E+03 -0.94676034684E+02  0.53876781487E+03  0.91653137964E+02 0.  0.
          1    1    3    3  502    0  0.42047918258E+01  0.38868664879E+01  0.20399540772E+01  0.60786032960E+01  0.00000000000E+00 0. -1.
         -2    1    3    3    0  502 -0.88778327476E+02 -0.24286829588E+03  0.29800492424E+03  0.39455485733E+03  0.00000000000E+00 0.  1.
         11    1    5    5    0    0 -0.44659377895E+02 -0.12164404538E+02  0.24599908903E+02  0.52417442610E+02  0.00000000000E+00 0. -1.
        -11    1    5    5    0    0 -0.11455977546E+03 -0.21088450477E+03  0.23067913154E+03  0.33287997572E+03  0.00000000000E+00 0.  1.
          1    1    6    6  503    0  0.53260138775E+02  0.94974261746E+02  0.17445518936E+02  0.11027737260E+03  0.00000000000E+00 0. -1.
         -1    1    6    6    0  503  0.19053255023E+03  0.36705607696E+03 -0.11212155362E+03  0.42849044227E+03  0.00000000000E+00 0.  1.
<mgrwt>
<rscale>  0 0.12420266E+04</rscale>
<asrwt>0</asrwt>
<pdfrwt beam="1">  1        1 0.66465447E-01 0.12420266E+04</pdfrwt>
<pdfrwt beam="2">  1       -2 0.13733435E+00 0.12420266E+04</pdfrwt>
<totfact> 0.17601945E+01</totfact>
</mgrwt>
</event>
<event>
12    4  0.4381187E-008  0.2813701E+04  0.7818608E-02  0.8299027E-01
          1   -1    0    0  501    0  0.00000000000E+00  0.00000000000E+00  0.26165434239E+04  0.26165434239E+04  0.00000000000E+00 0. -1.
         -2   -1    0    0    0  501 -0.00000000000E+00 -0.00000000000E+00 -0.75642866821E+03  0.75642866821E+03  0.00000000000E+00 0.  1.
        -24    2    1    2    0    0  0.99418845092E+03  0.25207268819E+03  0.17120118380E+04  0.19973148705E+04  0.79566590764E+02 0.  0.
        254    2    1    2    0    0 -0.99418845092E+03 -0.25207268819E+03  0.14810291769E+03  0.13756572216E+04  0.90473587365E+03 0.  0.
         23    2    4    4    0    0  0.54517929524E+02  0.19524433391E+03  0.46949884971E+02  0.22690159900E+03  0.90484746590E+02 0.  0.
         23    2    4    4    0    0 -0.10487063804E+04 -0.44731702210E+03  0.10115303272E+03  0.11487556226E+04  0.97621482359E+02 0.  0.
          3    1    3    3  502    0  0.97389655522E+03  0.25809479823E+03  0.16794023384E+04  0.19584380611E+04  0.00000000000E+00 0. -1.
         -4    1    3    3    0  502  0.20291895694E+02 -0.60221100408E+01  0.32609499618E+02  0.38876809354E+02  0.00000000000E+00 0.  1.
         11    1    5    5    0    0  0.60511933254E+02  0.15587268995E+03  0.69568372557E+02  0.18110148536E+03  0.00000000000E+00 0.  1.
        -11    1    5    5    0    0 -0.59940037305E+01  0.39371643958E+02 -0.22618487586E+02  0.45800113639E+02  0.00000000000E+00 0. -1.
          3    1    6    6  503    0 -0.66278535394E+03 -0.25186457896E+03  0.10083927713E+03  0.71616251741E+03  0.00000000000E+00 0. -1.
         -3    1    6    6    0  503 -0.38592102650E+03 -0.19545244314E+03  0.31375558395E+00  0.43259310520E+03  0.00000000000E+00 0.  1.
<mgrwt>
<rscale>  0 0.28137011E+04</rscale>
<asrwt>0</asrwt>
<pdfrwt beam="1">  1        1 0.40254514E+00 0.28137011E+04</pdfrwt>
<pdfrwt beam="2">  1       -2 0.11637364E+00 0.28137011E+04</pdfrwt>
<totfact> 0.48925618E-01</totfact>
</mgrwt>
</event>
<event>
12    4  0.4381187E-008  0.2354899E+04  0.7818608E-02  0.8456584E-01
         -2   -1    0    0    0  501 -0.00000000000E+00  0.00000000000E+00  0.46050424729E+03  0.46050424729E+03  0.00000000000E+00 0.  1.
          1   -1    0    0  501    0  0.00000000000E+00 -0.00000000000E+00 -0.30105843107E+04  0.30105843107E+04  0.00000000000E+00 0. -1.
        -24    2    1    2    0    0  0.65155867429E+02 -0.50371769210E+03  0.18362743578E+03  0.54669064381E+03  0.84704335565E+02 0.  0.
        254    2    1    2    0    0 -0.65155867429E+02  0.50371769210E+03 -0.27337074992E+04  0.29243979141E+04  0.90607376570E+03 0.  0.
         23    2    4    4    0    0 -0.46292880210E+03  0.33315547777E+03 -0.12691741478E+04  0.13944058065E+04  0.90933424409E+02 0.  0.
         23    2    4    4    0    0  0.39777293467E+03  0.17056221433E+03 -0.14645333514E+04  0.15299921076E+04  0.93290597500E+02 0.  0.
          3    1    3    3  502    0  0.70802534151E+02 -0.25680662575E+03  0.73984610245E+02  0.27647127234E+03  0.00000000000E+00 0. -1.
         -4    1    3    3    0  502 -0.56466667221E+01 -0.24691106635E+03  0.10964282553E+03  0.27021937147E+03  0.00000000000E+00 0.  1.
         11    1    5    5    0    0 -0.10414036232E+03  0.11375542606E+03 -0.40389110384E+03  0.43233498098E+03  0.00000000000E+00 0. -1.
        -11    1    5    5    0    0 -0.35878843978E+03  0.21940005171E+03 -0.86528304396E+03  0.96207082555E+03  0.00000000000E+00 0.  1.
          3    1    6    6  503    0  0.56052227078E+02  0.28361352839E+02 -0.35042348628E+03  0.35600960412E+03  0.00000000000E+00 0. -1.
         -3    1    6    6    0  503  0.34172070759E+03  0.14220086149E+03 -0.11141098651E+04  0.11739825035E+04  0.00000000000E+00 0.  1.
<mgrwt>
<rscale>  0 0.23548986E+04</rscale>
<asrwt>0</asrwt>
<pdfrwt beam="1">  1        1 0.46316680E+00 0.23548986E+04</pdfrwt>
<pdfrwt beam="2">  1       -2 0.70846810E-01 0.23548986E+04</pdfrwt>
<totfact> 0.84113757E-01</totfact>
</mgrwt>
</event>
<event>
12    4  0.4381187E-008  0.1556858E+04  0.7818608E-02  0.8847499E-01
          1   -1    0    0  501    0  0.00000000000E+00  0.00000000000E+00  0.28188947428E+03  0.28188947428E+03  0.00000000000E+00 0. -1.
         -2   -1    0    0    0  501 -0.00000000000E+00 -0.00000000000E+00 -0.21496084031E+04  0.21496084031E+04  0.00000000000E+00 0.  1.
        -24    2    1    2    0    0  0.89124313879E+02  0.15084171411E+03  0.13068447047E+03  0.23279191406E+03  0.80107917150E+02 0.  0.
        254    2    1    2    0    0 -0.89124313879E+02 -0.15084171411E+03 -0.19984033993E+04  0.21987059633E+04  0.89999744486E+03 0.  0.
         23    2    4    4    0    0 -0.45085817297E+03 -0.20564620545E+03 -0.14341722535E+04  0.15203644683E+04  0.95365663394E+02 0.  0.
         23    2    4    4    0    0  0.36173385909E+03  0.54804491348E+02 -0.56423114575E+03  0.67834149499E+03  0.89081316234E+02 0.  0.
          3    1    3    3  502    0  0.65440468157E+02  0.15510719964E+03  0.11039323811E+03  0.20131409606E+03  0.00000000000E+00 0. -1.
         -2    1    3    3    0  502  0.23683845722E+02 -0.42654855361E+01  0.20291232361E+02  0.31477817996E+02  0.00000000000E+00 0.  1.
         11    1    5    5    0    0 -0.53801131139E+02 -0.32404361689E+02 -0.29479097302E+03  0.30140723638E+03  0.00000000000E+00 0.  1.
        -11    1    5    5    0    0 -0.39705704183E+03 -0.17324184376E+03 -0.11393812805E+04  0.12189572319E+04  0.00000000000E+00 0. -1.
          2    1    6    6  503    0  0.26654342239E+03  0.66123965482E+01 -0.36077221920E+03  0.44860418405E+03  0.00000000000E+00 0.  1.
         -2    1    6    6    0  503  0.95190436707E+02  0.48192094800E+02 -0.20345892655E+03  0.22973731093E+03  0.00000000000E+00 0. -1.
<mgrwt>
<rscale>  0 0.15568584E+04</rscale>
<asrwt>0</asrwt>
<pdfrwt beam="1">  1        1 0.43367612E-01 0.15568584E+04</pdfrwt>
<pdfrwt beam="2">  1       -2 0.33070898E+00 0.15568584E+04</pdfrwt>
<totfact> 0.16517976E+00</totfact>
</mgrwt>
</event>
<event>
12    4  0.4381187E-008  0.1559397E+04  0.7818608E-02  0.8845888E-01
         -2   -1    0    0    0  501 -0.00000000000E+00  0.00000000000E+00  0.30987092780E+03  0.30987092780E+03  0.00000000000E+00 0.  1.
          1   -1    0    0  501    0  0.00000000000E+00 -0.00000000000E+00 -0.19618802627E+04  0.19618802627E+04  0.00000000000E+00 0. -1.
        -24    2    1    2    0    0 -0.12305331651E+03  0.39940396498E+02  0.17554226431E+03  0.23097639961E+03  0.76142344595E+02 0.  0.
        254    2    1    2    0    0  0.12305331651E+03 -0.39940396498E+02 -0.18275515992E+04  0.20407747909E+04  0.89893244763E+03 0.  0.
         23    2    4    4    0    0  0.44256557812E+03 -0.24481370711E+03 -0.11420803328E+04  0.12520763155E+04  0.86888268098E+02 0.  0.
         23    2    4    4    0    0 -0.31951226161E+03  0.20487331062E+03 -0.68547126636E+03  0.78869847535E+03  0.90073688142E+02 0.  0.
          1    1    3    3  502    0 -0.58996019353E+02  0.39142271451E+02  0.40637626222E+02  0.81633720844E+02  0.00000000000E+00 0. -1.
         -2    1    3    3    0  502 -0.64057297154E+02  0.79812504631E+00  0.13490463809E+03  0.14934267876E+03  0.00000000000E+00 0.  1.
         11    1    5    5    0    0  0.17214330456E+03 -0.14167812867E+03 -0.53191104380E+03  0.57674549670E+03  0.00000000000E+00 0. -1.
        -11    1    5    5    0    0  0.27042227356E+03 -0.10313557845E+03 -0.61016928903E+03  0.67533081883E+03  0.00000000000E+00 0.  1.
          1    1    6    6  503    0 -0.15010085667E+03  0.12960621463E+03 -0.28279318781E+03  0.34539835714E+03  0.00000000000E+00 0. -1.
         -1    1    6    6    0  503 -0.16941140494E+03  0.75267095992E+02 -0.40267807855E+03  0.44330011821E+03  0.00000000000E+00 0.  1.
<mgrwt>
<rscale>  0 0.15593969E+04</rscale>
<asrwt>0</asrwt>
<pdfrwt beam="1">  1        1 0.30182773E+00 0.15593969E+04</pdfrwt>
<pdfrwt beam="2">  1       -2 0.47672451E-01 0.15593969E+04</pdfrwt>
<totfact> 0.11150644E+01</totfact>
</mgrwt>
</event>
<event>
12    4  0.4381187E-008  0.1070403E+04  0.7818608E-02  0.9234529E-01
         -2   -1    0    0    0  501 -0.00000000000E+00  0.00000000000E+00  0.28564102294E+03  0.28564102294E+03  0.00000000000E+00 0.  1.
          1   -1    0    0  501    0  0.00000000000E+00 -0.00000000000E+00 -0.10027990152E+04  0.10027990152E+04  0.00000000000E+00 0. -1.
        -24    2    1    2    0    0  0.14279465144E+02 -0.11198686758E+03 -0.15387286902E+03  0.20718008934E+03  0.80633541181E+02 0.  0.
        254    2    1    2    0    0 -0.14279465144E+02  0.11198686758E+03 -0.56328512319E+03  0.10812599488E+04  0.91601745896E+03 0.  0.
         23    2    4    4    0    0 -0.93736307502E+02 -0.38189646462E+03 -0.32903661660E+03  0.52122479937E+03  0.93695204709E+02 0.  0.
         23    2    4    4    0    0  0.79456842358E+02  0.49388333219E+03 -0.23424850660E+03  0.56003514938E+03  0.92373535633E+02 0.  0.
          1    1    3    3  502    0 -0.43628263219E+01 -0.11261387631E+03 -0.15082589465E+03  0.18828003050E+03  0.00000000000E+00 0. -1.
         -2    1    3    3    0  502  0.18642291466E+02  0.62700873462E+00 -0.30469743732E+01  0.18900058833E+02  0.00000000000E+00 0.  1.
         11    1    5    5    0    0  0.13668417392E+02 -0.22148666234E+02 -0.79613568014E+01  0.27217131592E+02  0.00000000000E+00 0. -1.
        -11    1    5    5    0    0 -0.10740472489E+03 -0.35974779838E+03 -0.32107525980E+03  0.49400766778E+03  0.00000000000E+00 0.  1.
          2    1    6    6  503    0  0.38283993539E+02  0.42686244832E+03 -0.18208274261E+03  0.46565152110E+03  0.00000000000E+00 0.  1.
         -2    1    6    6    0  503  0.41172848819E+02  0.67020883869E+02 -0.52165763991E+02  0.94383628280E+02  0.00000000000E+00 0. -1.
<mgrwt>
<rscale>  0 0.10704028E+04</rscale>
<asrwt>0</asrwt>
<pdfrwt beam="1">  1        1 0.15427677E+00 0.10704028E+04</pdfrwt>
<pdfrwt beam="2">  1       -2 0.43944773E-01 0.10704028E+04</pdfrwt>
<totfact> 0.64686566E+01</totfact>
</mgrwt>
</event>
<event>
12    4  0.4381187E-008  0.1972198E+04  0.7818608E-02  0.8619730E-01
          1   -1    0    0  501    0  0.00000000000E+00  0.00000000000E+00  0.60268982091E+03  0.60268982091E+03  0.00000000000E+00 0. -1.
         -2   -1    0    0    0  501 -0.00000000000E+00 -0.00000000000E+00 -0.16134196353E+04  0.16134196353E+04  0.00000000000E+00 0.  1.
        -24    2    1    2    0    0  0.73330011165E+03 -0.21291955521E+03 -0.59389406957E+03  0.97063240257E+03  0.79707617652E+02 0.  0.
        254    2    1    2    0    0 -0.73330011165E+03  0.21291955521E+03 -0.41683574486E+03  0.12454770537E+04  0.89128966241E+03 0.  0.
         23    2    4    4    0    0  0.58900109732E+02  0.73341378953E+02 -0.41548329707E+03  0.43590267379E+03  0.92393669031E+02 0.  0.
         23    2    4    4    0    0 -0.79220022138E+03  0.13957817626E+03 -0.13524477913E+01  0.80957437990E+03  0.91354197620E+02 0.  0.
          1    1    3    3  502    0  0.15337650687E+03 -0.77644716381E+02 -0.14510522241E+03  0.22496350906E+03  0.00000000000E+00 0. -1.
         -2    1    3    3    0  502  0.57992360478E+03 -0.13527483883E+03 -0.44878884716E+03  0.74566889351E+03  0.00000000000E+00 0.  1.
         11    1    5    5    0    0  0.69361539744E+02  0.13052570694E+02 -0.23022065654E+03  0.24079647733E+03  0.00000000000E+00 0. -1.
        -11    1    5    5    0    0 -0.10461430012E+02  0.60288808259E+02 -0.18526264053E+03  0.19510619646E+03  0.00000000000E+00 0.  1.
          3    1    6    6  503    0 -0.69477466009E+03  0.12099363432E+03 -0.31431213919E+02  0.70593144784E+03  0.00000000000E+00 0. -1.
         -3    1    6    6    0  503 -0.97425561292E+02  0.18584541941E+02  0.30078766127E+02  0.10364293205E+03  0.00000000000E+00 0.  1.
<mgrwt>
<rscale>  0 0.19721984E+04</rscale>
<asrwt>0</asrwt>
<pdfrwt beam="1">  1        1 0.92721513E-01 0.19721984E+04</pdfrwt>
<pdfrwt beam="2">  1       -2 0.24821840E+00 0.19721984E+04</pdfrwt>
<totfact> 0.18256480E+00</totfact>
</mgrwt>
</event>
<event>
12    4  0.4381187E-008  0.1417779E+04  0.7818608E-02  0.8941049E-01
          1   -1    0    0  501    0  0.00000000000E+00  0.00000000000E+00  0.21447949590E+04  0.21447949590E+04  0.00000000000E+00 0. -1.
         -2   -1    0    0    0  501 -0.00000000000E+00 -0.00000000000E+00 -0.23429955129E+03  0.23429955129E+03  0.00000000000E+00 0.  1.
        -24    2    1    2    0    0  0.89217311956E+02 -0.52340865810E+02 -0.10671322539E+03  0.16826652591E+03  0.78908911297E+02 0.  0.
        254    2    1    2    0    0 -0.89217311956E+02  0.52340865810E+02  0.20172086331E+04  0.22108279843E+04  0.89884949354E+03 0.  0.
         23    2    4    4    0    0  0.15121346438E+03 -0.32125073590E+03  0.13851181270E+04  0.14328122865E+04  0.91275821805E+02 0.  0.
         23    2    4    4    0    0 -0.24043077634E+03  0.37359160171E+03  0.63209050610E+03  0.77801569781E+03  0.91609907017E+02 0.  0.
          1    1    3    3  502    0 -0.99448876847E+01 -0.56222601137E+01 -0.36125038416E+02  0.37888375531E+02  0.00000000000E+00 0. -1.
         -2    1    3    3    0  502  0.99162199641E+02 -0.46718605697E+02 -0.70588186975E+02  0.13037815038E+03  0.00000000000E+00 0.  1.
         11    1    5    5    0    0  0.12570133850E+03 -0.16666833453E+03  0.84735824103E+03  0.87269418978E+03  0.00000000000E+00 0. -1.
        -11    1    5    5    0    0  0.25512125881E+02 -0.15458240137E+03  0.53775988594E+03  0.56011809675E+03  0.00000000000E+00 0.  1.
          4    1    6    6  503    0 -0.96749877203E+02  0.11036515357E+03  0.14708957944E+03  0.20778919664E+03  0.00000000000E+00 0. -1.
         -4    1    6    6    0  503 -0.14368089914E+03  0.26322644814E+03  0.48500092667E+03  0.57022650118E+03  0.00000000000E+00 0.  1.
<mgrwt>
<rscale>  0 0.14177792E+04</rscale>
<asrwt>0</asrwt>
<pdfrwt beam="1">  1        1 0.32996844E+00 0.14177792E+04</pdfrwt>
<pdfrwt beam="2">  1       -2 0.36046086E-01 0.14177792E+04</pdfrwt>
<totfact> 0.14723531E+01</totfact>
</mgrwt>
</event>
<event>
12    4  0.4381187E-008  0.1986331E+04  0.7818608E-02  0.8613038E-01
          1   -1    0    0  501    0  0.00000000000E+00  0.00000000000E+00  0.19662251955E+04  0.19662251955E+04  0.00000000000E+00 0. -1.
         -2   -1    0    0    0  501 -0.00000000000E+00 -0.00000000000E+00 -0.50166072254E+03  0.50166072254E+03  0.00000000000E+00 0.  1.
        -24    2    1    2    0    0 -0.63044770588E+03  0.44778189004E+03  0.74784926661E+03  0.10787245556E+04  0.79970059974E+02 0.  0.
        254    2    1    2    0    0  0.63044770588E+03 -0.44778189004E+03  0.71671520637E+03  0.13891613624E+04  0.90449746981E+03 0.  0.
         23    2    4    4    0    0  0.11945126555E+03  0.20820142406E+03 -0.38410736495E+02  0.26228184469E+03  0.98488291450E+02 0.  0.
         23    2    4    4    0    0  0.51099644033E+03 -0.65598331410E+03  0.75512594286E+03  0.11268795177E+04  0.90613395778E+02 0.  0.
          3    1    3    3  502    0 -0.60585314570E+03  0.41773837273E+03  0.72784858258E+03  0.10350492459E+04  0.00000000000E+00 0. -1.
         -4    1    3    3    0  502 -0.24594560181E+02  0.30043517309E+02  0.20000684028E+02  0.43675309780E+02  0.00000000000E+00 0.  1.
         11    1    5    5    0    0 -0.13676540808E+02  0.10529965605E+02 -0.14902828041E+02  0.22803995872E+02  0.00000000000E+00 0.  1.
        -11    1    5    5    0    0  0.13312780636E+03  0.19767145845E+03 -0.23507908454E+02  0.23947784882E+03  0.00000000000E+00 0. -1.
          3    1    6    6  503    0  0.30244751343E+03 -0.35867756575E+03  0.36981275286E+03  0.59739900128E+03  0.00000000000E+00 0. -1.
         -3    1    6    6    0  503  0.20854892689E+03 -0.29730574835E+03  0.38531319000E+03  0.52948051645E+03  0.00000000000E+00 0.  1.
<mgrwt>
<rscale>  0 0.19863312E+04</rscale>
<asrwt>0</asrwt>
<pdfrwt beam="1">  1        1 0.30249618E+00 0.19863312E+04</pdfrwt>
<pdfrwt beam="2">  1       -2 0.77178574E-01 0.19863312E+04</pdfrwt>
<totfact> 0.38386566E+00</totfact>
</mgrwt>
</event>
<event>
12    4  0.4381187E-008  0.1693434E+04  0.7818608E-02  0.8765118E-01
          1   -1    0    0  501    0  0.00000000000E+00  0.00000000000E+00  0.12487540975E+04  0.12487540975E+04  0.00000000000E+00 0. -1.
         -2   -1    0    0    0  501 -0.00000000000E+00 -0.00000000000E+00 -0.57411615482E+03  0.57411615482E+03  0.00000000000E+00 0.  1.
        -24    2    1    2    0    0 -0.79157479326E+02  0.12731223869E+03  0.86870363974E+03  0.88514116695E+03  0.79715488378E+02 0.  0.
        254    2    1    2    0    0  0.79157479326E+02 -0.12731223869E+03 -0.19406569705E+03  0.93772908537E+03  0.90509669656E+03 0.  0.
         23    2    4    4    0    0  0.23288936583E+03 -0.19200835570E+03  0.28378454034E+03  0.42351776474E+03  0.87914539979E+02 0.  0.
         23    2    4    4    0    0 -0.15373188650E+03  0.64696117013E+02 -0.47785023739E+03  0.51421132063E+03  0.90847963170E+02 0.  0.
          3    1    3    3  502    0 -0.92448890596E+02  0.87550946696E+02  0.68262443777E+03  0.69439764450E+03  0.00000000000E+00 0. -1.
         -4    1    3    3    0  502  0.13291411270E+02  0.39761291992E+02  0.18607920197E+03  0.19074352246E+03  0.00000000000E+00 0.  1.
         11    1    5    5    0    0  0.75928229152E+02 -0.87179233129E+02  0.58348634586E+02  0.12949856304E+03  0.00000000000E+00 0. -1.
        -11    1    5    5    0    0  0.15696113667E+03 -0.10482912257E+03  0.22543590575E+03  0.29401920170E+03  0.00000000000E+00 0.  1.
          4    1    6    6  503    0 -0.11163676188E+03  0.84624181232E+02 -0.39587057751E+03  0.41992562769E+03  0.00000000000E+00 0.  1.
         -4    1    6    6    0  503 -0.42095124618E+02 -0.19928064219E+02 -0.81979659883E+02  0.94285692948E+02  0.00000000000E+00 0. -1.
<mgrwt>
<rscale>  0 0.16934343E+04</rscale>
<asrwt>0</asrwt>
<pdfrwt beam="1">  1        1 0.19211601E+00 0.16934343E+04</pdfrwt>
<pdfrwt beam="2">  1       -2 0.88325562E-01 0.16934343E+04</pdfrwt>
<totfact> 0.90761440E+00</totfact>
</mgrwt>
</event>
<event>
12    4  0.4381187E-008  0.1625362E+04  0.7818608E-02  0.8805117E-01
         -4   -1    0    0    0  501 -0.00000000000E+00  0.00000000000E+00  0.70068784159E+03  0.70068784159E+03  0.00000000000E+00 0.  1.
          1   -1    0    0  501    0  0.00000000000E+00 -0.00000000000E+00 -0.94257465644E+03  0.94257465644E+03  0.00000000000E+00 0. -1.
        -24    2    1    2    0    0 -0.39898068149E+03 -0.36613300117E+03 -0.92365210787E+02  0.55526887303E+03  0.80952025522E+02 0.  0.
        254    2    1    2    0    0  0.39898068149E+03  0.36613300117E+03 -0.14952160406E+03  0.10879936250E+04  0.93173733381E+03 0.  0.
         23    2    4    4    0    0  0.58947073326E+03  0.58461870211E+02 -0.31955034912E+03  0.67894084432E+03  0.89189174377E+02 0.  0.
         23    2    4    4    0    0 -0.19049005177E+03  0.30767113096E+03  0.17002874506E+03  0.40905278068E+03  0.86408440463E+02 0.  0.
          3    1    3    3  502    0 -0.31813617362E+03 -0.27404303517E+03 -0.10276915216E+03  0.43228660484E+03  0.00000000000E+00 0. -1.
         -4    1    3    3    0  502 -0.80844507868E+02 -0.92089966006E+02  0.10403941370E+02  0.12298226818E+03  0.00000000000E+00 0.  1.
         11    1    5    5    0    0  0.59173677922E+02 -0.17283016916E+02 -0.49393754581E+02  0.78993479630E+02  0.00000000000E+00 0.  1.
        -11    1    5    5    0    0  0.53029705534E+03  0.75744887128E+02 -0.27015659454E+03  0.59994736469E+03  0.00000000000E+00 0. -1.
          4    1    6    6  503    0 -0.94707271256E+02  0.19792366007E+03  0.62961395109E+02  0.22827040921E+03  0.00000000000E+00 0. -1.
         -4    1    6    6    0  503 -0.95782780514E+02  0.10974747089E+03  0.10706734995E+03  0.18078237147E+03  0.00000000000E+00 0.  1.
<mgrwt>
<rscale>  0 0.16253622E+04</rscale>
<asrwt>0</asrwt>
<pdfrwt beam="1">  1        1 0.14501149E+00 0.16253622E+04</pdfrwt>
<pdfrwt beam="2">  1       -4 0.10779813E+00 0.16253622E+04</pdfrwt>
<totfact> 0.53802293E+00</totfact>
</mgrwt>
</event>
<event>
12    4  0.4381187E-008  0.3009019E+04  0.7818608E-02  0.8241160E-01
          1   -1    0    0  501    0  0.00000000000E+00  0.00000000000E+00  0.15801953857E+04  0.15801953857E+04  0.00000000000E+00 0. -1.
         -2   -1    0    0    0  501 -0.00000000000E+00 -0.00000000000E+00 -0.14324484518E+04  0.14324484518E+04  0.00000000000E+00 0.  1.
        -24    2    1    2    0    0 -0.84563922574E+03 -0.68435725082E+03 -0.75705150927E+03  0.13277018021E+04  0.78832358517E+02 0.  0.
        254    2    1    2    0    0  0.84563922574E+03  0.68435725082E+03  0.90479844319E+03  0.16849420353E+04  0.91483271300E+03 0.  0.
         23    2    4    4    0    0  0.10036679294E+04  0.52244828470E+03  0.56968320597E+03  0.12702356779E+04  0.93049447246E+02 0.  0.
         23    2    4    4    0    0 -0.15802870368E+03  0.16190896612E+03  0.33511523722E+03  0.41470635739E+03  0.92149639946E+02 0.  0.
          3    1    3    3  502    0 -0.26722877496E+02 -0.70064385561E+01 -0.14138687536E+02  0.31033930595E+02  0.00000000000E+00 0. -1.
         -4    1    3    3    0  502 -0.81891634825E+03 -0.67735081226E+03 -0.74291282173E+03  0.12966678715E+04  0.00000000000E+00 0.  1.
         11    1    5    5    0    0  0.82983694279E+03  0.41128642065E+03  0.49959436572E+03  0.10523214346E+04  0.00000000000E+00 0. -1.
        -11    1    5    5    0    0  0.17383098663E+03  0.11116186405E+03  0.70088840248E+02  0.21791424336E+03  0.00000000000E+00 0.  1.
          1    1    6    6  503    0 -0.15176421146E+03  0.14036849381E+03  0.23896844897E+03  0.31597722946E+03  0.00000000000E+00 0. -1.
         -1    1    6    6    0  503 -0.62644922206E+01  0.21540472313E+02  0.96146788253E+02  0.98729127929E+02  0.00000000000E+00 0.  1.
<mgrwt>
<rscale>  0 0.30090187E+04</rscale>
<asrwt>0</asrwt>
<pdfrwt beam="1">  1        1 0.24310698E+00 0.30090187E+04</pdfrwt>
<pdfrwt beam="2">  1       -2 0.22037669E+00 0.30090187E+04</pdfrwt>
<totfact> 0.42280471E-01</totfact>
</mgrwt>
</event>
<event>
12    4  0.4381187E-008  0.1574631E+04  0.7818608E-02  0.8836287E-01
          1   -1    0    0  501    0  0.00000000000E+00  0.00000000000E+00  0.15055403261E+04  0.15055403261E+04  0.00000000000E+00 0. -1.
         -2   -1    0    0    0  501 -0.00000000000E+00 -0.00000000000E+00 -0.41172287796E+03  0.41172287796E+03  0.00000000000E+00 0.  1.
        -24    2    1    2    0    0 -0.37208628052E+03  0.17099465913E+03  0.77442805258E+03  0.88013757502E+03  0.84946858335E+02 0.  0.
        254    2    1    2    0    0  0.37208628052E+03 -0.17099465913E+03  0.31938939557E+03  0.10371256290E+04  0.89773749549E+03 0.  0.
         23    2    4    4    0    0 -0.21699062043E+03  0.43015902867E+02 -0.11901025961E+03  0.26769408900E+03  0.92527758770E+02 0.  0.
         23    2    4    4    0    0  0.58907690095E+03 -0.21401056200E+03  0.43839965518E+03  0.76943154004E+03  0.83776615245E+02 0.  0.
          3    1    3    3  502    0 -0.36555751041E+03  0.15270093035E+03  0.75520492389E+03  0.85280967666E+03  0.00000000000E+00 0. -1.
         -4    1    3    3    0  502 -0.65287701138E+01  0.18293728786E+02  0.19223128690E+02  0.27327898360E+02  0.00000000000E+00 0.  1.
         11    1    5    5    0    0 -0.11684625882E+03  0.85464757853E+01 -0.11114673698E+03  0.16149206665E+03  0.00000000000E+00 0.  1.
        -11    1    5    5    0    0 -0.10014436161E+03  0.34469427082E+02 -0.78635226309E+01  0.10620202236E+03  0.00000000000E+00 0. -1.
          1    1    6    6  503    0  0.13163917745E+03 -0.13124808155E+02  0.80466300750E+02  0.15484172301E+03  0.00000000000E+00 0. -1.
         -1    1    6    6    0  503  0.45743772351E+03 -0.20088575385E+03  0.35793335443E+03  0.61458981703E+03  0.00000000000E+00 0.  1.
<mgrwt>
<rscale>  0 0.15746306E+04</rscale>
<asrwt>0</asrwt>
<pdfrwt beam="1">  1        1 0.23162159E+00 0.15746306E+04</pdfrwt>
<pdfrwt beam="2">  1       -2 0.63341982E-01 0.15746306E+04</pdfrwt>
<totfact> 0.12624374E+01</totfact>
</mgrwt>
</event>
<event>
12    4  0.4381187E-008  0.1559692E+04  0.7818608E-02  0.8845701E-01
          1   -1    0    0  501    0  0.00000000000E+00  0.00000000000E+00  0.11462278022E+04  0.11462278022E+04  0.00000000000E+00 0. -1.
         -2   -1    0    0    0  501 -0.00000000000E+00 -0.00000000000E+00 -0.53057515282E+03  0.53057515282E+03  0.00000000000E+00 0.  1.
        -24    2    1    2    0    0  0.27945489861E+02  0.51224540883E+03  0.15913696079E+03  0.54305157497E+03  0.80025817771E+02 0.  0.
        254    2    1    2    0    0 -0.27945489861E+02 -0.51224540883E+03  0.45651568858E+03  0.11337513800E+04  0.90211380023E+03 0.  0.
         23    2    4    4    0    0  0.25477468889E+03  0.73503844674E+01 -0.12702722986E+03  0.29780566111E+03  0.87109841086E+02 0.  0.
         23    2    4    4    0    0 -0.28272017875E+03 -0.51959579330E+03  0.58354291844E+03  0.83594571893E+03  0.91500925974E+02 0.  0.
          3    1    3    3  502    0 -0.33035521115E+01  0.38138842302E+03  0.14393766124E+03  0.40765928542E+03  0.00000000000E+00 0. -1.
         -4    1    3    3    0  502  0.31249041973E+02  0.13085698582E+03  0.15199299550E+02  0.13539228954E+03  0.00000000000E+00 0.  1.
         11    1    5    5    0    0  0.26030457751E+03  0.19324684015E+00 -0.12312045331E+03  0.28795339283E+03  0.00000000000E+00 0.  1.
        -11    1    5    5    0    0 -0.55298886273E+01  0.71571376273E+01 -0.39067765524E+01  0.98522682808E+01  0.00000000000E+00 0. -1.
          4    1    6    6  503    0 -0.69541882963E+02 -0.17330269299E+03  0.23654866798E+03  0.30137214404E+03  0.00000000000E+00 0. -1.
         -4    1    6    6    0  503 -0.21317829578E+03 -0.34629310031E+03  0.34699425047E+03  0.53457357489E+03  0.00000000000E+00 0.  1.
<mgrwt>
<rscale>  0 0.15596923E+04</rscale>
<asrwt>0</asrwt>
<pdfrwt beam="1">  1        1 0.17634274E+00 0.15596923E+04</pdfrwt>
<pdfrwt beam="2">  1       -2 0.81626947E-01 0.15596923E+04</pdfrwt>
<totfact> 0.13056471E+01</totfact>
</mgrwt>
</event>
<event>
12    4  0.4381187E-008  0.2634730E+04  0.7818608E-02  0.8356499E-01
          1   -1    0    0  501    0  0.00000000000E+00  0.00000000000E+00  0.18407071057E+04  0.18407071057E+04  0.00000000000E+00 0. -1.
         -2   -1    0    0    0  501 -0.00000000000E+00 -0.00000000000E+00 -0.94281760457E+03  0.94281760457E+03  0.00000000000E+00 0.  1.
        -24    2    1    2    0    0  0.92582411802E+03 -0.69181001280E+02  0.11421474747E+04  0.14739985730E+04  0.78959677285E+02 0.  0.
        254    2    1    2    0    0 -0.92582411802E+03  0.69181001280E+02 -0.24425797361E+03  0.13095261373E+04  0.89065169294E+03 0.  0.
         23    2    4    4    0    0 -0.64957918897E+03  0.49301904389E+02  0.27571577300E+03  0.71310360650E+03  0.90076443069E+02 0.  0.
         23    2    4    4    0    0 -0.27624492905E+03  0.19879096891E+02 -0.51997374662E+03  0.59642253079E+03  0.92955358905E+02 0.  0.
          1    1    3    3  502    0  0.45628205786E+03  0.29472069437E+01  0.58158824479E+03  0.73922046023E+03  0.00000000000E+00 0. -1.
         -2    1    3    3    0  502  0.46954206016E+03 -0.72128208223E+02  0.56055922996E+03  0.73477811275E+03  0.00000000000E+00 0.  1.
         11    1    5    5    0    0 -0.53838193051E+03  0.74747630817E+02  0.23036845337E+03  0.59034899485E+03  0.00000000000E+00 0.  1.
        -11    1    5    5    0    0 -0.11119725846E+03 -0.25445726428E+02  0.45347319637E+02  0.12275461165E+03  0.00000000000E+00 0. -1.
          2    1    6    6  503    0 -0.18647036532E+02 -0.23960615170E+02 -0.65257916230E+02  0.71975125435E+02  0.00000000000E+00 0. -1.
         -2    1    6    6    0  503 -0.25759789252E+03  0.43839712061E+02 -0.45471583039E+03  0.52444740536E+03  0.00000000000E+00 0.  1.
<mgrwt>
<rscale>  0 0.26347304E+04</rscale>
<asrwt>0</asrwt>
<pdfrwt beam="1">  1        1 0.28318571E+00 0.26347304E+04</pdfrwt>
<pdfrwt beam="2">  1       -2 0.14504886E+00 0.26347304E+04</pdfrwt>
<totfact> 0.96561653E-01</totfact>
</mgrwt>
</event>
<event>
12    4  0.4381187E-008  0.1654392E+04  0.7818608E-02  0.8787813E-01
         -2   -1    0    0    0  501 -0.00000000000E+00  0.00000000000E+00  0.29259820295E+03  0.29259820295E+03  0.00000000000E+00 0.  1.
          1   -1    0    0  501    0  0.00000000000E+00 -0.00000000000E+00 -0.23385408248E+04  0.23385408248E+04  0.00000000000E+00 0. -1.
        -24    2    1    2    0    0  0.46522217102E+02  0.40105319778E+02 -0.16940349267E+04  0.16969787695E+04  0.78802651291E+02 0.  0.
        254    2    1    2    0    0 -0.46522217102E+02 -0.40105319778E+02 -0.35190769517E+03  0.93416025829E+03  0.86315908666E+03 0.  0.
         23    2    4    4    0    0 -0.19821371246E+03  0.13223579805E+03  0.20236276328E+03  0.32703235134E+03  0.96044202157E+02 0.  0.
         23    2    4    4    0    0  0.15169149536E+03 -0.17234111783E+03 -0.55427045844E+03  0.60712790694E+03  0.93149254543E+02 0.  0.
          1    1    3    3  502    0  0.25713071285E+02  0.16189921904E+02 -0.15048094819E+04  0.15051162256E+04  0.00000000000E+00 0. -1.
         -2    1    3    3    0  502  0.20809145817E+02  0.23915397874E+02 -0.18922544481E+03  0.19186254395E+03  0.00000000000E+00 0.  1.
         11    1    5    5    0    0 -0.17421937169E+03  0.12801793021E+03  0.21010292454E+03  0.30147009607E+03  0.00000000000E+00 0. -1.
        -11    1    5    5    0    0 -0.23994340772E+02  0.42178678395E+01 -0.77401612559E+01  0.25562255269E+02  0.00000000000E+00 0.  1.
          2    1    6    6  503    0  0.10905623389E+03 -0.86637026950E+02 -0.22867231099E+03  0.26775037330E+03  0.00000000000E+00 0.  1.
         -2    1    6    6    0  503  0.42635261472E+02 -0.85704090882E+02 -0.32559814745E+03  0.33937753364E+03  0.00000000000E+00 0. -1.
<mgrwt>
<rscale>  0 0.16543915E+04</rscale>
<asrwt>0</asrwt>
<pdfrwt beam="1">  1        1 0.35977550E+00 0.16543915E+04</pdfrwt>
<pdfrwt beam="2">  1       -2 0.45015109E-01 0.16543915E+04</pdfrwt>
<totfact> 0.68826000E+00</totfact>
</mgrwt>
</event>
<event>
12    4  0.4381187E-008  0.1142722E+04  0.7818608E-02  0.9164524E-01
         -2   -1    0    0    0  501 -0.00000000000E+00  0.00000000000E+00  0.33824758740E+03  0.33824758740E+03  0.00000000000E+00 0.  1.
          1   -1    0    0  501    0  0.00000000000E+00 -0.00000000000E+00 -0.96513118523E+03  0.96513118523E+03  0.00000000000E+00 0. -1.
        -24    2    1    2    0    0  0.38839098676E+02 -0.19674284552E+03 -0.16698360742E+03  0.27273734893E+03  0.79283753096E+02 0.  0.
        254    2    1    2    0    0 -0.38839098676E+02  0.19674284552E+03 -0.45989999042E+03  0.10306414237E+04  0.90027635769E+03 0.  0.
         23    2    4    4    0    0 -0.25381596438E+03  0.25199518103E+03 -0.63387855342E+03  0.73417140472E+03  0.96340624801E+02 0.  0.
         23    2    4    4    0    0  0.21497686570E+03 -0.55252335513E+02  0.17397856300E+03  0.29647001898E+03  0.91422417392E+02 0.  0.
          3    1    3    3  502    0 -0.88803014397E+01 -0.25508435823E+01 -0.27277805797E+02  0.28800091072E+02  0.00000000000E+00 0. -1.
         -4    1    3    3    0  502  0.47719400115E+02 -0.19419200194E+03 -0.13970580162E+03  0.24393725786E+03  0.00000000000E+00 0.  1.
         11    1    5    5    0    0 -0.25606203747E+03  0.24396468808E+03 -0.63383470568E+03  0.72583260480E+03  0.00000000000E+00 0.  1.
        -11    1    5    5    0    0  0.22460730921E+01  0.80304929566E+01 -0.43847733839E-01  0.83387999187E+01  0.00000000000E+00 0. -1.
          3    1    6    6  503    0  0.17737546548E+02 -0.42068403400E+01  0.60657837863E+02  0.63337914059E+02  0.00000000000E+00 0. -1.
         -3    1    6    6    0  503  0.19723931915E+03 -0.51045495173E+02  0.11332072514E+03  0.23313210492E+03  0.00000000000E+00 0.  1.
<mgrwt>
<rscale>  0 0.11427218E+04</rscale>
<asrwt>0</asrwt>
<pdfrwt beam="1">  1        1 0.14848172E+00 0.11427218E+04</pdfrwt>
<pdfrwt beam="2">  1       -2 0.52038091E-01 0.11427218E+04</pdfrwt>
<totfact> 0.48953058E+01</totfact>
</mgrwt>
</event>
<event>
12    4  0.4381187E-008  0.2194519E+04  0.7818608E-02  0.8520713E-01
          1   -1    0    0  501    0  0.00000000000E+00  0.00000000000E+00  0.40259897459E+04  0.40259897459E+04  0.00000000000E+00 0. -1.
         -2   -1    0    0    0  501 -0.00000000000E+00 -0.00000000000E+00 -0.29905143606E+03  0.29905143606E+03  0.00000000000E+00 0.  1.
        -24    2    1    2    0    0  0.45780777633E+02  0.85423566995E+03  0.10913083826E+04  0.13889411598E+04  0.79931846480E+02 0.  0.
        254    2    1    2    0    0 -0.45780777633E+02 -0.85423566995E+03  0.26356299272E+04  0.29361000221E+04  0.97073362324E+03 0.  0.
         23    2    4    4    0    0 -0.71411113475E+02 -0.33510589872E+03  0.22617032368E+04  0.22893793907E+04  0.92525415172E+02 0.  0.
         23    2    4    4    0    0  0.25630335842E+02 -0.51912977123E+03  0.37392669041E+03  0.64672063148E+03  0.90960276429E+02 0.  0.
          1    1    3    3  502    0  0.10964608437E+02  0.91497135614E+02  0.16010508974E+03  0.18473112414E+03  0.00000000000E+00 0. -1.
         -2    1    3    3    0  502  0.34816169197E+02  0.76273853433E+03  0.93120329284E+03  0.12042100357E+04  0.00000000000E+00 0.  1.
         11    1    5    5    0    0 -0.80383811376E+01 -0.24278361875E+03  0.15414391346E+04  0.15604624657E+04  0.00000000000E+00 0.  1.
        -11    1    5    5    0    0 -0.63372732338E+02 -0.92322279969E+02  0.72026410224E+03  0.72891692501E+03  0.00000000000E+00 0. -1.
          2    1    6    6  503    0 -0.22829844654E+02 -0.35188260641E+03  0.23221200454E+03  0.42221438341E+03  0.00000000000E+00 0.  1.
         -2    1    6    6    0  503  0.48460180495E+02 -0.16724716482E+03  0.14171468587E+03  0.22450624808E+03  0.00000000000E+00 0. -1.
<mgrwt>
<rscale>  0 0.21945186E+04</rscale>
<asrwt>0</asrwt>
<pdfrwt beam="1">  1        1 0.61938300E+00 0.21945186E+04</pdfrwt>
<pdfrwt beam="2">  1       -2 0.46007916E-01 0.21945186E+04</pdfrwt>
<totfact> 0.32871101E-01</totfact>
</mgrwt>
</event>
<event>
12    4  0.4381187E-008  0.1044964E+04  0.7818608E-02  0.9260559E-01
         -2   -1    0    0    0  501 -0.00000000000E+00  0.00000000000E+00  0.46591863404E+03  0.46591863404E+03  0.00000000000E+00 0.  1.
          1   -1    0    0  501    0  0.00000000000E+00 -0.00000000000E+00 -0.58591198337E+03  0.58591198337E+03  0.00000000000E+00 0. -1.
        -24    2    1    2    0    0  0.63839348929E+02  0.45587665263E+02  0.64177782650E+02  0.13276211020E+03  0.85751340649E+02 0.  0.
        254    2    1    2    0    0 -0.63839348929E+02 -0.45587665263E+02 -0.18417113199E+03  0.91906850721E+03  0.89700290824E+03 0.  0.
         23    2    4    4    0    0  0.21935110758E+03 -0.14184790228E+03  0.25627258623E+03  0.37876779798E+03  0.97742879802E+02 0.  0.
         23    2    4    4    0    0 -0.28319045651E+03  0.96260237019E+02 -0.44044371822E+03  0.54030070923E+03  0.92039771789E+02 0.  0.
          1    1    3    3  502    0 -0.17755134487E+02  0.23157502134E+02  0.28937476905E+02  0.41096134555E+02  0.00000000000E+00 0. -1.
         -2    1    3    3    0  502  0.81594483416E+02  0.22430163129E+02  0.35240305745E+02  0.91665975645E+02  0.00000000000E+00 0.  1.
         11    1    5    5    0    0  0.16449724257E+03 -0.97081913640E+02  0.23888868917E+03  0.30586279045E+03  0.00000000000E+00 0. -1.
        -11    1    5    5    0    0  0.54853865008E+02 -0.44765988641E+02  0.17383897065E+02  0.72905007527E+02  0.00000000000E+00 0.  1.
          3    1    6    6  503    0 -0.26842875063E+03  0.75379094587E+02 -0.43042331985E+03  0.51283548662E+03  0.00000000000E+00 0. -1.
         -3    1    6    6    0  503 -0.14761705876E+02  0.20881142432E+02 -0.10020398367E+02  0.27465222611E+02  0.00000000000E+00 0.  1.
<mgrwt>
<rscale>  0 0.10449638E+04</rscale>
<asrwt>0</asrwt>
<pdfrwt beam="1">  1        1 0.90140305E-01 0.10449638E+04</pdfrwt>
<pdfrwt beam="2">  1       -2 0.71679790E-01 0.10449638E+04</pdfrwt>
<totfact> 0.54768153E+01</totfact>
</mgrwt>
</event>
<event>
12    4  0.4381187E-008  0.1990660E+04  0.7818608E-02  0.8611000E-01
          1   -1    0    0  501    0  0.00000000000E+00  0.00000000000E+00  0.29509516746E+04  0.29509516746E+04  0.00000000000E+00 0. -1.
         -2   -1    0    0    0  501 -0.00000000000E+00 -0.00000000000E+00 -0.33571601029E+03  0.33571601029E+03  0.00000000000E+00 0.  1.
        -24    2    1    2    0    0 -0.41885413908E+01 -0.48230255611E+03  0.20783347196E+04  0.21350541679E+04  0.79673042007E+02 0.  0.
        254    2    1    2    0    0  0.41885413908E+01  0.48230255611E+03  0.53690094472E+03  0.11516135170E+04  0.89739499030E+03 0.  0.
         23    2    4    4    0    0 -0.36511572411E+03  0.10244971658E+03  0.46841962776E+03  0.60986329901E+03  0.93331984805E+02 0.  0.
         23    2    4    4    0    0  0.36930426550E+03  0.37985283953E+03  0.68481316954E+02  0.54175021800E+03  0.90165335465E+02 0.  0.
          1    1    3    3  502    0  0.81295579801E+00 -0.39136005514E+03  0.18051333045E+04  0.18470705456E+04  0.00000000000E+00 0. -1.
         -4    1    3    3    0  502 -0.50014971889E+01 -0.90942500973E+02  0.27320141515E+03  0.28798362227E+03  0.00000000000E+00 0.  1.
         11    1    5    5    0    0 -0.19630461437E+02 -0.15631771896E+02  0.24286107711E+02  0.34921659992E+02  0.00000000000E+00 0. -1.
        -11    1    5    5    0    0 -0.34548526267E+03  0.11808148848E+03  0.44413352005E+03  0.57494163902E+03  0.00000000000E+00 0.  1.
          1    1    6    6  503    0  0.89519557612E+02  0.15257828918E+03  0.25700040786E+02  0.17875787429E+03  0.00000000000E+00 0. -1.
         -1    1    6    6    0  503  0.27978470789E+03  0.22727455035E+03  0.42781276168E+02  0.36299234371E+03  0.00000000000E+00 0.  1.
<mgrwt>
<rscale>  0 0.19906599E+04</rscale>
<asrwt>0</asrwt>
<pdfrwt beam="1">  1        1 0.45399255E+00 0.19906599E+04</pdfrwt>
<pdfrwt beam="2">  1       -2 0.51648619E-01 0.19906599E+04</pdfrwt>
<totfact> 0.18775709E+00</totfact>
</mgrwt>
</event>
<event>
12    4  0.4381187E-008  0.1804113E+04  0.7818608E-02  0.8704115E-01
         -2   -1    0    0    0  501 -0.00000000000E+00  0.00000000000E+00  0.12481860680E+04  0.12481860680E+04  0.00000000000E+00 0.  1.
          1   -1    0    0  501    0  0.00000000000E+00 -0.00000000000E+00 -0.65191064906E+03  0.65191064906E+03  0.00000000000E+00 0. -1.
        -24    2    1    2    0    0  0.62353246067E+03 -0.95180078561E+02  0.47272175345E+03  0.79218273464E+03  0.78966144730E+02 0.  0.
        254    2    1    2    0    0 -0.62353246067E+03  0.95180078561E+02  0.12355366544E+03  0.11079139824E+04  0.90241670377E+03 0.  0.
         23    2    4    4    0    0 -0.92842181276E+01 -0.20709669811E+03 -0.23809671892E+03  0.32803296757E+03  0.89108592026E+02 0.  0.
         23    2    4    4    0    0 -0.61424824254E+03  0.30227677668E+03  0.36165038436E+03  0.77988101482E+03  0.93548081635E+02 0.  0.
          3    1    3    3  502    0  0.28236418789E+03 -0.44745198975E+02  0.26354674216E+03  0.38882972204E+03  0.00000000000E+00 0. -1.
         -4    1    3    3    0  502  0.34116827278E+03 -0.50434879586E+02  0.20917501129E+03  0.40335301260E+03  0.00000000000E+00 0.  1.
         11    1    5    5    0    0 -0.42726669624E+01 -0.15485116214E+01 -0.47357587124E+02  0.47575147182E+02  0.00000000000E+00 0. -1.
        -11    1    5    5    0    0 -0.50115511652E+01 -0.20554818649E+03 -0.19073913180E+03  0.28045782038E+03  0.00000000000E+00 0.  1.
          3    1    6    6  503    0 -0.93724505063E+02  0.85889792663E+02  0.60919402068E+02  0.14096990062E+03  0.00000000000E+00 0. -1.
         -3    1    6    6    0  503 -0.52052373748E+03  0.21638698401E+03  0.30073098230E+03  0.63891111419E+03  0.00000000000E+00 0.  1.
<mgrwt>
<rscale>  0 0.18041128E+04</rscale>
<asrwt>0</asrwt>
<pdfrwt beam="1">  1        1 0.10029395E+00 0.18041128E+04</pdfrwt>
<pdfrwt beam="2">  1       -2 0.19202863E+00 0.18041128E+04</pdfrwt>
<totfact> 0.37595784E+00</totfact>
</mgrwt>
</event>
<event>
12    4  0.4381187E-008  0.1351281E+04  0.7818608E-02  0.8989859E-01
          1   -1    0    0  501    0  0.00000000000E+00  0.00000000000E+00  0.41459814494E+03  0.41459814494E+03  0.00000000000E+00 0. -1.
         -2   -1    0    0    0  501 -0.00000000000E+00 -0.00000000000E+00 -0.11010415794E+04  0.11010415794E+04  0.00000000000E+00 0.  1.
        -24    2    1    2    0    0  0.23669981252E+03  0.80072176578E+02 -0.49899738279E+03  0.56524974750E+03  0.89836152604E+02 0.  0.
        254    2    1    2    0    0 -0.23669981252E+03 -0.80072176578E+02 -0.18744605163E+03  0.95038997680E+03  0.89758940001E+03 0.  0.
         23    2    4    4    0    0 -0.29497596791E+03  0.33340517294E+03 -0.24887172231E+03  0.51841984209E+03  0.93017028130E+02 0.  0.
         23    2    4    4    0    0  0.58276155388E+02 -0.41347734952E+03  0.61425670679E+02  0.43197013470E+03  0.92007909468E+02 0.  0.
          3    1    3    3  502    0  0.20008269300E+02 -0.10288935274E+02 -0.98260839256E+02  0.10080369815E+03  0.00000000000E+00 0. -1.
         -4    1    3    3    0  502  0.21669154322E+03  0.90361111852E+02 -0.40073654353E+03  0.46444604935E+03  0.00000000000E+00 0.  1.
         11    1    5    5    0    0 -0.19870262149E+03  0.19715407334E+03 -0.10785982951E+03  0.29997700452E+03  0.00000000000E+00 0.  1.
        -11    1    5    5    0    0 -0.96273346417E+02  0.13625109960E+03 -0.14101189281E+03  0.21844283757E+03  0.00000000000E+00 0. -1.
          2    1    6    6  503    0 -0.16820479874E+02 -0.17828077822E+02  0.76848351052E+01  0.25687070534E+02  0.00000000000E+00 0. -1.
         -2    1    6    6    0  503  0.75096635263E+02 -0.39564927170E+03  0.53740835573E+02  0.40628306417E+03  0.00000000000E+00 0.  1.
<mgrwt>
<rscale>  0 0.13512806E+04</rscale>
<asrwt>0</asrwt>
<pdfrwt beam="1">  1        1 0.63784331E-01 0.13512806E+04</pdfrwt>
<pdfrwt beam="2">  1       -2 0.16939101E+00 0.13512806E+04</pdfrwt>
<totfact> 0.10518213E+01</totfact>
</mgrwt>
</event>
<event>
12    4  0.4381187E-008  0.2478774E+04  0.7818608E-02  0.8410587E-01
          1   -1    0    0  501    0  0.00000000000E+00  0.00000000000E+00  0.89084572578E+03  0.89084572578E+03  0.00000000000E+00 0. -1.
         -2   -1    0    0    0  501 -0.00000000000E+00 -0.00000000000E+00 -0.17242945585E+04  0.17242945585E+04  0.00000000000E+00 0.  1.
        -24    2    1    2    0    0  0.10906930926E+03 -0.94144386464E+03  0.17721316818E+03  0.96752101310E+03  0.80496828089E+02 0.  0.
        254    2    1    2    0    0 -0.10906930926E+03  0.94144386464E+03 -0.10106620009E+04  0.16476192712E+04  0.89162711838E+03 0.  0.
         23    2    4    4    0    0 -0.10463743793E+03 -0.10575725771E+03 -0.39000957905E+03  0.42697902245E+03  0.89833306085E+02 0.  0.
         23    2    4    4    0    0 -0.44318713244E+01  0.10472011223E+04 -0.62065242186E+03  0.12206402487E+04  0.90018642322E+02 0.  0.
          1    1    3    3  502    0  0.10469370896E+03 -0.85613019006E+03  0.18368555490E+03  0.88185036038E+03  0.00000000000E+00 0. -1.
         -2    1    3    3    0  502  0.43756002986E+01 -0.85313674578E+02 -0.64723867131E+01  0.85670652722E+02  0.00000000000E+00 0.  1.
         11    1    5    5    0    0  0.11306426795E+02 -0.25718821734E+02 -0.33998351839E+02  0.44104206217E+02  0.00000000000E+00 0.  1.
        -11    1    5    5    0    0 -0.11594386473E+03 -0.80038435974E+02 -0.35601122721E+03  0.38287481623E+03  0.00000000000E+00 0. -1.
          2    1    6    6  503    0  0.96354536126E+01  0.94880955220E+03 -0.53413542819E+03  0.10888677899E+04  0.00000000000E+00 0. -1.
         -2    1    6    6    0  503 -0.14067324937E+02  0.98391570149E+02 -0.86516993667E+02  0.13177245881E+03  0.00000000000E+00 0.  1.
<mgrwt>
<rscale>  0 0.24787742E+04</rscale>
<asrwt>0</asrwt>
<pdfrwt beam="1">  1        1 0.13705319E+00 0.24787742E+04</pdfrwt>
<pdfrwt beam="2">  1       -2 0.26527608E+00 0.24787742E+04</pdfrwt>
<totfact> 0.74847966E-01</totfact>
</mgrwt>
</event>
<event>
12    4  0.4381187E-008  0.1400611E+04  0.7818608E-02  0.8953376E-01
         -2   -1    0    0    0  501 -0.00000000000E+00  0.00000000000E+00  0.43444526748E+03  0.43444526748E+03  0.00000000000E+00 0.  1.
          1   -1    0    0  501    0  0.00000000000E+00 -0.00000000000E+00 -0.11288603612E+04  0.11288603612E+04  0.00000000000E+00 0. -1.
        -24    2    1    2    0    0  0.29080191564E+03  0.25607400959E+03 -0.79364451802E+02  0.40342996018E+03  0.79481847205E+02 0.  0.
        254    2    1    2    0    0 -0.29080191564E+03 -0.25607400959E+03 -0.61505064190E+03  0.11598756685E+04  0.90381669696E+03 0.  0.
         23    2    4    4    0    0  0.15580060760E+03 -0.39409690421E+03 -0.74545801539E+02  0.43990420972E+03  0.91501027122E+02 0.  0.
         23    2    4    4    0    0 -0.44660252324E+03  0.13802289462E+03 -0.54050484036E+03  0.71997145876E+03  0.87802538528E+02 0.  0.
          1    1    3    3  502    0  0.13178120773E+03  0.12904170435E+03  0.14404049302E+01  0.18444544705E+03  0.00000000000E+00 0. -1.
         -2    1    3    3    0  502  0.15902070790E+03  0.12703230524E+03 -0.80804856732E+02  0.21898451312E+03  0.00000000000E+00 0.  1.
         11    1    5    5    0    0  0.16477620205E+03 -0.33698129623E+03 -0.56530077898E+02  0.37934580594E+03  0.00000000000E+00 0.  1.
        -11    1    5    5    0    0 -0.89755944526E+01 -0.57115607979E+02 -0.18015723641E+02  0.60558403784E+02  0.00000000000E+00 0. -1.
          3    1    6    6  503    0 -0.57306154545E+02  0.50978538750E+02 -0.88935759651E+02  0.11744094732E+03  0.00000000000E+00 0. -1.
         -3    1    6    6    0  503 -0.38929636869E+03  0.87044355874E+02 -0.45156908071E+03  0.60253051144E+03  0.00000000000E+00 0.  1.
<mgrwt>
<rscale>  0 0.14006114E+04</rscale>
<asrwt>0</asrwt>
<pdfrwt beam="1">  1        1 0.17367082E+00 0.14006114E+04</pdfrwt>
<pdfrwt beam="2">  1       -2 0.66837734E-01 0.14006114E+04</pdfrwt>
<totfact> 0.21200195E+01</totfact>
</mgrwt>
</event>
<event>
12    4  0.4381187E-008  0.1878506E+04  0.7818608E-02  0.8665630E-01
         -2   -1    0    0    0  501 -0.00000000000E+00  0.00000000000E+00  0.39308716443E+03  0.39308716443E+03  0.00000000000E+00 0.  1.
          1   -1    0    0  501    0  0.00000000000E+00 -0.00000000000E+00 -0.22442767607E+04  0.22442767607E+04  0.00000000000E+00 0. -1.
        -24    2    1    2    0    0 -0.35179487840E+03 -0.48543582219E+03 -0.12668116557E+04  0.14037294506E+04  0.78974841384E+02 0.  0.
        254    2    1    2    0    0  0.35179487840E+03  0.48543582219E+03 -0.58437794058E+03  0.12336344745E+04  0.90606228558E+03 0.  0.
         23    2    4    4    0    0  0.31655280612E+03 -0.19297465951E+03 -0.32344918786E+03  0.50035670672E+03  0.91063486403E+02 0.  0.
         23    2    4    4    0    0  0.35242072282E+02  0.67841048171E+03 -0.26092875272E+03  0.73327776780E+03  0.90164768098E+02 0.  0.
          1    1    3    3  502    0 -0.34453710732E+03 -0.44251192697E+03 -0.11629782399E+04  0.12911394233E+04  0.00000000000E+00 0. -1.
         -2    1    3    3    0  502 -0.72577710807E+01 -0.42923895222E+02 -0.10383341574E+03  0.11259002730E+03  0.00000000000E+00 0.  1.
         11    1    5    5    0    0  0.46915768238E+02 -0.72661707251E+02 -0.72512177357E+02  0.11286642049E+03  0.00000000000E+00 0. -1.
        -11    1    5    5    0    0  0.26963703788E+03 -0.12031295226E+03 -0.25093701050E+03  0.38749028623E+03  0.00000000000E+00 0.  1.
          1    1    6    6  503    0  0.44632998093E+02  0.37442558090E+03 -0.18397363401E+03  0.41956277023E+03  0.00000000000E+00 0. -1.
         -1    1    6    6    0  503 -0.93909258101E+01  0.30398490080E+03 -0.76955118712E+02  0.31371499757E+03  0.00000000000E+00 0.  1.
<mgrwt>
<rscale>  0 0.18785062E+04</rscale>
<asrwt>0</asrwt>
<pdfrwt beam="1">  1        1 0.34527335E+00 0.18785062E+04</pdfrwt>
<pdfrwt beam="2">  1       -2 0.60474948E-01 0.18785062E+04</pdfrwt>
<totfact> 0.42619749E+00</totfact>
</mgrwt>
</event>
<event>
12    4  0.4381187E-008  0.3411188E+04  0.7818608E-02  0.8135166E-01
         -2   -1    0    0    0  501 -0.00000000000E+00  0.00000000000E+00  0.11907807759E+04  0.11907807759E+04  0.00000000000E+00 0.  1.
          1   -1    0    0  501    0  0.00000000000E+00 -0.00000000000E+00 -0.24429779186E+04  0.24429779186E+04  0.00000000000E+00 0. -1.
        -24    2    1    2    0    0 -0.55904090823E+03  0.21992246280E+02  0.99830912480E+03  0.11471318683E+04  0.79246569315E+02 0.  0.
        254    2    1    2    0    0  0.55904090823E+03 -0.21992246280E+02 -0.22505062675E+04  0.24866268262E+04  0.89750995348E+03 0.  0.
         23    2    4    4    0    0 -0.74227396411E+02 -0.25458765694E+03 -0.12151773513E+04  0.12473421057E+04  0.94243048053E+02 0.  0.
         23    2    4    4    0    0  0.63326830464E+03  0.23259541066E+03 -0.10353289163E+04  0.12392847205E+04  0.93761841717E+02 0.  0.
          1    1    3    3  502    0 -0.71860446125E+02  0.20670056548E+02  0.95821026936E+02  0.12154358954E+03  0.00000000000E+00 0. -1.
         -2    1    3    3    0  502 -0.48718046211E+03  0.13221897313E+01  0.90248809786E+03  0.10255882788E+04  0.00000000000E+00 0.  1.
         11    1    5    5    0    0 -0.70211104325E+02 -0.20027482950E+03 -0.76533000641E+03  0.79421006365E+03  0.00000000000E+00 0. -1.
        -11    1    5    5    0    0 -0.40162920855E+01 -0.54312827440E+02 -0.44984734485E+03  0.45313204201E+03  0.00000000000E+00 0.  1.
          4    1    6    6  503    0  0.28223202329E+03  0.13546681666E+03 -0.54444703277E+03  0.62803562389E+03  0.00000000000E+00 0. -1.
         -4    1    6    6    0  503  0.35103628135E+03  0.97128593997E+02 -0.49088188351E+03  0.61124909665E+03  0.00000000000E+00 0.  1.
<mgrwt>
<rscale>  0 0.34111881E+04</rscale>
<asrwt>0</asrwt>
<pdfrwt beam="1">  1        1 0.37584275E+00 0.34111881E+04</pdfrwt>
<pdfrwt beam="2">  1       -2 0.18319704E+00 0.34111881E+04</pdfrwt>
<totfact> 0.18493689E-01</totfact>
</mgrwt>
</event>
<event>
12    4  0.4381187E-008  0.2434958E+04  0.7818608E-02  0.8426530E-01
          1   -1    0    0  501    0  0.00000000000E+00  0.00000000000E+00  0.27589986425E+04  0.27589986425E+04  0.00000000000E+00 0. -1.
         -2   -1    0    0    0  501 -0.00000000000E+00 -0.00000000000E+00 -0.53724407441E+03  0.53724407441E+03  0.00000000000E+00 0.  1.
        -24    2    1    2    0    0  0.17850044362E+03 -0.88529857559E+03  0.16769365838E+04  0.19063131654E+04  0.79357432437E+02 0.  0.
        254    2    1    2    0    0 -0.17850044362E+03  0.88529857559E+03  0.54481798428E+03  0.13899295515E+04  0.90524115346E+03 0.  0.
         23    2    4    4    0    0 -0.32070961644E+03  0.78808826157E+03  0.48244988317E+02  0.85657163628E+03  0.86311199060E+02 0.  0.
         23    2    4    4    0    0  0.14220917282E+03  0.97210314015E+02  0.49657299596E+03  0.53335791525E+03  0.90623570073E+02 0.  0.
          1    1    3    3  502    0  0.12544229304E+03 -0.72741641978E+03  0.14136589704E+04  0.15947733699E+04  0.00000000000E+00 0. -1.
         -2    1    3    3    0  502  0.53058150578E+02 -0.15788215581E+03  0.26327761336E+03  0.31153979548E+03  0.00000000000E+00 0.  1.
         11    1    5    5    0    0 -0.78595525466E+02  0.15368568333E+03  0.41364633638E+02  0.17750374306E+03  0.00000000000E+00 0. -1.
        -11    1    5    5    0    0 -0.24211409097E+03  0.63440257824E+03  0.68803546793E+01  0.67906789322E+03  0.00000000000E+00 0.  1.
          3    1    6    6  503    0  0.11040191518E+03  0.10828648901E+03  0.45038135801E+03  0.47619104802E+03  0.00000000000E+00 0. -1.
         -3    1    6    6    0  503  0.31807257647E+02 -0.11076174992E+02  0.46191637958E+02  0.57166867228E+02  0.00000000000E+00 0.  1.
<mgrwt>
<rscale>  0 0.24349585E+04</rscale>
<asrwt>0</asrwt>
<pdfrwt beam="1">  1        1 0.42446132E+00 0.24349585E+04</pdfrwt>
<pdfrwt beam="2">  1       -2 0.82652936E-01 0.24349585E+04</pdfrwt>
<totfact> 0.89891406E-01</totfact>
</mgrwt>
</event>
<event>
12    4  0.4381187E-008  0.1789095E+04  0.7818608E-02  0.8712120E-01
         -2   -1    0    0    0  501 -0.00000000000E+00  0.00000000000E+00  0.49044687379E+03  0.49044687379E+03  0.00000000000E+00 0.  1.
          1   -1    0    0  501    0  0.00000000000E+00 -0.00000000000E+00 -0.16316048116E+04  0.16316048116E+04  0.00000000000E+00 0. -1.
        -24    2    1    2    0    0  0.64303940985E+03 -0.13395761928E+03 -0.38494410574E+03  0.76582420824E+03  0.82827694626E+02 0.  0.
        254    2    1    2    0    0 -0.64303940985E+03  0.13395761928E+03 -0.75621383205E+03  0.13562274771E+04  0.91435730630E+03 0.  0.
         23    2    4    4    0    0 -0.34265763663E+03  0.38238537624E+03 -0.79835554299E+03  0.95357049947E+03  0.91062025717E+02 0.  0.
         23    2    4    4    0    0 -0.30038177322E+03 -0.24842775697E+03  0.42141710945E+02  0.40265697767E+03  0.91712364209E+02 0.  0.
          3    1    3    3  502    0  0.94852973542E+01 -0.12337715557E+02 -0.17415401068E+02  0.23355647827E+02  0.00000000000E+00 0. -1.
         -4    1    3    3    0  502  0.63355411250E+03 -0.12161990372E+03 -0.36752870467E+03  0.74246856041E+03  0.00000000000E+00 0.  1.
         11    1    5    5    0    0  0.24244609055E+01  0.23366385945E+02 -0.35721915443E+02  0.42754195651E+02  0.00000000000E+00 0.  1.
        -11    1    5    5    0    0 -0.34508209754E+03  0.35901899030E+03 -0.76263362755E+03  0.91081630382E+03  0.00000000000E+00 0. -1.
          4    1    6    6  503    0 -0.17850169158E+03 -0.17929035709E+03 -0.98730263793E+01  0.25319036849E+03  0.00000000000E+00 0. -1.
         -4    1    6    6    0  503 -0.12188008163E+03 -0.69137399872E+02  0.52014737325E+02  0.14946660918E+03  0.00000000000E+00 0.  1.
<mgrwt>
<rscale>  0 0.17890953E+04</rscale>
<asrwt>0</asrwt>
<pdfrwt beam="1">  1        1 0.25101613E+00 0.17890953E+04</pdfrwt>
<pdfrwt beam="2">  1       -2 0.75453365E-01 0.17890953E+04</pdfrwt>
<totfact> 0.69331372E+00</totfact>
</mgrwt>
</event>
<event>
12    4  0.4381187E-008  0.1683145E+04  0.7818608E-02  0.8771036E-01
         -2   -1    0    0    0  501 -0.00000000000E+00  0.00000000000E+00  0.86552079447E+03  0.86552079447E+03  0.00000000000E+00 0.  1.
          1   -1    0    0  501    0  0.00000000000E+00 -0.00000000000E+00 -0.81828660707E+03  0.81828660707E+03  0.00000000000E+00 0. -1.
        -24    2    1    2    0    0  0.21447751726E+03  0.10473886015E+03  0.57924221353E+03  0.63118340661E+03  0.76812216557E+02 0.  0.
        254    2    1    2    0    0 -0.21447751726E+03 -0.10473886015E+03 -0.53200802613E+03  0.10526239949E+04  0.87636402288E+03 0.  0.
         23    2    4    4    0    0 -0.17401127234E+03 -0.43294892497E+03 -0.75568002982E+02  0.48144479541E+03  0.91399526366E+02 0.  0.
         23    2    4    4    0    0 -0.40466244920E+02  0.32821006482E+03 -0.45644002314E+03  0.57117919952E+03  0.92459826983E+02 0.  0.
          3    1    3    3  502    0  0.29104998895E+02  0.42190043240E+02  0.80393686023E+02  0.95342778760E+02  0.00000000000E+00 0. -1.
         -4    1    3    3    0  502  0.18537251836E+03  0.62548816911E+02  0.49884852751E+03  0.53584062785E+03  0.00000000000E+00 0.  1.
         11    1    5    5    0    0  0.25019213121E+01 -0.83749313231E+01  0.10492254865E+02  0.13656005897E+02  0.00000000000E+00 0. -1.
        -11    1    5    5    0    0 -0.17651319365E+03 -0.42457399365E+03 -0.86060257847E+02  0.46778878951E+03  0.00000000000E+00 0.  1.
          3    1    6    6  503    0 -0.48005106100E+02  0.89137177684E+02 -0.10314714119E+03  0.14453117101E+03  0.00000000000E+00 0. -1.
         -3    1    6    6    0  503  0.75388611803E+01  0.23907288713E+03 -0.35329288195E+03  0.42664802851E+03  0.00000000000E+00 0.  1.
<mgrwt>
<rscale>  0 0.16831448E+04</rscale>
<asrwt>0</asrwt>
<pdfrwt beam="1">  1        1 0.12589025E+00 0.16831448E+04</pdfrwt>
<pdfrwt beam="2">  1       -2 0.13315705E+00 0.16831448E+04</pdfrwt>
<totfact> 0.72696119E+00</totfact>
</mgrwt>
</event>
<event>
12    4  0.4381187E-008  0.1950027E+04  0.7818608E-02  0.8630348E-01
         -2   -1    0    0    0  501 -0.00000000000E+00  0.00000000000E+00  0.50416944300E+03  0.50416944300E+03  0.00000000000E+00 0.  1.
          1   -1    0    0  501    0  0.00000000000E+00 -0.00000000000E+00 -0.18855787125E+04  0.18855787125E+04  0.00000000000E+00 0. -1.
        -24    2    1    2    0    0  0.41959749301E+03 -0.58510622095E+03 -0.21013540832E+03  0.75432106915E+03  0.80199997510E+02 0.  0.
        254    2    1    2    0    0 -0.41959749301E+03  0.58510622095E+03 -0.11712738612E+04  0.16354270863E+04  0.88562291690E+03 0.  0.
         23    2    4    4    0    0 -0.17948591976E+03 -0.17959210003E+03 -0.56398338922E+03  0.62537378586E+03  0.92447774129E+02 0.  0.
         23    2    4    4    0    0 -0.24011157325E+03  0.76469832098E+03 -0.60729047194E+03  0.10100533005E+04  0.94809613268E+02 0.  0.
          3    1    3    3  502    0  0.12193011027E+03 -0.23190499156E+03 -0.90214662725E+02  0.27710207916E+03  0.00000000000E+00 0. -1.
         -4    1    3    3    0  502  0.29766738274E+03 -0.35320122938E+03 -0.11992074560E+03  0.47721898999E+03  0.00000000000E+00 0.  1.
         11    1    5    5    0    0  0.56723042364E+01  0.57834400576E+01 -0.14134894920E+02  0.16291668688E+02  0.00000000000E+00 0. -1.
        -11    1    5    5    0    0 -0.18515822399E+03 -0.18537554008E+03 -0.54984849430E+03  0.60908211718E+03  0.00000000000E+00 0.  1.
          4    1    6    6  503    0 -0.18167004268E+02  0.21628258588E+02 -0.41027806649E+02  0.49810666850E+02  0.00000000000E+00 0. -1.
         -4    1    6    6    0  503 -0.22194456899E+03  0.74307006239E+03 -0.56626266529E+03  0.96024263362E+03  0.00000000000E+00 0.  1.
<mgrwt>
<rscale>  0 0.19500268E+04</rscale>
<asrwt>0</asrwt>
<pdfrwt beam="1">  1        1 0.29008903E+00 0.19500268E+04</pdfrwt>
<pdfrwt beam="2">  1       -2 0.77564529E-01 0.19500268E+04</pdfrwt>
<totfact> 0.43189390E+00</totfact>
</mgrwt>
</event>
<event>
12    4  0.4381187E-008  0.2819430E+04  0.7818608E-02  0.8297261E-01
         -2   -1    0    0    0  501 -0.00000000000E+00  0.00000000000E+00  0.17073649178E+04  0.17073649178E+04  0.00000000000E+00 0.  1.
          1   -1    0    0  501    0  0.00000000000E+00 -0.00000000000E+00 -0.11639552100E+04  0.11639552100E+04  0.00000000000E+00 0. -1.
        -24    2    1    2    0    0 -0.86833096291E+03  0.75528231490E+03 -0.29121854526E+03  0.11899359831E+04  0.81788547696E+02 0.  0.
        254    2    1    2    0    0  0.86833096291E+03 -0.75528231490E+03  0.83462825313E+03  0.16813841447E+04  0.89777407215E+03 0.  0.
         23    2    4    4    0    0  0.26991316821E+02 -0.46001386151E+03  0.58396003573E+03  0.75105515751E+03  0.10360136254E+03 0.  0.
         23    2    4    4    0    0  0.84133964609E+03 -0.29526845339E+03  0.25066821740E+03  0.93032898715E+03  0.87416299783E+02 0.  0.
          3    1    3    3  502    0 -0.72012740607E+03  0.58585873689E+03 -0.24533868524E+03  0.96021092008E+03  0.00000000000E+00 0. -1.
         -4    1    3    3    0  502 -0.14820355684E+03  0.16942357801E+03 -0.45879860020E+02  0.22972506307E+03  0.00000000000E+00 0.  1.
         11    1    5    5    0    0 -0.20826308079E+01  0.54402629221E+01  0.92369790090E+01  0.10920420915E+02  0.00000000000E+00 0. -1.
        -11    1    5    5    0    0  0.29073947628E+02 -0.46545412443E+03  0.57472305673E+03  0.74013473659E+03  0.00000000000E+00 0.  1.
          2    1    6    6  503    0  0.15141691917E+03 -0.89780956039E+02  0.47080141662E+02  0.18222031505E+03  0.00000000000E+00 0. -1.
         -2    1    6    6    0  503  0.68992272692E+03 -0.20548749735E+03  0.20358807573E+03  0.74810867210E+03  0.00000000000E+00 0.  1.
<mgrwt>
<rscale>  0 0.28194299E+04</rscale>
<asrwt>0</asrwt>
<pdfrwt beam="1">  1        1 0.17907003E+00 0.28194299E+04</pdfrwt>
<pdfrwt beam="2">  1       -2 0.26267153E+00 0.28194299E+04</pdfrwt>
<totfact> 0.46291888E-01</totfact>
</mgrwt>
</event>
<event>
12    4  0.4381187E-008  0.2836988E+04  0.7818608E-02  0.8291876E-01
         -2   -1    0    0    0  501 -0.00000000000E+00  0.00000000000E+00  0.59211333791E+03  0.59211333791E+03  0.00000000000E+00 0.  1.
          1   -1    0    0  501    0  0.00000000000E+00 -0.00000000000E+00 -0.33982102115E+04  0.33982102115E+04  0.00000000000E+00 0. -1.
        -24    2    1    2    0    0  0.74626415843E+03 -0.90168176204E+03 -0.49687830665E+03  0.12740333820E+04  0.79578971141E+02 0.  0.
        254    2    1    2    0    0 -0.74626415843E+03  0.90168176204E+03 -0.23092185669E+04  0.27162901674E+04  0.82207158420E+03 0.  0.
         23    2    4    4    0    0  0.10143555419E+03  0.91061978894E+01 -0.55190386313E+03  0.56880529493E+03  0.92571566430E+02 0.  0.
         23    2    4    4    0    0 -0.84769971262E+03  0.89257556415E+03 -0.17573147038E+04  0.21474848725E+04  0.90831540923E+02 0.  0.
          1    1    3    3  502    0  0.14522256562E+03 -0.15619035694E+03 -0.12172314360E+03  0.24556372870E+03  0.00000000000E+00 0. -1.
         -2    1    3    3    0  502  0.60104159281E+03 -0.74549140511E+03 -0.37515516304E+03  0.10284696533E+04  0.00000000000E+00 0.  1.
         11    1    5    5    0    0  0.57255163842E+02  0.51042462268E+02 -0.30416642434E+03  0.31368885928E+03  0.00000000000E+00 0. -1.
        -11    1    5    5    0    0  0.44180390349E+02 -0.41936264379E+02 -0.24773743879E+03  0.25511643565E+03  0.00000000000E+00 0.  1.
          4    1    6    6  503    0 -0.13970800279E+02  0.59595139544E+01 -0.10340618223E+02  0.18374641554E+02  0.00000000000E+00 0. -1.
         -4    1    6    6    0  503 -0.83372891234E+03  0.88661605020E+03 -0.17469740856E+04  0.21291102309E+04  0.00000000000E+00 0.  1.
<mgrwt>
<rscale>  0 0.28369883E+04</rscale>
<asrwt>0</asrwt>
<pdfrwt beam="1">  1        1 0.52280157E+00 0.28369883E+04</pdfrwt>
<pdfrwt beam="2">  1       -2 0.91094360E-01 0.28369883E+04</pdfrwt>
<totfact> 0.23412554E-01</totfact>
</mgrwt>
</event>
<event>
12    4  0.4381187E-008  0.1914335E+04  0.7818608E-02  0.8647753E-01
          1   -1    0    0  501    0  0.00000000000E+00  0.00000000000E+00  0.88960104152E+03  0.88960104152E+03  0.00000000000E+00 0. -1.
         -2   -1    0    0    0  501 -0.00000000000E+00 -0.00000000000E+00 -0.10298661310E+04  0.10298661310E+04  0.00000000000E+00 0.  1.
        -24    2    1    2    0    0 -0.30437944153E+02 -0.59268199530E+03 -0.50599500028E+03  0.78406680783E+03  0.80817094967E+02 0.  0.
        254    2    1    2    0    0  0.30437944153E+02  0.59268199530E+03  0.36572991079E+03  0.11354003647E+04  0.89620154234E+03 0.  0.
         23    2    4    4    0    0  0.28759497677E+03  0.63047041999E+03  0.28640066746E+02  0.69960863728E+03  0.91805069516E+02 0.  0.
         23    2    4    4    0    0 -0.25715703262E+03 -0.37788424684E+02  0.33708984405E+03  0.43579172742E+03  0.93419282043E+02 0.  0.
          1    1    3    3  502    0  0.43244401999E+01 -0.53022329463E+02 -0.77999377073E+02  0.94413828587E+02  0.00000000000E+00 0. -1.
         -2    1    3    3    0  502 -0.34762384353E+02 -0.53965966584E+03 -0.42799562320E+03  0.68965297924E+03  0.00000000000E+00 0.  1.
         11    1    5    5    0    0  0.25544639359E+03  0.55531266320E+03  0.55001518619E+02  0.61371832379E+03  0.00000000000E+00 0. -1.
        -11    1    5    5    0    0  0.32148583189E+02  0.75157756781E+02 -0.26361451874E+02  0.85890313483E+02  0.00000000000E+00 0.  1.
          3    1    6    6  503    0 -0.88478450823E+02  0.31160621444E+02  0.10747252295E+03  0.14265259821E+03  0.00000000000E+00 0.  1.
         -3    1    6    6    0  503 -0.16867858180E+03 -0.68949046128E+02  0.22961732110E+03  0.29313912920E+03  0.00000000000E+00 0. -1.
<mgrwt>
<rscale>  0 0.19143354E+04</rscale>
<asrwt>0</asrwt>
<pdfrwt beam="1">  1        1 0.13686170E+00 0.19143354E+04</pdfrwt>
<pdfrwt beam="2">  1       -2 0.15844094E+00 0.19143354E+04</pdfrwt>
<totfact> 0.39306653E+00</totfact>
</mgrwt>
</event>
<event>
12    4  0.4381187E-008  0.1148310E+04  0.7818608E-02  0.9159344E-01
         -2   -1    0    0    0  501 -0.00000000000E+00  0.00000000000E+00  0.81848680140E+03  0.81848680140E+03  0.00000000000E+00 0.  1.
          1   -1    0    0  501    0  0.00000000000E+00 -0.00000000000E+00 -0.40276042897E+03  0.40276042897E+03  0.00000000000E+00 0. -1.
        -24    2    1    2    0    0  0.11598278876E+03  0.11130772910E+03  0.20078908273E+03  0.26902787033E+03  0.78856334100E+02 0.  0.
        254    2    1    2    0    0 -0.11598278876E+03 -0.11130772910E+03  0.21493728971E+03  0.95221936004E+03  0.91360946431E+03 0.  0.
         23    2    4    4    0    0  0.37128263476E+03 -0.14220462029E+03  0.20564452692E+03  0.45569679945E+03  0.85422202436E+02 0.  0.
         23    2    4    4    0    0 -0.48726542352E+03  0.30896891195E+02  0.92927627814E+01  0.49652256058E+03  0.89811396184E+02 0.  0.
          1    1    3    3  502    0  0.11842842991E+03  0.85277508125E+02  0.13732292891E+03  0.20038745771E+03  0.00000000000E+00 0. -1.
         -2    1    3    3    0  502 -0.24456411522E+01  0.26030220972E+02  0.63466153817E+02  0.68640412621E+02  0.00000000000E+00 0.  1.
         11    1    5    5    0    0  0.21354162364E+03 -0.41763273662E+02  0.13338485917E+03  0.25521699926E+03  0.00000000000E+00 0. -1.
        -11    1    5    5    0    0  0.15774101112E+03 -0.10044134663E+03  0.72259667754E+02  0.20047980020E+03  0.00000000000E+00 0.  1.
          3    1    6    6  503    0 -0.30483629151E+02 -0.82264843817E+01 -0.19592975983E+02  0.37159270705E+02  0.00000000000E+00 0. -1.
         -3    1    6    6    0  503 -0.45678179437E+03  0.39123375577E+02  0.28885738764E+02  0.45936328988E+03  0.00000000000E+00 0.  1.
<mgrwt>
<rscale>  0 0.11483102E+04</rscale>
<asrwt>0</asrwt>
<pdfrwt beam="1">  1        1 0.61963143E-01 0.11483102E+04</pdfrwt>
<pdfrwt beam="2">  1       -2 0.12592105E+00 0.11483102E+04</pdfrwt>
<totfact> 0.24270756E+01</totfact>
</mgrwt>
</event>
<event>
12    4  0.4381187E-008  0.1479651E+04  0.7818608E-02  0.8898098E-01
         -2   -1    0    0    0  501 -0.00000000000E+00  0.00000000000E+00  0.54439046183E+03  0.54439046183E+03  0.00000000000E+00 0.  1.
          1   -1    0    0  501    0  0.00000000000E+00 -0.00000000000E+00 -0.10054216261E+04  0.10054216261E+04  0.00000000000E+00 0. -1.
        -24    2    1    2    0    0 -0.33521267509E+03  0.12589747470E+03  0.15585012143E+03  0.39846344944E+03  0.79159007792E+02 0.  0.
        254    2    1    2    0    0  0.33521267509E+03 -0.12589747470E+03 -0.61688128572E+03  0.11513486385E+04  0.90379392287E+03 0.  0.
         23    2    4    4    0    0  0.57629252772E+03  0.10498712330E+03 -0.23596940762E+03  0.63792310824E+03  0.90160729410E+02 0.  0.
         23    2    4    4    0    0 -0.24107985263E+03 -0.23088459801E+03 -0.38091187810E+03  0.51342553026E+03  0.84170798371E+02 0.  0.
          1    1    3    3  502    0 -0.23858674207E+03  0.87396537186E+02  0.69891490264E+02  0.26352724454E+03  0.00000000000E+00 0. -1.
         -2    1    3    3    0  502 -0.96625933024E+02  0.38500937516E+02  0.85958631168E+02  0.13493620491E+03  0.00000000000E+00 0.  1.
         11    1    5    5    0    0  0.37552002921E+02  0.29953529139E+02 -0.10894441183E+02  0.49255006649E+02  0.00000000000E+00 0. -1.
        -11    1    5    5    0    0  0.53874052480E+03  0.75033594166E+02 -0.22507496644E+03  0.58866810159E+03  0.00000000000E+00 0.  1.
          2    1    6    6  503    0 -0.16058867779E+03 -0.17949165587E+03 -0.31862428684E+03  0.39940883081E+03  0.00000000000E+00 0. -1.
         -2    1    6    6    0  503 -0.80491174837E+02 -0.51392942137E+02 -0.62287591264E+02  0.11401669945E+03  0.00000000000E+00 0.  1.
<mgrwt>
<rscale>  0 0.14796512E+04</rscale>
<asrwt>0</asrwt>
<pdfrwt beam="1">  1        1 0.15468025E+00 0.14796512E+04</pdfrwt>
<pdfrwt beam="2">  1       -2 0.83752379E-01 0.14796512E+04</pdfrwt>
<totfact> 0.15861792E+01</totfact>
</mgrwt>
</event>
<event>
12    4  0.4381187E-008  0.1383012E+04  0.7818608E-02  0.8966208E-01
          1   -1    0    0  501    0  0.00000000000E+00  0.00000000000E+00  0.57675879283E+03  0.57675879283E+03  0.00000000000E+00 0. -1.
         -2   -1    0    0    0  501 -0.00000000000E+00 -0.00000000000E+00 -0.82908267173E+03  0.82908267173E+03  0.00000000000E+00 0.  1.
        -24    2    1    2    0    0 -0.10531697607E+03  0.37119208173E+03 -0.45469778390E+02  0.39798580014E+03  0.86313205160E+02 0.  0.
        254    2    1    2    0    0  0.10531697607E+03 -0.37119208173E+03 -0.20685410050E+03  0.10078556644E+04  0.90780460145E+03 0.  0.
         23    2    4    4    0    0  0.28558897920E+03 -0.38627820727E+03  0.21963178208E+03  0.53591016262E+03  0.90496763710E+02 0.  0.
         23    2    4    4    0    0 -0.18027200314E+03  0.15086125547E+02 -0.42648588259E+03  0.47194550180E+03  0.90093075885E+02 0.  0.
          1    1    3    3  502    0 -0.36372869679E+02  0.32041412121E+02 -0.14086712043E+02  0.50478442880E+02  0.00000000000E+00 0. -1.
         -2    1    3    3    0  502 -0.68944106391E+02  0.33915066960E+03 -0.31383066347E+02  0.34750735726E+03  0.00000000000E+00 0.  1.
         11    1    5    5    0    0  0.63067374040E+02 -0.64869187148E+02  0.80089726972E+02  0.12082991962E+03  0.00000000000E+00 0.  1.
        -11    1    5    5    0    0  0.22252160517E+03 -0.32140902013E+03  0.13954205511E+03  0.41508024300E+03  0.00000000000E+00 0. -1.
          2    1    6    6  503    0 -0.18860455468E+03  0.73934988833E+01 -0.38270106349E+03  0.42671588425E+03  0.00000000000E+00 0. -1.
         -2    1    6    6    0  503  0.83325515489E+01  0.76926266639E+01 -0.43784819096E+02  0.45229617549E+02  0.00000000000E+00 0.  1.
<mgrwt>
<rscale>  0 0.13830122E+04</rscale>
<asrwt>0</asrwt>
<pdfrwt beam="1">  1        1 0.88732122E-01 0.13830122E+04</pdfrwt>
<pdfrwt beam="2">  1       -2 0.12755118E+00 0.13830122E+04</pdfrwt>
<totfact> 0.14107532E+01</totfact>
</mgrwt>
</event>
<event>
12    4  0.5418739E-008  0.2289719E+04  0.7818608E-02  0.8481986E-01
         -2   -1    0    0    0  501 -0.00000000000E+00  0.00000000000E+00  0.13444976656E+04  0.13444976656E+04  0.00000000000E+00 0.  1.
          1   -1    0    0  501    0  0.00000000000E+00 -0.00000000000E+00 -0.97486506565E+03  0.97486506565E+03  0.00000000000E+00 0. -1.
        -24    2    1    2    0    0 -0.44214151605E+03  0.43755571539E+00  0.10361446054E+04  0.11293837935E+04  0.80142361763E+02 0.  0.
        254    2    1    2    0    0  0.44214151605E+03 -0.43755571539E+00 -0.66651200541E+03  0.11899789377E+04  0.88109154305E+03 0.  0.
         23    2    4    4    0    0  0.24696525099E+03 -0.14167453693E+02 -0.86044560967E+03  0.89992759000E+03  0.91161768824E+02 0.  0.
         23    2    4    4    0    0  0.19517626506E+03  0.13729897978E+02  0.19393360425E+03  0.29005134775E+03  0.90759335223E+02 0.  0.
          1    1    3    3  502    0 -0.17223297371E+02  0.16560788382E+02  0.63698700629E+02  0.68032537407E+02  0.00000000000E+00 0. -1.
         -2    1    3    3    0  502 -0.42491821868E+03 -0.16123232666E+02  0.97244590473E+03  0.10613512561E+04  0.00000000000E+00 0.  1.
         11    1    5    5    0    0  0.72046812514E+02 -0.40431032765E+02 -0.20464070726E+03  0.22068808457E+03  0.00000000000E+00 0. -1.
        -11    1    5    5    0    0  0.17491843848E+03  0.26263579072E+02 -0.65580490241E+03  0.67923950543E+03  0.00000000000E+00 0.  1.
          3    1    6    6  503    0  0.10970970879E+03  0.52722842395E+02  0.11150206368E+03  0.16507158604E+03  0.00000000000E+00 0. -1.
         -3    1    6    6    0  503  0.85466556272E+02 -0.38992944417E+02  0.82431540569E+02  0.12497976171E+03  0.00000000000E+00 0.  1.
<mgrwt>
<rscale>  0 0.22897195E+04</rscale>
<asrwt>0</asrwt>
<pdfrwt beam="1">  1        1 0.14997924E+00 0.22897195E+04</pdfrwt>
<pdfrwt beam="2">  1       -2 0.20684579E+00 0.22897195E+04</pdfrwt>
<totfact> 0.15072407E+00</totfact>
</mgrwt>
</event>
<event>
12    4  0.4381187E-008  0.2046491E+04  0.7818608E-02  0.8585188E-01
          1   -1    0    0  501    0  0.00000000000E+00  0.00000000000E+00  0.24757421246E+04  0.24757421246E+04  0.00000000000E+00 0. -1.
         -2   -1    0    0    0  501 -0.00000000000E+00 -0.00000000000E+00 -0.42291629263E+03  0.42291629263E+03  0.00000000000E+00 0.  1.
        -24    2    1    2    0    0 -0.77335453059E+02 -0.26143424056E+03 -0.26766935252E+03  0.39038660417E+03  0.80163482940E+02 0.  0.
        254    2    1    2    0    0  0.77335453059E+02  0.26143424056E+03  0.23204951845E+04  0.25082718131E+04  0.91236010029E+03 0.  0.
         23    2    4    4    0    0 -0.22455282731E+01  0.52076119270E+03  0.78536460625E+03  0.94675749368E+03  0.91405278140E+02 0.  0.
         23    2    4    4    0    0  0.79580981332E+02 -0.25932695214E+03  0.15351305783E+04  0.15615143194E+04  0.90097040604E+02 0.  0.
          3    1    3    3  502    0 -0.76009051362E+02 -0.15598903779E+03 -0.12922418924E+03  0.21635352293E+03  0.00000000000E+00 0. -1.
         -4    1    3    3    0  502 -0.13264016966E+01 -0.10544520277E+03 -0.13844516328E+03  0.17403308124E+03  0.00000000000E+00 0.  1.
         11    1    5    5    0    0 -0.15353802648E+02  0.50925358363E+03  0.77115614062E+03  0.92426010674E+03  0.00000000000E+00 0.  1.
        -11    1    5    5    0    0  0.13108274375E+02  0.11507609079E+02  0.14208465626E+02  0.22497386943E+02  0.00000000000E+00 0. -1.
          1    1    6    6  503    0  0.23755913227E+02 -0.32893664862E+02  0.43774564186E+03  0.43962209176E+03  0.00000000000E+00 0. -1.
         -1    1    6    6    0  503  0.55825068105E+02 -0.22643328728E+03  0.10973849364E+04  0.11218922277E+04  0.00000000000E+00 0.  1.
<mgrwt>
<rscale>  0 0.20464913E+04</rscale>
<asrwt>0</asrwt>
<pdfrwt beam="1">  1        1 0.38088339E+00 0.20464913E+04</pdfrwt>
<pdfrwt beam="2">  1       -2 0.65064047E-01 0.20464913E+04</pdfrwt>
<totfact> 0.24911082E+00</totfact>
</mgrwt>
</event>
<event>
12    4  0.4381187E-008  0.1822468E+04  0.7818608E-02  0.8694442E-01
          1   -1    0    0  501    0  0.00000000000E+00  0.00000000000E+00  0.10957585361E+04  0.10957585361E+04  0.00000000000E+00 0. -1.
         -2   -1    0    0    0  501 -0.00000000000E+00 -0.00000000000E+00 -0.75778347267E+03  0.75778347267E+03  0.00000000000E+00 0.  1.
        -24    2    1    2    0    0  0.23082191917E+02 -0.50584037477E+03  0.59912830663E+03  0.78858355063E+03  0.80635080365E+02 0.  0.
        254    2    1    2    0    0 -0.23082191917E+02  0.50584037477E+03 -0.26115324323E+03  0.10649584581E+04  0.89973786668E+03 0.  0.
         23    2    4    4    0    0 -0.23042188054E+03 -0.15901873048E+03 -0.20948006049E+03  0.36096729377E+03  0.89634210849E+02 0.  0.
         23    2    4    4    0    0  0.20733968862E+03  0.66485910525E+03 -0.51673182743E+02  0.70399116435E+03  0.88916057973E+02 0.  0.
          1    1    3    3  502    0  0.49787209722E+02 -0.30491995281E+03  0.33624647144E+03  0.45663621564E+03  0.00000000000E+00 0. -1.
         -2    1    3    3    0  502 -0.26705017805E+02 -0.20092042196E+03  0.26288183519E+03  0.33194733500E+03  0.00000000000E+00 0.  1.
         11    1    5    5    0    0 -0.64622387314E+02 -0.95368123650E+02 -0.66894729935E+02  0.13321425165E+03  0.00000000000E+00 0.  1.
        -11    1    5    5    0    0 -0.16579949322E+03 -0.63650606825E+02 -0.14258533055E+03  0.22775304211E+03  0.00000000000E+00 0. -1.
          3    1    6    6  503    0  0.15666617495E+03  0.53035558503E+03 -0.55477031188E+01  0.55303898050E+03  0.00000000000E+00 0. -1.
         -3    1    6    6    0  503  0.50673513673E+02  0.13450352022E+03 -0.46125479624E+02  0.15095218385E+03  0.00000000000E+00 0.  1.
<mgrwt>
<rscale>  0 0.18224683E+04</rscale>
<asrwt>0</asrwt>
<pdfrwt beam="1">  1        1 0.16857824E+00 0.18224683E+04</pdfrwt>
<pdfrwt beam="2">  1       -2 0.11658207E+00 0.18224683E+04</pdfrwt>
<totfact> 0.60153306E+00</totfact>
</mgrwt>
</event>
<event>
12    4  0.4381187E-008  0.1529495E+04  0.7818608E-02  0.8865072E-01
         -2   -1    0    0    0  501 -0.00000000000E+00  0.00000000000E+00  0.47148731854E+03  0.47148731854E+03  0.00000000000E+00 0.  1.
          1   -1    0    0  501    0  0.00000000000E+00 -0.00000000000E+00 -0.12404130656E+04  0.12404130656E+04  0.00000000000E+00 0. -1.
        -24    2    1    2    0    0  0.30049820218E+03 -0.13362127967E+03 -0.66893326774E+03  0.74963705126E+03  0.79562403481E+02 0.  0.
        254    2    1    2    0    0 -0.30049820218E+03  0.13362127967E+03 -0.99992479301E+02  0.96226333285E+03  0.89877606217E+03 0.  0.
         23    2    4    4    0    0 -0.30689937869E+02 -0.14078237981E+03  0.33375297065E+03  0.37496374839E+03  0.91897858718E+02 0.  0.
         23    2    4    4    0    0 -0.26980826431E+03  0.27440365948E+03 -0.43374544995E+03  0.58729958446E+03  0.93229923957E+02 0.  0.
          1    1    3    3  502    0  0.23180329037E+03 -0.13704023843E+03 -0.51993317567E+03  0.58552822267E+03  0.00000000000E+00 0. -1.
         -2    1    3    3    0  502  0.68694911807E+02  0.34189587635E+01 -0.14900009207E+03  0.16410882860E+03  0.00000000000E+00 0.  1.
         11    1    5    5    0    0  0.26212652736E+02 -0.82895720497E+02  0.13871608779E+03  0.16370997726E+03  0.00000000000E+00 0. -1.
        -11    1    5    5    0    0 -0.56902590605E+02 -0.57886659313E+02  0.19503688286E+03  0.21125377113E+03  0.00000000000E+00 0.  1.
          3    1    6    6  503    0 -0.19776085493E+03  0.15303828033E+03 -0.23215899912E+03  0.34121528668E+03  0.00000000000E+00 0. -1.
         -3    1    6    6    0  503 -0.72047409383E+02  0.12136537915E+03 -0.20158645083E+03  0.24608429778E+03  0.00000000000E+00 0.  1.
<mgrwt>
<rscale>  0 0.15294954E+04</rscale>
<asrwt>0</asrwt>
<pdfrwt beam="1">  1        1 0.19083277E+00 0.15294954E+04</pdfrwt>
<pdfrwt beam="2">  1       -2 0.72536512E-01 0.15294954E+04</pdfrwt>
<totfact> 0.14530982E+01</totfact>
</mgrwt>
</event>
<event>
12    4  0.4381187E-008  0.1484331E+04  0.7818608E-02  0.8894940E-01
          1   -1    0    0  501    0  0.00000000000E+00  0.00000000000E+00  0.51985164925E+03  0.51985164925E+03  0.00000000000E+00 0. -1.
         -4   -1    0    0    0  501 -0.00000000000E+00 -0.00000000000E+00 -0.10595517956E+04  0.10595517956E+04  0.00000000000E+00 0.  1.
        -24    2    1    2    0    0 -0.89864268111E+02  0.43590383580E+03 -0.19500643211E+03  0.49247026079E+03  0.80073144406E+02 0.  0.
        254    2    1    2    0    0  0.89864268111E+02 -0.43590383580E+03 -0.34469371428E+03  0.10869331841E+04  0.92979688602E+03 0.  0.
         23    2    4    4    0    0  0.39399716025E+03  0.88595451619E+02 -0.17977371450E+03  0.45166999483E+03  0.92759255456E+02 0.  0.
         23    2    4    4    0    0 -0.30413289214E+03 -0.52449928742E+03 -0.16491999978E+03  0.63526318926E+03  0.93618346024E+02 0.  0.
          3    1    3    3  502    0 -0.10396071079E+03  0.39015123887E+03 -0.16646982936E+03  0.43673564392E+03  0.00000000000E+00 0. -1.
         -4    1    3    3    0  502  0.14096442681E+02  0.45752596926E+02 -0.28536602746E+02  0.55734616874E+02  0.00000000000E+00 0.  1.
         11    1    5    5    0    0  0.38597506626E+03  0.79876651528E+02 -0.18854545342E+03  0.43692839144E+03  0.00000000000E+00 0.  1.
        -11    1    5    5    0    0  0.80220939869E+01  0.87188000914E+01  0.87717389216E+01  0.14741603396E+02  0.00000000000E+00 0. -1.
          4    1    6    6  503    0 -0.45766977720E+01 -0.58678011449E+02 -0.64354879664E+01  0.59207015593E+02  0.00000000000E+00 0. -1.
         -4    1    6    6    0  503 -0.29955619437E+03 -0.46582127597E+03 -0.15848451181E+03  0.57605617366E+03  0.00000000000E+00 0.  1.
<mgrwt>
<rscale>  0 0.14843312E+04</rscale>
<asrwt>0</asrwt>
<pdfrwt beam="1">  1        1 0.79977178E-01 0.14843312E+04</pdfrwt>
<pdfrwt beam="2">  1       -4 0.16300797E+00 0.14843312E+04</pdfrwt>
<totfact> 0.46317774E+00</totfact>
</mgrwt>
</event>
<event>
12    4  0.4381187E-008  0.2693552E+04  0.7818608E-02  0.8337100E-01
         -2   -1    0    0    0  501 -0.00000000000E+00  0.00000000000E+00  0.18936410220E+04  0.18936410220E+04  0.00000000000E+00 0.  1.
          1   -1    0    0  501    0  0.00000000000E+00 -0.00000000000E+00 -0.95784003854E+03  0.95784003854E+03  0.00000000000E+00 0. -1.
        -24    2    1    2    0    0  0.10442014568E+04  0.85044644186E+02  0.10214382904E+04  0.14653531181E+04  0.79588350878E+02 0.  0.
        254    2    1    2    0    0 -0.10442014568E+04 -0.85044644186E+02 -0.85637306974E+02  0.13861279424E+04  0.90356386075E+03 0.  0.
         23    2    4    4    0    0 -0.10805742699E+04  0.38951642819E+02 -0.29660068959E+03  0.11249611154E+04  0.91692741945E+02 0.  0.
         23    2    4    4    0    0  0.36372813041E+02 -0.12399628701E+03  0.21096338261E+03  0.26116682701E+03  0.83692902967E+02 0.  0.
          1    1    3    3  502    0  0.33809619705E+02  0.14220462929E+02  0.24162934849E+02  0.43922196791E+02  0.00000000000E+00 0. -1.
         -2    1    3    3    0  502  0.10103918371E+04  0.70824181258E+02  0.99727535559E+03  0.14214309213E+04  0.00000000000E+00 0.  1.
         11    1    5    5    0    0 -0.38500947580E+03 -0.22404359250E+02 -0.79984104565E+02  0.39386762847E+03  0.00000000000E+00 0. -1.
        -11    1    5    5    0    0 -0.69556479408E+03  0.61356002069E+02 -0.21661658502E+03  0.73109348695E+03  0.00000000000E+00 0.  1.
          2    1    6    6  503    0 -0.35634617552E+01  0.81910016240E+01 -0.11331818824E+00  0.89332865339E+01  0.00000000000E+00 0. -1.
         -2    1    6    6    0  503  0.39936274796E+02 -0.13218728863E+03  0.21107670080E+03  0.25223354048E+03  0.00000000000E+00 0.  1.
<mgrwt>
<rscale>  0 0.26935517E+04</rscale>
<asrwt>0</asrwt>
<pdfrwt beam="1">  1        1 0.14736001E+00 0.26935517E+04</pdfrwt>
<pdfrwt beam="2">  1       -2 0.29132939E+00 0.26935517E+04</pdfrwt>
<totfact> 0.44962355E-01</totfact>
</mgrwt>
</event>
<event>
12    4  0.4381187E-008  0.1574785E+04  0.7818608E-02  0.8836190E-01
          1   -1    0    0  501    0  0.00000000000E+00  0.00000000000E+00  0.19631957139E+04  0.19631957139E+04  0.00000000000E+00 0. -1.
         -4   -1    0    0    0  501 -0.00000000000E+00 -0.00000000000E+00 -0.31580491994E+03  0.31580491994E+03  0.00000000000E+00 0.  1.
        -24    2    1    2    0    0  0.45261495215E+02 -0.15649921194E+03 -0.16932295002E+03  0.24792203328E+03  0.79085187595E+02 0.  0.
        254    2    1    2    0    0 -0.45261495215E+02  0.15649921194E+03  0.18167137440E+04  0.20310786006E+04  0.89347123503E+03 0.  0.
         23    2    4    4    0    0  0.21100070562E+03  0.33541191683E+03  0.15736622811E+04  0.16251878537E+04  0.88318361992E+02 0.  0.
         23    2    4    4    0    0 -0.25626220084E+03 -0.17891270488E+03  0.24305146292E+03  0.40589074692E+03  0.89404772035E+02 0.  0.
          3    1    3    3  502    0 -0.84687920207E+01  0.46005366721E+01 -0.18196760203E+02  0.20591441374E+02  0.00000000000E+00 0. -1.
         -4    1    3    3    0  502  0.53730287236E+02 -0.16109974861E+03 -0.15112618981E+03  0.22733059191E+03  0.00000000000E+00 0.  1.
         11    1    5    5    0    0  0.14386234953E+02 -0.20871639896E+01  0.39687739447E+02  0.42266259263E+02  0.00000000000E+00 0.  1.
        -11    1    5    5    0    0  0.19661447067E+03  0.33749908082E+03  0.15339745416E+04  0.15829215944E+04  0.00000000000E+00 0. -1.
          3    1    6    6  503    0 -0.24644902363E+03 -0.14381527798E+03  0.23215508553E+03  0.36785314891E+03  0.00000000000E+00 0. -1.
         -3    1    6    6    0  503 -0.98131772118E+01 -0.35097426902E+02  0.10896377389E+02  0.38037598009E+02  0.00000000000E+00 0.  1.
<mgrwt>
<rscale>  0 0.15747849E+04</rscale>
<asrwt>0</asrwt>
<pdfrwt beam="1">  1        1 0.30203010E+00 0.15747849E+04</pdfrwt>
<pdfrwt beam="2">  1       -4 0.48585374E-01 0.15747849E+04</pdfrwt>
<totfact> 0.61457534E+00</totfact>
</mgrwt>
</event>
<event>
12    4  0.4381187E-008  0.1172105E+04  0.7818608E-02  0.9137629E-01
          1   -1    0    0  501    0  0.00000000000E+00  0.00000000000E+00  0.23371616300E+04  0.23371616300E+04  0.00000000000E+00 0. -1.
         -4   -1    0    0    0  501 -0.00000000000E+00 -0.00000000000E+00 -0.14695506636E+03  0.14695506636E+03  0.00000000000E+00 0.  1.
        -24    2    1    2    0    0 -0.47617885668E+02  0.14160943765E+03  0.93612852364E+02  0.19280563503E+03  0.78038137509E+02 0.  0.
        254    2    1    2    0    0  0.47617885668E+02 -0.14160943765E+03  0.20965937113E+04  0.22913110613E+04  0.91218446255E+03 0.  0.
         23    2    4    4    0    0 -0.28340828229E+03  0.49068295887E+02  0.17249175506E+04  0.17507400885E+04  0.83799458526E+02 0.  0.
         23    2    4    4    0    0  0.33102616796E+03 -0.19067773354E+03  0.37167616073E+03  0.54057097279E+03  0.90208016473E+02 0.  0.
          3    1    3    3  502    0  0.15396797023E+02  0.34440180067E+02  0.46445582907E+02  0.59836272721E+02  0.00000000000E+00 0. -1.
         -4    1    3    3    0  502 -0.63014682691E+02  0.10716925758E+03  0.47167269457E+02  0.13296936231E+03  0.00000000000E+00 0.  1.
         11    1    5    5    0    0 -0.20114627520E+03  0.72023494608E+02  0.12779047264E+04  0.12956418091E+04  0.00000000000E+00 0. -1.
        -11    1    5    5    0    0 -0.82262007086E+02 -0.22955198721E+02  0.44701282419E+03  0.45509827944E+03  0.00000000000E+00 0.  1.
          2    1    6    6  503    0  0.16488976092E+03 -0.13821179381E+03  0.17110237513E+03  0.27489480894E+03  0.00000000000E+00 0. -1.
         -2    1    6    6    0  503  0.16613640704E+03 -0.52465939729E+02  0.20057378559E+03  0.26567616386E+03  0.00000000000E+00 0.  1.
<mgrwt>
<rscale>  0 0.11721054E+04</rscale>
<asrwt>0</asrwt>
<pdfrwt beam="1">  1        1 0.35956330E+00 0.11721054E+04</pdfrwt>
<pdfrwt beam="2">  1       -4 0.22608473E-01 0.11721054E+04</pdfrwt>
<totfact> 0.16072674E+01</totfact>
</mgrwt>
</event>
<event>
12    4  0.4381187E-008  0.1924277E+04  0.7818608E-02  0.8642865E-01
          1   -1    0    0  501    0  0.00000000000E+00  0.00000000000E+00  0.64097152225E+03  0.64097152225E+03  0.00000000000E+00 0. -1.
         -2   -1    0    0    0  501 -0.00000000000E+00 -0.00000000000E+00 -0.14442310369E+04  0.14442310369E+04  0.00000000000E+00 0.  1.
        -24    2    1    2    0    0 -0.27526450582E+03 -0.51785814248E+03  0.19032759094E+03  0.62171536969E+03  0.79735846029E+02 0.  0.
        254    2    1    2    0    0  0.27526450582E+03  0.51785814248E+03 -0.99358710559E+03  0.14634871895E+04  0.90035093904E+03 0.  0.
         23    2    4    4    0    0  0.32310547177E+03 -0.17005760199E+03 -0.29387768883E+03  0.47692612501E+03  0.88191262842E+02 0.  0.
         23    2    4    4    0    0 -0.47840965949E+02  0.68791574446E+03 -0.69970941676E+03  0.98656106445E+03  0.90513184063E+02 0.  0.
          3    1    3    3  502    0 -0.16148043290E+03 -0.30798969286E+03  0.71424354785E+02  0.35501411179E+03  0.00000000000E+00 0. -1.
         -4    1    3    3    0  502 -0.11378407292E+03 -0.20986844962E+03  0.11890323615E+03  0.26670125790E+03  0.00000000000E+00 0.  1.
         11    1    5    5    0    0  0.16604757751E+03 -0.50113161919E+02 -0.10062910158E+03  0.20052267473E+03  0.00000000000E+00 0.  1.
        -11    1    5    5    0    0  0.15705789425E+03 -0.11994444007E+03 -0.19324858725E+03  0.27640345028E+03  0.00000000000E+00 0. -1.
          1    1    6    6  503    0 -0.38559206541E+02  0.22414508575E+03 -0.18078936581E+03  0.29053851150E+03  0.00000000000E+00 0. -1.
         -1    1    6    6    0  503 -0.92817594072E+01  0.46377065871E+03 -0.51892005095E+03  0.69602255295E+03  0.00000000000E+00 0.  1.
<mgrwt>
<rscale>  0 0.19242775E+04</rscale>
<asrwt>0</asrwt>
<pdfrwt beam="1">  1        1 0.98611005E-01 0.19242775E+04</pdfrwt>
<pdfrwt beam="2">  1       -2 0.22218939E+00 0.19242775E+04</pdfrwt>
<totfact> 0.24324674E+00</totfact>
</mgrwt>
</event>
<event>
12    4  0.4381187E-008  0.1842036E+04  0.7818608E-02  0.8684259E-01
         -4   -1    0    0    0  501 -0.00000000000E+00  0.00000000000E+00  0.11538621069E+04  0.11538621069E+04  0.00000000000E+00 0.  1.
          3   -1    0    0  501    0  0.00000000000E+00 -0.00000000000E+00 -0.73516087793E+03  0.73516087793E+03  0.00000000000E+00 0. -1.
        -24    2    1    2    0    0 -0.20811847593E+03 -0.36278668237E+02  0.85229056244E+03  0.88220151629E+03  0.85152044787E+02 0.  0.
        254    2    1    2    0    0  0.20811847593E+03  0.36278668237E+02 -0.43358933347E+03  0.10068214685E+04  0.88377616941E+03 0.  0.
         23    2    4    4    0    0  0.14345063352E+03 -0.14794721239E+03 -0.65782133873E+03  0.69542357922E+03  0.91752814353E+02 0.  0.
         23    2    4    4    0    0  0.64667842405E+02  0.18422588062E+03  0.22423200525E+03  0.31139788931E+03  0.92561052046E+02 0.  0.
          1    1    3    3  502    0 -0.36908019981E+01 -0.22585026812E+02  0.84500787902E+02  0.87544780607E+02  0.00000000000E+00 0. -1.
         -2    1    3    3    0  502 -0.20442767393E+03 -0.13693641425E+02  0.76778977453E+03  0.79465673568E+03  0.00000000000E+00 0.  1.
         11    1    5    5    0    0  0.95778932997E+02 -0.58020065863E+02 -0.45394112371E+03  0.46754943679E+03  0.00000000000E+00 0. -1.
        -11    1    5    5    0    0  0.47671700528E+02 -0.89927146524E+02 -0.20388021502E+03  0.22787414243E+03  0.00000000000E+00 0.  1.
          4    1    6    6  503    0  0.11633020120E+02  0.35296125522E+02  0.11067933559E+03  0.11675212615E+03  0.00000000000E+00 0. -1.
         -4    1    6    6    0  503  0.53034822284E+02  0.14892975510E+03  0.11355266966E+03  0.19464576316E+03  0.00000000000E+00 0.  1.
<mgrwt>
<rscale>  0 0.18420361E+04</rscale>
<asrwt>0</asrwt>
<pdfrwt beam="1">  1        3 0.11310167E+00 0.18420361E+04</pdfrwt>
<pdfrwt beam="2">  1       -4 0.17751725E+00 0.18420361E+04</pdfrwt>
<totfact> 0.26305462E-01</totfact>
</mgrwt>
</event>
<event>
12    4  0.4381187E-008  0.1587614E+04  0.7818608E-02  0.8828193E-01
          1   -1    0    0  501    0  0.00000000000E+00  0.00000000000E+00  0.17158586275E+04  0.17158586275E+04  0.00000000000E+00 0. -1.
         -2   -1    0    0    0  501 -0.00000000000E+00 -0.00000000000E+00 -0.36723869444E+03  0.36723869444E+03  0.00000000000E+00 0.  1.
        -24    2    1    2    0    0 -0.18650093807E+03 -0.51013621883E+03  0.42731630710E+03  0.69570867875E+03  0.79936085168E+02 0.  0.
        254    2    1    2    0    0  0.18650093807E+03  0.51013621883E+03  0.92130362596E+03  0.13873886432E+04  0.88375636595E+03 0.  0.
         23    2    4    4    0    0  0.42997135711E+03  0.32622992712E+03  0.91754931413E+03  0.10686595581E+04  0.93995605798E+02 0.  0.
         23    2    4    4    0    0 -0.24347041905E+03  0.18390629171E+03  0.37543118287E+01  0.31872908511E+03  0.92058490950E+02 0.  0.
          3    1    3    3  502    0  0.79094254543E+01 -0.17757406968E+02  0.11798064571E+02  0.22739367644E+02  0.00000000000E+00 0. -1.
         -4    1    3    3    0  502 -0.19441036352E+03 -0.49237881186E+03  0.41551824253E+03  0.67296931111E+03  0.00000000000E+00 0.  1.
         11    1    5    5    0    0  0.98349512389E+02  0.40514705919E+02  0.13348024086E+03  0.17067818456E+03  0.00000000000E+00 0. -1.
        -11    1    5    5    0    0  0.33162184472E+03  0.28571522120E+03  0.78406907327E+03  0.89798137351E+03  0.00000000000E+00 0.  1.
          2    1    6    6  503    0 -0.47501665886E+02  0.12306588592E+02 -0.27712469119E+02  0.56354603445E+02  0.00000000000E+00 0. -1.
         -2    1    6    6    0  503 -0.19596875316E+03  0.17159970312E+03  0.31466780948E+02  0.26237448167E+03  0.00000000000E+00 0.  1.
<mgrwt>
<rscale>  0 0.15876142E+04</rscale>
<asrwt>0</asrwt>
<pdfrwt beam="1">  1        1 0.26397825E+00 0.15876142E+04</pdfrwt>
<pdfrwt beam="2">  1       -2 0.56498262E-01 0.15876142E+04</pdfrwt>
<totfact> 0.11520292E+01</totfact>
</mgrwt>
</event>
<event>
12    4  0.4381187E-008  0.1593281E+04  0.7818608E-02  0.8824686E-01
         -2   -1    0    0    0  501 -0.00000000000E+00  0.00000000000E+00  0.29148166237E+04  0.29148166237E+04  0.00000000000E+00 0.  1.
          1   -1    0    0  501    0  0.00000000000E+00 -0.00000000000E+00 -0.21772772184E+03  0.21772772184E+03  0.00000000000E+00 0. -1.
        -24    2    1    2    0    0  0.47755991339E+03 -0.14314537816E+03  0.13182876343E+04  0.14119653009E+04  0.84909681999E+02 0.  0.
        254    2    1    2    0    0 -0.47755991339E+03  0.14314537816E+03  0.13788012676E+04  0.17205790446E+04  0.90041392881E+03 0.  0.
         23    2    4    4    0    0  0.91390853624E+02 -0.28454434613E+03  0.43314136861E+03  0.53348371449E+03  0.87610817736E+02 0.  0.
         23    2    4    4    0    0 -0.56895076701E+03  0.42768972429E+03  0.94565989895E+03  0.11870953301E+04  0.91099960428E+02 0.  0.
          1    1    3    3  502    0  0.42591006987E+03 -0.12220137997E+03  0.10823881117E+04  0.11695711134E+04  0.00000000000E+00 0. -1.
         -2    1    3    3    0  502  0.51649843524E+02 -0.20943998190E+02  0.23589952262E+03  0.24239418758E+03  0.00000000000E+00 0.  1.
         11    1    5    5    0    0 -0.50530357091E+01 -0.12008933579E+03  0.18370510848E+03  0.21953256847E+03  0.00000000000E+00 0. -1.
        -11    1    5    5    0    0  0.96443889334E+02 -0.16445501034E+03  0.24943626013E+03  0.31395114602E+03  0.00000000000E+00 0.  1.
          2    1    6    6  503    0 -0.59732210250E+02  0.75972828631E+02  0.16054315402E+03  0.18738706448E+03  0.00000000000E+00 0. -1.
         -2    1    6    6    0  503 -0.50921855677E+03  0.35171689566E+03  0.78511674493E+03  0.99970826565E+03  0.00000000000E+00 0.  1.
<mgrwt>
<rscale>  0 0.15932814E+04</rscale>
<asrwt>0</asrwt>
<pdfrwt beam="1">  1        1 0.33496575E-01 0.15932814E+04</pdfrwt>
<pdfrwt beam="2">  1       -2 0.44843330E+00 0.15932814E+04</pdfrwt>
<totfact> 0.39936916E-01</totfact>
</mgrwt>
</event>
<event>
12    4  0.4381187E-008  0.1699005E+04  0.7818608E-02  0.8761932E-01
          1   -1    0    0  501    0  0.00000000000E+00  0.00000000000E+00  0.90201279851E+03  0.90201279851E+03  0.00000000000E+00 0. -1.
         -2   -1    0    0    0  501 -0.00000000000E+00 -0.00000000000E+00 -0.80004888343E+03  0.80004888343E+03  0.00000000000E+00 0.  1.
        -24    2    1    2    0    0  0.29729977639E+03 -0.16843829308E+03 -0.46112967507E+03  0.57963209569E+03  0.81081277218E+02 0.  0.
        254    2    1    2    0    0 -0.29729977639E+03  0.16843829308E+03  0.56309359015E+03  0.11224295862E+04  0.90885376667E+03 0.  0.
         23    2    4    4    0    0 -0.69707390659E+02 -0.36575216226E+03  0.23175243391E+03  0.44747043959E+03  0.88807877872E+02 0.  0.
         23    2    4    4    0    0 -0.22759238573E+03  0.53419045534E+03  0.33134115624E+03  0.67495914665E+03  0.92871692221E+02 0.  0.
          3    1    3    3  502    0  0.79276726252E+02 -0.88577312034E+02 -0.16353450097E+03  0.20217386711E+03  0.00000000000E+00 0. -1.
         -4    1    3    3    0  502  0.21802305013E+03 -0.79860981044E+02 -0.29759517409E+03  0.37745822859E+03  0.00000000000E+00 0.  1.
         11    1    5    5    0    0  0.11413913229E+02 -0.58272321696E+01  0.14307449143E+02  0.19207736747E+02  0.00000000000E+00 0. -1.
        -11    1    5    5    0    0 -0.81121303888E+02 -0.35992493009E+03  0.21744498476E+03  0.42826270284E+03  0.00000000000E+00 0.  1.
          4    1    6    6  503    0 -0.23361826224E+03  0.49495218945E+03  0.29841567949E+03  0.62338357378E+03  0.00000000000E+00 0.  1.
         -4    1    6    6    0  503  0.60258765164E+01  0.39238265886E+02  0.32925476753E+02  0.51575572871E+02  0.00000000000E+00 0. -1.
<mgrwt>
<rscale>  0 0.16990048E+04</rscale>
<asrwt>0</asrwt>
<pdfrwt beam="1">  1        1 0.13877120E+00 0.16990048E+04</pdfrwt>
<pdfrwt beam="2">  1       -2 0.12308444E+00 0.16990048E+04</pdfrwt>
<totfact> 0.75344186E+00</totfact>
</mgrwt>
</event>
<event>
12    4  0.4381187E-008  0.2181653E+04  0.7818608E-02  0.8526103E-01
         -2   -1    0    0    0  501 -0.00000000000E+00  0.00000000000E+00  0.13574146719E+04  0.13574146719E+04  0.00000000000E+00 0.  1.
          1   -1    0    0  501    0  0.00000000000E+00 -0.00000000000E+00 -0.87659504341E+03  0.87659504341E+03  0.00000000000E+00 0. -1.
        -24    2    1    2    0    0  0.65788581903E+03  0.43973634893E+03 -0.24330054266E+03  0.83284197219E+03  0.90822844764E+02 0.  0.
        254    2    1    2    0    0 -0.65788581903E+03 -0.43973634893E+03  0.72412017120E+03  0.14011677432E+04  0.90152050154E+03 0.  0.
         23    2    4    4    0    0  0.14374462799E+02 -0.50798921501E+03  0.33385113576E+03  0.61488997868E+03  0.91506487701E+02 0.  0.
         23    2    4    4    0    0 -0.67226028183E+03  0.68252866084E+02  0.39026903544E+03  0.78627776448E+03  0.96594319934E+02 0.  0.
          1    1    3    3  502    0  0.54372511077E+03  0.33397195297E+03 -0.16739482884E+03  0.65969333040E+03  0.00000000000E+00 0. -1.
         -2    1    3    3    0  502  0.11416070826E+03  0.10576439595E+03 -0.75905713818E+02  0.17314864178E+03  0.00000000000E+00 0.  1.
         11    1    5    5    0    0 -0.14655589554E+02 -0.29321928389E+02  0.43879074355E+01  0.33072881962E+02  0.00000000000E+00 0.  1.
        -11    1    5    5    0    0  0.29030052353E+02 -0.47866728662E+03  0.32946322832E+03  0.58181709672E+03  0.00000000000E+00 0. -1.
          4    1    6    6  503    0 -0.44723181952E+03  0.91015116020E+02  0.26291259511E+03  0.52670967753E+03  0.00000000000E+00 0.  1.
         -4    1    6    6    0  503 -0.22502846231E+03 -0.22762249937E+02  0.12735644033E+03  0.25956808695E+03  0.00000000000E+00 0. -1.
<mgrwt>
<rscale>  0 0.21816535E+04</rscale>
<asrwt>0</asrwt>
<pdfrwt beam="1">  1        1 0.13486078E+00 0.21816535E+04</pdfrwt>
<pdfrwt beam="2">  1       -2 0.20883303E+00 0.21816535E+04</pdfrwt>
<totfact> 0.17737227E+00</totfact>
</mgrwt>
</event>
<event>
12    4  0.4381187E-008  0.1737490E+04  0.7818608E-02  0.8740266E-01
         -2   -1    0    0    0  501 -0.00000000000E+00  0.00000000000E+00  0.82782740507E+03  0.82782740507E+03  0.00000000000E+00 0.  1.
          1   -1    0    0  501    0  0.00000000000E+00 -0.00000000000E+00 -0.91168554594E+03  0.91168554594E+03  0.00000000000E+00 0. -1.
        -24    2    1    2    0    0  0.46687366611E+03  0.27124693850E+03 -0.36905037516E+03  0.65883084958E+03  0.79460601553E+02 0.  0.
        254    2    1    2    0    0 -0.46687366611E+03 -0.27124693850E+03  0.28519223429E+03  0.10806821014E+04  0.89162395217E+03 0.  0.
         23    2    4    4    0    0  0.18354381442E+03 -0.29842132456E+03  0.21135957889E+03  0.41932567399E+03  0.91747100883E+02 0.  0.
         23    2    4    4    0    0 -0.65041748053E+03  0.27174386057E+02  0.73832655399E+02  0.66135642743E+03  0.90331151140E+02 0.  0.
          3    1    3    3  502    0  0.35539477199E+03  0.22268203940E+03 -0.24790704470E+03  0.48718645039E+03  0.00000000000E+00 0. -1.
         -4    1    3    3    0  502  0.11147889412E+03  0.48564899099E+02 -0.12114333046E+03  0.17164439919E+03  0.00000000000E+00 0.  1.
         11    1    5    5    0    0  0.18428850148E+02 -0.91303949479E+02  0.83965235157E+02  0.12540412443E+03  0.00000000000E+00 0.  1.
        -11    1    5    5    0    0  0.16511496427E+03 -0.20711737508E+03  0.12739434373E+03  0.29392154956E+03  0.00000000000E+00 0. -1.
          4    1    6    6  503    0 -0.57301589303E+03  0.63309486414E+01  0.40299588019E+02  0.57446614467E+03  0.00000000000E+00 0. -1.
         -4    1    6    6    0  503 -0.77401587497E+02  0.20843437415E+02  0.33533067381E+02  0.86890282761E+02  0.00000000000E+00 0.  1.
<mgrwt>
<rscale>  0 0.17374905E+04</rscale>
<asrwt>0</asrwt>
<pdfrwt beam="1">  1        1 0.14025931E+00 0.17374905E+04</pdfrwt>
<pdfrwt beam="2">  1       -2 0.12735806E+00 0.17374905E+04</pdfrwt>
<totfact> 0.67684290E+00</totfact>
</mgrwt>
</event>
<event>
12    4  0.4381187E-008  0.1620639E+04  0.7818608E-02  0.8807968E-01
         -2   -1    0    0    0  501 -0.00000000000E+00  0.00000000000E+00  0.36618586379E+03  0.36618586379E+03  0.00000000000E+00 0.  1.
          1   -1    0    0  501    0  0.00000000000E+00 -0.00000000000E+00 -0.17931271786E+04  0.17931271786E+04  0.00000000000E+00 0. -1.
        -24    2    1    2    0    0  0.25038275005E+03 -0.38668717727E+03 -0.89994518293E+03  0.10137716739E+04  0.74921158174E+02 0.  0.
        254    2    1    2    0    0 -0.25038275005E+03  0.38668717727E+03 -0.52699613185E+03  0.11455413685E+04  0.90681950204E+03 0.  0.
         23    2    4    4    0    0 -0.26593677465E+03  0.66170697887E+03 -0.43293006368E+03  0.83909373044E+03  0.89840716963E+02 0.  0.
         23    2    4    4    0    0  0.15554024604E+02 -0.27501980160E+03 -0.94066068166E+02  0.30644763802E+03  0.95832722579E+02 0.  0.
          1    1    3    3  502    0  0.22050511585E+03 -0.36645591258E+03 -0.85612781157E+03  0.95700954630E+03  0.00000000000E+00 0. -1.
         -2    1    3    3    0  502  0.29877634200E+02 -0.20231264696E+02 -0.43817371365E+02  0.56762127602E+02  0.00000000000E+00 0.  1.
         11    1    5    5    0    0 -0.26846883541E+03  0.65683601748E+03 -0.41884888499E+03  0.82398025334E+03  0.00000000000E+00 0. -1.
        -11    1    5    5    0    0  0.25320607583E+01  0.48709613950E+01 -0.14081178694E+02  0.15113477098E+02  0.00000000000E+00 0.  1.
          1    1    6    6  503    0  0.40326365448E+02 -0.78240415982E+02 -0.56483539660E+02  0.10458570025E+03  0.00000000000E+00 0. -1.
         -1    1    6    6    0  503 -0.24772340844E+02 -0.19677938562E+03 -0.37582528506E+02  0.20186193778E+03  0.00000000000E+00 0.  1.
<mgrwt>
<rscale>  0 0.16206392E+04</rscale>
<asrwt>0</asrwt>
<pdfrwt beam="1">  1        1 0.27586571E+00 0.16206392E+04</pdfrwt>
<pdfrwt beam="2">  1       -2 0.56336288E-01 0.16206392E+04</pdfrwt>
<totfact> 0.10240593E+01</totfact>
</mgrwt>
</event>
<event>
12    4  0.4381187E-008  0.1558752E+04  0.7818608E-02  0.8846297E-01
         -2   -1    0    0    0  501 -0.00000000000E+00  0.00000000000E+00  0.35315978689E+03  0.35315978689E+03  0.00000000000E+00 0.  1.
          1   -1    0    0  501    0  0.00000000000E+00 -0.00000000000E+00 -0.17199781073E+04  0.17199781073E+04  0.00000000000E+00 0. -1.
        -24    2    1    2    0    0  0.40850857580E+03 -0.31345968151E+03 -0.40826386985E+03  0.66285452194E+03  0.86951143671E+02 0.  0.
        254    2    1    2    0    0 -0.40850857580E+03  0.31345968151E+03 -0.95855445053E+03  0.14102833722E+04  0.89718243791E+03 0.  0.
         23    2    4    4    0    0  0.10883548622E+03  0.23756894771E+03  0.39531033461E+02  0.27980444643E+03  0.91889377309E+02 0.  0.
         23    2    4    4    0    0 -0.51734406202E+03  0.75890733806E+02 -0.99808548399E+03  0.11304789258E+04  0.91671622161E+02 0.  0.
          3    1    3    3  502    0  0.35068247373E+02 -0.59884599733E+02 -0.71811611108E+02  0.99864181512E+02  0.00000000000E+00 0. -1.
         -4    1    3    3    0  502  0.37344032843E+03 -0.25357508178E+03 -0.33645225875E+03  0.56299034042E+03  0.00000000000E+00 0.  1.
         11    1    5    5    0    0  0.78896298019E+01  0.87391508103E+02 -0.18694391479E+02  0.89716231640E+02  0.00000000000E+00 0.  1.
        -11    1    5    5    0    0  0.10094585642E+03  0.15017743960E+03  0.58225424939E+02  0.19008821479E+03  0.00000000000E+00 0. -1.
          4    1    6    6  503    0 -0.31091899034E+03  0.89666704209E+02 -0.58778144778E+03  0.67096778370E+03  0.00000000000E+00 0. -1.
         -4    1    6    6    0  503 -0.20642507168E+03 -0.13775970403E+02 -0.41030403621E+03  0.45951114209E+03  0.00000000000E+00 0.  1.
<mgrwt>
<rscale>  0 0.15587522E+04</rscale>
<asrwt>0</asrwt>
<pdfrwt beam="1">  1        1 0.26461202E+00 0.15587522E+04</pdfrwt>
<pdfrwt beam="2">  1       -2 0.54332275E-01 0.15587522E+04</pdfrwt>
<totfact> 0.12447168E+01</totfact>
</mgrwt>
</event>
<event>
12    4  0.4381187E-008  0.1390411E+04  0.7818608E-02  0.8960789E-01
          3   -1    0    0  501    0  0.00000000000E+00  0.00000000000E+00  0.25624305623E+04  0.25624305623E+04  0.00000000000E+00 0. -1.
         -2   -1    0    0    0  501 -0.00000000000E+00 -0.00000000000E+00 -0.18861427072E+03  0.18861427072E+03  0.00000000000E+00 0.  1.
        -24    2    1    2    0    0 -0.22536963874E+03  0.43996925919E+02  0.83683712481E+02  0.25768542349E+03  0.81679925237E+02 0.  0.
        254    2    1    2    0    0  0.22536963874E+03 -0.43996925919E+02  0.22901325791E+04  0.24933594095E+04  0.95885698185E+03 0.  0.
         23    2    4    4    0    0 -0.35575630814E+03 -0.11491201832E+03  0.10700928310E+04  0.11370553899E+04  0.89604520014E+02 0.  0.
         23    2    4    4    0    0  0.58112594689E+03  0.70915092399E+02  0.12200397481E+04  0.13563040196E+04  0.91253987445E+02 0.  0.
          1    1    3    3  502    0 -0.60968714759E+01  0.92653557262E+01  0.26060671743E+02  0.28322734159E+02  0.00000000000E+00 0. -1.
         -2    1    3    3    0  502 -0.21927276726E+03  0.34731570193E+02  0.57623040738E+02  0.22936268933E+03  0.00000000000E+00 0.  1.
         11    1    5    5    0    0 -0.13983279839E+03 -0.90292386209E+02  0.49760792090E+03  0.52470903313E+03  0.00000000000E+00 0.  1.
        -11    1    5    5    0    0 -0.21592350976E+03 -0.24619632109E+02  0.57248491009E+03  0.61234635675E+03  0.00000000000E+00 0. -1.
          1    1    6    6  503    0  0.33616385841E+03  0.35809912905E+01  0.75306068426E+03  0.82469349298E+03  0.00000000000E+00 0. -1.
         -1    1    6    6    0  503  0.24496208847E+03  0.67334101108E+02  0.46697906384E+03  0.53161052663E+03  0.00000000000E+00 0.  1.
<mgrwt>
<rscale>  0 0.13904114E+04</rscale>
<asrwt>0</asrwt>
<pdfrwt beam="1">  1        3 0.39422006E+00 0.13904114E+04</pdfrwt>
<pdfrwt beam="2">  1       -2 0.29017582E-01 0.13904114E+04</pdfrwt>
<totfact> 0.51902048E-01</totfact>
</mgrwt>
</event>
<event>
12    4  0.4381187E-008  0.1656150E+04  0.7818608E-02  0.8786776E-01
         -2   -1    0    0    0  501 -0.00000000000E+00  0.00000000000E+00  0.94878033705E+03  0.94878033705E+03  0.00000000000E+00 0.  1.
          1   -1    0    0  501    0  0.00000000000E+00 -0.00000000000E+00 -0.72272624756E+03  0.72272624756E+03  0.00000000000E+00 0. -1.
        -24    2    1    2    0    0 -0.56302779860E+01 -0.25736553291E+03 -0.43999123696E+03  0.51562672409E+03  0.77523625025E+02 0.  0.
        254    2    1    2    0    0  0.56302779860E+01  0.25736553291E+03  0.66604532646E+03  0.11558798605E+04  0.90894067875E+03 0.  0.
         23    2    4    4    0    0  0.12136042875E+03  0.32294055123E+03 -0.10072499636E+03  0.37084074302E+03  0.91424168040E+02 0.  0.
         23    2    4    4    0    0 -0.11573015076E+03 -0.65575018319E+02  0.76677032282E+03  0.78503911749E+03  0.10322856776E+03 0.  0.
          1    1    3    3  502    0  0.20641054026E+02 -0.22902368819E+03 -0.38420216840E+03  0.44776021381E+03  0.00000000000E+00 0. -1.
         -2    1    3    3    0  502 -0.26271332012E+02 -0.28341844717E+02 -0.55789068558E+02  0.67866510284E+02  0.00000000000E+00 0.  1.
         11    1    5    5    0    0  0.83480742456E+02  0.99373712604E+02 -0.44720947555E+02  0.13727393149E+03  0.00000000000E+00 0.  1.
        -11    1    5    5    0    0  0.37879686293E+02  0.22356683862E+03 -0.56004048808E+02  0.23356681153E+03  0.00000000000E+00 0. -1.
          4    1    6    6  503    0 -0.85916858715E+02 -0.67574097374E+02  0.72764306545E+03  0.73580730897E+03  0.00000000000E+00 0. -1.
         -4    1    6    6    0  503 -0.29813292049E+02  0.19990790546E+01  0.39127257377E+02  0.49231808515E+02  0.00000000000E+00 0.  1.
<mgrwt>
<rscale>  0 0.16561503E+04</rscale>
<asrwt>0</asrwt>
<pdfrwt beam="1">  1        1 0.11118865E+00 0.16561503E+04</pdfrwt>
<pdfrwt beam="2">  1       -2 0.14596621E+00 0.16561503E+04</pdfrwt>
<totfact> 0.69835030E+00</totfact>
</mgrwt>
</event>
<event>
12    4  0.4381187E-008  0.2618056E+04  0.7818608E-02  0.8362094E-01
         -2   -1    0    0    0  501 -0.00000000000E+00  0.00000000000E+00  0.61541957626E+03  0.61541957626E+03  0.00000000000E+00 0.  1.
          1   -1    0    0  501    0  0.00000000000E+00 -0.00000000000E+00 -0.27843674392E+04  0.27843674392E+04  0.00000000000E+00 0. -1.
        -24    2    1    2    0    0  0.95158236702E+03  0.61187610942E+03 -0.11458977303E+04  0.16121536318E+04  0.77822553954E+02 0.  0.
        254    2    1    2    0    0 -0.95158236702E+03 -0.61187610942E+03 -0.10230501327E+04  0.17876333837E+04  0.93225541879E+03 0.  0.
         23    2    4    4    0    0 -0.62391447317E+03 -0.76985775488E+03 -0.10014043870E+04  0.14118015629E+04  0.91775128187E+02 0.  0.
         23    2    4    4    0    0 -0.32766789385E+03  0.15798164546E+03 -0.21645745686E+02  0.37583182074E+03  0.91959611849E+02 0.  0.
          1    1    3    3  502    0  0.82479731981E+03  0.54945868038E+03 -0.97308318171E+03  0.13889155261E+04  0.00000000000E+00 0. -1.
         -2    1    3    3    0  502  0.12678504721E+03  0.62417429038E+02 -0.17281454854E+03  0.22323810569E+03  0.00000000000E+00 0.  1.
         11    1    5    5    0    0 -0.35826318372E+02 -0.85535933454E+02 -0.86563924598E+02  0.12685911099E+03  0.00000000000E+00 0.  1.
        -11    1    5    5    0    0 -0.58808815480E+03 -0.68432182142E+03 -0.91484046244E+03  0.12849424519E+04  0.00000000000E+00 0. -1.
          3    1    6    6  503    0 -0.80520731287E+02 -0.19288291965E+01  0.14640068549E+01  0.80557134167E+02  0.00000000000E+00 0.  1.
         -3    1    6    6    0  503 -0.24714716256E+03  0.15991047466E+03 -0.23109752541E+02  0.29527468657E+03  0.00000000000E+00 0. -1.
<mgrwt>
<rscale>  0 0.26180559E+04</rscale>
<asrwt>0</asrwt>
<pdfrwt beam="1">  1        1 0.42836422E+00 0.26180559E+04</pdfrwt>
<pdfrwt beam="2">  1       -2 0.94679935E-01 0.26180559E+04</pdfrwt>
<totfact> 0.62097436E-01</totfact>
</mgrwt>
</event>
<event>
12    4  0.4381187E-008  0.1015414E+04  0.7818608E-02  0.9291799E-01
          1   -1    0    0  501    0  0.00000000000E+00  0.00000000000E+00  0.12290363843E+04  0.12290363843E+04  0.00000000000E+00 0. -1.
         -2   -1    0    0    0  501 -0.00000000000E+00 -0.00000000000E+00 -0.20973053132E+03  0.20973053132E+03  0.00000000000E+00 0.  1.
        -24    2    1    2    0    0 -0.27258611503E+02 -0.44105890246E+02  0.18420166604E+03  0.20746578888E+03  0.80146355668E+02 0.  0.
        254    2    1    2    0    0  0.27258611503E+02  0.44105890246E+02  0.83510418692E+03  0.12313011267E+04  0.90333554130E+03 0.  0.
         23    2    4    4    0    0 -0.25256570938E+03  0.51658803431E+02  0.89062210917E+03  0.93171538754E+03  0.91802791460E+02 0.  0.
         23    2    4    4    0    0  0.27982432089E+03 -0.75529131852E+01 -0.55517922244E+02  0.29958573917E+03  0.91162922119E+02 0.  0.
          3    1    3    3  502    0  0.25501177296E+02 -0.24213927395E+02  0.10109620394E+03  0.10703768857E+03  0.00000000000E+00 0. -1.
         -2    1    3    3    0  502 -0.52759788799E+02 -0.19891962850E+02  0.83105462096E+02  0.10042810030E+03  0.00000000000E+00 0.  1.
         11    1    5    5    0    0 -0.89373363890E+02 -0.46022418460E+01  0.44329382888E+03  0.45223688210E+03  0.00000000000E+00 0. -1.
        -11    1    5    5    0    0 -0.16319234549E+03  0.56261045277E+02  0.44732828028E+03  0.47947850544E+03  0.00000000000E+00 0.  1.
          1    1    6    6  503    0  0.13692264111E+03  0.41687064393E+02 -0.31304237387E+02  0.14651135200E+03  0.00000000000E+00 0. -1.
         -1    1    6    6    0  503  0.14290167978E+03 -0.49239977578E+02 -0.24213684858E+02  0.15307438718E+03  0.00000000000E+00 0.  1.
<mgrwt>
<rscale>  0 0.10154141E+04</rscale>
<asrwt>0</asrwt>
<pdfrwt beam="1">  1        1 0.18908252E+00 0.10154141E+04</pdfrwt>
<pdfrwt beam="2">  1       -2 0.32266236E-01 0.10154141E+04</pdfrwt>
<totfact> 0.79914113E+01</totfact>
</mgrwt>
</event>
<event>
12    4  0.4381187E-008  0.2342518E+04  0.7818608E-02  0.8461343E-01
          1   -1    0    0  501    0  0.00000000000E+00  0.00000000000E+00  0.18353720693E+04  0.18353720693E+04  0.00000000000E+00 0. -1.
         -2   -1    0    0    0  501 -0.00000000000E+00 -0.00000000000E+00 -0.74744936472E+03  0.74744936472E+03  0.00000000000E+00 0.  1.
        -24    2    1    2    0    0  0.68529162709E+02 -0.39017082458E+03  0.13647999824E+04  0.14234737922E+04  0.81664719517E+02 0.  0.
        254    2    1    2    0    0 -0.68529162709E+02  0.39017082458E+03 -0.27687727789E+03  0.11593476418E+04  0.10538009343E+04 0.  0.
         23    2    4    4    0    0 -0.30326380614E+03 -0.55536471897E+02 -0.50509932173E+03  0.59881827213E+03  0.91677491219E+02 0.  0.
         23    2    4    4    0    0  0.23473464344E+03  0.44570729648E+03  0.22822204384E+03  0.56052936969E+03  0.91392155163E+02 0.  0.
          1    1    3    3  502    0  0.25650510953E+02 -0.30051715081E+03  0.11013736066E+04  0.11419248346E+04  0.00000000000E+00 0. -1.
         -2    1    3    3    0  502  0.42878651756E+02 -0.89653673774E+02  0.26342637585E+03  0.28154895753E+03  0.00000000000E+00 0.  1.
         11    1    5    5    0    0 -0.24839638480E+03 -0.34938441471E+02 -0.46325084048E+03  0.52680432789E+03  0.00000000000E+00 0.  1.
        -11    1    5    5    0    0 -0.54867421345E+02 -0.20598030426E+02 -0.41848481246E+02  0.72013944240E+02  0.00000000000E+00 0. -1.
          1    1    6    6  503    0  0.35739071886E+02  0.15641455370E+03  0.61453481057E+02  0.17181188609E+03  0.00000000000E+00 0. -1.
         -1    1    6    6    0  503  0.19899557155E+03  0.28929274278E+03  0.16676856278E+03  0.38871748360E+03  0.00000000000E+00 0.  1.
<mgrwt>
<rscale>  0 0.23425180E+04</rscale>
<asrwt>0</asrwt>
<pdfrwt beam="1">  1        1 0.28236493E+00 0.23425180E+04</pdfrwt>
<pdfrwt beam="2">  1       -2 0.11499221E+00 0.23425180E+04</pdfrwt>
<totfact> 0.17983325E+00</totfact>
</mgrwt>
</event>
<event>
12    4  0.4381187E-008  0.1631047E+04  0.7818608E-02  0.8801698E-01
         -2   -1    0    0    0  501 -0.00000000000E+00  0.00000000000E+00  0.39714867183E+03  0.39714867183E+03  0.00000000000E+00 0.  1.
          1   -1    0    0  501    0  0.00000000000E+00 -0.00000000000E+00 -0.16746335927E+04  0.16746335927E+04  0.00000000000E+00 0. -1.
        -24    2    1    2    0    0 -0.14333276991E+03  0.21474700574E+03  0.18531472207E+03  0.32799354963E+03  0.81102792663E+02 0.  0.
        254    2    1    2    0    0  0.14333276991E+03 -0.21474700574E+03 -0.14627996429E+04  0.17437887149E+04  0.91343074584E+03 0.  0.
         23    2    4    4    0    0 -0.30354474675E+03 -0.19936469679E+03 -0.10956094873E+04  0.11578329344E+04  0.91275734560E+02 0.  0.
         23    2    4    4    0    0  0.44687751667E+03 -0.15382308955E+02 -0.36719015569E+03  0.58595578055E+03  0.92625244921E+02 0.  0.
          3    1    3    3  502    0  0.32314458610E+01  0.20381464965E+02 -0.21452811619E+01  0.20747254945E+02  0.00000000000E+00 0. -1.
         -4    1    3    3    0  502 -0.14656421577E+03  0.19436554078E+03  0.18746000323E+03  0.30724629469E+03  0.00000000000E+00 0.  1.
         11    1    5    5    0    0 -0.13877246543E+03 -0.63552611275E+02 -0.34113706831E+03  0.37372614430E+03  0.00000000000E+00 0.  1.
        -11    1    5    5    0    0 -0.16477228133E+03 -0.13581208551E+03 -0.75447241895E+03  0.78410679006E+03  0.00000000000E+00 0. -1.
          4    1    6    6  503    0  0.78623060278E+02 -0.22903800744E+02 -0.31941909744E+02  0.87900257645E+02  0.00000000000E+00 0. -1.
         -4    1    6    6    0  503  0.36825445639E+03  0.75214917891E+01 -0.33524824595E+03  0.49805552291E+03  0.00000000000E+00 0.  1.
<mgrwt>
<rscale>  0 0.16310469E+04</rscale>
<asrwt>0</asrwt>
<pdfrwt beam="1">  1        1 0.25763594E+00 0.16310469E+04</pdfrwt>
<pdfrwt beam="2">  1       -2 0.61099795E-01 0.16310469E+04</pdfrwt>
<totfact> 0.10383505E+01</totfact>
</mgrwt>
</event>
<event>
12    4  0.4381187E-008  0.1351361E+04  0.7818608E-02  0.8989798E-01
         -2   -1    0    0    0  501 -0.00000000000E+00  0.00000000000E+00  0.16200627071E+03  0.16200627071E+03  0.00000000000E+00 0.  1.
          1   -1    0    0  501    0  0.00000000000E+00 -0.00000000000E+00 -0.28180654831E+04  0.28180654831E+04  0.00000000000E+00 0. -1.
        -24    2    1    2    0    0 -0.55910073879E+02 -0.40061960043E+02 -0.15382160676E+04  0.15417518546E+04  0.78480657260E+02 0.  0.
        254    2    1    2    0    0  0.55910073879E+02  0.40061960043E+02 -0.11178431448E+04  0.14383198992E+04  0.90247434261E+03 0.  0.
         23    2    4    4    0    0  0.39691008339E+03 -0.17031356546E+03 -0.81906157448E+03  0.93036413002E+03  0.90394838148E+02 0.  0.
         23    2    4    4    0    0 -0.34100000951E+03  0.21037552550E+03 -0.29878157029E+03  0.50795576916E+03  0.90607772662E+02 0.  0.
          1    1    3    3  502    0 -0.56036917067E+02 -0.42522484964E+01 -0.54485833433E+03  0.54774886780E+03  0.00000000000E+00 0. -1.
         -2    1    3    3    0  502  0.12684318749E+00 -0.35809711547E+02 -0.99335773327E+03  0.99400298680E+03  0.00000000000E+00 0.  1.
         11    1    5    5    0    0  0.61344138781E+01  0.80848631727E+01 -0.33723644362E+02  0.35217612571E+02  0.00000000000E+00 0. -1.
        -11    1    5    5    0    0  0.39077566951E+03 -0.17839842863E+03 -0.78533793012E+03  0.89514651745E+03  0.00000000000E+00 0.  1.
          4    1    6    6  503    0  0.51362050005E+01  0.88690544156E+01 -0.66365353082E+01  0.12210009375E+02  0.00000000000E+00 0. -1.
         -4    1    6    6    0  503 -0.34613621451E+03  0.20150647109E+03 -0.29214503498E+03  0.49574575979E+03  0.00000000000E+00 0.  1.
<mgrwt>
<rscale>  0 0.13513612E+04</rscale>
<asrwt>0</asrwt>
<pdfrwt beam="1">  1        1 0.43354855E+00 0.13513612E+04</pdfrwt>
<pdfrwt beam="2">  1       -2 0.24924041E-01 0.13513612E+04</pdfrwt>
<totfact> 0.10098494E+01</totfact>
</mgrwt>
</event>
<event>
12    4  0.4381187E-008  0.2178359E+04  0.7818608E-02  0.8527490E-01
          1   -1    0    0  501    0  0.00000000000E+00  0.00000000000E+00  0.27180532851E+04  0.27180532851E+04  0.00000000000E+00 0. -1.
         -2   -1    0    0    0  501 -0.00000000000E+00 -0.00000000000E+00 -0.43645633663E+03  0.43645633663E+03  0.00000000000E+00 0.  1.
        -24    2    1    2    0    0 -0.49493610327E+03 -0.85549756207E+02 -0.13684193389E+03  0.52658515307E+03  0.79282415860E+02 0.  0.
        254    2    1    2    0    0  0.49493610327E+03  0.85549756207E+02  0.24184388824E+04  0.26279244687E+04  0.89713983199E+03 0.  0.
         23    2    4    4    0    0  0.36410014842E+03 -0.32931788492E+03  0.74819423046E+03  0.89958022028E+03  0.91819272629E+02 0.  0.
         23    2    4    4    0    0  0.13083595485E+03  0.41486764113E+03  0.16702446520E+04  0.17283442484E+04  0.90683167869E+02 0.  0.
          3    1    3    3  502    0 -0.17322068887E+03 -0.40775951941E+01 -0.75906088606E+02  0.18916598035E+03  0.00000000000E+00 0. -1.
         -4    1    3    3    0  502 -0.32171541440E+03 -0.81472161013E+02 -0.60935845283E+02  0.33741917272E+03  0.00000000000E+00 0.  1.
         11    1    5    5    0    0  0.23296260906E+03 -0.26483525377E+03  0.50859724146E+03  0.61893492621E+03  0.00000000000E+00 0.  1.
        -11    1    5    5    0    0  0.13113753936E+03 -0.64482631150E+02  0.23959698900E+03  0.28064529408E+03  0.00000000000E+00 0. -1.
          3    1    6    6  503    0  0.26015964011E+02  0.22483553677E+03  0.79461765679E+03  0.82622337746E+03  0.00000000000E+00 0. -1.
         -3    1    6    6    0  503  0.10481999084E+03  0.19003210436E+03  0.87562699516E+03  0.90212087096E+03  0.00000000000E+00 0.  1.
<mgrwt>
<rscale>  0 0.21783586E+04</rscale>
<asrwt>0</asrwt>
<pdfrwt beam="1">  1        1 0.41816203E+00 0.21783586E+04</pdfrwt>
<pdfrwt beam="2">  1       -2 0.67147130E-01 0.21783586E+04</pdfrwt>
<totfact> 0.15573901E+00</totfact>
</mgrwt>
</event>
<event>
12    4  0.4381187E-008  0.2175844E+04  0.7818608E-02  0.8528550E-01
         -2   -1    0    0    0  501 -0.00000000000E+00  0.00000000000E+00  0.64360292738E+03  0.64360292738E+03  0.00000000000E+00 0.  1.
          1   -1    0    0  501    0  0.00000000000E+00 -0.00000000000E+00 -0.18389825516E+04  0.18389825516E+04  0.00000000000E+00 0. -1.
        -24    2    1    2    0    0  0.71812902088E+03 -0.10672503010E+03  0.94418260154E+02  0.73650652647E+03  0.80171896530E+02 0.  0.
        254    2    1    2    0    0 -0.71812902088E+03  0.10672503010E+03 -0.12897978843E+04  0.17460789525E+04  0.92634421417E+03 0.  0.
         23    2    4    4    0    0 -0.91307546826E+01 -0.25866427500E+03 -0.60394513411E+02  0.27773542700E+03  0.80615707650E+02 0.  0.
         23    2    4    4    0    0 -0.70899826620E+03  0.36538930510E+03 -0.12294033709E+04  0.14683435255E+04  0.91717907642E+02 0.  0.
          3    1    3    3  502    0  0.82439604251E+02 -0.38449702302E+02  0.73857296472E+01  0.91264543820E+02  0.00000000000E+00 0. -1.
         -4    1    3    3    0  502  0.63568941663E+03 -0.68275327800E+02  0.87032530507E+02  0.64524198265E+03  0.00000000000E+00 0.  1.
         11    1    5    5    0    0  0.12358487761E+02 -0.19330826797E+03 -0.12892715962E+02  0.19413150391E+03  0.00000000000E+00 0. -1.
        -11    1    5    5    0    0 -0.21489242444E+02 -0.65356007029E+02 -0.47501797448E+02  0.83603923092E+02  0.00000000000E+00 0.  1.
          4    1    6    6  503    0 -0.11673017602E+03  0.26408470946E+02 -0.20727797002E+03  0.23934806911E+03  0.00000000000E+00 0. -1.
         -4    1    6    6    0  503 -0.59226809018E+03  0.33898083415E+03 -0.10221254009E+04  0.12289954564E+04  0.00000000000E+00 0.  1.
<mgrwt>
<rscale>  0 0.21758443E+04</rscale>
<asrwt>0</asrwt>
<pdfrwt beam="1">  1        1 0.28292039E+00 0.21758443E+04</pdfrwt>
<pdfrwt beam="2">  1       -2 0.99015838E-01 0.21758443E+04</pdfrwt>
<totfact> 0.26005545E+00</totfact>
</mgrwt>
</event>
<event>
12    4  0.4381187E-008  0.1616038E+04  0.7818608E-02  0.8810755E-01
          1   -1    0    0  501    0  0.00000000000E+00  0.00000000000E+00  0.19715090163E+04  0.19715090163E+04  0.00000000000E+00 0. -1.
         -2   -1    0    0    0  501 -0.00000000000E+00 -0.00000000000E+00 -0.33116505269E+03  0.33116505269E+03  0.00000000000E+00 0.  1.
        -24    2    1    2    0    0 -0.24930624314E+03 -0.94941581335E+02  0.12416759377E+04  0.12724844977E+04  0.79310503600E+02 0.  0.
        254    2    1    2    0    0  0.24930624314E+03  0.94941581335E+02  0.39866802590E+03  0.10301895712E+04  0.91169449439E+03 0.  0.
         23    2    4    4    0    0  0.69566540435E+02  0.48731660956E+03  0.27544657649E+03  0.57154045776E+03  0.92036388792E+02 0.  0.
         23    2    4    4    0    0  0.17973970270E+03 -0.39237502822E+03  0.12322144941E+03  0.45864911348E+03  0.94397882420E+02 0.  0.
          1    1    3    3  502    0 -0.13563376440E+03 -0.31947923842E+02  0.80155409761E+03  0.81357615456E+03  0.00000000000E+00 0. -1.
         -2    1    3    3    0  502 -0.11367247874E+03 -0.62993657493E+02  0.44012184009E+03  0.45890834317E+03  0.00000000000E+00 0.  1.
         11    1    5    5    0    0  0.86760551879E+02  0.36050348101E+03  0.22664267871E+03  0.43457687122E+03  0.00000000000E+00 0.  1.
        -11    1    5    5    0    0 -0.17194011444E+02  0.12681312855E+03  0.48803897779E+02  0.13696358655E+03  0.00000000000E+00 0. -1.
          2    1    6    6  503    0  0.65339897801E+02 -0.54582500092E+02  0.22553186178E+02  0.88074955394E+02  0.00000000000E+00 0. -1.
         -2    1    6    6    0  503  0.11439980490E+03 -0.33779252813E+03  0.10066826323E+03  0.37057415809E+03  0.00000000000E+00 0.  1.
<mgrwt>
<rscale>  0 0.16160382E+04</rscale>
<asrwt>0</asrwt>
<pdfrwt beam="1">  1        1 0.30330907E+00 0.16160382E+04</pdfrwt>
<pdfrwt beam="2">  1       -2 0.50948471E-01 0.16160382E+04</pdfrwt>
<totfact> 0.95483560E+00</totfact>
</mgrwt>
</event>
<event>
12    4  0.4381187E-008  0.2052044E+04  0.7818608E-02  0.8582668E-01
         -2   -1    0    0    0  501 -0.00000000000E+00  0.00000000000E+00  0.67585725863E+03  0.67585725863E+03  0.00000000000E+00 0.  1.
          1   -1    0    0  501    0  0.00000000000E+00 -0.00000000000E+00 -0.15576086876E+04  0.15576086876E+04  0.00000000000E+00 0. -1.
        -24    2    1    2    0    0  0.27360523815E+03 -0.13583002482E+03  0.47885818003E+03  0.57338356670E+03  0.78447026705E+02 0.  0.
        254    2    1    2    0    0 -0.27360523815E+03  0.13583002482E+03 -0.13606096090E+04  0.16600823795E+04  0.90072491736E+03 0.  0.
         23    2    4    4    0    0  0.13605378155E+03 -0.29807402158E+03 -0.59604658204E+03  0.68616457094E+03  0.90507108207E+02 0.  0.
         23    2    4    4    0    0 -0.40965901970E+03  0.43390404639E+03 -0.76456302697E+03  0.97391780860E+03  0.88690708671E+02 0.  0.
          3    1    3    3  502    0  0.20718187856E+02 -0.33865129557E+02  0.37621281441E+02  0.54694159882E+02  0.00000000000E+00 0. -1.
         -4    1    3    3    0  502  0.25288705030E+03 -0.10196489526E+03  0.44123689859E+03  0.51868940682E+03  0.00000000000E+00 0.  1.
         11    1    5    5    0    0  0.12807401824E+03 -0.26695121925E+03 -0.46520563877E+03  0.55143648225E+03  0.00000000000E+00 0.  1.
        -11    1    5    5    0    0  0.79797633087E+01 -0.31122802328E+02 -0.13084094327E+03  0.13472808869E+03  0.00000000000E+00 0. -1.
          2    1    6    6  503    0 -0.16851759576E+02  0.38015955284E+02 -0.28388448468E+02  0.50349763290E+02  0.00000000000E+00 0. -1.
         -2    1    6    6    0  503 -0.39280726012E+03  0.39588809111E+03 -0.73617457850E+03  0.92356804531E+03  0.00000000000E+00 0.  1.
<mgrwt>
<rscale>  0 0.20520440E+04</rscale>
<asrwt>0</asrwt>
<pdfrwt beam="1">  1        1 0.23963210E+00 0.20520440E+04</pdfrwt>
<pdfrwt beam="2">  1       -2 0.10397804E+00 0.20520440E+04</pdfrwt>
<totfact> 0.36410109E+00</totfact>
</mgrwt>
</event>
<event>
12    4  0.4381187E-008  0.1450589E+04  0.7818608E-02  0.8917992E-01
          1   -1    0    0  501    0  0.00000000000E+00  0.00000000000E+00  0.70563221063E+03  0.70563221063E+03  0.00000000000E+00 0. -1.
         -2   -1    0    0    0  501 -0.00000000000E+00 -0.00000000000E+00 -0.74550498790E+03  0.74550498790E+03  0.00000000000E+00 0.  1.
        -24    2    1    2    0    0  0.41196476613E+02 -0.43733747271E+03 -0.74271311678E+02  0.45269187228E+03  0.80327384910E+02 0.  0.
        254    2    1    2    0    0 -0.41196476613E+02  0.43733747271E+03  0.34398534412E+02  0.99844532624E+03  0.89596238515E+03 0.  0.
         23    2    4    4    0    0  0.37378401984E+03  0.42644241576E+03  0.76894278129E+01  0.57390329504E+03  0.87967251348E+02 0.  0.
         23    2    4    4    0    0 -0.41498049645E+03  0.10895056954E+02  0.26709106599E+02  0.42454203121E+03  0.84823612194E+02 0.  0.
          1    1    3    3  502    0  0.17491166842E+01 -0.24506698205E+02 -0.25020345009E+02  0.35066441657E+02  0.00000000000E+00 0. -1.
         -2    1    3    3    0  502  0.39447359928E+02 -0.41283077451E+03 -0.49250966669E+02  0.41762543062E+03  0.00000000000E+00 0.  1.
         11    1    5    5    0    0  0.36910320183E+01  0.25561017511E+02  0.11556490447E+02  0.28293847476E+02  0.00000000000E+00 0. -1.
        -11    1    5    5    0    0  0.37009298782E+03  0.40088139825E+03 -0.38670626336E+01  0.54560944756E+03  0.00000000000E+00 0.  1.
          3    1    6    6  503    0 -0.14217265648E+02  0.15445205062E+02 -0.75086143409E+01  0.22294938691E+02  0.00000000000E+00 0. -1.
         -3    1    6    6    0  503 -0.40076323080E+03 -0.45501481087E+01  0.34217720939E+02  0.40224709251E+03  0.00000000000E+00 0.  1.
<mgrwt>
<rscale>  0 0.14505893E+04</rscale>
<asrwt>0</asrwt>
<pdfrwt beam="1">  1        1 0.10855880E+00 0.14505893E+04</pdfrwt>
<pdfrwt beam="2">  1       -2 0.11469307E+00 0.14505893E+04</pdfrwt>
<totfact> 0.13581795E+01</totfact>
</mgrwt>
</event>
<event>
12    4  0.4381187E-008  0.1138609E+04  0.7818608E-02  0.9168357E-01
          1   -1    0    0  501    0  0.00000000000E+00  0.00000000000E+00  0.27504515755E+03  0.27504515755E+03  0.00000000000E+00 0. -1.
         -2   -1    0    0    0  501 -0.00000000000E+00 -0.00000000000E+00 -0.11783801310E+04  0.11783801310E+04  0.00000000000E+00 0.  1.
        -24    2    1    2    0    0  0.14592764681E+03 -0.57882125903E+02 -0.33770270701E+03  0.38095145460E+03  0.80222651669E+02 0.  0.
        254    2    1    2    0    0 -0.14592764681E+03  0.57882125903E+02 -0.56563226642E+03  0.10724738339E+04  0.89756060799E+03 0.  0.
         23    2    4    4    0    0 -0.49576461122E+03  0.71710720608E+02 -0.48289367042E+03  0.70176502544E+03  0.91448766078E+02 0.  0.
         23    2    4    4    0    0  0.34983696441E+03 -0.13828594705E+02 -0.82738596009E+02  0.37070880848E+03  0.89455093315E+02 0.  0.
          3    1    3    3  502    0  0.47536953832E+02 -0.48213886630E+01 -0.37902972075E+02  0.60988876530E+02  0.00000000000E+00 0. -1.
         -4    1    3    3    0  502  0.98390692976E+02 -0.53060737240E+02 -0.29979973493E+03  0.31996257807E+03  0.00000000000E+00 0.  1.
         11    1    5    5    0    0 -0.65632460654E+02  0.25149353441E+02 -0.11031854772E+03  0.13080631422E+03  0.00000000000E+00 0. -1.
        -11    1    5    5    0    0 -0.43013215056E+03  0.46561367166E+02 -0.37257512270E+03  0.57095871121E+03  0.00000000000E+00 0.  1.
          1    1    6    6  503    0 -0.27271463392E+00 -0.23487290515E+01  0.84186650875E+01  0.87444166921E+01  0.00000000000E+00 0. -1.
         -1    1    6    6    0  503  0.35010967904E+03 -0.11479865653E+02 -0.91157261096E+02  0.36196439179E+03  0.00000000000E+00 0.  1.
<mgrwt>
<rscale>  0 0.11386092E+04</rscale>
<asrwt>0</asrwt>
<pdfrwt beam="1">  1        1 0.42314639E-01 0.11386092E+04</pdfrwt>
<pdfrwt beam="2">  1       -2 0.18128925E+00 0.11386092E+04</pdfrwt>
<totfact> 0.15112003E+01</totfact>
</mgrwt>
</event>
<event>
12    4  0.4381187E-008  0.1404090E+04  0.7818608E-02  0.8950863E-01
         -2   -1    0    0    0  501 -0.00000000000E+00  0.00000000000E+00  0.11966902400E+04  0.11966902400E+04  0.00000000000E+00 0.  1.
          1   -1    0    0  501    0  0.00000000000E+00 -0.00000000000E+00 -0.41185863810E+03  0.41185863810E+03  0.00000000000E+00 0. -1.
        -24    2    1    2    0    0 -0.89448112807E+01  0.15750429550E+03 -0.20797483365E+03  0.27277873398E+03  0.79164976678E+02 0.  0.
        254    2    1    2    0    0  0.89448112807E+01 -0.15750429550E+03  0.99280643556E+03  0.13357701441E+04  0.87961903497E+03 0.  0.
         23    2    4    4    0    0 -0.83993484486E+02 -0.13154610617E+03  0.11303425501E+04  0.11446739896E+04  0.90801863958E+02 0.  0.
         23    2    4    4    0    0  0.92938295767E+02 -0.25958189332E+02 -0.13753611450E+03  0.19109615452E+03  0.91050552258E+02 0.  0.
          1    1    3    3  502    0 -0.25409908817E+00  0.12980013161E+03 -0.20624662592E+03  0.24369203810E+03  0.00000000000E+00 0. -1.
         -2    1    3    3    0  502 -0.86907121925E+01  0.27704163890E+02 -0.17282077308E+01  0.29086695880E+02  0.00000000000E+00 0.  1.
         11    1    5    5    0    0 -0.37815023032E+01  0.11292066792E+02  0.31289536417E+02  0.33479032562E+02  0.00000000000E+00 0.  1.
        -11    1    5    5    0    0 -0.80211982183E+02 -0.14283817296E+03  0.10990530136E+04  0.11111949570E+04  0.00000000000E+00 0. -1.
          4    1    6    6  503    0  0.85446153861E+02 -0.45706096775E+02 -0.13953257878E+03  0.16988064349E+03  0.00000000000E+00 0. -1.
         -4    1    6    6    0  503  0.74921419055E+01  0.19747907443E+02  0.19964642743E+01  0.21215511031E+02  0.00000000000E+00 0.  1.
<mgrwt>
<rscale>  0 0.14040900E+04</rscale>
<asrwt>0</asrwt>
<pdfrwt beam="1">  1        1 0.63362868E-01 0.14040900E+04</pdfrwt>
<pdfrwt beam="2">  1       -2 0.18410619E+00 0.14040900E+04</pdfrwt>
<totfact> 0.83428902E+00</totfact>
</mgrwt>
</event>
<event>
12    4  0.4381187E-008  0.1465283E+04  0.7818608E-02  0.8907873E-01
          1   -1    0    0  501    0  0.00000000000E+00  0.00000000000E+00  0.56307058371E+03  0.56307058371E+03  0.00000000000E+00 0. -1.
         -2   -1    0    0    0  501 -0.00000000000E+00 -0.00000000000E+00 -0.95327991586E+03  0.95327991586E+03  0.00000000000E+00 0.  1.
        -24    2    1    2    0    0 -0.36929198286E+03 -0.16785673190E+03  0.17744900909E+02  0.41389862442E+03  0.80279130158E+02 0.  0.
        254    2    1    2    0    0  0.36929198286E+03  0.16785673190E+03 -0.40795423306E+03  0.11024518751E+04  0.94043661651E+03 0.  0.
         23    2    4    4    0    0  0.66083066861E+03  0.95954190349E+02 -0.13807541257E+03  0.68791874322E+03  0.90901036828E+02 0.  0.
         23    2    4    4    0    0 -0.29153868575E+03  0.71902541555E+02 -0.26987882049E+03  0.41453313192E+03  0.94012546713E+02 0.  0.
          3    1    3    3  502    0 -0.36743285258E+03 -0.15423020885E+03  0.23056118878E+02  0.39915591327E+03  0.00000000000E+00 0. -1.
         -4    1    3    3    0  502 -0.18591302787E+01 -0.13626523049E+02 -0.53112179690E+01  0.14742711152E+02  0.00000000000E+00 0.  1.
         11    1    5    5    0    0  0.33313607974E+03  0.42730241527E+01 -0.81259043755E+02  0.34292993242E+03  0.00000000000E+00 0.  1.
        -11    1    5    5    0    0  0.32769458888E+03  0.91681166197E+02 -0.56816368814E+02  0.34498881080E+03  0.00000000000E+00 0. -1.
          2    1    6    6  503    0 -0.19479249020E+03  0.62162118546E+02 -0.23434676050E+03  0.31100907925E+03  0.00000000000E+00 0. -1.
         -2    1    6    6    0  503 -0.96746195551E+02  0.97404230090E+01 -0.35532059992E+02  0.10352405267E+03  0.00000000000E+00 0.  1.
<mgrwt>
<rscale>  0 0.14652834E+04</rscale>
<asrwt>0</asrwt>
<pdfrwt beam="1">  1        1 0.86626244E-01 0.14652834E+04</pdfrwt>
<pdfrwt beam="2">  1       -2 0.14665845E+00 0.14652834E+04</pdfrwt>
<totfact> 0.10119311E+01</totfact>
</mgrwt>
</event>
<event>
12    4  0.4381187E-008  0.1408589E+04  0.7818608E-02  0.8947625E-01
          1   -1    0    0  501    0  0.00000000000E+00  0.00000000000E+00  0.22759298483E+04  0.22759298483E+04  0.00000000000E+00 0. -1.
         -2   -1    0    0    0  501 -0.00000000000E+00 -0.00000000000E+00 -0.21794633388E+03  0.21794633388E+03  0.00000000000E+00 0.  1.
        -24    2    1    2    0    0  0.72380938517E+02 -0.75648797470E+02  0.11671568749E+04  0.11745567811E+04  0.79791733044E+02 0.  0.
        254    2    1    2    0    0 -0.72380938517E+02  0.75648797470E+02  0.89082663950E+03  0.13193194010E+04  0.96750702296E+03 0.  0.
         23    2    4    4    0    0  0.36792802922E+03  0.33549939028E+02  0.75953934666E+03  0.84910005564E+03  0.87030180158E+02 0.  0.
         23    2    4    4    0    0 -0.44030896774E+03  0.42098858441E+02  0.13128729283E+03  0.47021934539E+03  0.90694975447E+02 0.  0.
          1    1    3    3  502    0  0.61264884626E+02 -0.88597698278E+02  0.11001526221E+04  0.11054133753E+04  0.00000000000E+00 0. -1.
         -2    1    3    3    0  502  0.11116053891E+02  0.12948900809E+02  0.67004252754E+02  0.69143405856E+02  0.00000000000E+00 0.  1.
         11    1    5    5    0    0  0.27590168083E+03  0.40914098325E+02  0.48535498558E+03  0.55979028480E+03  0.00000000000E+00 0.  1.
        -11    1    5    5    0    0  0.92026348388E+02 -0.73641592970E+01  0.27418436108E+03  0.28930977084E+03  0.00000000000E+00 0. -1.
          4    1    6    6  503    0 -0.10370754898E+03  0.28738129475E+02 -0.27880732182E+01  0.10765179586E+03  0.00000000000E+00 0. -1.
         -4    1    6    6    0  503 -0.33660141876E+03  0.13360728966E+02  0.13407536605E+03  0.36256754953E+03  0.00000000000E+00 0.  1.
<mgrwt>
<rscale>  0 0.14085887E+04</rscale>
<asrwt>0</asrwt>
<pdfrwt beam="1">  1        1 0.35014304E+00 0.14085887E+04</pdfrwt>
<pdfrwt beam="2">  1       -2 0.33530207E-01 0.14085887E+04</pdfrwt>
<totfact> 0.13779873E+01</totfact>
</mgrwt>
</event>
<event>
12    4  0.4381187E-008  0.2584973E+04  0.7818608E-02  0.8373323E-01
         -2   -1    0    0    0  501 -0.00000000000E+00  0.00000000000E+00  0.93245109077E+03  0.93245109077E+03  0.00000000000E+00 0.  1.
          1   -1    0    0  501    0  0.00000000000E+00 -0.00000000000E+00 -0.17915383157E+04  0.17915383157E+04  0.00000000000E+00 0. -1.
        -24    2    1    2    0    0  0.71665598915E+03 -0.87494856716E+03 -0.36924538932E+03  0.11923323329E+04  0.78634804954E+02 0.  0.
        254    2    1    2    0    0 -0.71665598915E+03  0.87494856716E+03 -0.48984183559E+03  0.15316570736E+04  0.90933908151E+03 0.  0.
         23    2    4    4    0    0 -0.81650278976E+03  0.48459905953E+03 -0.57013613032E+03  0.11112667971E+04  0.91354436504E+02 0.  0.
         23    2    4    4    0    0  0.99846800608E+02  0.39034950763E+03  0.80294294732E+02  0.42039027647E+03  0.89099321448E+02 0.  0.
          3    1    3    3  502    0  0.70493481678E+03 -0.84624286273E+03 -0.36820826251E+03  0.11613084875E+04  0.00000000000E+00 0. -1.
         -4    1    3    3    0  502  0.11721172367E+02 -0.28705704432E+02 -0.10371268122E+01  0.31023845356E+02  0.00000000000E+00 0.  1.
         11    1    5    5    0    0 -0.23032752733E+03  0.90574533809E+02 -0.15389391968E+03  0.29144099666E+03  0.00000000000E+00 0. -1.
        -11    1    5    5    0    0 -0.58617526243E+03  0.39402452572E+03 -0.41624221064E+03  0.81982580044E+03  0.00000000000E+00 0.  1.
          1    1    6    6  503    0 -0.22392979683E+01  0.12670884609E+03  0.87504467215E+00  0.12673165286E+03  0.00000000000E+00 0. -1.
         -1    1    6    6    0  503  0.10208609858E+03  0.26364066154E+03  0.79419250060E+02  0.29365862361E+03  0.00000000000E+00 0.  1.
<mgrwt>
<rscale>  0 0.25849734E+04</rscale>
<asrwt>0</asrwt>
<pdfrwt beam="1">  1        1 0.27562127E+00 0.25849734E+04</pdfrwt>
<pdfrwt beam="2">  1       -2 0.14345402E+00 0.25849734E+04</pdfrwt>
<totfact> 0.10780819E+00</totfact>
</mgrwt>
</event>
<event>
12    4  0.4381187E-008  0.1802101E+04  0.7818608E-02  0.8705183E-01
          1   -1    0    0  501    0  0.00000000000E+00  0.00000000000E+00  0.15811850729E+04  0.15811850729E+04  0.00000000000E+00 0. -1.
         -2   -1    0    0    0  501 -0.00000000000E+00 -0.00000000000E+00 -0.51347066794E+03  0.51347066794E+03  0.00000000000E+00 0.  1.
        -24    2    1    2    0    0 -0.12371460954E+03 -0.46405291140E+03 -0.14597178800E+03  0.50770004479E+03  0.76165368765E+02 0.  0.
        254    2    1    2    0    0  0.12371460954E+03  0.46405291140E+03  0.12136861930E+04  0.15869556961E+04  0.90263159544E+03 0.  0.
         23    2    4    4    0    0  0.37971263698E+03  0.60146220588E+03  0.80222454720E+03  0.10760513550E+04  0.91563216661E+02 0.  0.
         23    2    4    4    0    0 -0.25599802745E+03 -0.13740929449E+03  0.41146164576E+03  0.51090434107E+03  0.85476637325E+02 0.  0.
          3    1    3    3  502    0  0.65192988068E+01 -0.84005700940E+02 -0.31674828479E+02  0.90015297625E+02  0.00000000000E+00 0. -1.
         -4    1    3    3    0  502 -0.13023390834E+03 -0.38004721046E+03 -0.11429695952E+03  0.41768474717E+03  0.00000000000E+00 0.  1.
         11    1    5    5    0    0  0.17696156775E+03  0.19869755081E+03  0.30903555097E+03  0.40779784811E+03  0.00000000000E+00 0.  1.
        -11    1    5    5    0    0  0.20275106924E+03  0.40276465507E+03  0.49318899623E+03  0.66825350688E+03  0.00000000000E+00 0. -1.
          1    1    6    6  503    0 -0.18132350412E+03 -0.10790090352E+03  0.35419926379E+03  0.41228380589E+03  0.00000000000E+00 0. -1.
         -1    1    6    6    0  503 -0.74674523329E+02 -0.29508390961E+02  0.57262381967E+02  0.98620535184E+02  0.00000000000E+00 0.  1.
<mgrwt>
<rscale>  0 0.18021012E+04</rscale>
<asrwt>0</asrwt>
<pdfrwt beam="1">  1        1 0.24325924E+00 0.18021012E+04</pdfrwt>
<pdfrwt beam="2">  1       -2 0.78995488E-01 0.18021012E+04</pdfrwt>
<totfact> 0.67695997E+00</totfact>
</mgrwt>
</event>
<event>
12    4  0.4381187E-008  0.1160654E+04  0.7818608E-02  0.9148011E-01
          1   -1    0    0  501    0  0.00000000000E+00  0.00000000000E+00  0.24986038732E+03  0.24986038732E+03  0.00000000000E+00 0. -1.
         -2   -1    0    0    0  501 -0.00000000000E+00 -0.00000000000E+00 -0.13478702000E+04  0.13478702000E+04  0.00000000000E+00 0.  1.
        -24    2    1    2    0    0 -0.34424848221E+02 -0.21757223235E+03 -0.21750226813E+03  0.31980307468E+03  0.80274675125E+02 0.  0.
        254    2    1    2    0    0  0.34424848221E+02  0.21757223235E+03 -0.88050754456E+03  0.12779275127E+04  0.89960127007E+03 0.  0.
         23    2    4    4    0    0  0.30425615518E+03  0.36257559600E+03 -0.82199451037E+03  0.95339387310E+03  0.96187480501E+02 0.  0.
         23    2    4    4    0    0 -0.26983130696E+03 -0.14500336365E+03 -0.58513034183E+02  0.32453363955E+03  0.89796427257E+02 0.  0.
          1    1    3    3  502    0 -0.32885438237E+01 -0.14670623822E+03 -0.94718277188E+02  0.17465705507E+03  0.00000000000E+00 0. -1.
         -2    1    3    3    0  502 -0.31136304397E+02 -0.70865994132E+02 -0.12278399095E+03  0.14514601961E+03  0.00000000000E+00 0.  1.
         11    1    5    5    0    0  0.45650228262E+02  0.63179495345E+02 -0.21656406292E+03  0.23016425727E+03  0.00000000000E+00 0.  1.
        -11    1    5    5    0    0  0.25860592692E+03  0.29939610065E+03 -0.60543044745E+03  0.72322961584E+03  0.00000000000E+00 0. -1.
          1    1    6    6  503    0 -0.24127625626E+03 -0.12871810322E+03 -0.80403852493E+02  0.28503922787E+03  0.00000000000E+00 0. -1.
         -1    1    6    6    0  503 -0.28555050699E+02 -0.16285260430E+02  0.21890818310E+02  0.39494411680E+02  0.00000000000E+00 0.  1.
<mgrwt>
<rscale>  0 0.11606539E+04</rscale>
<asrwt>0</asrwt>
<pdfrwt beam="1">  1        1 0.38440060E-01 0.11606539E+04</pdfrwt>
<pdfrwt beam="2">  1       -2 0.20736464E+00 0.11606539E+04</pdfrwt>
<totfact> 0.11469945E+01</totfact>
</mgrwt>
</event>
<event>
12    4  0.4381187E-008  0.1457054E+04  0.7818608E-02  0.8913525E-01
         -2   -1    0    0    0  501 -0.00000000000E+00  0.00000000000E+00  0.21706248535E+03  0.21706248535E+03  0.00000000000E+00 0.  1.
          1   -1    0    0  501    0  0.00000000000E+00 -0.00000000000E+00 -0.24451551724E+04  0.24451551724E+04  0.00000000000E+00 0. -1.
        -24    2    1    2    0    0 -0.40921253185E+03 -0.18238013431E+03 -0.68200398212E+03  0.81994737942E+03  0.80416812748E+02 0.  0.
        254    2    1    2    0    0  0.40921253185E+03  0.18238013431E+03 -0.15460887049E+04  0.18422702783E+04  0.89602013666E+03 0.  0.
         23    2    4    4    0    0  0.40564822592E+03 -0.32526012548E+02 -0.17719536538E+03  0.45354578803E+03  0.93258563352E+02 0.  0.
         23    2    4    4    0    0  0.35643059233E+01  0.21490614686E+03 -0.13688933395E+04  0.13887244903E+04  0.92137824431E+02 0.  0.
          1    1    3    3  502    0 -0.38045987004E+03 -0.17576914255E+03 -0.59276465835E+03  0.72595760508E+03  0.00000000000E+00 0. -1.
         -2    1    3    3    0  502 -0.28752661810E+02 -0.66109917543E+01 -0.89239323767E+02  0.93989774335E+02  0.00000000000E+00 0.  1.
         11    1    5    5    0    0  0.38508100706E+03 -0.52544517013E+02 -0.16188798409E+03  0.42101784720E+03  0.00000000000E+00 0. -1.
        -11    1    5    5    0    0  0.20567218869E+02  0.20018504465E+02 -0.15307381289E+02  0.32527940834E+02  0.00000000000E+00 0.  1.
          2    1    6    6  503    0  0.40556500711E+02  0.15460630061E+03 -0.10485863673E+04  0.10606984999E+04  0.00000000000E+00 0. -1.
         -2    1    6    6    0  503 -0.36992194788E+02  0.60299846250E+02 -0.32030697221E+03  0.32802599041E+03  0.00000000000E+00 0.  1.
<mgrwt>
<rscale>  0 0.14570538E+04</rscale>
<asrwt>0</asrwt>
<pdfrwt beam="1">  1        1 0.37617772E+00 0.14570538E+04</pdfrwt>
<pdfrwt beam="2">  1       -2 0.33394228E-01 0.14570538E+04</pdfrwt>
<totfact> 0.10587947E+01</totfact>
</mgrwt>
</event>
<event>
12    4  0.4381187E-008  0.1321522E+04  0.7818608E-02  0.9012670E-01
         -2   -1    0    0    0  501 -0.00000000000E+00  0.00000000000E+00  0.22889655525E+03  0.22889655525E+03  0.00000000000E+00 0.  1.
          1   -1    0    0  501    0  0.00000000000E+00 -0.00000000000E+00 -0.19074344165E+04  0.19074344165E+04  0.00000000000E+00 0. -1.
        -24    2    1    2    0    0  0.18396945012E+03 -0.25416208252E+03 -0.65123637138E+03  0.72751017724E+03  0.81970261742E+02 0.  0.
        254    2    1    2    0    0 -0.18396945012E+03  0.25416208252E+03 -0.10273014899E+04  0.14088207945E+04  0.91158354372E+03 0.  0.
         23    2    4    4    0    0 -0.31022166927E+03 -0.17192005325E+03 -0.84077627844E+03  0.91740219141E+03  0.94488314751E+02 0.  0.
         23    2    4    4    0    0  0.12625221915E+03  0.42608213577E+03 -0.18652521144E+03  0.49141860311E+03  0.95994685865E+02 0.  0.
          1    1    3    3  502    0  0.72228492267E+02 -0.14317942433E+03 -0.25636900125E+03  0.30239439057E+03  0.00000000000E+00 0. -1.
         -2    1    3    3    0  502  0.11174095785E+03 -0.11098265819E+03 -0.39486737013E+03  0.42511578667E+03  0.00000000000E+00 0.  1.
         11    1    5    5    0    0 -0.28866212085E+03 -0.18251124778E+03 -0.76172668286E+03  0.83478363362E+03  0.00000000000E+00 0. -1.
        -11    1    5    5    0    0 -0.21559548413E+02  0.10591194535E+02 -0.79049595582E+02  0.82618557789E+02  0.00000000000E+00 0.  1.
          3    1    6    6  503    0  0.64340152860E+02  0.23192081431E+03 -0.15216908337E+03  0.28474962566E+03  0.00000000000E+00 0. -1.
         -3    1    6    6    0  503  0.61912066288E+02  0.19416132146E+03 -0.34356128073E+02  0.20666897744E+03  0.00000000000E+00 0.  1.
<mgrwt>
<rscale>  0 0.13215221E+04</rscale>
<asrwt>0</asrwt>
<pdfrwt beam="1">  1        1 0.29345144E+00 0.13215221E+04</pdfrwt>
<pdfrwt beam="2">  1       -2 0.35214856E-01 0.13215221E+04</pdfrwt>
<totfact> 0.22471316E+01</totfact>
</mgrwt>
</event>
<event>
12    4  0.4381187E-008  0.1267034E+04  0.7818608E-02  0.9056124E-01
         -2   -1    0    0    0  501 -0.00000000000E+00  0.00000000000E+00  0.16067602380E+03  0.16067602380E+03  0.00000000000E+00 0.  1.
          1   -1    0    0  501    0  0.00000000000E+00 -0.00000000000E+00 -0.24978443550E+04  0.24978443550E+04  0.00000000000E+00 0. -1.
        -24    2    1    2    0    0 -0.28922883222E+02 -0.71994066817E+01  0.55682751049E+02  0.10214471124E+03  0.80278319863E+02 0.  0.
        254    2    1    2    0    0  0.28922883222E+02  0.71994066817E+01 -0.23928510823E+04  0.25563756676E+04  0.89912840418E+03 0.  0.
         23    2    4    4    0    0  0.33735101049E+03  0.16692903431E+01 -0.20740658980E+04  0.21033390131E+04  0.92071515741E+02 0.  0.
         23    2    4    4    0    0 -0.30842812727E+03  0.55301163385E+01 -0.31878518424E+03  0.45303665443E+03  0.91976761707E+02 0.  0.
          3    1    3    3  502    0  0.16727922977E+02 -0.94983276761E+01 -0.10343201082E+02  0.21840866383E+02  0.00000000000E+00 0. -1.
         -4    1    3    3    0  502 -0.45650806199E+02  0.22989209944E+01  0.66025952131E+02  0.80303844859E+02  0.00000000000E+00 0.  1.
         11    1    5    5    0    0  0.17032252478E+03 -0.37797399040E+02 -0.11958673243E+04  0.12085268153E+04  0.00000000000E+00 0. -1.
        -11    1    5    5    0    0  0.16702848570E+03  0.39466689383E+02 -0.87819857369E+03  0.89481219786E+03  0.00000000000E+00 0.  1.
          3    1    6    6  503    0 -0.28739971707E+03  0.70771005911E+01 -0.24963887366E+03  0.38074696318E+03  0.00000000000E+00 0. -1.
         -3    1    6    6    0  503 -0.21028410195E+02 -0.15469842525E+01 -0.69146310574E+02  0.72289691254E+02  0.00000000000E+00 0.  1.
<mgrwt>
<rscale>  0 0.12670339E+04</rscale>
<asrwt>0</asrwt>
<pdfrwt beam="1">  1        1 0.38428376E+00 0.12670339E+04</pdfrwt>
<pdfrwt beam="2">  1       -2 0.24719388E-01 0.12670339E+04</pdfrwt>
<totfact> 0.17301287E+01</totfact>
</mgrwt>
</event>
<event>
12    4  0.4381187E-008  0.1552215E+04  0.7818608E-02  0.8850454E-01
         -2   -1    0    0    0  501 -0.00000000000E+00  0.00000000000E+00  0.98628934201E+03  0.98628934201E+03  0.00000000000E+00 0.  1.
          1   -1    0    0  501    0  0.00000000000E+00 -0.00000000000E+00 -0.61071627282E+03  0.61071627282E+03  0.00000000000E+00 0. -1.
        -24    2    1    2    0    0 -0.10661048365E+03  0.39188126813E+03  0.40824258634E+03  0.58128663346E+03  0.79343666458E+02 0.  0.
        254    2    1    2    0    0  0.10661048365E+03 -0.39188126813E+03 -0.32669517153E+02  0.10157189814E+04  0.93041981290E+03 0.  0.
         23    2    4    4    0    0  0.40348854936E+03 -0.53386305271E+03 -0.20448953260E+02  0.67457106046E+03  0.82554148317E+02 0.  0.
         23    2    4    4    0    0 -0.29687806571E+03  0.14198178458E+03 -0.12220563893E+02  0.34114792092E+03  0.89090676921E+02 0.  0.
          3    1    3    3  502    0 -0.80329231806E+01  0.76308299748E+02  0.40442877680E+02  0.86735868131E+02  0.00000000000E+00 0. -1.
         -4    1    3    3    0  502 -0.98577560470E+02  0.31557296838E+03  0.36779970866E+03  0.49455076533E+03  0.00000000000E+00 0.  1.
         11    1    5    5    0    0  0.21584394866E+03 -0.24329792070E+03 -0.42362703359E+02  0.32798946176E+03  0.00000000000E+00 0.  1.
        -11    1    5    5    0    0  0.18764460069E+03 -0.29056513201E+03  0.21913750100E+02  0.34658159869E+03  0.00000000000E+00 0. -1.
          4    1    6    6  503    0 -0.23321772552E+03  0.13371478418E+03 -0.38897786122E+02  0.27163061089E+03  0.00000000000E+00 0. -1.
         -4    1    6    6    0  503 -0.63660340184E+02  0.82670004017E+01  0.26677222228E+02  0.69517310030E+02  0.00000000000E+00 0.  1.
<mgrwt>
<rscale>  0 0.15522151E+04</rscale>
<asrwt>0</asrwt>
<pdfrwt beam="1">  1        1 0.93956350E-01 0.15522151E+04</pdfrwt>
<pdfrwt beam="2">  1       -2 0.15173682E+00 0.15522151E+04</pdfrwt>
<totfact> 0.81716271E+00</totfact>
</mgrwt>
</event>
<event>
12    4  0.4381187E-008  0.1325181E+04  0.7818608E-02  0.9009832E-01
         -2   -1    0    0    0  501 -0.00000000000E+00  0.00000000000E+00  0.26028471818E+03  0.26028471818E+03  0.00000000000E+00 0.  1.
          1   -1    0    0  501    0  0.00000000000E+00 -0.00000000000E+00 -0.16867139196E+04  0.16867139196E+04  0.00000000000E+00 0. -1.
        -24    2    1    2    0    0  0.86596590531E+02 -0.29607885205E+03 -0.14683896863E+03  0.35113502792E+03  0.81070765389E+02 0.  0.
        254    2    1    2    0    0 -0.86596590531E+02  0.29607885205E+03 -0.12795902328E+04  0.15958636099E+04  0.90236790796E+03 0.  0.
         23    2    4    4    0    0  0.12175857308E+03 -0.13724333187E+02 -0.11916970793E+04  0.12016874333E+04  0.94325241467E+02 0.  0.
         23    2    4    4    0    0 -0.20835516361E+03  0.30980318524E+03 -0.87893153545E+02  0.39417617658E+03  0.90883243555E+02 0.  0.
          1    1    3    3  502    0  0.48437483371E+02 -0.19351942053E+03 -0.51571979866E+02  0.20604762805E+03  0.00000000000E+00 0. -1.
         -2    1    3    3    0  502  0.38159107160E+02 -0.10255943152E+03 -0.95266988762E+02  0.14508739987E+03  0.00000000000E+00 0.  1.
         11    1    5    5    0    0 -0.14246745374E+01  0.16326634453E+02 -0.43062705106E+02  0.46075864193E+02  0.00000000000E+00 0. -1.
        -11    1    5    5    0    0  0.12318324761E+03 -0.30050967640E+02 -0.11486343742E+04  0.11556115691E+04  0.00000000000E+00 0.  1.
          3    1    6    6  503    0 -0.59529882718E+02  0.35610318563E+02  0.23503247296E+01  0.69407677896E+02  0.00000000000E+00 0. -1.
         -3    1    6    6    0  503 -0.14882528089E+03  0.27419286668E+03 -0.90243478274E+02  0.32476849869E+03  0.00000000000E+00 0.  1.
<mgrwt>
<rscale>  0 0.13251805E+04</rscale>
<asrwt>0</asrwt>
<pdfrwt beam="1">  1        1 0.25949445E+00 0.13251805E+04</pdfrwt>
<pdfrwt beam="2">  1       -2 0.40043803E-01 0.13251805E+04</pdfrwt>
<totfact> 0.24724404E+01</totfact>
</mgrwt>
</event>
<event>
12    4  0.4381187E-008  0.1448569E+04  0.7818608E-02  0.8919394E-01
         -2   -1    0    0    0  501 -0.00000000000E+00  0.00000000000E+00  0.25725306662E+03  0.25725306662E+03  0.00000000000E+00 0.  1.
          1   -1    0    0  501    0  0.00000000000E+00 -0.00000000000E+00 -0.20391892243E+04  0.20391892243E+04  0.00000000000E+00 0. -1.
        -24    2    1    2    0    0 -0.10627940965E+03 -0.19658157382E+03  0.62514094134E+02  0.24514563491E+03  0.79048986512E+02 0.  0.
        254    2    1    2    0    0  0.10627940965E+03  0.19658157382E+03 -0.18444502518E+04  0.20512966560E+04  0.86941452224E+03 0.  0.
         23    2    4    4    0    0 -0.28561500181E+03 -0.54931161607E+01 -0.23836268157E+03  0.38295704442E+03  0.90737127590E+02 0.  0.
         23    2    4    4    0    0  0.39189441145E+03  0.20207468998E+03 -0.16060875702E+04  0.16683396116E+04  0.97079175204E+02 0.  0.
          1    1    3    3  502    0 -0.22418019643E+02 -0.41630252368E+02 -0.19071139898E+02  0.50983859151E+02  0.00000000000E+00 0. -1.
         -2    1    3    3    0  502 -0.83861390002E+02 -0.15495132145E+03  0.81585234031E+02  0.19416177576E+03  0.00000000000E+00 0.  1.
         11    1    5    5    0    0 -0.11577636816E+03 -0.46207110148E+02 -0.89279931839E+02  0.15333026668E+03  0.00000000000E+00 0. -1.
        -11    1    5    5    0    0 -0.16983863365E+03  0.40713993987E+02 -0.14908274973E+03  0.22962677774E+03  0.00000000000E+00 0.  1.
          1    1    6    6  503    0  0.38993217171E+01 -0.98983105486E+00 -0.44335573062E+00  0.40473497100E+01  0.00000000000E+00 0. -1.
         -1    1    6    6    0  503  0.38799508974E+03  0.20306452104E+03 -0.16056442145E+04  0.16642922619E+04  0.00000000000E+00 0.  1.
<mgrwt>
<rscale>  0 0.14485685E+04</rscale>
<asrwt>0</asrwt>
<pdfrwt beam="1">  1        1 0.31372141E+00 0.14485685E+04</pdfrwt>
<pdfrwt beam="2">  1       -2 0.39577396E-01 0.14485685E+04</pdfrwt>
<totfact> 0.14446016E+01</totfact>
</mgrwt>
</event>
<event>
12    4  0.4381187E-008  0.1491695E+04  0.7818608E-02  0.8889995E-01
         -2   -1    0    0    0  501 -0.00000000000E+00  0.00000000000E+00  0.32183169135E+03  0.32183169135E+03  0.00000000000E+00 0.  1.
          1   -1    0    0  501    0  0.00000000000E+00 -0.00000000000E+00 -0.17285071180E+04  0.17285071180E+04  0.00000000000E+00 0. -1.
        -24    2    1    2    0    0 -0.31964501223E+03 -0.23762073035E+03 -0.88067458971E+03  0.96979466335E+03  0.79230112824E+02 0.  0.
        254    2    1    2    0    0  0.31964501223E+03  0.23762073035E+03 -0.52600083691E+03  0.10805441460E+04  0.85572321787E+03 0.  0.
         23    2    4    4    0    0  0.54492359421E+02 -0.26033586249E+03 -0.40787610941E+03  0.49628235678E+03  0.95859681269E+02 0.  0.
         23    2    4    4    0    0  0.26515265281E+03  0.49795659284E+03 -0.11812472751E+03  0.58426178918E+03  0.95612182324E+02 0.  0.
          3    1    3    3  502    0 -0.28517872228E+03 -0.23655887560E+03 -0.78379151664E+03  0.86695798446E+03  0.00000000000E+00 0. -1.
         -4    1    3    3    0  502 -0.34466289944E+02 -0.10618547486E+01 -0.96883073065E+02  0.10283667889E+03  0.00000000000E+00 0.  1.
         11    1    5    5    0    0  0.63876145213E+02 -0.89427900815E+02 -0.13377884343E+03  0.17313084740E+03  0.00000000000E+00 0. -1.
        -11    1    5    5    0    0 -0.93837857919E+01 -0.17090796167E+03 -0.27409726598E+03  0.32315150938E+03  0.00000000000E+00 0.  1.
          2    1    6    6  503    0  0.87350570264E+01  0.33101097114E+02 -0.31174979967E+02  0.46301870668E+02  0.00000000000E+00 0. -1.
         -2    1    6    6    0  503  0.25641759578E+03  0.46485549572E+03 -0.86949747538E+02  0.53795991851E+03  0.00000000000E+00 0.  1.
<mgrwt>
<rscale>  0 0.14916948E+04</rscale>
<asrwt>0</asrwt>
<pdfrwt beam="1">  1        1 0.26592417E+00 0.14916948E+04</pdfrwt>
<pdfrwt beam="2">  1       -2 0.49512569E-01 0.14916948E+04</pdfrwt>
<totfact> 0.14950141E+01</totfact>
</mgrwt>
</event>
<event>
12    4  0.4381187E-008  0.2387406E+04  0.7818608E-02  0.8444234E-01
          1   -1    0    0  501    0  0.00000000000E+00  0.00000000000E+00  0.14727208072E+04  0.14727208072E+04  0.00000000000E+00 0. -1.
         -2   -1    0    0    0  501 -0.00000000000E+00 -0.00000000000E+00 -0.96754695319E+03  0.96754695319E+03  0.00000000000E+00 0.  1.
        -24    2    1    2    0    0 -0.82153098003E+03 -0.57129307683E+03 -0.29809644054E+01  0.10037453555E+04  0.78784019647E+02 0.  0.
        254    2    1    2    0    0  0.82153098003E+03  0.57129307683E+03  0.50815481840E+03  0.14365224049E+04  0.89670863131E+03 0.  0.
         23    2    4    4    0    0  0.89100495631E+03  0.57047380372E+03  0.65667791431E+03  0.12485909688E+04  0.91778708825E+02 0.  0.
         23    2    4    4    0    0 -0.69473976282E+02  0.81927310362E+00 -0.14852309591E+03  0.18793143605E+03  0.91824887956E+02 0.  0.
          3    1    3    3  502    0 -0.30660650013E+03 -0.20514318379E+03  0.36333239703E+02  0.37069040463E+03  0.00000000000E+00 0. -1.
         -4    1    3    3    0  502 -0.51492447990E+03 -0.36614989304E+03 -0.39314204109E+02  0.63305495087E+03  0.00000000000E+00 0.  1.
         11    1    5    5    0    0  0.55869758989E+03  0.32588413606E+03  0.44271138525E+03  0.78379642620E+03  0.00000000000E+00 0.  1.
        -11    1    5    5    0    0  0.33230736642E+03  0.24458966766E+03  0.21396652906E+03  0.46479454263E+03  0.00000000000E+00 0. -1.
          4    1    6    6  503    0 -0.33733774243E+02  0.46180915390E+02 -0.68243811178E+02  0.89038543536E+02  0.00000000000E+00 0. -1.
         -4    1    6    6    0  503 -0.35740202039E+02 -0.45361642286E+02 -0.80279284731E+02  0.98892892513E+02  0.00000000000E+00 0.  1.
<mgrwt>
<rscale>  0 0.23874057E+04</rscale>
<asrwt>0</asrwt>
<pdfrwt beam="1">  1        1 0.22657243E+00 0.23874057E+04</pdfrwt>
<pdfrwt beam="2">  1       -2 0.14885338E+00 0.23874057E+04</pdfrwt>
<totfact> 0.16458189E+00</totfact>
</mgrwt>
</event>
<event>
12    4  0.4381187E-008  0.2364973E+04  0.7818608E-02  0.8452735E-01
         -2   -1    0    0    0  501 -0.00000000000E+00  0.00000000000E+00  0.72443116619E+03  0.72443116619E+03  0.00000000000E+00 0.  1.
          1   -1    0    0  501    0  0.00000000000E+00 -0.00000000000E+00 -0.19301685549E+04  0.19301685549E+04  0.00000000000E+00 0. -1.
        -24    2    1    2    0    0  0.84309675777E+03 -0.24961166963E+03  0.45789228145E+02  0.88441151640E+03  0.83480227245E+02 0.  0.
        254    2    1    2    0    0 -0.84309675777E+03  0.24961166963E+03 -0.12515266168E+04  0.17701882047E+04  0.89113931498E+03 0.  0.
         23    2    4    4    0    0  0.10585295834E+02 -0.13652867468E+03  0.43679458395E+02  0.16897708047E+03  0.88843858202E+02 0.  0.
         23    2    4    4    0    0 -0.85368205361E+03  0.38614034431E+03 -0.12952060752E+04  0.16012111242E+04  0.91874222584E+02 0.  0.
          3    1    3    3  502    0  0.15891526291E+03 -0.39638949095E+02  0.40491735137E+02  0.16871540441E+03  0.00000000000E+00 0. -1.
         -4    1    3    3    0  502  0.68418149486E+03 -0.20997272053E+03  0.52974930082E+01  0.71569611198E+03  0.00000000000E+00 0.  1.
         11    1    5    5    0    0  0.81872339364E+01 -0.13838621660E+03  0.60954891093E+02  0.15143736161E+03  0.00000000000E+00 0. -1.
        -11    1    5    5    0    0  0.23980618972E+01  0.18575419127E+01 -0.17275432698E+02  0.17539718861E+02  0.00000000000E+00 0.  1.
          3    1    6    6  503    0 -0.47205163035E+03  0.25901307827E+03 -0.77292384337E+03  0.94198290010E+03  0.00000000000E+00 0. -1.
         -3    1    6    6    0  503 -0.38163042325E+03  0.12712726605E+03 -0.52228223185E+03  0.65922822408E+03  0.00000000000E+00 0.  1.
<mgrwt>
<rscale>  0 0.23649729E+04</rscale>
<asrwt>0</asrwt>
<pdfrwt beam="1">  1        1 0.29694901E+00 0.23649729E+04</pdfrwt>
<pdfrwt beam="2">  1       -2 0.11145095E+00 0.23649729E+04</pdfrwt>
<totfact> 0.16703642E+00</totfact>
</mgrwt>
</event>
<event>
12    4  0.4381187E-008  0.1304807E+04  0.7818608E-02  0.9025762E-01
          1   -1    0    0  501    0  0.00000000000E+00  0.00000000000E+00  0.39896616129E+03  0.39896616129E+03  0.00000000000E+00 0. -1.
         -2   -1    0    0    0  501 -0.00000000000E+00 -0.00000000000E+00 -0.10668329609E+04  0.10668329609E+04  0.00000000000E+00 0.  1.
        -24    2    1    2    0    0  0.12179215894E+03 -0.30402903007E+03 -0.25316144532E+03  0.42124368381E+03  0.78029114079E+02 0.  0.
        254    2    1    2    0    0 -0.12179215894E+03  0.30402903007E+03 -0.41470535424E+03  0.10445554383E+04  0.90102638798E+03 0.  0.
         23    2    4    4    0    0  0.33883448850E+03  0.56105767528E+02  0.24682195940E+02  0.35535302872E+03  0.87806016206E+02 0.  0.
         23    2    4    4    0    0 -0.46062664744E+03  0.24792326254E+03 -0.43938755018E+03  0.68920240962E+03  0.91080677068E+02 0.  0.
          3    1    3    3  502    0  0.61731281279E+02 -0.15805315052E+03 -0.82159619794E+02  0.18852520416E+03  0.00000000000E+00 0. -1.
         -4    1    3    3    0  502  0.60060877662E+02 -0.14597587955E+03 -0.17100182553E+03  0.23271847965E+03  0.00000000000E+00 0.  1.
         11    1    5    5    0    0  0.11834689924E+03  0.37724046477E+02  0.47371039117E+02  0.13294024067E+03  0.00000000000E+00 0. -1.
        -11    1    5    5    0    0  0.22048758926E+03  0.18381721051E+02 -0.22688843177E+02  0.22241278806E+03  0.00000000000E+00 0.  1.
          1    1    6    6  503    0 -0.16669570485E+03  0.11570257938E+03 -0.22017104761E+03  0.29941582305E+03  0.00000000000E+00 0. -1.
         -1    1    6    6    0  503 -0.29393094259E+03  0.13222068317E+03 -0.21921650257E+03  0.38978658657E+03  0.00000000000E+00 0.  1.
<mgrwt>
<rscale>  0 0.13048069E+04</rscale>
<asrwt>0</asrwt>
<pdfrwt beam="1">  1        1 0.61379409E-01 0.13048069E+04</pdfrwt>
<pdfrwt beam="2">  1       -2 0.16412815E+00 0.13048069E+04</pdfrwt>
<totfact> 0.12123897E+01</totfact>
</mgrwt>
</event>
<event>
12    4  0.4381187E-008  0.1316811E+04  0.7818608E-02  0.9016339E-01
         -2   -1    0    0    0  501 -0.00000000000E+00  0.00000000000E+00  0.49250866620E+03  0.49250866620E+03  0.00000000000E+00 0.  1.
          1   -1    0    0  501    0  0.00000000000E+00 -0.00000000000E+00 -0.88018289522E+03  0.88018289522E+03  0.00000000000E+00 0. -1.
        -24    2    1    2    0    0 -0.70949297320E+01  0.83826198563E+02 -0.43694821333E+03  0.45244259813E+03  0.81874256505E+02 0.  0.
        254    2    1    2    0    0  0.70949297320E+01 -0.83826198563E+02  0.49273984318E+02  0.92024896328E+03  0.91506997508E+03 0.  0.
         23    2    4    4    0    0  0.41448725170E+03  0.47879753274E+01 -0.14673486049E+03  0.44967222560E+03  0.94081797737E+02 0.  0.
         23    2    4    4    0    0 -0.40739232197E+03 -0.88614173890E+02  0.19600884481E+03  0.47057673768E+03  0.95927175477E+02 0.  0.
          3    1    3    3  502    0 -0.24077932665E+02  0.83029093059E+02 -0.41857819506E+03  0.42741230974E+03  0.00000000000E+00 0. -1.
         -4    1    3    3    0  502  0.16983002933E+02  0.79710550430E+00 -0.18370018268E+02  0.25030288392E+02  0.00000000000E+00 0.  1.
         11    1    5    5    0    0  0.37014352451E+03  0.73441471361E+01 -0.96439188364E+02  0.38257114670E+03  0.00000000000E+00 0.  1.
        -11    1    5    5    0    0  0.44343727186E+02 -0.25561718086E+01 -0.50295672124E+02  0.67101078900E+02  0.00000000000E+00 0. -1.
          4    1    6    6  503    0 -0.11019993297E+03  0.26810124839E+01  0.16173852133E+02  0.11141277551E+03  0.00000000000E+00 0. -1.
         -4    1    6    6    0  503 -0.29719238900E+03 -0.91295186374E+02  0.17983499267E+03  0.35916396217E+03  0.00000000000E+00 0.  1.
<mgrwt>
<rscale>  0 0.13168109E+04</rscale>
<asrwt>0</asrwt>
<pdfrwt beam="1">  1        1 0.13541275E+00 0.13168109E+04</pdfrwt>
<pdfrwt beam="2">  1       -2 0.75770564E-01 0.13168109E+04</pdfrwt>
<totfact> 0.25367947E+01</totfact>
</mgrwt>
</event>
<event>
12    4  0.4381187E-008  0.1689119E+04  0.7818608E-02  0.8767595E-01
         -2   -1    0    0    0  501 -0.00000000000E+00  0.00000000000E+00  0.15030423549E+04  0.15030423549E+04  0.00000000000E+00 0.  1.
          1   -1    0    0  501    0  0.00000000000E+00 -0.00000000000E+00 -0.47455802871E+03  0.47455802871E+03  0.00000000000E+00 0. -1.
        -24    2    1    2    0    0 -0.18598061729E+03  0.23781744776E+02  0.10390918259E+04  0.10579145143E+04  0.65703390791E+02 0.  0.
        254    2    1    2    0    0  0.18598061729E+03 -0.23781744776E+02 -0.10607499657E+02  0.91968586934E+03  0.90030840151E+03 0.  0.
         23    2    4    4    0    0 -0.81313125925E+02  0.32890123071E+03  0.21843271739E+03  0.41310266068E+03  0.90294585781E+02 0.  0.
         23    2    4    4    0    0  0.26729374322E+03 -0.35268297549E+03 -0.22904021705E+03  0.50658320866E+03  0.91301149538E+02 0.  0.
          3    1    3    3  502    0 -0.67874386741E+02  0.30150543640E+02  0.28090426163E+03  0.29055669302E+03  0.00000000000E+00 0. -1.
         -4    1    3    3    0  502 -0.11810623055E+03 -0.63687988640E+01  0.75818756426E+03  0.76735782128E+03  0.00000000000E+00 0.  1.
         11    1    5    5    0    0 -0.25576762667E+02  0.14008395132E+03  0.41285797724E+02  0.14826395819E+03  0.00000000000E+00 0.  1.
        -11    1    5    5    0    0 -0.55736363258E+02  0.18881727940E+03  0.17714691967E+03  0.26483870249E+03  0.00000000000E+00 0. -1.
          2    1    6    6  503    0  0.25304881600E+03 -0.29162221444E+03 -0.17543955873E+03  0.42409463331E+03  0.00000000000E+00 0. -1.
         -2    1    6    6    0  503  0.14244927219E+02 -0.61060761053E+02 -0.53600658317E+02  0.82488575354E+02  0.00000000000E+00 0.  1.
<mgrwt>
<rscale>  0 0.16891191E+04</rscale>
<asrwt>0</asrwt>
<pdfrwt beam="1">  1        1 0.73008928E-01 0.16891191E+04</pdfrwt>
<pdfrwt beam="2">  1       -2 0.23123728E+00 0.16891191E+04</pdfrwt>
<totfact> 0.33313175E+00</totfact>
</mgrwt>
</event>
<event>
12    4  0.4381187E-008  0.1834146E+04  0.7818608E-02  0.8688349E-01
         -2   -1    0    0    0  501 -0.00000000000E+00  0.00000000000E+00  0.50853653519E+03  0.50853653519E+03  0.00000000000E+00 0.  1.
          1   -1    0    0  501    0  0.00000000000E+00 -0.00000000000E+00 -0.16538096937E+04  0.16538096937E+04  0.00000000000E+00 0. -1.
        -24    2    1    2    0    0 -0.28537340878E+03  0.61614986638E+03 -0.57402661251E+03  0.89267070726E+03  0.79219943455E+02 0.  0.
        254    2    1    2    0    0  0.28537340878E+03 -0.61614986638E+03 -0.57124654603E+03  0.12696755217E+04  0.90811600234E+03 0.  0.
         23    2    4    4    0    0  0.60972565662E+02 -0.27363279151E+03 -0.75560445957E+03  0.81097280550E+03  0.90256487728E+02 0.  0.
         23    2    4    4    0    0  0.22440084312E+03 -0.34251707486E+03  0.18435791354E+03  0.45870271618E+03  0.93523561595E+02 0.  0.
          3    1    3    3  502    0 -0.23946048695E+03  0.57065265932E+03 -0.51440876688E+03  0.80473732475E+03  0.00000000000E+00 0. -1.
         -4    1    3    3    0  502 -0.45912921832E+02  0.45497207057E+02 -0.59617845636E+02  0.87933382509E+02  0.00000000000E+00 0.  1.
         11    1    5    5    0    0  0.76899485060E+02 -0.25938815120E+03 -0.72328414954E+03  0.77222775446E+03  0.00000000000E+00 0. -1.
        -11    1    5    5    0    0 -0.15926919399E+02 -0.14244640313E+02 -0.32320310029E+02  0.38745051033E+02  0.00000000000E+00 0.  1.
          2    1    6    6  503    0  0.20675949618E+03 -0.31572043306E+03  0.19513242614E+03  0.42485944128E+03  0.00000000000E+00 0. -1.
         -2    1    6    6    0  503  0.17641346946E+02 -0.26796641806E+02 -0.10774512599E+02  0.33843274899E+02  0.00000000000E+00 0.  1.
<mgrwt>
<rscale>  0 0.18341457E+04</rscale>
<asrwt>0</asrwt>
<pdfrwt beam="1">  1        1 0.25443226E+00 0.18341457E+04</pdfrwt>
<pdfrwt beam="2">  1       -2 0.78236390E-01 0.18341457E+04</pdfrwt>
<totfact> 0.61513985E+00</totfact>
</mgrwt>
</event>
<event>
12    4  0.4381187E-008  0.1330464E+04  0.7818608E-02  0.9005750E-01
          1   -1    0    0  501    0  0.00000000000E+00  0.00000000000E+00  0.14475548176E+04  0.14475548176E+04  0.00000000000E+00 0. -1.
         -2   -1    0    0    0  501 -0.00000000000E+00 -0.00000000000E+00 -0.30571127257E+03  0.30571127257E+03  0.00000000000E+00 0.  1.
        -24    2    1    2    0    0  0.12327998345E+03 -0.32018090766E+03  0.17690471913E+03  0.39451863189E+03  0.81461053967E+02 0.  0.
        254    2    1    2    0    0 -0.12327998345E+03  0.32018090766E+03  0.96493882594E+03  0.13587474583E+04  0.89295797757E+03 0.  0.
         23    2    4    4    0    0 -0.14612903660E+03  0.58364497553E+03  0.87481212686E+03  0.10656392613E+04  0.91080322940E+02 0.  0.
         23    2    4    4    0    0  0.22849053150E+02 -0.26346406787E+03  0.90126699077E+02  0.29310819696E+03  0.88623918616E+02 0.  0.
          1    1    3    3  502    0  0.93010650845E+02 -0.22051776943E+03  0.16269895735E+03  0.28939595458E+03  0.00000000000E+00 0. -1.
         -2    1    3    3    0  502  0.30269332602E+02 -0.99663138226E+02  0.14205761778E+02  0.10512267731E+03  0.00000000000E+00 0.  1.
         11    1    5    5    0    0 -0.12937918731E+03  0.56173873620E+03  0.80111764922E+03  0.98695434025E+03  0.00000000000E+00 0.  1.
        -11    1    5    5    0    0 -0.16749849282E+02  0.21906239329E+02  0.73694477644E+02  0.78684921095E+02  0.00000000000E+00 0. -1.
          4    1    6    6  503    0 -0.13646932357E+01 -0.29224411898E+02 -0.17607943977E+02  0.34146278413E+02  0.00000000000E+00 0. -1.
         -4    1    6    6    0  503  0.24213746385E+02 -0.23423965597E+03  0.10773464305E+03  0.25896191855E+03  0.00000000000E+00 0.  1.
<mgrwt>
<rscale>  0 0.13304643E+04</rscale>
<asrwt>0</asrwt>
<pdfrwt beam="1">  1        1 0.22270074E+00 0.13304643E+04</pdfrwt>
<pdfrwt beam="2">  1       -2 0.47032504E-01 0.13304643E+04</pdfrwt>
<totfact> 0.26221913E+01</totfact>
</mgrwt>
</event>
<event>
12    4  0.4381187E-008  0.4484725E+04  0.7818608E-02  0.7913316E-01
          1   -1    0    0  501    0  0.00000000000E+00  0.00000000000E+00  0.26436053171E+04  0.26436053171E+04  0.00000000000E+00 0. -1.
         -2   -1    0    0    0  501 -0.00000000000E+00 -0.00000000000E+00 -0.19020196441E+04  0.19020196441E+04  0.00000000000E+00 0.  1.
        -24    2    1    2    0    0 -0.19349038291E+04 -0.77462017403E+03  0.90445056970E+03  0.22733780296E+04  0.79546153894E+02 0.  0.
        254    2    1    2    0    0  0.19349038291E+04  0.77462017403E+03 -0.16286489676E+03  0.22722469316E+04  0.89033246698E+03 0.  0.
         23    2    4    4    0    0  0.42650975062E+03 -0.31003463315E+02 -0.33374244022E+03  0.55127411648E+03  0.98220939674E+02 0.  0.
         23    2    4    4    0    0  0.15083940785E+04  0.80562363735E+03  0.17087754346E+03  0.17209728151E+04  0.90918394882E+02 0.  0.
          1    1    3    3  502    0 -0.14031327136E+04 -0.59438474308E+03  0.64116943159E+03  0.16532310410E+04  0.00000000000E+00 0. -1.
         -2    1    3    3    0  502 -0.53177111544E+03 -0.18023543095E+03  0.26328113811E+03  0.62014698860E+03  0.00000000000E+00 0.  1.
         11    1    5    5    0    0  0.11797044617E+03 -0.60080481612E+01 -0.15133612997E+03  0.19197850673E+03  0.00000000000E+00 0. -1.
        -11    1    5    5    0    0  0.30853930445E+03 -0.24995415154E+02 -0.18240631025E+03  0.35929560975E+03  0.00000000000E+00 0.  1.
          1    1    6    6  503    0  0.13814966492E+04  0.76295451024E+03  0.16766508791E+03  0.15870551843E+04  0.00000000000E+00 0. -1.
         -1    1    6    6    0  503  0.12689742929E+03  0.42669127107E+02  0.32124555475E+01  0.13391763080E+03  0.00000000000E+00 0.  1.
<mgrwt>
<rscale>  0 0.44847248E+04</rscale>
<asrwt>0</asrwt>
<pdfrwt beam="1">  1        1 0.40670851E+00 0.44847248E+04</pdfrwt>
<pdfrwt beam="2">  1       -2 0.29261840E+00 0.44847248E+04</pdfrwt>
<totfact> 0.25101489E-02</totfact>
</mgrwt>
</event>
<event>
12    4  0.4381187E-008  0.1645741E+04  0.7818608E-02  0.8792930E-01
          1   -1    0    0  501    0  0.00000000000E+00  0.00000000000E+00  0.35326974714E+03  0.35326974714E+03  0.00000000000E+00 0. -1.
         -2   -1    0    0    0  501 -0.00000000000E+00 -0.00000000000E+00 -0.19167105311E+04  0.19167105311E+04  0.00000000000E+00 0.  1.
        -24    2    1    2    0    0 -0.82674350632E+02  0.38460263661E+03 -0.10360138584E+04  0.11101960788E+04  0.66756141121E+02 0.  0.
        254    2    1    2    0    0  0.82674350632E+02 -0.38460263661E+03 -0.52742692562E+03  0.11597841994E+04  0.95507381446E+03 0.  0.
         23    2    4    4    0    0 -0.22323732067E+03 -0.56772547652E+03 -0.15648215767E+03  0.63711801298E+03  0.96361707967E+02 0.  0.
         23    2    4    4    0    0  0.30591167130E+03  0.18312283991E+03 -0.37094476795E+03  0.52266618646E+03  0.91999980795E+02 0.  0.
          1    1    3    3  502    0  0.74281864945E+01  0.77951857528E+02 -0.17289293019E+03  0.18979893403E+03  0.00000000000E+00 0. -1.
         -2    1    3    3    0  502 -0.90102537126E+02  0.30665077908E+03 -0.86312092818E+03  0.92039714481E+03  0.00000000000E+00 0.  1.
         11    1    5    5    0    0 -0.11751548470E+03 -0.38805000129E+03 -0.70149723767E+02  0.41147743121E+03  0.00000000000E+00 0.  1.
        -11    1    5    5    0    0 -0.10572183597E+03 -0.17967547523E+03 -0.86332433901E+02  0.22564058177E+03  0.00000000000E+00 0. -1.
          3    1    6    6  503    0  0.25613334598E+03  0.11546312458E+03 -0.25449657372E+03  0.37908380353E+03  0.00000000000E+00 0. -1.
         -3    1    6    6    0  503  0.49778325324E+02  0.67659715334E+02 -0.11644819422E+03  0.14358238293E+03  0.00000000000E+00 0.  1.
<mgrwt>
<rscale>  0 0.16457410E+04</rscale>
<asrwt>0</asrwt>
<pdfrwt beam="1">  1        1 0.54349192E-01 0.16457410E+04</pdfrwt>
<pdfrwt beam="2">  1       -2 0.29487854E+00 0.16457410E+04</pdfrwt>
<totfact> 0.20238898E+00</totfact>
</mgrwt>
</event>
<event>
12    4  0.4381187E-008  0.2033523E+04  0.7818608E-02  0.8591106E-01
          1   -1    0    0  501    0  0.00000000000E+00  0.00000000000E+00  0.21703744667E+04  0.21703744667E+04  0.00000000000E+00 0. -1.
         -2   -1    0    0    0  501 -0.00000000000E+00 -0.00000000000E+00 -0.47632495811E+03  0.47632495811E+03  0.00000000000E+00 0.  1.
        -24    2    1    2    0    0 -0.23976348156E+03 -0.60551963906E+03  0.47738490109E+02  0.66004430732E+03  0.96119528799E+02 0.  0.
        254    2    1    2    0    0  0.23976348156E+03  0.60551963906E+03  0.16463110185E+04  0.19866551175E+04  0.90128687212E+03 0.  0.
         23    2    4    4    0    0  0.47844725251E+03  0.65815995296E+03  0.10148677379E+04  0.13034455592E+04  0.83231623731E+02 0.  0.
         23    2    4    4    0    0 -0.23868377095E+03 -0.52640313898E+02  0.63144328057E+03  0.68320955830E+03  0.91179706139E+02 0.  0.
          1    1    3    3  502    0 -0.21988012869E+01 -0.95940337202E+02  0.11325919082E+02  0.96631565612E+02  0.00000000000E+00 0. -1.
         -2    1    3    3    0  502 -0.23756468028E+03 -0.50957930185E+03  0.36412571028E+02  0.56341274171E+03  0.00000000000E+00 0.  1.
         11    1    5    5    0    0  0.44387252604E+03  0.63680385431E+03  0.94870596098E+03  0.12257997262E+04  0.00000000000E+00 0. -1.
        -11    1    5    5    0    0  0.34574726476E+02  0.21356098642E+02  0.66161776933E+02  0.77645833031E+02  0.00000000000E+00 0.  1.
          3    1    6    6  503    0 -0.13246862193E+03 -0.68769026290E+02  0.30537072661E+03  0.33989468287E+03  0.00000000000E+00 0. -1.
         -3    1    6    6    0  503 -0.10621514902E+03  0.16128712392E+02  0.32607255396E+03  0.34331487543E+03  0.00000000000E+00 0.  1.
<mgrwt>
<rscale>  0 0.20335226E+04</rscale>
<asrwt>0</asrwt>
<pdfrwt beam="1">  1        1 0.33390376E+00 0.20335226E+04</pdfrwt>
<pdfrwt beam="2">  1       -2 0.73280764E-01 0.20335226E+04</pdfrwt>
<totfact> 0.31170428E+00</totfact>
</mgrwt>
</event>
<event>
12    4  0.4381187E-008  0.1703898E+04  0.7818608E-02  0.8759144E-01
          1   -1    0    0  501    0  0.00000000000E+00  0.00000000000E+00  0.96219540990E+03  0.96219540990E+03  0.00000000000E+00 0. -1.
         -2   -1    0    0    0  501 -0.00000000000E+00 -0.00000000000E+00 -0.75433425756E+03  0.75433425756E+03  0.00000000000E+00 0.  1.
        -24    2    1    2    0    0 -0.58352657020E+03  0.17841075725E+03  0.13770903977E+03  0.63041410368E+03  0.78259223424E+02 0.  0.
        254    2    1    2    0    0  0.58352657020E+03 -0.17841075725E+03  0.70152112572E+02  0.10861155638E+04  0.89576338536E+03 0.  0.
         23    2    4    4    0    0  0.48831141432E+03 -0.33744862686E+03 -0.29330079827E+03  0.66813564534E+03  0.89779001910E+02 0.  0.
         23    2    4    4    0    0  0.95215155882E+02  0.15903786961E+03  0.36345291084E+03  0.41797991844E+03  0.90830743367E+02 0.  0.
          1    1    3    3  502    0 -0.31791880254E+03  0.71020609666E+02  0.42519808768E+02  0.32851822802E+03  0.00000000000E+00 0. -1.
         -2    1    3    3    0  502 -0.26560776766E+03  0.10739014759E+03  0.95189230997E+02  0.30189587566E+03  0.00000000000E+00 0.  1.
         11    1    5    5    0    0  0.18608127508E+03 -0.94605301442E+02 -0.13932179234E+03  0.25097204190E+03  0.00000000000E+00 0. -1.
        -11    1    5    5    0    0  0.30223013924E+03 -0.24284332542E+03 -0.15397900593E+03  0.41716360344E+03  0.00000000000E+00 0.  1.
          3    1    6    6  503    0 -0.76229382919E+01  0.14583444595E+02  0.93908395363E+02  0.95339250910E+02  0.00000000000E+00 0. -1.
         -3    1    6    6    0  503  0.10283809417E+03  0.14445442502E+03  0.26954451548E+03  0.32264066753E+03  0.00000000000E+00 0.  1.
<mgrwt>
<rscale>  0 0.17038978E+04</rscale>
<asrwt>0</asrwt>
<pdfrwt beam="1">  1        1 0.14803006E+00 0.17038978E+04</pdfrwt>
<pdfrwt beam="2">  1       -2 0.11605142E+00 0.17038978E+04</pdfrwt>
<totfact> 0.77929079E+00</totfact>
</mgrwt>
</event>
<event>
12    4  0.4381187E-008  0.1867137E+04  0.7818608E-02  0.8671389E-01
          1   -1    0    0  501    0  0.00000000000E+00  0.00000000000E+00  0.11243208780E+04  0.11243208780E+04  0.00000000000E+00 0. -1.
         -2   -1    0    0    0  501 -0.00000000000E+00 -0.00000000000E+00 -0.77517925528E+03  0.77517925528E+03  0.00000000000E+00 0.  1.
        -24    2    1    2    0    0  0.63439145472E+03  0.46727965866E+02  0.46431818655E+03  0.79164194228E+03  0.80433611184E+02 0.  0.
        254    2    1    2    0    0 -0.63439145472E+03 -0.46727965866E+02 -0.11517656383E+03  0.11078581910E+04  0.89969334214E+03 0.  0.
         23    2    4    4    0    0 -0.46676541831E+02 -0.22936487813E+03  0.27538786684E+03  0.37318152377E+03  0.92946358726E+02 0.  0.
         23    2    4    4    0    0 -0.58771491289E+03  0.18263691227E+03 -0.39056443067E+03  0.73467666723E+03  0.91892166764E+02 0.  0.
          3    1    3    3  502    0  0.34759759689E+03  0.48287417879E+02  0.21450711550E+03  0.41130167358E+03  0.00000000000E+00 0. -1.
         -4    1    3    3    0  502  0.28679385783E+03 -0.15594520128E+01  0.24981107105E+03  0.38034026871E+03  0.00000000000E+00 0.  1.
         11    1    5    5    0    0 -0.35725815273E+02 -0.83147657429E+02  0.47522924677E+02  0.10221690263E+03  0.00000000000E+00 0. -1.
        -11    1    5    5    0    0 -0.10950726558E+02 -0.14621722070E+03  0.22786494217E+03  0.27096462114E+03  0.00000000000E+00 0.  1.
          3    1    6    6  503    0 -0.12330686452E+03  0.23471692183E+02 -0.12223139616E+03  0.17520278930E+03  0.00000000000E+00 0. -1.
         -3    1    6    6    0  503 -0.46440804837E+03  0.15916522008E+03 -0.26833303451E+03  0.55947387793E+03  0.00000000000E+00 0.  1.
<mgrwt>
<rscale>  0 0.18671371E+04</rscale>
<asrwt>0</asrwt>
<pdfrwt beam="1">  1        1 0.17297244E+00 0.18671371E+04</pdfrwt>
<pdfrwt beam="2">  1       -2 0.11925835E+00 0.18671371E+04</pdfrwt>
<totfact> 0.53938289E+00</totfact>
</mgrwt>
</event>
<event>
12    4  0.4381187E-008  0.1921969E+04  0.7818608E-02  0.8643998E-01
         -4   -1    0    0    0  501 -0.00000000000E+00  0.00000000000E+00  0.29992783550E+03  0.29992783550E+03  0.00000000000E+00 0.  1.
          1   -1    0    0  501    0  0.00000000000E+00 -0.00000000000E+00 -0.30790430980E+04  0.30790430980E+04  0.00000000000E+00 0. -1.
        -24    2    1    2    0    0  0.36709236385E+03 -0.64914453400E+03 -0.12208169745E+04  0.14328694111E+04  0.81087818328E+02 0.  0.
        254    2    1    2    0    0 -0.36709236385E+03  0.64914453400E+03 -0.15582982880E+04  0.19461015225E+04  0.89603133411E+03 0.  0.
         23    2    4    4    0    0 -0.53158015800E+03  0.55542431443E+02 -0.68838409306E+03  0.87614331102E+03  0.89955632365E+02 0.  0.
         23    2    4    4    0    0  0.16448779415E+03  0.59360210256E+03 -0.86991419493E+03  0.10699582114E+04  0.92952552878E+02 0.  0.
          3    1    3    3  502    0  0.36853802184E+03 -0.64285746786E+03 -0.12182837255E+04  0.14259387200E+04  0.00000000000E+00 0. -1.
         -4    1    3    3    0  502 -0.14456579949E+01 -0.62870661384E+01 -0.25332490674E+01  0.69306910554E+01  0.00000000000E+00 0.  1.
         11    1    5    5    0    0 -0.17059448435E+03 -0.22967577299E+02 -0.23530914706E+03  0.29154825053E+03  0.00000000000E+00 0.  1.
        -11    1    5    5    0    0 -0.36098567365E+03  0.78510008742E+02 -0.45307494600E+03  0.58459506049E+03  0.00000000000E+00 0. -1.
          2    1    6    6  503    0  0.15641337703E+03  0.59052003108E+03 -0.86745969075E+03  0.10609737823E+04  0.00000000000E+00 0. -1.
         -2    1    6    6    0  503  0.80744171165E+01  0.30820714807E+01 -0.24545041827E+01  0.89844291508E+01  0.00000000000E+00 0.  1.
<mgrwt>
<rscale>  0 0.19219685E+04</rscale>
<asrwt>0</asrwt>
<pdfrwt beam="1">  1        1 0.47369894E+00 0.19219685E+04</pdfrwt>
<pdfrwt beam="2">  1       -4 0.46142744E-01 0.19219685E+04</pdfrwt>
<totfact> 0.11119453E+00</totfact>
</mgrwt>
</event>
<event>
12    4  0.6952803E-008  0.1805733E+04  0.7818608E-02  0.8703257E-01
         -2   -1    0    0    0  501 -0.00000000000E+00  0.00000000000E+00  0.58013025636E+03  0.58013025636E+03  0.00000000000E+00 0.  1.
          1   -1    0    0  501    0  0.00000000000E+00 -0.00000000000E+00 -0.14051456039E+04  0.14051456039E+04  0.00000000000E+00 0. -1.
        -24    2    1    2    0    0 -0.50071235930E+03  0.51931612008E+02 -0.74645675161E+03  0.90330403456E+03  0.73148737202E+02 0.  0.
        254    2    1    2    0    0  0.50071235930E+03 -0.51931612008E+02 -0.78558595927E+02  0.10819718257E+04  0.95450606050E+03 0.  0.
         23    2    4    4    0    0  0.70152391405E+02 -0.83392928206E+02 -0.47045444522E+03  0.49178622723E+03  0.93008439249E+02 0.  0.
         23    2    4    4    0    0  0.43055996789E+03  0.31461316198E+02  0.39189584930E+03  0.59018559846E+03  0.91460284110E+02 0.  0.
          1    1    3    3  502    0 -0.49544931939E+03  0.54203732180E+02 -0.71647863776E+03  0.87278273988E+03  0.00000000000E+00 0. -1.
         -2    1    3    3    0  502 -0.52630399076E+01 -0.22721201721E+01 -0.29978113846E+02  0.30521294679E+02  0.00000000000E+00 0.  1.
         11    1    5    5    0    0 -0.11592427639E+02 -0.39456847591E+02 -0.74453475966E+02  0.85056141952E+02  0.00000000000E+00 0. -1.
        -11    1    5    5    0    0  0.81744819044E+02 -0.43936080616E+02 -0.39600096926E+03  0.40673008528E+03  0.00000000000E+00 0.  1.
          4    1    6    6  503    0  0.33791434773E+03 -0.26995426678E+01  0.33683759788E+03  0.47712992075E+03  0.00000000000E+00 0.  1.
         -4    1    6    6    0  503  0.92645620160E+02  0.34160858866E+02  0.55058251420E+02  0.11305567771E+03  0.00000000000E+00 0. -1.
<mgrwt>
<rscale>  0 0.18057325E+04</rscale>
<asrwt>0</asrwt>
<pdfrwt beam="1">  1        1 0.21617625E+00 0.18057325E+04</pdfrwt>
<pdfrwt beam="2">  1       -2 0.89250809E-01 0.18057325E+04</pdfrwt>
<totfact> 0.67934608E+00</totfact>
</mgrwt>
</event>
<event>
12    4  0.4456762E-008  0.2737542E+04  0.7818608E-02  0.8322926E-01
          1   -1    0    0  501    0  0.00000000000E+00  0.00000000000E+00  0.15612672984E+04  0.15612672984E+04  0.00000000000E+00 0. -1.
         -4   -1    0    0    0  501 -0.00000000000E+00 -0.00000000000E+00 -0.12000087663E+04  0.12000087663E+04  0.00000000000E+00 0.  1.
        -24    2    1    2    0    0  0.10463589112E+04  0.56279152422E+03 -0.28809831776E+02  0.11911007004E+04  0.79307006949E+02 0.  0.
        254    2    1    2    0    0 -0.10463589112E+04 -0.56279152422E+03  0.39006836388E+03  0.15701753644E+04  0.94957678762E+03 0.  0.
         23    2    4    4    0    0 -0.32415605884E+03  0.81005363939E+01 -0.27081717141E+03  0.43330246121E+03  0.96261692203E+02 0.  0.
         23    2    4    4    0    0 -0.72220285236E+03 -0.57089206062E+03  0.66088553529E+03  0.11368729032E+04  0.90639960022E+02 0.  0.
          1    1    3    3  502    0  0.19950238553E+03  0.10908741153E+03 -0.36763128266E+02  0.23033191873E+03  0.00000000000E+00 0. -1.
         -2    1    3    3    0  502  0.84685652567E+03  0.45370411269E+03  0.79532964904E+01  0.96076878169E+03  0.00000000000E+00 0.  1.
         11    1    5    5    0    0 -0.31973767990E+03 -0.32489843685E+01 -0.27357384757E+03  0.42081514935E+03  0.00000000000E+00 0.  1.
        -11    1    5    5    0    0 -0.44183789407E+01  0.11349520762E+02  0.27566761613E+01  0.12487311859E+02  0.00000000000E+00 0. -1.
          4    1    6    6  503    0 -0.12835702154E+03 -0.60442830545E+02  0.10718928142E+03  0.17781564272E+03  0.00000000000E+00 0. -1.
         -4    1    6    6    0  503 -0.59384583082E+03 -0.51044923007E+03  0.55369625386E+03  0.95905726044E+03  0.00000000000E+00 0.  1.
<mgrwt>
<rscale>  0 0.27375423E+04</rscale>
<asrwt>0</asrwt>
<pdfrwt beam="1">  1        1 0.24019497E+00 0.27375423E+04</pdfrwt>
<pdfrwt beam="2">  1       -4 0.18461673E+00 0.27375423E+04</pdfrwt>
<totfact> 0.41966731E-01</totfact>
</mgrwt>
</event>
<event>
12    4  0.4381187E-008  0.1863730E+04  0.7818608E-02  0.8673124E-01
         -2   -1    0    0    0  501 -0.00000000000E+00  0.00000000000E+00  0.27893997636E+03  0.27893997636E+03  0.00000000000E+00 0.  1.
          1   -1    0    0  501    0  0.00000000000E+00 -0.00000000000E+00 -0.31131159157E+04  0.31131159157E+04  0.00000000000E+00 0. -1.
        -24    2    1    2    0    0 -0.20946099479E+03 -0.62667787318E+03 -0.11951440131E+04  0.13679918380E+04  0.80208426932E+02 0.  0.
        254    2    1    2    0    0  0.20946099479E+03  0.62667787318E+03 -0.16390319262E+04  0.20240640540E+04  0.98681841013E+03 0.  0.
         23    2    4    4    0    0  0.10102801698E+03 -0.20798748239E+03 -0.77763067434E+03  0.81640737197E+03  0.91356873223E+02 0.  0.
         23    2    4    4    0    0  0.10843297781E+03  0.83466535557E+03 -0.86140125191E+03  0.12076566821E+04  0.89434772425E+02 0.  0.
          1    1    3    3  502    0 -0.11495143389E+03 -0.28756528827E+03 -0.48616725274E+03  0.57642538529E+03  0.00000000000E+00 0. -1.
         -2    1    3    3    0  502 -0.94509560907E+02 -0.33911258491E+03 -0.70897676035E+03  0.79156645272E+03  0.00000000000E+00 0.  1.
         11    1    5    5    0    0  0.63218716381E+02 -0.38045875866E+02 -0.20363840847E+03  0.21659338904E+03  0.00000000000E+00 0.  1.
        -11    1    5    5    0    0  0.37809300600E+02 -0.16994160653E+03 -0.57399226586E+03  0.59981398293E+03  0.00000000000E+00 0. -1.
          2    1    6    6  503    0  0.80005324152E+02  0.29519585717E+03 -0.29470985942E+03  0.42472973433E+03  0.00000000000E+00 0. -1.
         -2    1    6    6    0  503  0.28427653659E+02  0.53946949840E+03 -0.56669139249E+03  0.78292694776E+03  0.00000000000E+00 0.  1.
<mgrwt>
<rscale>  0 0.18637301E+04</rscale>
<asrwt>0</asrwt>
<pdfrwt beam="1">  1        1 0.47894091E+00 0.18637301E+04</pdfrwt>
<pdfrwt beam="2">  1       -2 0.42913842E-01 0.18637301E+04</pdfrwt>
<totfact> 0.21013331E+00</totfact>
</mgrwt>
</event>
<event>
12    4  0.4381187E-008  0.2215192E+04  0.7818608E-02  0.8512132E-01
         -2   -1    0    0    0  501 -0.00000000000E+00  0.00000000000E+00  0.44226283551E+03  0.44226283551E+03  0.00000000000E+00 0.  1.
          1   -1    0    0  501    0  0.00000000000E+00 -0.00000000000E+00 -0.27738447527E+04  0.27738447527E+04  0.00000000000E+00 0. -1.
        -24    2    1    2    0    0  0.36050903287E+03  0.15823795320E+03  0.23473059510E+03  0.46515596376E+03  0.79155579274E+02 0.  0.
        254    2    1    2    0    0 -0.36050903287E+03 -0.15823795320E+03 -0.25663125123E+04  0.27509516245E+04  0.90926834143E+03 0.  0.
         23    2    4    4    0    0 -0.15413149783E+03  0.30772809363E+03 -0.46075494288E+03  0.58269408248E+03  0.93723946380E+02 0.  0.
         23    2    4    4    0    0 -0.20637753504E+03 -0.46596604684E+03 -0.21055575694E+04  0.21682575420E+04  0.90840775436E+02 0.  0.
          1    1    3    3  502    0  0.62353766746E+02  0.17213833681E+02  0.73888379439E+02  0.98202855934E+02  0.00000000000E+00 0. -1.
         -2    1    3    3    0  502  0.29815526612E+03  0.14102411952E+03  0.16084221566E+03  0.36695310783E+03  0.00000000000E+00 0.  1.
         11    1    5    5    0    0 -0.91066328599E+01  0.37429510869E+02 -0.14456778434E+02  0.41144835504E+02  0.00000000000E+00 0. -1.
        -11    1    5    5    0    0 -0.14502486497E+03  0.27029858276E+03 -0.44629816445E+03  0.54154924697E+03  0.00000000000E+00 0.  1.
          2    1    6    6  503    0 -0.13326586860E+03 -0.28838969138E+03 -0.14877471982E+04  0.15212889705E+04  0.00000000000E+00 0. -1.
         -2    1    6    6    0  503 -0.73111666445E+02 -0.17757635546E+03 -0.61781037119E+03  0.64696857152E+03  0.00000000000E+00 0.  1.
<mgrwt>
<rscale>  0 0.22151916E+04</rscale>
<asrwt>0</asrwt>
<pdfrwt beam="1">  1        1 0.42674535E+00 0.22151916E+04</pdfrwt>
<pdfrwt beam="2">  1       -2 0.68040436E-01 0.22151916E+04</pdfrwt>
<totfact> 0.13771583E+00</totfact>
</mgrwt>
</event>
<event>
12    4  0.4381187E-008  0.1436614E+04  0.7818608E-02  0.8927734E-01
         -2   -1    0    0    0  501 -0.00000000000E+00  0.00000000000E+00  0.69689739412E+03  0.69689739412E+03  0.00000000000E+00 0.  1.
          1   -1    0    0  501    0  0.00000000000E+00 -0.00000000000E+00 -0.74037411491E+03  0.74037411491E+03  0.00000000000E+00 0. -1.
        -24    2    1    2    0    0  0.35167188194E+02  0.37174461787E+03 -0.22797326548E+03  0.44472146287E+03  0.79840952700E+02 0.  0.
        254    2    1    2    0    0 -0.35167188194E+02 -0.37174461787E+03  0.18449654468E+03  0.99255004616E+03  0.90093608380E+03 0.  0.
         23    2    4    4    0    0  0.21990493577E+03 -0.57366171072E+03  0.31553040491E+02  0.62164423141E+03  0.89442813911E+02 0.  0.
         23    2    4    4    0    0 -0.25507212396E+03  0.20191709286E+03  0.15294350419E+03  0.37090581475E+03  0.91362503953E+02 0.  0.
          1    1    3    3  502    0  0.30047515039E+02  0.11897264000E+03 -0.11364252990E+03  0.16724821922E+03  0.00000000000E+00 0. -1.
         -2    1    3    3    0  502  0.51196731551E+01  0.25277197786E+03 -0.11433073558E+03  0.27747324365E+03  0.00000000000E+00 0.  1.
         11    1    5    5    0    0  0.16399808014E+03 -0.50282382988E+03  0.43200843636E+02  0.53065382980E+03  0.00000000000E+00 0. -1.
        -11    1    5    5    0    0  0.55906855628E+02 -0.70837880840E+02 -0.11647803144E+02  0.90990401616E+02  0.00000000000E+00 0.  1.
          4    1    6    6  503    0 -0.23288657451E+03  0.14129592715E+03  0.13435151605E+03  0.30372853913E+03  0.00000000000E+00 0. -1.
         -4    1    6    6    0  503 -0.22185549447E+02  0.60621165710E+02  0.18591988147E+02  0.67177275619E+02  0.00000000000E+00 0.  1.
<mgrwt>
<rscale>  0 0.14366138E+04</rscale>
<asrwt>0</asrwt>
<pdfrwt beam="1">  1        1 0.11390371E+00 0.14366138E+04</pdfrwt>
<pdfrwt beam="2">  1       -2 0.10721498E+00 0.14366138E+04</pdfrwt>
<totfact> 0.14875286E+01</totfact>
</mgrwt>
</event>
<event>
12    4  0.4381187E-008  0.1355716E+04  0.7818608E-02  0.8986513E-01
         -2   -1    0    0    0  501 -0.00000000000E+00  0.00000000000E+00  0.38565729632E+03  0.38565729632E+03  0.00000000000E+00 0.  1.
          1   -1    0    0  501    0  0.00000000000E+00 -0.00000000000E+00 -0.11914494169E+04  0.11914494169E+04  0.00000000000E+00 0. -1.
        -24    2    1    2    0    0 -0.30694908157E+03 -0.20532578708E+03 -0.32847820931E+03  0.50100994423E+03  0.82076870719E+02 0.  0.
        254    2    1    2    0    0  0.30694908157E+03  0.20532578708E+03 -0.47731391129E+03  0.10760967690E+04  0.89094290999E+03 0.  0.
         23    2    4    4    0    0  0.54249591039E+03  0.34314345396E+03 -0.20352535907E+03  0.67961545936E+03  0.91680739685E+02 0.  0.
         23    2    4    4    0    0 -0.23554682882E+03 -0.13781766688E+03 -0.27378855222E+03  0.39648130966E+03  0.88097898459E+02 0.  0.
          1    1    3    3  502    0 -0.81031424461E+01  0.43298531472E+01 -0.23819268585E+02  0.25529710177E+02  0.00000000000E+00 0. -1.
         -2    1    3    3    0  502 -0.29884593913E+03 -0.20965564022E+03 -0.30465894073E+03  0.47548023406E+03  0.00000000000E+00 0.  1.
         11    1    5    5    0    0  0.34867538294E+03  0.19495597691E+03 -0.85222215294E+02  0.40846686717E+03  0.00000000000E+00 0. -1.
        -11    1    5    5    0    0  0.19382052745E+03  0.14818747705E+03 -0.11830314377E+03  0.27114859218E+03  0.00000000000E+00 0.  1.
          2    1    6    6  503    0 -0.21797985524E+03 -0.11471162691E+03 -0.27264083944E+03  0.36743298977E+03  0.00000000000E+00 0. -1.
         -2    1    6    6    0  503 -0.17566973581E+02 -0.23106039970E+02 -0.11477127748E+01  0.29048319891E+02  0.00000000000E+00 0.  1.
<mgrwt>
<rscale>  0 0.13557155E+04</rscale>
<asrwt>0</asrwt>
<pdfrwt beam="1">  1        1 0.18329991E+00 0.13557155E+04</pdfrwt>
<pdfrwt beam="2">  1       -2 0.59331893E-01 0.13557155E+04</pdfrwt>
<totfact> 0.24669888E+01</totfact>
</mgrwt>
</event>
<event>
12    4  0.4381187E-008  0.1576343E+04  0.7818608E-02  0.8835215E-01
          1   -1    0    0  501    0  0.00000000000E+00  0.00000000000E+00  0.57304848632E+03  0.57304848632E+03  0.00000000000E+00 0. -1.
         -2   -1    0    0    0  501 -0.00000000000E+00 -0.00000000000E+00 -0.10840518468E+04  0.10840518468E+04  0.00000000000E+00 0.  1.
        -24    2    1    2    0    0  0.76960255626E+02 -0.41826110270E+03  0.14769037281E+03  0.46162446353E+03  0.10207579599E+03 0.  0.
        254    2    1    2    0    0 -0.76960255626E+02  0.41826110270E+03 -0.65869373330E+03  0.11954758696E+04  0.90245215359E+03 0.  0.
         23    2    4    4    0    0 -0.34072144289E+03  0.53532122344E+03 -0.25282060721E+03  0.68925622091E+03  0.92173557610E+02 0.  0.
         23    2    4    4    0    0  0.26376118727E+03 -0.11706012074E+03 -0.40587312609E+03  0.50621964868E+03  0.90842184344E+02 0.  0.
          3    1    3    3  502    0  0.89641927754E+02 -0.29185752630E+03  0.13540871415E+03  0.33399402800E+03  0.00000000000E+00 0. -1.
         -4    1    3    3    0  502 -0.12681672128E+02 -0.12640357640E+03  0.12281658667E+02  0.12763043553E+03  0.00000000000E+00 0.  1.
         11    1    5    5    0    0 -0.31566955882E+03  0.44109796994E+03 -0.22975121952E+03  0.58906732410E+03  0.00000000000E+00 0. -1.
        -11    1    5    5    0    0 -0.25051884069E+02  0.94223253499E+02 -0.23069387689E+02  0.10018889681E+03  0.00000000000E+00 0.  1.
          3    1    6    6  503    0  0.26389917485E+03 -0.10155808901E+03 -0.39952849773E+03  0.48946893714E+03  0.00000000000E+00 0. -1.
         -3    1    6    6    0  503 -0.13798757809E+00 -0.15502031722E+02 -0.63446283551E+01  0.16750711538E+02  0.00000000000E+00 0.  1.
<mgrwt>
<rscale>  0 0.15763429E+04</rscale>
<asrwt>0</asrwt>
<pdfrwt beam="1">  1        1 0.88161307E-01 0.15763429E+04</pdfrwt>
<pdfrwt beam="2">  1       -2 0.16677721E+00 0.15763429E+04</pdfrwt>
<totfact> 0.69128100E+00</totfact>
</mgrwt>
</event>
<event>
12    4  0.4381187E-008  0.2055338E+04  0.7818608E-02  0.8581177E-01
          1   -1    0    0  501    0  0.00000000000E+00  0.00000000000E+00  0.18000630305E+04  0.18000630305E+04  0.00000000000E+00 0. -1.
         -2   -1    0    0    0  501 -0.00000000000E+00 -0.00000000000E+00 -0.58670356962E+03  0.58670356962E+03  0.00000000000E+00 0.  1.
        -24    2    1    2    0    0  0.35727682270E+03 -0.65956007200E+02 -0.36620458186E+03  0.52197372816E+03  0.79711066942E+02 0.  0.
        254    2    1    2    0    0 -0.35727682270E+03  0.65956007200E+02  0.15795640427E+04  0.18647928719E+04  0.92218922528E+03 0.  0.
         23    2    4    4    0    0 -0.14781184363E+03  0.47446713145E+03  0.99317736260E+03  0.11143204874E+04  0.91331676352E+02 0.  0.
         23    2    4    4    0    0 -0.20946497907E+03 -0.40851112425E+03  0.58638668011E+03  0.75047238452E+03  0.92749906873E+02 0.  0.
          3    1    3    3  502    0  0.24221438754E+03 -0.20232754255E+02 -0.20027020889E+03  0.31493702615E+03  0.00000000000E+00 0. -1.
         -4    1    3    3    0  502  0.11506243516E+03 -0.45723252946E+02 -0.16593437297E+03  0.20703670201E+03  0.00000000000E+00 0.  1.
         11    1    5    5    0    0 -0.62914930802E+02  0.18390522871E+03  0.48949001208E+03  0.52666867535E+03  0.00000000000E+00 0. -1.
        -11    1    5    5    0    0 -0.84896912823E+02  0.29056190274E+03  0.50368735052E+03  0.58765181205E+03  0.00000000000E+00 0.  1.
          1    1    6    6  503    0  0.37750710385E+01 -0.56106870652E+02  0.63064027889E+02  0.84494400461E+02  0.00000000000E+00 0. -1.
         -1    1    6    6    0  503 -0.21324005011E+03 -0.35240425360E+03  0.52332265222E+03  0.66597798406E+03  0.00000000000E+00 0.  1.
<mgrwt>
<rscale>  0 0.20553378E+04</rscale>
<asrwt>0</asrwt>
<pdfrwt beam="1">  1        1 0.27693277E+00 0.20553378E+04</pdfrwt>
<pdfrwt beam="2">  1       -2 0.90262088E-01 0.20553378E+04</pdfrwt>
<totfact> 0.34666295E+00</totfact>
</mgrwt>
</event>
<event>
12    4  0.4381187E-008  0.1440321E+04  0.7818608E-02  0.8925139E-01
          1   -1    0    0  501    0  0.00000000000E+00  0.00000000000E+00  0.14023725478E+04  0.14023725478E+04  0.00000000000E+00 0. -1.
         -2   -1    0    0    0  501 -0.00000000000E+00 -0.00000000000E+00 -0.36982387392E+03  0.36982387392E+03  0.00000000000E+00 0.  1.
        -24    2    1    2    0    0 -0.38692491037E+03  0.76522158678E+02  0.13246776810E+03  0.42383186788E+03  0.80741659680E+02 0.  0.
        254    2    1    2    0    0  0.38692491037E+03 -0.76522158678E+02  0.90008090581E+03  0.13483645539E+04  0.92324146684E+03 0.  0.
         23    2    4    4    0    0  0.27109596821E+03  0.22282397180E+03  0.94453390482E+03  0.10115779472E+04  0.89454454658E+02 0.  0.
         23    2    4    4    0    0  0.11582894216E+03 -0.29934613048E+03 -0.44452999014E+02  0.33678660670E+03  0.91786162630E+02 0.  0.
          3    1    3    3  502    0 -0.28098638970E+03  0.60880068832E+02  0.57733929580E+02  0.29324552956E+03  0.00000000000E+00 0. -1.
         -4    1    3    3    0  502 -0.10593852067E+03  0.15642089846E+02  0.74733838521E+02  0.13058633832E+03  0.00000000000E+00 0.  1.
         11    1    5    5    0    0  0.23279037563E+03  0.14327571080E+03  0.73613646334E+03  0.78524912031E+03  0.00000000000E+00 0.  1.
        -11    1    5    5    0    0  0.38305592574E+02  0.79548261008E+02  0.20839744148E+03  0.22632882686E+03  0.00000000000E+00 0. -1.
          3    1    6    6  503    0  0.68973481075E+02 -0.15913884961E+03  0.21766267401E+02  0.17480356101E+03  0.00000000000E+00 0. -1.
         -3    1    6    6    0  503  0.46855461088E+02 -0.14020728087E+03 -0.66219266415E+02  0.16198304568E+03  0.00000000000E+00 0.  1.
<mgrwt>
<rscale>  0 0.14403206E+04</rscale>
<asrwt>0</asrwt>
<pdfrwt beam="1">  1        1 0.21574962E+00 0.14403206E+04</pdfrwt>
<pdfrwt beam="2">  1       -2 0.56895981E-01 0.14403206E+04</pdfrwt>
<totfact> 0.18903256E+01</totfact>
</mgrwt>
</event>
<event>
12    4  0.4381187E-008  0.1234455E+04  0.7818608E-02  0.9083221E-01
          1   -1    0    0  501    0  0.00000000000E+00  0.00000000000E+00  0.34910930623E+03  0.34910930623E+03  0.00000000000E+00 0. -1.
         -2   -1    0    0    0  501 -0.00000000000E+00 -0.00000000000E+00 -0.10912629322E+04  0.10912629322E+04  0.00000000000E+00 0.  1.
        -24    2    1    2    0    0 -0.20157669311E+03 -0.14479988084E+03 -0.33221335353E+03  0.42213223627E+03  0.78928726917E+02 0.  0.
        254    2    1    2    0    0  0.20157669311E+03  0.14479988084E+03 -0.40994027242E+03  0.10182400021E+04  0.89842167512E+03 0.  0.
         23    2    4    4    0    0  0.64059916599E+02  0.50064458984E+03 -0.11374436902E+03  0.52615755830E+03  0.95683417726E+02 0.  0.
         23    2    4    4    0    0  0.13751677651E+03 -0.35584470900E+03 -0.29619590340E+03  0.49208244384E+03  0.94216758608E+02 0.  0.
          3    1    3    3  502    0 -0.40113105482E+02 -0.58952599975E+02 -0.13826274605E+03  0.15556688986E+03  0.00000000000E+00 0. -1.
         -4    1    3    3    0  502 -0.16146358763E+03 -0.85847280865E+02 -0.19395060748E+03  0.26656534641E+03  0.00000000000E+00 0.  1.
         11    1    5    5    0    0  0.31795941508E+02  0.31868094376E+03 -0.25241471731E+02  0.32125637380E+03  0.00000000000E+00 0. -1.
        -11    1    5    5    0    0  0.32263975091E+02  0.18196364608E+03 -0.88502897289E+02  0.20490118451E+03  0.00000000000E+00 0.  1.
          1    1    6    6  503    0  0.41670187594E+02 -0.44773677813E+02 -0.82504117527E+02  0.10270353532E+03  0.00000000000E+00 0. -1.
         -1    1    6    6    0  503  0.95846588918E+02 -0.31107103119E+03 -0.21369178588E+03  0.38937890852E+03  0.00000000000E+00 0.  1.
<mgrwt>
<rscale>  0 0.12344554E+04</rscale>
<asrwt>0</asrwt>
<pdfrwt beam="1">  1        1 0.53709124E-01 0.12344554E+04</pdfrwt>
<pdfrwt beam="2">  1       -2 0.16788660E+00 0.12344554E+04</pdfrwt>
<totfact> 0.13656056E+01</totfact>
</mgrwt>
</event>
<event>
12    4  0.4381187E-008  0.1402404E+04  0.7818608E-02  0.8952080E-01
          1   -1    0    0  501    0  0.00000000000E+00  0.00000000000E+00  0.12795799381E+04  0.12795799381E+04  0.00000000000E+00 0. -1.
         -2   -1    0    0    0  501 -0.00000000000E+00 -0.00000000000E+00 -0.38425443853E+03  0.38425443853E+03  0.00000000000E+00 0.  1.
        -24    2    1    2    0    0 -0.14185447128E+03 -0.29122403298E+02  0.73746875545E+03  0.75548013735E+03  0.76936774531E+02 0.  0.
        254    2    1    2    0    0  0.14185447128E+03  0.29122403298E+02  0.15785674408E+03  0.90835423923E+03  0.88273317989E+03 0.  0.
         23    2    4    4    0    0 -0.18632814856E+03  0.34160066773E+03  0.19699431901E+03  0.44530851719E+03  0.89909502371E+02 0.  0.
         23    2    4    4    0    0  0.32818261984E+03 -0.31247826443E+03 -0.39137574936E+02  0.46304572204E+03  0.86793393896E+02 0.  0.
          1    1    3    3  502    0 -0.10431264102E+03  0.35883581184E+01  0.60549995451E+03  0.61442997836E+03  0.00000000000E+00 0. -1.
         -2    1    3    3    0  502 -0.37541830264E+02 -0.32710761416E+02  0.13196880093E+03  0.14105015899E+03  0.00000000000E+00 0.  1.
         11    1    5    5    0    0 -0.44800593682E+02  0.65180251417E+02  0.29979795491E+01  0.79148886602E+02  0.00000000000E+00 0. -1.
        -11    1    5    5    0    0 -0.14152755488E+03  0.27642041631E+03  0.19399633946E+03  0.36615963058E+03  0.00000000000E+00 0.  1.
          1    1    6    6  503    0  0.69606053476E+02 -0.23322079364E+02 -0.32642278614E+01  0.73481815777E+02  0.00000000000E+00 0. -1.
         -1    1    6    6    0  503  0.25857656636E+03 -0.28915618507E+03 -0.35873347074E+02  0.38956390627E+03  0.00000000000E+00 0.  1.
<mgrwt>
<rscale>  0 0.14024040E+04</rscale>
<asrwt>0</asrwt>
<pdfrwt beam="1">  1        1 0.19685845E+00 0.14024040E+04</pdfrwt>
<pdfrwt beam="2">  1       -2 0.59116068E-01 0.14024040E+04</pdfrwt>
<totfact> 0.21380602E+01</totfact>
</mgrwt>
</event>
<event>
12    4  0.4381187E-008  0.1857948E+04  0.7818608E-02  0.8676076E-01
          1   -1    0    0  501    0  0.00000000000E+00  0.00000000000E+00  0.11507213834E+04  0.11507213834E+04  0.00000000000E+00 0. -1.
         -2   -1    0    0    0  501 -0.00000000000E+00 -0.00000000000E+00 -0.74995836083E+03  0.74995836083E+03  0.00000000000E+00 0.  1.
        -24    2    1    2    0    0  0.14937011659E+03 -0.60675395764E+03  0.52598079534E+03  0.82064353083E+03  0.79612880708E+02 0.  0.
        254    2    1    2    0    0 -0.14937011659E+03  0.60675395764E+03 -0.12521777274E+03  0.10800362134E+04  0.87197301271E+03 0.  0.
         23    2    4    4    0    0 -0.10834224039E+02  0.65092599077E+03  0.22077892482E+03  0.69351712740E+03  0.91655040681E+02 0.  0.
         23    2    4    4    0    0 -0.13853589255E+03 -0.44172033130E+02 -0.34599669756E+03  0.38651908604E+03  0.92411726070E+02 0.  0.
          3    1    3    3  502    0  0.15463707964E+03 -0.57283574672E+03  0.51153157768E+03  0.78340154077E+03  0.00000000000E+00 0. -1.
         -4    1    3    3    0  502 -0.52669630541E+01 -0.33918210927E+02  0.14449217656E+02  0.37241990054E+02  0.00000000000E+00 0.  1.
         11    1    5    5    0    0 -0.41868530719E+02  0.27382869421E+03  0.12047948585E+03  0.30207686794E+03  0.00000000000E+00 0.  1.
        -11    1    5    5    0    0  0.31034306681E+02  0.37709729656E+03  0.10029943897E+03  0.39144025946E+03  0.00000000000E+00 0. -1.
          1    1    6    6  503    0 -0.96680693551E+02  0.57322954022E+01 -0.13823170572E+03  0.16878394527E+03  0.00000000000E+00 0. -1.
         -1    1    6    6    0  503 -0.41855198995E+02 -0.49904328532E+02 -0.20776499184E+03  0.21773514077E+03  0.00000000000E+00 0.  1.
<mgrwt>
<rscale>  0 0.18579485E+04</rscale>
<asrwt>0</asrwt>
<pdfrwt beam="1">  1        1 0.17703406E+00 0.18579485E+04</pdfrwt>
<pdfrwt beam="2">  1       -2 0.11537821E+00 0.18579485E+04</pdfrwt>
<totfact> 0.55964436E+00</totfact>
</mgrwt>
</event>
<event>
12    4  0.4381187E-008  0.1080602E+04  0.7818608E-02  0.9224307E-01
          3   -1    0    0  501    0  0.00000000000E+00  0.00000000000E+00  0.43916969365E+03  0.43916969365E+03  0.00000000000E+00 0. -1.
         -4   -1    0    0    0  501 -0.00000000000E+00 -0.00000000000E+00 -0.66472088316E+03  0.66472088316E+03  0.00000000000E+00 0.  1.
        -24    2    1    2    0    0  0.91484833358E+02  0.24584420081E+03 -0.58433896399E+02  0.28028030945E+03  0.79584457077E+02 0.  0.
        254    2    1    2    0    0 -0.91484833358E+02 -0.24584420081E+03 -0.16711729312E+03  0.82361026736E+03  0.76262496486E+03 0.  0.
         23    2    4    4    0    0  0.71211360822E+02 -0.37802317467E+03  0.15844873665E+03  0.42577014829E+03  0.90562898210E+02 0.  0.
         23    2    4    4    0    0 -0.16269619418E+03  0.13217897386E+03 -0.32556602977E+03  0.39784011907E+03  0.91335578358E+02 0.  0.
          3    1    3    3  502    0  0.72604931220E+02  0.20442481399E+03 -0.15144831687E+02  0.21746343725E+03  0.00000000000E+00 0. -1.
         -4    1    3    3    0  502  0.18879902138E+02  0.41419386821E+02 -0.43289064712E+02  0.62816872200E+02  0.00000000000E+00 0.  1.
         11    1    5    5    0    0 -0.10664635419E+02 -0.40346446569E+02  0.42271947008E+02  0.59401074933E+02  0.00000000000E+00 0. -1.
        -11    1    5    5    0    0  0.81875996241E+02 -0.33767672810E+03  0.11617678964E+03  0.36636907336E+03  0.00000000000E+00 0.  1.
          2    1    6    6  503    0 -0.15713159174E+03  0.14541847867E+03 -0.30081288109E+03  0.36922250810E+03  0.00000000000E+00 0.  1.
         -2    1    6    6    0  503 -0.55646024447E+01 -0.13239504815E+02 -0.24753148676E+02  0.28617610967E+02  0.00000000000E+00 0. -1.
<mgrwt>
<rscale>  0 0.10806022E+04</rscale>
<asrwt>0</asrwt>
<pdfrwt beam="1">  1        3 0.67564569E-01 0.10806022E+04</pdfrwt>
<pdfrwt beam="2">  1       -4 0.10226475E+00 0.10806022E+04</pdfrwt>
<totfact> 0.37443495E+00</totfact>
</mgrwt>
</event>
<event>
12    4  0.4381187E-008  0.1821919E+04  0.7818608E-02  0.8694729E-01
         -2   -1    0    0    0  501 -0.00000000000E+00  0.00000000000E+00  0.27423263073E+03  0.27423263073E+03  0.00000000000E+00 0.  1.
          1   -1    0    0  501    0  0.00000000000E+00 -0.00000000000E+00 -0.30260708791E+04  0.30260708791E+04  0.00000000000E+00 0. -1.
        -24    2    1    2    0    0 -0.18889417705E+03  0.68769918031E+01  0.16157673160E+03  0.26121750716E+03  0.79995266815E+02 0.  0.
        254    2    1    2    0    0  0.18889417705E+03 -0.68769918031E+01 -0.29134149799E+04  0.30390860026E+04  0.84399560598E+03 0.  0.
         23    2    4    4    0    0  0.42184004977E+03 -0.11042972963E+03 -0.25329869270E+04  0.25719946570E+04  0.94815558616E+02 0.  0.
         23    2    4    4    0    0 -0.23294587272E+03  0.10355273783E+03 -0.38042805289E+03  0.46709134565E+03  0.91988437463E+02 0.  0.
          3    1    3    3  502    0 -0.44814915833E+02 -0.31715639175E+02  0.31431331260E+02  0.63262840864E+02  0.00000000000E+00 0. -1.
         -4    1    3    3    0  502 -0.14407926122E+03  0.38592630978E+02  0.13014540034E+03  0.19795466630E+03  0.00000000000E+00 0.  1.
         11    1    5    5    0    0  0.24906174526E+03 -0.26276652447E+02 -0.15925241479E+04  0.16120965781E+04  0.00000000000E+00 0.  1.
        -11    1    5    5    0    0  0.17277830451E+03 -0.84153077183E+02 -0.94046277912E+03  0.95989807887E+03  0.00000000000E+00 0. -1.
          2    1    6    6  503    0 -0.89733527207E+02  0.22821372295E+02 -0.21392637583E+03  0.23310387216E+03  0.00000000000E+00 0. -1.
         -2    1    6    6    0  503 -0.14321234551E+03  0.80731365533E+02 -0.16650167706E+03  0.23398747349E+03  0.00000000000E+00 0.  1.
<mgrwt>
<rscale>  0 0.18219192E+04</rscale>
<asrwt>0</asrwt>
<pdfrwt beam="1">  1        1 0.46554939E+00 0.18219192E+04</pdfrwt>
<pdfrwt beam="2">  1       -2 0.42189634E-01 0.18219192E+04</pdfrwt>
<totfact> 0.25279140E+00</totfact>
</mgrwt>
</event>
<event>
12    4  0.4381187E-008  0.1411678E+04  0.7818608E-02  0.8945409E-01
         -2   -1    0    0    0  501 -0.00000000000E+00  0.00000000000E+00  0.18803246953E+03  0.18803246953E+03  0.00000000000E+00 0.  1.
          1   -1    0    0  501    0  0.00000000000E+00 -0.00000000000E+00 -0.26495877440E+04  0.26495877440E+04  0.00000000000E+00 0. -1.
        -24    2    1    2    0    0 -0.16991646476E+03  0.16033032333E+03 -0.14103793443E+04  0.14319260504E+04  0.81638848695E+02 0.  0.
        254    2    1    2    0    0  0.16991646476E+03 -0.16033032333E+03 -0.10511759302E+04  0.14056941631E+04  0.90356395807E+03 0.  0.
         23    2    4    4    0    0  0.35351145482E+02 -0.11792839246E+03  0.13628793275E+03  0.20639036180E+03  0.94158226394E+02 0.  0.
         23    2    4    4    0    0  0.13456531928E+03 -0.42401930875E+02 -0.11874638629E+04  0.11993038013E+04  0.91397117404E+02 0.  0.
          3    1    3    3  502    0 -0.16633336862E+03  0.15950222475E+03 -0.14094055583E+04  0.14281217654E+04  0.00000000000E+00 0. -1.
         -4    1    3    3    0  502 -0.35830961480E+01  0.82809858242E+00 -0.97378599792E+00  0.38042850101E+01  0.00000000000E+00 0.  1.
         11    1    5    5    0    0  0.27517479643E+02 -0.81335524709E+02  0.25678180774E+02  0.89621695105E+02  0.00000000000E+00 0. -1.
        -11    1    5    5    0    0  0.78336658396E+01 -0.36592867748E+02  0.11060975197E+03  0.11676866670E+03  0.00000000000E+00 0.  1.
          2    1    6    6  503    0  0.46561602962E+02 -0.16899131177E+02 -0.78416595329E+03  0.78572883732E+03  0.00000000000E+00 0. -1.
         -2    1    6    6    0  503  0.88003716320E+02 -0.25502799698E+02 -0.40329790966E+03  0.41357496396E+03  0.00000000000E+00 0.  1.
<mgrwt>
<rscale>  0 0.14116778E+04</rscale>
<asrwt>0</asrwt>
<pdfrwt beam="1">  1        1 0.40762887E+00 0.14116778E+04</pdfrwt>
<pdfrwt beam="2">  1       -2 0.28928073E-01 0.14116778E+04</pdfrwt>
<totfact> 0.10042124E+01</totfact>
</mgrwt>
</event>
<event>
12    4  0.4381187E-008  0.1928189E+04  0.7818608E-02  0.8640951E-01
         -2   -1    0    0    0  501 -0.00000000000E+00  0.00000000000E+00  0.58986373585E+03  0.58986373585E+03  0.00000000000E+00 0.  1.
          1   -1    0    0  501    0  0.00000000000E+00 -0.00000000000E+00 -0.15757509160E+04  0.15757509160E+04  0.00000000000E+00 0. -1.
        -24    2    1    2    0    0 -0.49682396957E+03 -0.60152827468E+02  0.24386830360E+03  0.56220017037E+03  0.78389174408E+02 0.  0.
        254    2    1    2    0    0  0.49682396957E+03  0.60152827468E+02 -0.12297554838E+04  0.16034144815E+04  0.89899223036E+03 0.  0.
         23    2    4    4    0    0  0.50288973400E+02 -0.29722123675E+03 -0.86162830617E+03  0.91740995052E+03  0.91478056953E+02 0.  0.
         23    2    4    4    0    0  0.44653499617E+03  0.35737406422E+03 -0.36812717761E+03  0.68600453099E+03  0.89302144816E+02 0.  0.
          3    1    3    3  502    0 -0.44187541579E+03 -0.46674078979E+02  0.18730854268E+03  0.48220000300E+03  0.00000000000E+00 0. -1.
         -4    1    3    3    0  502 -0.54948553776E+02 -0.13478748489E+02  0.56559760922E+02  0.80000167365E+02  0.00000000000E+00 0.  1.
         11    1    5    5    0    0  0.10985719875E+02 -0.19756872853E+03 -0.66089591676E+03  0.68988223728E+03  0.00000000000E+00 0.  1.
        -11    1    5    5    0    0  0.39303253526E+02 -0.99652508219E+02 -0.20073238941E+03  0.22752771324E+03  0.00000000000E+00 0. -1.
          3    1    6    6  503    0  0.63983859676E+02  0.77938502707E+02 -0.98237358470E+02  0.14077969705E+03  0.00000000000E+00 0. -1.
         -3    1    6    6    0  503  0.38255113649E+03  0.27943556151E+03 -0.26988981914E+03  0.54522483394E+03  0.00000000000E+00 0.  1.
<mgrwt>
<rscale>  0 0.19281891E+04</rscale>
<asrwt>0</asrwt>
<pdfrwt beam="1">  1        1 0.24242322E+00 0.19281891E+04</pdfrwt>
<pdfrwt beam="2">  1       -2 0.90748268E-01 0.19281891E+04</pdfrwt>
<totfact> 0.49253603E+00</totfact>
</mgrwt>
</event>
<event>
12    4  0.4381187E-008  0.1494658E+04  0.7818608E-02  0.8888013E-01
         -2   -1    0    0    0  501 -0.00000000000E+00  0.00000000000E+00  0.26491579368E+03  0.26491579368E+03  0.00000000000E+00 0.  1.
          1   -1    0    0  501    0  0.00000000000E+00 -0.00000000000E+00 -0.21082198200E+04  0.21082198200E+04  0.00000000000E+00 0. -1.
        -24    2    1    2    0    0  0.16753281144E+03 -0.18091954794E+03  0.38804192063E+02  0.26204668244E+03  0.79772004632E+02 0.  0.
        254    2    1    2    0    0 -0.16753281144E+03  0.18091954794E+03 -0.18821082184E+04  0.21110889313E+04  0.92388635891E+03 0.  0.
         23    2    4    4    0    0 -0.48808974036E+03  0.13161003438E+03 -0.15676791585E+04  0.16497658028E+04  0.92501159428E+02 0.  0.
         23    2    4    4    0    0  0.32055692892E+03  0.49309513555E+02 -0.31442905996E+03  0.46132312846E+03  0.93622765891E+02 0.  0.
          3    1    3    3  502    0  0.55071981435E+02 -0.15846957272E+02 -0.51146872289E+01  0.57534417695E+02  0.00000000000E+00 0. -1.
         -4    1    3    3    0  502  0.11246083000E+03 -0.16507259067E+03  0.43918879292E+02  0.20451226475E+03  0.00000000000E+00 0.  1.
         11    1    5    5    0    0 -0.13972946018E+03  0.39994634238E+02 -0.59613820486E+03  0.61359974910E+03  0.00000000000E+00 0. -1.
        -11    1    5    5    0    0 -0.34836028017E+03  0.91615400145E+02 -0.97154095359E+03  0.10361660537E+04  0.00000000000E+00 0.  1.
          3    1    6    6  503    0  0.34365472718E+01 -0.28941262525E+01  0.59955952519E+01  0.74921950283E+01  0.00000000000E+00 0. -1.
         -3    1    6    6    0  503  0.31712038165E+03  0.52203639808E+02 -0.32042465521E+03  0.45383093343E+03  0.00000000000E+00 0.  1.
<mgrwt>
<rscale>  0 0.14946581E+04</rscale>
<asrwt>0</asrwt>
<pdfrwt beam="1">  1        1 0.32434152E+00 0.14946581E+04</pdfrwt>
<pdfrwt beam="2">  1       -2 0.40756275E-01 0.14946581E+04</pdfrwt>
<totfact> 0.12197457E+01</totfact>
</mgrwt>
</event>
<event>
12    4  0.4381187E-008  0.2563734E+04  0.7818608E-02  0.8380625E-01
         -2   -1    0    0    0  501 -0.00000000000E+00  0.00000000000E+00  0.14036522106E+04  0.14036522106E+04  0.00000000000E+00 0.  1.
          1   -1    0    0  501    0  0.00000000000E+00 -0.00000000000E+00 -0.11706485797E+04  0.11706485797E+04  0.00000000000E+00 0. -1.
        -24    2    1    2    0    0 -0.95116757864E+03  0.34903550377E+03  0.49119283102E+03  0.11307723783E+04  0.10406838495E+03 0.  0.
        254    2    1    2    0    0  0.95116757864E+03 -0.34903550377E+03 -0.25818920014E+03  0.14435284120E+04  0.99527235849E+03 0.  0.
         23    2    4    4    0    0  0.55521091883E+02 -0.23481892550E+03  0.28551160558E+03  0.38564821968E+03  0.94790046979E+02 0.  0.
         23    2    4    4    0    0  0.89564648676E+03 -0.11421657827E+03 -0.54370080572E+03  0.10578801923E+04  0.90949871421E+02 0.  0.
          1    1    3    3  502    0 -0.40834992594E+03  0.13936093281E+03  0.15342529183E+03  0.45794153751E+03  0.00000000000E+00 0. -1.
         -2    1    3    3    0  502 -0.54281765270E+03  0.20967457095E+03  0.33776753918E+03  0.67283084079E+03  0.00000000000E+00 0.  1.
         11    1    5    5    0    0  0.56917968644E+01  0.29199026837E+01  0.39174907599E+02  0.39693774935E+02  0.00000000000E+00 0.  1.
        -11    1    5    5    0    0  0.49829295019E+02 -0.23773882818E+03  0.24633669799E+03  0.34595444475E+03  0.00000000000E+00 0. -1.
          4    1    6    6  503    0  0.34986153010E+03 -0.15772401243E+02 -0.17137589132E+03  0.38989941653E+03  0.00000000000E+00 0. -1.
         -4    1    6    6    0  503  0.54578495665E+03 -0.98444177026E+02 -0.37232491440E+03  0.66798077576E+03  0.00000000000E+00 0.  1.
<mgrwt>
<rscale>  0 0.25637344E+04</rscale>
<asrwt>0</asrwt>
<pdfrwt beam="1">  1        1 0.18009978E+00 0.25637344E+04</pdfrwt>
<pdfrwt beam="2">  1       -2 0.21594649E+00 0.25637344E+04</pdfrwt>
<totfact> 0.91302900E-01</totfact>
</mgrwt>
</event>
<event>
12    4  0.4381187E-008  0.1472825E+04  0.7818608E-02  0.8902728E-01
          1   -1    0    0  501    0  0.00000000000E+00  0.00000000000E+00  0.63262960360E+03  0.63262960360E+03  0.00000000000E+00 0. -1.
         -2   -1    0    0    0  501 -0.00000000000E+00 -0.00000000000E+00 -0.85722056657E+03  0.85722056657E+03  0.00000000000E+00 0.  1.
        -24    2    1    2    0    0 -0.22737622485E+03  0.10736376136E+03 -0.45796816796E+03  0.52854377903E+03  0.79979738740E+02 0.  0.
        254    2    1    2    0    0  0.22737622485E+03 -0.10736376136E+03  0.23337720499E+03  0.96130639114E+03  0.89800786910E+03 0.  0.
         23    2    4    4    0    0  0.27173294734E+03  0.33094468849E+03  0.26327034723E+03  0.51092407947E+03  0.91482007766E+02 0.  0.
         23    2    4    4    0    0 -0.44356722490E+02 -0.43830844985E+03 -0.29893142242E+02  0.45038231167E+03  0.88706316990E+02 0.  0.
          1    1    3    3  502    0 -0.40919647205E+02 -0.11692877486E+02 -0.78781830218E+02  0.89541709185E+02  0.00000000000E+00 0. -1.
         -2    1    3    3    0  502 -0.18645657764E+03  0.11905663884E+03 -0.37918633775E+03  0.43900206985E+03  0.00000000000E+00 0.  1.
         11    1    5    5    0    0  0.68490775684E+02  0.38349018925E+02  0.25200715603E+02  0.82442159561E+02  0.00000000000E+00 0.  1.
        -11    1    5    5    0    0  0.20324217165E+03  0.29259566957E+03  0.23806963163E+03  0.42848191991E+03  0.00000000000E+00 0. -1.
          3    1    6    6  503    0 -0.11160834591E+02 -0.37445029456E+03 -0.43508605560E+02  0.37713470548E+03  0.00000000000E+00 0. -1.
         -3    1    6    6    0  503 -0.33195887900E+02 -0.63858155290E+02  0.13615463319E+02  0.73247606186E+02  0.00000000000E+00 0.  1.
<mgrwt>
<rscale>  0 0.14728246E+04</rscale>
<asrwt>0</asrwt>
<pdfrwt beam="1">  1        1 0.97327631E-01 0.14728246E+04</pdfrwt>
<pdfrwt beam="2">  1       -2 0.13188009E+00 0.14728246E+04</pdfrwt>
<totfact> 0.11259533E+01</totfact>
</mgrwt>
</event>
<event>
12    4  0.4381187E-008  0.1510426E+04  0.7818608E-02  0.8877549E-01
         -2   -1    0    0    0  501 -0.00000000000E+00  0.00000000000E+00  0.10422740111E+04  0.10422740111E+04  0.00000000000E+00 0.  1.
          1   -1    0    0  501    0  0.00000000000E+00 -0.00000000000E+00 -0.54721365862E+03  0.54721365862E+03  0.00000000000E+00 0. -1.
        -24    2    1    2    0    0 -0.35411656400E+03 -0.24876477950E+03 -0.71710968290E+02  0.44587773648E+03  0.79887649211E+02 0.  0.
        254    2    1    2    0    0  0.35411656400E+03  0.24876477950E+03  0.56677132075E+03  0.11436099332E+04  0.89405340607E+03 0.  0.
         23    2    4    4    0    0  0.52733929816E+02  0.50383601867E+03  0.97694895020E+02  0.52375475517E+03  0.90239403752E+02 0.  0.
         23    2    4    4    0    0  0.30138263419E+03 -0.25507123916E+03  0.46907642573E+03  0.61985517805E+03  0.91076447795E+02 0.  0.
          1    1    3    3  502    0 -0.34336008952E+03 -0.22088023671E+03 -0.55939111039E+02  0.41208423191E+03  0.00000000000E+00 0. -1.
         -2    1    3    3    0  502 -0.10756474480E+02 -0.27884542798E+02 -0.15771857252E+02  0.33793504575E+02  0.00000000000E+00 0.  1.
         11    1    5    5    0    0  0.47198322774E+02  0.11007866511E+03  0.36667833493E+02  0.12525783089E+03  0.00000000000E+00 0. -1.
        -11    1    5    5    0    0  0.55356070421E+01  0.39375735355E+03  0.61027061528E+02  0.39849692428E+03  0.00000000000E+00 0.  1.
          1    1    6    6  503    0 -0.62569981388E+01 -0.19973357557E+01  0.10832730165E+02  0.12668362903E+02  0.00000000000E+00 0. -1.
         -1    1    6    6    0  503  0.30763963233E+03 -0.25307390341E+03  0.45824369556E+03  0.60718681515E+03  0.00000000000E+00 0.  1.
<mgrwt>
<rscale>  0 0.15104259E+04</rscale>
<asrwt>0</asrwt>
<pdfrwt beam="1">  1        1 0.84186717E-01 0.15104259E+04</pdfrwt>
<pdfrwt beam="2">  1       -2 0.16034985E+00 0.15104259E+04</pdfrwt>
<totfact> 0.82653103E+00</totfact>
</mgrwt>
</event>
<event>
12    4  0.4381187E-008  0.1570389E+04  0.7818608E-02  0.8838948E-01
         -4   -1    0    0    0  501 -0.00000000000E+00  0.00000000000E+00  0.13925982637E+04  0.13925982637E+04  0.00000000000E+00 0.  1.
          1   -1    0    0  501    0  0.00000000000E+00 -0.00000000000E+00 -0.44271957759E+03  0.44271957759E+03  0.00000000000E+00 0. -1.
        -24    2    1    2    0    0  0.17680966564E+03  0.48877197449E+03  0.33463031206E+03  0.62346664423E+03  0.81077184273E+02 0.  0.
        254    2    1    2    0    0 -0.17680966564E+03 -0.48877197449E+03  0.61524837404E+03  0.12118511970E+04  0.90547946477E+03 0.  0.
         23    2    4    4    0    0  0.14295158278E+03 -0.64220473243E+03  0.30101190613E+03  0.72945679740E+03  0.92935344518E+02 0.  0.
         23    2    4    4    0    0 -0.31976124842E+03  0.15343275794E+03  0.31423646792E+03  0.48239439965E+03  0.90393206864E+02 0.  0.
          1    1    3    3  502    0  0.17406832462E+03  0.48132772507E+03  0.33946513460E+03  0.61417647152E+03  0.00000000000E+00 0. -1.
         -2    1    3    3    0  502  0.27413410159E+01  0.74442494143E+01 -0.48348225425E+01  0.92901727069E+01  0.00000000000E+00 0.  1.
         11    1    5    5    0    0  0.64777142927E+02 -0.14233315148E+03  0.96372146738E+02  0.18369103114E+03  0.00000000000E+00 0. -1.
        -11    1    5    5    0    0  0.78174439852E+02 -0.49987158095E+03  0.20463975939E+03  0.54576576625E+03  0.00000000000E+00 0.  1.
          4    1    6    6  503    0 -0.26100945181E+03  0.85147384829E+02  0.21795481131E+03  0.35054288019E+03  0.00000000000E+00 0. -1.
         -4    1    6    6    0  503 -0.58751796609E+02  0.68285373114E+02  0.96281656610E+02  0.13185151947E+03  0.00000000000E+00 0.  1.
<mgrwt>
<rscale>  0 0.15703891E+04</rscale>
<asrwt>0</asrwt>
<pdfrwt beam="1">  1        1 0.68110705E-01 0.15703891E+04</pdfrwt>
<pdfrwt beam="2">  1       -4 0.21424588E+00 0.15703891E+04</pdfrwt>
<totfact> 0.25521281E+00</totfact>
</mgrwt>
</event>
<event>
12    4  0.4381187E-008  0.1345240E+04  0.7818608E-02  0.8994439E-01
         -2   -1    0    0    0  501 -0.00000000000E+00  0.00000000000E+00  0.45855890126E+03  0.45855890126E+03  0.00000000000E+00 0.  1.
          1   -1    0    0  501    0  0.00000000000E+00 -0.00000000000E+00 -0.98660789456E+03  0.98660789456E+03  0.00000000000E+00 0. -1.
        -24    2    1    2    0    0 -0.18095443829E+03  0.12434579045E+03  0.16711290596E+03  0.28724951702E+03  0.79869752411E+02 0.  0.
        254    2    1    2    0    0  0.18095443829E+03 -0.12434579045E+03 -0.69516189926E+03  0.11579172788E+04  0.89961990531E+03 0.  0.
         23    2    4    4    0    0 -0.35519509717E+03 -0.90556140693E+02 -0.23908911627E+03  0.44732030408E+03  0.92562828665E+02 0.  0.
         23    2    4    4    0    0  0.53614953546E+03 -0.33789649761E+02 -0.45607278299E+03  0.71059697473E+03  0.91365268570E+02 0.  0.
          1    1    3    3  502    0 -0.72393962847E+02  0.24384604414E+02  0.20199130484E+02  0.79015819058E+02  0.00000000000E+00 0. -1.
         -2    1    3    3    0  502 -0.10856047544E+03  0.99961186040E+02  0.14691377548E+03  0.20823369796E+03  0.00000000000E+00 0.  1.
         11    1    5    5    0    0 -0.58466133604E+02 -0.42674982436E+02 -0.77594536575E+02  0.10611481994E+03  0.00000000000E+00 0.  1.
        -11    1    5    5    0    0 -0.29672896357E+03 -0.47881158257E+02 -0.16149457969E+03  0.34120548414E+03  0.00000000000E+00 0. -1.
          2    1    6    6  503    0  0.19866035640E+03  0.28417589720E+02 -0.14704236975E+03  0.24878696733E+03  0.00000000000E+00 0.  1.
         -2    1    6    6    0  503  0.33748917906E+03 -0.62207239481E+02 -0.30903041324E+03  0.46181000740E+03  0.00000000000E+00 0. -1.
<mgrwt>
<rscale>  0 0.13452402E+04</rscale>
<asrwt>0</asrwt>
<pdfrwt beam="1">  1        1 0.15178583E+00 0.13452402E+04</pdfrwt>
<pdfrwt beam="2">  1       -2 0.70547524E-01 0.13452402E+04</pdfrwt>
<totfact> 0.24319694E+01</totfact>
</mgrwt>
</event>
<event>
12    4  0.4381187E-008  0.3620959E+04  0.7818608E-02  0.8085708E-01
          1   -1    0    0  501    0  0.00000000000E+00  0.00000000000E+00  0.28969701274E+04  0.28969701274E+04  0.00000000000E+00 0. -1.
         -2   -1    0    0    0  501 -0.00000000000E+00 -0.00000000000E+00 -0.11314704736E+04  0.11314704736E+04  0.00000000000E+00 0.  1.
        -24    2    1    2    0    0  0.43754657150E+02 -0.12359908323E+04  0.21236269337E+04  0.24587308795E+04  0.77319962661E+02 0.  0.
        254    2    1    2    0    0 -0.43754657150E+02  0.12359908323E+04 -0.35812727994E+03  0.15697097214E+04  0.89785614279E+03 0.  0.
         23    2    4    4    0    0 -0.28151126876E+03  0.11538660623E+04 -0.96254482337E+02  0.11952505130E+04  0.93291904538E+02 0.  0.
         23    2    4    4    0    0  0.23775661161E+03  0.82124770090E+02 -0.26187279760E+03  0.37445920838E+03  0.91485804302E+02 0.  0.
          3    1    3    3  502    0  0.13637519088E+02 -0.30434883097E+03  0.45928849998E+03  0.55114437224E+03  0.00000000000E+00 0. -1.
         -4    1    3    3    0  502  0.30117138061E+02 -0.93164200138E+03  0.16643384337E+04  0.19075865073E+04  0.00000000000E+00 0.  1.
         11    1    5    5    0    0  0.25270153959E+01  0.52214321383E+00 -0.27501557388E+01  0.37711797801E+01  0.00000000000E+00 0.  1.
        -11    1    5    5    0    0 -0.28403828415E+03  0.11533439190E+04 -0.93504326599E+02  0.11914793332E+04  0.00000000000E+00 0. -1.
          4    1    6    6  503    0  0.62669101910E+02  0.16074379171E+02 -0.18175073356E+02  0.67202197073E+02  0.00000000000E+00 0.  1.
         -4    1    6    6    0  503  0.17508750970E+03  0.66050390919E+02 -0.24369772425E+03  0.30725701130E+03  0.00000000000E+00 0. -1.
<mgrwt>
<rscale>  0 0.36209591E+04</rscale>
<asrwt>0</asrwt>
<pdfrwt beam="1">  1        1 0.44568771E+00 0.36209591E+04</pdfrwt>
<pdfrwt beam="2">  1       -2 0.17407238E+00 0.36209591E+04</pdfrwt>
<totfact> 0.10065348E-01</totfact>
</mgrwt>
</event>
<event>
12    4  0.4381187E-008  0.1751544E+04  0.7818608E-02  0.8732501E-01
          1   -1    0    0  501    0  0.00000000000E+00  0.00000000000E+00  0.67828678271E+03  0.67828678271E+03  0.00000000000E+00 0. -1.
         -2   -1    0    0    0  501 -0.00000000000E+00 -0.00000000000E+00 -0.11307560700E+04  0.11307560700E+04  0.00000000000E+00 0.  1.
        -24    2    1    2    0    0 -0.49527003156E+03 -0.10719777605E+03  0.24711039767E+03  0.56899586159E+03  0.76869854358E+02 0.  0.
        254    2    1    2    0    0  0.49527003156E+03  0.10719777605E+03 -0.69957968496E+03  0.12400469911E+04  0.88967468056E+03 0.  0.
         23    2    4    4    0    0  0.64724884949E+03  0.32751566372E+03 -0.42367503900E+03  0.84501022599E+03  0.91346374890E+02 0.  0.
         23    2    4    4    0    0 -0.15197881793E+03 -0.22031788768E+03 -0.27590464596E+03  0.39503676513E+03  0.91066675650E+02 0.  0.
          3    1    3    3  502    0 -0.18454901666E+03 -0.74365119094E+02  0.11455748395E+03  0.22959078295E+03  0.00000000000E+00 0. -1.
         -4    1    3    3    0  502 -0.31072101490E+03 -0.32832656953E+02  0.13255291373E+03  0.33940507863E+03  0.00000000000E+00 0.  1.
         11    1    5    5    0    0  0.32840263414E+03  0.11505752747E+03 -0.20264827943E+03  0.40268207049E+03  0.00000000000E+00 0. -1.
        -11    1    5    5    0    0  0.31884621535E+03  0.21245813625E+03 -0.22102675957E+03  0.44232815550E+03  0.00000000000E+00 0.  1.
          1    1    6    6  503    0 -0.43745599380E+01 -0.27911683825E+02 -0.73829405943E+00  0.28262058430E+02  0.00000000000E+00 0. -1.
         -1    1    6    6    0  503 -0.14760425799E+03 -0.19240620385E+03 -0.27516635190E+03  0.36677470670E+03  0.00000000000E+00 0.  1.
<mgrwt>
<rscale>  0 0.17515443E+04</rscale>
<asrwt>0</asrwt>
<pdfrwt beam="1">  1        1 0.10435181E+00 0.17515443E+04</pdfrwt>
<pdfrwt beam="2">  1       -2 0.17396247E+00 0.17515443E+04</pdfrwt>
<totfact> 0.47337592E+00</totfact>
</mgrwt>
</event>
<event>
12    4  0.4661324E-008  0.2301812E+04  0.7818608E-02  0.8477207E-01
          1   -1    0    0  501    0  0.00000000000E+00  0.00000000000E+00  0.22627350067E+04  0.22627350067E+04  0.00000000000E+00 0. -1.
         -2   -1    0    0    0  501 -0.00000000000E+00 -0.00000000000E+00 -0.58539111807E+03  0.58539111807E+03  0.00000000000E+00 0.  1.
        -24    2    1    2    0    0  0.19024639377E+03  0.91465227521E+03  0.10376420703E+04  0.13985986951E+04  0.81208183520E+02 0.  0.
        254    2    1    2    0    0 -0.19024639377E+03 -0.91465227521E+03  0.63970181833E+03  0.14495274296E+04  0.90505738935E+03 0.  0.
         23    2    4    4    0    0  0.15700800338E+02 -0.91325754901E+03  0.76152444222E+03  0.11927339339E+04  0.91700026880E+02 0.  0.
         23    2    4    4    0    0 -0.20594719411E+03 -0.13947262024E+01 -0.12182262389E+03  0.25679349578E+03  0.93198475097E+02 0.  0.
          3    1    3    3  502    0  0.16671231267E+03  0.80409124182E+03  0.86945282642E+03  0.11959531503E+04  0.00000000000E+00 0. -1.
         -4    1    3    3    0  502  0.23534081099E+02  0.11056103339E+03  0.16818924390E+03  0.20264554483E+03  0.00000000000E+00 0.  1.
         11    1    5    5    0    0 -0.14486009522E+02 -0.62817737951E+02  0.32564557890E+02  0.72224394105E+02  0.00000000000E+00 0. -1.
        -11    1    5    5    0    0  0.30186809860E+02 -0.85043981105E+03  0.72895988433E+03  0.11205095398E+04  0.00000000000E+00 0.  1.
          4    1    6    6  503    0 -0.15393699365E+03 -0.38720456865E+02 -0.10593020625E+03  0.19083259782E+03  0.00000000000E+00 0.  1.
         -4    1    6    6    0  503 -0.52010200461E+02  0.37325730663E+02 -0.15892417640E+02  0.65960897962E+02  0.00000000000E+00 0. -1.
<mgrwt>
<rscale>  0 0.23018123E+04</rscale>
<asrwt>0</asrwt>
<pdfrwt beam="1">  1        1 0.34811307E+00 0.23018123E+04</pdfrwt>
<pdfrwt beam="2">  1       -2 0.90060173E-01 0.23018123E+04</pdfrwt>
<totfact> 0.16538218E+00</totfact>
</mgrwt>
</event>
<event>
12    4  0.4381187E-008  0.2107213E+04  0.7818608E-02  0.8558072E-01
         -2   -1    0    0    0  501 -0.00000000000E+00  0.00000000000E+00  0.58434302624E+03  0.58434302624E+03  0.00000000000E+00 0.  1.
          1   -1    0    0  501    0  0.00000000000E+00 -0.00000000000E+00 -0.18997182535E+04  0.18997182535E+04  0.00000000000E+00 0. -1.
        -24    2    1    2    0    0 -0.67686938385E+03  0.38099787928E+03 -0.98517905456E+03  0.12570620856E+04  0.79471823273E+02 0.  0.
        254    2    1    2    0    0  0.67686938385E+03 -0.38099787928E+03 -0.33019617268E+03  0.12269991941E+04  0.89060988266E+03 0.  0.
         23    2    4    4    0    0  0.22256929365E+03  0.12122303888E+03  0.22116755577E+03  0.34890827871E+03  0.92681085412E+02 0.  0.
         23    2    4    4    0    0  0.45430009020E+03 -0.50222091816E+03 -0.55136372845E+03  0.87809091541E+03  0.91800174697E+02 0.  0.
          1    1    3    3  502    0 -0.64252201087E+03  0.34027189198E+03 -0.90667362892E+03  0.11621861143E+04  0.00000000000E+00 0. -1.
         -2    1    3    3    0  502 -0.34347372979E+02  0.40725987302E+02 -0.78505425636E+02  0.94875971281E+02  0.00000000000E+00 0.  1.
         11    1    5    5    0    0  0.13784336750E+03  0.52569304568E+02  0.72078218008E+02  0.16419377351E+03  0.00000000000E+00 0.  1.
        -11    1    5    5    0    0  0.84725926150E+02  0.68653734313E+02  0.14908933776E+03  0.18471450520E+03  0.00000000000E+00 0. -1.
          3    1    6    6  503    0  0.29417058899E+03 -0.26100414223E+03 -0.29919329085E+03  0.49414180452E+03  0.00000000000E+00 0. -1.
         -3    1    6    6    0  503  0.16012950121E+03 -0.24121677593E+03 -0.25217043760E+03  0.38394911088E+03  0.00000000000E+00 0.  1.
<mgrwt>
<rscale>  0 0.21072134E+04</rscale>
<asrwt>0</asrwt>
<pdfrwt beam="1">  1        1 0.29226435E+00 0.21072134E+04</pdfrwt>
<pdfrwt beam="2">  1       -2 0.89898927E-01 0.21072134E+04</pdfrwt>
<totfact> 0.29810578E+00</totfact>
</mgrwt>
</event>
<event>
12    4  0.4381187E-008  0.1249009E+04  0.7818608E-02  0.9071008E-01
          1   -1    0    0  501    0  0.00000000000E+00  0.00000000000E+00  0.19426716227E+04  0.19426716227E+04  0.00000000000E+00 0. -1.
         -2   -1    0    0    0  501 -0.00000000000E+00 -0.00000000000E+00 -0.20075758783E+03  0.20075758783E+03  0.00000000000E+00 0.  1.
        -24    2    1    2    0    0 -0.20486843215E+02  0.39802596136E+02 -0.76179351554E+02  0.11365470469E+03  0.71485249470E+02 0.  0.
        254    2    1    2    0    0  0.20486843215E+02 -0.39802596136E+02  0.18180933865E+04  0.20297745059E+04  0.90139726282E+03 0.  0.
         23    2    4    4    0    0  0.98957394280E+02 -0.45083604621E+03  0.85529181215E+03  0.97600038606E+03  0.89481636176E+02 0.  0.
         23    2    4    4    0    0 -0.78470551066E+02  0.41103345007E+03  0.96280157432E+03  0.10537741198E+04  0.91361368446E+02 0.  0.
          1    1    3    3  502    0  0.10738309595E+02  0.11626629362E+02  0.93225537381E+01  0.18368446082E+02  0.00000000000E+00 0. -1.
         -2    1    3    3    0  502 -0.31225152809E+02  0.28175966774E+02 -0.85501905293E+02  0.95286258612E+02  0.00000000000E+00 0.  1.
         11    1    5    5    0    0  0.62993900324E+02 -0.39717484690E+03  0.69149775438E+03  0.79992826854E+03  0.00000000000E+00 0. -1.
        -11    1    5    5    0    0  0.35963493957E+02 -0.53661199308E+02  0.16379405777E+03  0.17607211752E+03  0.00000000000E+00 0.  1.
          1    1    6    6  503    0 -0.85387713893E+02  0.41124233289E+03  0.93303003812E+03  0.10232088595E+04  0.00000000000E+00 0. -1.
         -1    1    6    6    0  503  0.69171628275E+01 -0.20888281856E+00  0.29771536201E+02  0.30565260368E+02  0.00000000000E+00 0.  1.
<mgrwt>
<rscale>  0 0.12490093E+04</rscale>
<asrwt>0</asrwt>
<pdfrwt beam="1">  1        1 0.29887254E+00 0.12490093E+04</pdfrwt>
<pdfrwt beam="2">  1       -2 0.30885784E-01 0.12490093E+04</pdfrwt>
<totfact> 0.27435147E+01</totfact>
</mgrwt>
</event>
<event>
12    4  0.4381187E-008  0.1698951E+04  0.7818608E-02  0.8761963E-01
         -2   -1    0    0    0  501 -0.00000000000E+00  0.00000000000E+00  0.72696492389E+03  0.72696492389E+03  0.00000000000E+00 0.  1.
          1   -1    0    0  501    0  0.00000000000E+00 -0.00000000000E+00 -0.99263191302E+03  0.99263191302E+03  0.00000000000E+00 0. -1.
        -24    2    1    2    0    0 -0.67861172446E+02  0.12185222796E+03  0.49876802607E+03  0.52381980176E+03  0.78514563638E+02 0.  0.
        254    2    1    2    0    0  0.67861172446E+02 -0.12185222796E+03 -0.76443501520E+03  0.11957770351E+04  0.90888322744E+03 0.  0.
         23    2    4    4    0    0  0.43461511153E+03 -0.12118494447E+02 -0.64995788490E+03  0.78741804916E+03  0.92437973343E+02 0.  0.
         23    2    4    4    0    0 -0.36675393908E+03 -0.10973373351E+03 -0.11447713030E+03  0.40835898599E+03  0.84273981586E+02 0.  0.
          1    1    3    3  502    0  0.16995075951E+02  0.25146347970E+02  0.12082055959E+03  0.12457439160E+03  0.00000000000E+00 0. -1.
         -2    1    3    3    0  502 -0.84856248397E+02  0.96705879988E+02  0.37794746648E+03  0.39924541016E+03  0.00000000000E+00 0.  1.
         11    1    5    5    0    0  0.62123805006E+02  0.27600078609E+02 -0.12823710823E+03  0.14514092261E+03  0.00000000000E+00 0. -1.
        -11    1    5    5    0    0  0.37249130652E+03 -0.39718573055E+02 -0.52172077667E+03  0.64227712655E+03  0.00000000000E+00 0.  1.
          3    1    6    6  503    0  0.24937869349E+01  0.55010417957E+00 -0.82276612365E+01  0.86148707076E+01  0.00000000000E+00 0. -1.
         -3    1    6    6    0  503 -0.36924772601E+03 -0.11028383769E+03 -0.10624946906E+03  0.39974411528E+03  0.00000000000E+00 0.  1.
<mgrwt>
<rscale>  0 0.16989510E+04</rscale>
<asrwt>0</asrwt>
<pdfrwt beam="1">  1        1 0.15271260E+00 0.16989510E+04</pdfrwt>
<pdfrwt beam="2">  1       -2 0.11184076E+00 0.16989510E+04</pdfrwt>
<totfact> 0.80728593E+00</totfact>
</mgrwt>
</event>
<event>
12    4  0.4381187E-008  0.1812382E+04  0.7818608E-02  0.8699743E-01
         -2   -1    0    0    0  501 -0.00000000000E+00  0.00000000000E+00  0.48149600838E+03  0.48149600838E+03  0.00000000000E+00 0.  1.
          1   -1    0    0  501    0  0.00000000000E+00 -0.00000000000E+00 -0.17054798444E+04  0.17054798444E+04  0.00000000000E+00 0. -1.
        -24    2    1    2    0    0 -0.16432363672E+03  0.39509081720E+03  0.17350035808E+03  0.46851486353E+03  0.79402718280E+02 0.  0.
        254    2    1    2    0    0  0.16432363672E+03 -0.39509081720E+03 -0.13974841941E+04  0.17184609893E+04  0.90390657009E+03 0.  0.
         23    2    4    4    0    0 -0.33596999689E+03 -0.15214391263E+03 -0.29724983429E+03  0.48227164095E+03  0.90580697270E+02 0.  0.
         23    2    4    4    0    0  0.50029363361E+03 -0.24294690457E+03 -0.11002343598E+04  0.12361893483E+04  0.91277270502E+02 0.  0.
          3    1    3    3  502    0  0.40709611714E+01  0.34653808489E+02  0.10365431963E+01  0.34907500475E+02  0.00000000000E+00 0. -1.
         -4    1    3    3    0  502 -0.16839459789E+03  0.36043700871E+03  0.17246381488E+03  0.43360736305E+03  0.00000000000E+00 0.  1.
         11    1    5    5    0    0 -0.47955915052E+02 -0.45891044304E+02 -0.21917644266E+02  0.69900936088E+02  0.00000000000E+00 0. -1.
        -11    1    5    5    0    0 -0.28801408184E+03 -0.10625286833E+03 -0.27533219003E+03  0.41237070487E+03  0.00000000000E+00 0.  1.
          1    1    6    6  503    0  0.43161881699E+01  0.53958648496E+01 -0.50756434978E+01  0.85736220298E+01  0.00000000000E+00 0. -1.
         -1    1    6    6    0  503  0.49597744544E+03 -0.24834276942E+03 -0.10951587163E+04  0.12276157263E+04  0.00000000000E+00 0.  1.
<mgrwt>
<rscale>  0 0.18123816E+04</rscale>
<asrwt>0</asrwt>
<pdfrwt beam="1">  1        1 0.26238152E+00 0.18123816E+04</pdfrwt>
<pdfrwt beam="2">  1       -2 0.74076308E-01 0.18123816E+04</pdfrwt>
<totfact> 0.64168305E+00</totfact>
</mgrwt>
</event>
<event>
12    4  0.4381187E-008  0.1540791E+04  0.7818608E-02  0.8857771E-01
         -2   -1    0    0    0  501 -0.00000000000E+00  0.00000000000E+00  0.15421263060E+03  0.15421263060E+03  0.00000000000E+00 0.  1.
          1   -1    0    0  501    0  0.00000000000E+00 -0.00000000000E+00 -0.38486421639E+04  0.38486421639E+04  0.00000000000E+00 0. -1.
        -24    2    1    2    0    0  0.18996498244E+03 -0.23085112562E+03 -0.22246208752E+04  0.22460072671E+04  0.78940920179E+02 0.  0.
        254    2    1    2    0    0 -0.18996498244E+03  0.23085112562E+03 -0.14698086580E+04  0.17568475273E+04  0.91476598439E+03 0.  0.
         23    2    4    4    0    0 -0.25187104998E+03 -0.31102440578E+03 -0.64035248853E+03  0.76010545174E+03  0.86797358165E+02 0.  0.
         23    2    4    4    0    0  0.61906067539E+02  0.54187553140E+03 -0.82945616951E+03  0.99674207557E+03  0.89642486264E+02 0.  0.
          3    1    3    3  502    0  0.12959945357E+03 -0.16623256599E+03 -0.17983711328E+04  0.18106816439E+04  0.00000000000E+00 0. -1.
         -4    1    3    3    0  502  0.60365528864E+02 -0.64618559631E+02 -0.42624974246E+03  0.43532562326E+03  0.00000000000E+00 0.  1.
         11    1    5    5    0    0 -0.19272533104E+03 -0.27389465563E+03 -0.56914487260E+03  0.66036900413E+03  0.00000000000E+00 0. -1.
        -11    1    5    5    0    0 -0.59145718937E+02 -0.37129750150E+02 -0.71207615929E+02  0.99736447607E+02  0.00000000000E+00 0.  1.
          3    1    6    6  503    0  0.42629417853E+02  0.41110711417E+03 -0.55376199411E+03  0.69099831599E+03  0.00000000000E+00 0. -1.
         -3    1    6    6    0  503  0.19276649686E+02  0.13076841723E+03 -0.27569417541E+03  0.30574375958E+03  0.00000000000E+00 0.  1.
<mgrwt>
<rscale>  0 0.15407910E+04</rscale>
<asrwt>0</asrwt>
<pdfrwt beam="1">  1        1 0.59209877E+00 0.15407910E+04</pdfrwt>
<pdfrwt beam="2">  1       -2 0.23725021E-01 0.15407910E+04</pdfrwt>
<totfact> 0.17589360E+00</totfact>
</mgrwt>
</event>
<event>
12    4  0.4381187E-008  0.2828149E+04  0.7818608E-02  0.8294582E-01
         -2   -1    0    0    0  501 -0.00000000000E+00  0.00000000000E+00  0.10576519989E+04  0.10576519989E+04  0.00000000000E+00 0.  1.
          1   -1    0    0  501    0  0.00000000000E+00 -0.00000000000E+00 -0.18906094793E+04  0.18906094793E+04  0.00000000000E+00 0. -1.
        -24    2    1    2    0    0 -0.96905202435E+03  0.51801871747E+03  0.18435719566E+03  0.11169783873E+04  0.79043813868E+02 0.  0.
        254    2    1    2    0    0  0.96905202435E+03 -0.51801871747E+03 -0.10173146761E+04  0.18312830909E+04  0.10541647837E+04 0.  0.
         23    2    4    4    0    0  0.90225526426E+03 -0.66596051382E+00 -0.92105424694E+03  0.12929308462E+04  0.96250932147E+02 0.  0.
         23    2    4    4    0    0  0.66796760098E+02 -0.51735275695E+03 -0.96260429202E+02  0.53835224467E+03  0.91877020115E+02 0.  0.
          3    1    3    3  502    0 -0.56507609220E+03  0.32899448100E+03  0.78417535019E+02  0.65855726273E+03  0.00000000000E+00 0. -1.
         -4    1    3    3    0  502 -0.40397593216E+03  0.18902423647E+03  0.10593966065E+03  0.45842112455E+03  0.00000000000E+00 0.  1.
         11    1    5    5    0    0  0.58670328176E+03 -0.12467360710E+02 -0.53422508111E+03  0.79358214018E+03  0.00000000000E+00 0.  1.
        -11    1    5    5    0    0  0.31555198249E+03  0.11801400196E+02 -0.38682916583E+03  0.49934870605E+03  0.00000000000E+00 0. -1.
          1    1    6    6  503    0  0.86792556179E+02 -0.33229452066E+03 -0.57459384048E+02  0.34821570482E+03  0.00000000000E+00 0. -1.
         -1    1    6    6    0  503 -0.19995796082E+02 -0.18505823630E+03 -0.38801045154E+02  0.19013653985E+03  0.00000000000E+00 0.  1.
<mgrwt>
<rscale>  0 0.28281491E+04</rscale>
<asrwt>0</asrwt>
<pdfrwt beam="1">  1        1 0.29086299E+00 0.28281491E+04</pdfrwt>
<pdfrwt beam="2">  1       -2 0.16271569E+00 0.28281491E+04</pdfrwt>
<totfact> 0.64562058E-01</totfact>
</mgrwt>
</event>
<event>
12    4  0.4381187E-008  0.2041421E+04  0.7818608E-02  0.8587496E-01
          1   -1    0    0  501    0  0.00000000000E+00  0.00000000000E+00  0.75261376379E+03  0.75261376379E+03  0.00000000000E+00 0. -1.
         -2   -1    0    0    0  501 -0.00000000000E+00 -0.00000000000E+00 -0.13843087729E+04  0.13843087729E+04  0.00000000000E+00 0.  1.
        -24    2    1    2    0    0 -0.10996345567E+03 -0.91377965227E+02 -0.10971360111E+04  0.11093845465E+04  0.81146478949E+02 0.  0.
        254    2    1    2    0    0  0.10996345567E+03  0.91377965227E+02  0.46544100195E+03  0.10275379902E+04  0.90485197736E+03 0.  0.
         23    2    4    4    0    0  0.29503735930E+01 -0.43045283509E+02 -0.25867023641E+03  0.27772944994E+03  0.91442632412E+02 0.  0.
         23    2    4    4    0    0  0.10701308208E+03  0.13442324874E+03  0.72411123837E+03  0.74980854028E+03  0.91402144443E+02 0.  0.
          1    1    3    3  502    0 -0.52808551477E+02  0.40230460346E+01 -0.32735907565E+03  0.33161557927E+03  0.00000000000E+00 0. -1.
         -2    1    3    3    0  502 -0.57154904196E+02 -0.95401011262E+02 -0.76977693547E+03  0.77776896724E+03  0.00000000000E+00 0.  1.
         11    1    5    5    0    0  0.62476255333E+01 -0.47365725443E+02 -0.26506551967E+03  0.26933673067E+03  0.00000000000E+00 0. -1.
        -11    1    5    5    0    0 -0.32972519403E+01  0.43204419336E+01  0.63952832548E+01  0.83927192714E+01  0.00000000000E+00 0.  1.
          4    1    6    6  503    0  0.93910996890E+02  0.13602702589E+03  0.71477948436E+03  0.73364319555E+03  0.00000000000E+00 0. -1.
         -4    1    6    6    0  503  0.13102085190E+02 -0.16037771516E+01  0.93317540056E+01  0.16165344732E+02  0.00000000000E+00 0.  1.
<mgrwt>
<rscale>  0 0.20414209E+04</rscale>
<asrwt>0</asrwt>
<pdfrwt beam="1">  1        1 0.11578673E+00 0.20414209E+04</pdfrwt>
<pdfrwt beam="2">  1       -2 0.21297058E+00 0.20414209E+04</pdfrwt>
<totfact> 0.21607028E+00</totfact>
</mgrwt>
</event>
<event>
12    4  0.4381187E-008  0.1770367E+04  0.7818608E-02  0.8722218E-01
          1   -1    0    0  501    0  0.00000000000E+00  0.00000000000E+00  0.60555065357E+03  0.60555065357E+03  0.00000000000E+00 0. -1.
         -2   -1    0    0    0  501 -0.00000000000E+00 -0.00000000000E+00 -0.12939465100E+04  0.12939465100E+04  0.00000000000E+00 0.  1.
        -24    2    1    2    0    0 -0.16734106311E+01  0.30339525178E+03 -0.87669895027E+03  0.93116340803E+03  0.80079734921E+02 0.  0.
        254    2    1    2    0    0  0.16734106311E+01 -0.30339525178E+03  0.18830309379E+03  0.96833375558E+03  0.90008928888E+03 0.  0.
         23    2    4    4    0    0  0.97572118641E+02 -0.57495757049E+03 -0.36844440134E+02  0.59116457552E+03  0.89562918563E+02 0.  0.
         23    2    4    4    0    0 -0.95898708010E+02  0.27156231871E+03  0.22514753393E+03  0.37716918006E+03  0.92857542566E+02 0.  0.
          3    1    3    3  502    0 -0.40317282061E+02  0.12851747548E+03 -0.37552366451E+03  0.39894892824E+03  0.00000000000E+00 0. -1.
         -4    1    3    3    0  502  0.38643871430E+02  0.17487777630E+03 -0.50117528576E+03  0.53221447979E+03  0.00000000000E+00 0.  1.
         11    1    5    5    0    0  0.19155070536E+01 -0.14325000985E+02  0.14051243089E+02  0.20157188614E+02  0.00000000000E+00 0.  1.
        -11    1    5    5    0    0  0.95656611587E+02 -0.56063256951E+03 -0.50895683223E+02  0.57100738691E+03  0.00000000000E+00 0. -1.
          3    1    6    6  503    0 -0.48914534335E+02  0.16431835618E+03  0.18776587611E+03  0.25426202642E+03  0.00000000000E+00 0. -1.
         -3    1    6    6    0  503 -0.46984173674E+02  0.10724396253E+03  0.37381657818E+02  0.12290715364E+03  0.00000000000E+00 0.  1.
<mgrwt>
<rscale>  0 0.17703674E+04</rscale>
<asrwt>0</asrwt>
<pdfrwt beam="1">  1        1 0.93161641E-01 0.17703674E+04</pdfrwt>
<pdfrwt beam="2">  1       -2 0.19906869E+00 0.17703674E+04</pdfrwt>
<totfact> 0.37718910E+00</totfact>
</mgrwt>
</event>
<event>
12    4  0.4381187E-008  0.1124975E+04  0.7818608E-02  0.9181186E-01
         -2   -1    0    0    0  501 -0.00000000000E+00  0.00000000000E+00  0.22261762910E+03  0.22261762910E+03  0.00000000000E+00 0.  1.
          1   -1    0    0  501    0  0.00000000000E+00 -0.00000000000E+00 -0.14212358973E+04  0.14212358973E+04  0.00000000000E+00 0. -1.
        -24    2    1    2    0    0  0.11321764946E+02  0.18001344623E+03 -0.12470544414E+03  0.23286934076E+03  0.78381495768E+02 0.  0.
        254    2    1    2    0    0 -0.11321764946E+02 -0.18001344623E+03 -0.10739128241E+04  0.14109841857E+04  0.89724834649E+03 0.  0.
         23    2    4    4    0    0 -0.15561926817E+03 -0.40194983172E+03 -0.10360291404E+04  0.11259450072E+04  0.92815707111E+02 0.  0.
         23    2    4    4    0    0  0.14429750322E+03  0.22193638548E+03 -0.37883683668E+02  0.28503917852E+03  0.98664234484E+02 0.  0.
          1    1    3    3  502    0 -0.20299930230E+02  0.15406391217E+02 -0.33353999044E+02  0.41975389336E+02  0.00000000000E+00 0. -1.
         -2    1    3    3    0  502  0.31621695176E+02  0.16460705502E+03 -0.91351445099E+02  0.19089395142E+03  0.00000000000E+00 0.  1.
         11    1    5    5    0    0 -0.10643458876E+03 -0.18039210380E+03 -0.41748830427E+03  0.46708255909E+03  0.00000000000E+00 0.  1.
        -11    1    5    5    0    0 -0.49184679408E+02 -0.22155772791E+03 -0.61854083615E+03  0.65886244806E+03  0.00000000000E+00 0. -1.
          1    1    6    6  503    0  0.99167493860E+02  0.98326246737E+02  0.20374321296E+02  0.14112886170E+03  0.00000000000E+00 0. -1.
         -1    1    6    6    0  503  0.45130009362E+02  0.12361013874E+03 -0.58258004964E+02  0.14391031682E+03  0.00000000000E+00 0.  1.
<mgrwt>
<rscale>  0 0.11249750E+04</rscale>
<asrwt>0</asrwt>
<pdfrwt beam="1">  1        1 0.21865167E+00 0.11249750E+04</pdfrwt>
<pdfrwt beam="2">  1       -2 0.34248867E-01 0.11249750E+04</pdfrwt>
<totfact> 0.51728754E+01</totfact>
</mgrwt>
</event>
<event>
12    4  0.4381187E-008  0.1667209E+04  0.7818608E-02  0.8780291E-01
         -4   -1    0    0    0  501 -0.00000000000E+00  0.00000000000E+00  0.14894836082E+04  0.14894836082E+04  0.00000000000E+00 0.  1.
          3   -1    0    0  501    0  0.00000000000E+00 -0.00000000000E+00 -0.46653496177E+03  0.46653496177E+03  0.00000000000E+00 0. -1.
        -24    2    1    2    0    0 -0.39926703266E+03  0.27510914689E+03  0.75754610024E+03  0.90424159530E+03  0.93153435790E+02 0.  0.
        254    2    1    2    0    0  0.39926703266E+03 -0.27510914689E+03  0.26540254620E+03  0.10517769747E+04  0.89481678956E+03 0.  0.
         23    2    4    4    0    0 -0.51610338839E+02 -0.11087928591E+03  0.49064445240E+03  0.51385280730E+03  0.91405064311E+02 0.  0.
         23    2    4    4    0    0  0.45087737150E+03 -0.16422986099E+03 -0.22524190620E+03  0.53792416739E+03  0.91469351054E+02 0.  0.
          1    1    3    3  502    0 -0.35837655249E+03  0.27266469330E+03  0.66601857409E+03  0.80396550260E+03  0.00000000000E+00 0. -1.
         -2    1    3    3    0  502 -0.40890480170E+02  0.24444535943E+01  0.91527526156E+02  0.10027609269E+03  0.00000000000E+00 0.  1.
         11    1    5    5    0    0  0.19566830683E+02 -0.30095334793E+02  0.21410020676E+03  0.21708866524E+03  0.00000000000E+00 0. -1.
        -11    1    5    5    0    0 -0.71177169522E+02 -0.80783951114E+02  0.27654424563E+03  0.29676414206E+03  0.00000000000E+00 0.  1.
          4    1    6    6  503    0  0.14237912953E+03 -0.98341369394E+02 -0.80021458118E+02  0.19064699111E+03  0.00000000000E+00 0. -1.
         -4    1    6    6    0  503  0.30849824197E+03 -0.65888491592E+02 -0.14522044808E+03  0.34727717628E+03  0.00000000000E+00 0.  1.
<mgrwt>
<rscale>  0 0.16672087E+04</rscale>
<asrwt>0</asrwt>
<pdfrwt beam="1">  1        3 0.71774610E-01 0.16672087E+04</pdfrwt>
<pdfrwt beam="2">  1       -4 0.22915132E+00 0.16672087E+04</pdfrwt>
<totfact> 0.34419632E-01</totfact>
</mgrwt>
</event>
<event>
12    4  0.4381187E-008  0.1239883E+04  0.7818608E-02  0.9078646E-01
          1   -1    0    0  501    0  0.00000000000E+00  0.00000000000E+00  0.14073422656E+04  0.14073422656E+04  0.00000000000E+00 0. -1.
         -2   -1    0    0    0  501 -0.00000000000E+00 -0.00000000000E+00 -0.27308727230E+03  0.27308727230E+03  0.00000000000E+00 0.  1.
        -24    2    1    2    0    0  0.79539551957E+02 -0.18577112466E+03  0.54847615685E+03  0.59005109326E+03  0.80602400395E+02 0.  0.
        254    2    1    2    0    0 -0.79539551957E+02  0.18577112466E+03  0.58577883641E+03  0.10903784446E+04  0.89719053505E+03 0.  0.
         23    2    4    4    0    0  0.37397581143E+03  0.16511874624E+03  0.43408287585E+03  0.60317278523E+03  0.90925012233E+02 0.  0.
         23    2    4    4    0    0 -0.45351536339E+03  0.20652378422E+02  0.15169596056E+03  0.48720565937E+03  0.90856945289E+02 0.  0.
          3    1    3    3  502    0  0.13723813341E+02 -0.12466710180E+03  0.36118429174E+03  0.38234058367E+03  0.00000000000E+00 0. -1.
         -4    1    3    3    0  502  0.65815738617E+02 -0.61104022867E+02  0.18729186511E+03  0.20771050959E+03  0.00000000000E+00 0.  1.
         11    1    5    5    0    0  0.20650081111E+03  0.13140713537E+03  0.29166195310E+03  0.38075860476E+03  0.00000000000E+00 0. -1.
        -11    1    5    5    0    0  0.16747500032E+03  0.33711610875E+02  0.14242092275E+03  0.22241418047E+03  0.00000000000E+00 0.  1.
          4    1    6    6  503    0 -0.75834228710E+02 -0.17275463463E+02 -0.17144133397E+01  0.77795958089E+02  0.00000000000E+00 0. -1.
         -4    1    6    6    0  503 -0.37768113468E+03  0.37927841886E+02  0.15341037390E+03  0.40940970128E+03  0.00000000000E+00 0.  1.
<mgrwt>
<rscale>  0 0.12398827E+04</rscale>
<asrwt>0</asrwt>
<pdfrwt beam="1">  1        1 0.21651419E+00 0.12398827E+04</pdfrwt>
<pdfrwt beam="2">  1       -2 0.42013427E-01 0.12398827E+04</pdfrwt>
<totfact> 0.35288020E+01</totfact>
</mgrwt>
</event>
<event>
12    4  0.4381187E-008  0.1149661E+04  0.7818608E-02  0.9158096E-01
         -2   -1    0    0    0  501 -0.00000000000E+00  0.00000000000E+00  0.79083789297E+03  0.79083789297E+03  0.00000000000E+00 0.  1.
          1   -1    0    0  501    0  0.00000000000E+00 -0.00000000000E+00 -0.41782288563E+03  0.41782288563E+03  0.00000000000E+00 0. -1.
        -24    2    1    2    0    0  0.80690391471E+01 -0.51517727968E+02  0.28736535305E+03  0.30288655146E+03  0.80263511249E+02 0.  0.
        254    2    1    2    0    0 -0.80690391471E+01  0.51517727968E+02  0.85649654294E+02  0.90577422714E+03  0.90020658828E+03 0.  0.
         23    2    4    4    0    0 -0.11194337334E+03  0.35837813991E+03  0.31304152996E+03  0.49875933698E+03  0.98993266143E+02 0.  0.
         23    2    4    4    0    0  0.10387433419E+03 -0.30686041195E+03 -0.22739187567E+03  0.40701489016E+03  0.94872893729E+02 0.  0.
          1    1    3    3  502    0 -0.26973714500E+02  0.64316644117E+01  0.73595468136E+02  0.78646300048E+02  0.00000000000E+00 0. -1.
         -2    1    3    3    0  502  0.35042753647E+02 -0.57949392380E+02  0.21376988491E+03  0.22424025142E+03  0.00000000000E+00 0.  1.
         11    1    5    5    0    0 -0.18924324623E+02  0.21071957159E+03  0.14496684254E+03  0.25646881555E+03  0.00000000000E+00 0. -1.
        -11    1    5    5    0    0 -0.93019048714E+02  0.14765856833E+03  0.16807468742E+03  0.24229052143E+03  0.00000000000E+00 0.  1.
          3    1    6    6  503    0  0.64048667281E+02 -0.26695865232E+03 -0.21642107427E+03  0.34958151441E+03  0.00000000000E+00 0. -1.
         -3    1    6    6    0  503  0.39825666909E+02 -0.39901759626E+02 -0.10970801396E+02  0.57433375743E+02  0.00000000000E+00 0.  1.
<mgrwt>
<rscale>  0 0.11496611E+04</rscale>
<asrwt>0</asrwt>
<pdfrwt beam="1">  1        1 0.64280444E-01 0.11496611E+04</pdfrwt>
<pdfrwt beam="2">  1       -2 0.12166737E+00 0.11496611E+04</pdfrwt>
<totfact> 0.25189057E+01</totfact>
</mgrwt>
</event>
<event>
12    4  0.4381187E-008  0.1452759E+04  0.7818608E-02  0.8916490E-01
          1   -1    0    0  501    0  0.00000000000E+00  0.00000000000E+00  0.10914219405E+04  0.10914219405E+04  0.00000000000E+00 0. -1.
         -2   -1    0    0    0  501 -0.00000000000E+00 -0.00000000000E+00 -0.48343070496E+03  0.48343070496E+03  0.00000000000E+00 0.  1.
        -24    2    1    2    0    0 -0.20570292493E+03  0.32591830219E+03  0.42283492124E+03  0.57661878893E+03  0.71856969701E+02 0.  0.
        254    2    1    2    0    0  0.20570292493E+03 -0.32591830219E+03  0.18515631432E+03  0.99823385656E+03  0.90202635140E+03 0.  0.
         23    2    4    4    0    0 -0.34567347191E+03 -0.85364285178E+02  0.11772374049E+03  0.38591003912E+03  0.91052011775E+02 0.  0.
         23    2    4    4    0    0  0.55137639685E+03 -0.24055401702E+03  0.67432573823E+02  0.61232381744E+03  0.92255836054E+02 0.  0.
          1    1    3    3  502    0 -0.48350645886E+02  0.84027064540E+02  0.64076269902E+02  0.11620714650E+03  0.00000000000E+00 0. -1.
         -2    1    3    3    0  502 -0.15735227905E+03  0.24189123765E+03  0.35875865134E+03  0.46041164243E+03  0.00000000000E+00 0.  1.
         11    1    5    5    0    0 -0.16401983020E+03 -0.87315493674E+02  0.62313575714E+02  0.19598337137E+03  0.00000000000E+00 0.  1.
        -11    1    5    5    0    0 -0.18165364171E+03  0.19512084956E+01  0.55410164780E+02  0.18992666775E+03  0.00000000000E+00 0. -1.
          3    1    6    6  503    0  0.28171629635E+03 -0.89418718275E+02 -0.16584061680E+01  0.29557152961E+03  0.00000000000E+00 0. -1.
         -3    1    6    6    0  503  0.26966010050E+03 -0.15113529874E+03  0.69090979991E+02  0.31675228783E+03  0.00000000000E+00 0.  1.
<mgrwt>
<rscale>  0 0.14527586E+04</rscale>
<asrwt>0</asrwt>
<pdfrwt beam="1">  1        1 0.16791107E+00 0.14527586E+04</pdfrwt>
<pdfrwt beam="2">  1       -2 0.74373955E-01 0.14527586E+04</pdfrwt>
<totfact> 0.17825988E+01</totfact>
</mgrwt>
</event>
<event>
12    4  0.4381187E-008  0.2107117E+04  0.7818608E-02  0.8558115E-01
          1   -1    0    0  501    0  0.00000000000E+00  0.00000000000E+00  0.12570091784E+04  0.12570091784E+04  0.00000000000E+00 0. -1.
         -2   -1    0    0    0  501 -0.00000000000E+00 -0.00000000000E+00 -0.88303707239E+03  0.88303707239E+03  0.00000000000E+00 0.  1.
        -24    2    1    2    0    0 -0.35036827868E+02  0.74126365603E+03 -0.31062935716E+03  0.80830938599E+03  0.78575307187E+02 0.  0.
        254    2    1    2    0    0  0.35036827868E+02 -0.74126365603E+03  0.68460146314E+03  0.13317368648E+04  0.86841495071E+03 0.  0.
         23    2    4    4    0    0 -0.69280912530E+02 -0.19645424444E+03 -0.18511529631E+03  0.29619624587E+03  0.10035152286E+03 0.  0.
         23    2    4    4    0    0  0.10431774040E+03 -0.54480941158E+03  0.86971675945E+03  0.10355406189E+04  0.90761477715E+02 0.  0.
          3    1    3    3  502    0  0.20527771004E+01  0.10537114591E+03 -0.16382021670E+02  0.10665675281E+03  0.00000000000E+00 0. -1.
         -2    1    3    3    0  502 -0.37089604968E+02  0.63589251011E+03 -0.29424733549E+03  0.70165263319E+03  0.00000000000E+00 0.  1.
         11    1    5    5    0    0 -0.64381779044E+02 -0.11621739219E+03 -0.56167161822E+02  0.14424370277E+03  0.00000000000E+00 0.  1.
        -11    1    5    5    0    0 -0.48991334854E+01 -0.80236852251E+02 -0.12894813448E+03  0.15195254310E+03  0.00000000000E+00 0. -1.
          2    1    6    6  503    0  0.72042952564E+01 -0.26621316104E+03  0.38622544571E+03  0.46913904538E+03  0.00000000000E+00 0. -1.
         -2    1    6    6    0  503  0.97113445141E+02 -0.27859625055E+03  0.48349131373E+03  0.56640157353E+03  0.00000000000E+00 0.  1.
<mgrwt>
<rscale>  0 0.21071172E+04</rscale>
<asrwt>0</asrwt>
<pdfrwt beam="1">  1        1 0.19338603E+00 0.21071172E+04</pdfrwt>
<pdfrwt beam="2">  1       -2 0.13585186E+00 0.21071172E+04</pdfrwt>
<totfact> 0.30407136E+00</totfact>
</mgrwt>
</event>
<event>
12    4  0.4381187E-008  0.1608102E+04  0.7818608E-02  0.8815586E-01
         -2   -1    0    0    0  501 -0.00000000000E+00  0.00000000000E+00  0.88376275946E+03  0.88376275946E+03  0.00000000000E+00 0.  1.
          1   -1    0    0  501    0  0.00000000000E+00 -0.00000000000E+00 -0.73152932509E+03  0.73152932509E+03  0.00000000000E+00 0. -1.
        -24    2    1    2    0    0 -0.18535566513E+03  0.32594076890E+03  0.44885977594E+03  0.59005221699E+03  0.78053910095E+02 0.  0.
        254    2    1    2    0    0  0.18535566513E+03 -0.32594076890E+03 -0.29662634157E+03  0.10252398676E+04  0.90693742458E+03 0.  0.
         23    2    4    4    0    0  0.51946699612E+03 -0.34102563678E+03 -0.24007518514E+03  0.67220916881E+03  0.89914554538E+02 0.  0.
         23    2    4    4    0    0 -0.33411133099E+03  0.15084867873E+02 -0.56551156431E+02  0.35303069875E+03  0.97850427867E+02 0.  0.
          3    1    3    3  502    0  0.14129461541E+00  0.21190871126E+02  0.53369141452E+02  0.57422454167E+02  0.00000000000E+00 0. -1.
         -4    1    3    3    0  502 -0.18549695975E+03  0.30474989778E+03  0.39549063449E+03  0.53262976282E+03  0.00000000000E+00 0.  1.
         11    1    5    5    0    0  0.52037694327E+02 -0.70965942675E+02 -0.31006524964E+02  0.93303222029E+02  0.00000000000E+00 0. -1.
        -11    1    5    5    0    0  0.46742930179E+03 -0.27005969410E+03 -0.20906866017E+03  0.57890594678E+03  0.00000000000E+00 0.  1.
          1    1    6    6  503    0 -0.69838763549E+02  0.44112369818E+02 -0.12503043644E+02  0.83544480161E+02  0.00000000000E+00 0. -1.
         -1    1    6    6    0  503 -0.26427256744E+03 -0.29027501945E+02 -0.44048112787E+02  0.26948621859E+03  0.00000000000E+00 0.  1.
<mgrwt>
<rscale>  0 0.16081025E+04</rscale>
<asrwt>0</asrwt>
<pdfrwt beam="1">  1        1 0.11254297E+00 0.16081025E+04</pdfrwt>
<pdfrwt beam="2">  1       -2 0.13596350E+00 0.16081025E+04</pdfrwt>
<totfact> 0.82798473E+00</totfact>
</mgrwt>
</event>
<event>
12    4  0.4381187E-008  0.1737425E+04  0.7818608E-02  0.8740303E-01
         -2   -1    0    0    0  501 -0.00000000000E+00  0.00000000000E+00  0.42254821462E+03  0.42254821462E+03  0.00000000000E+00 0.  1.
          1   -1    0    0  501    0  0.00000000000E+00 -0.00000000000E+00 -0.17859770180E+04  0.17859770180E+04  0.00000000000E+00 0. -1.
        -24    2    1    2    0    0  0.17106482036E+03  0.50216867826E+03 -0.60345808569E+02  0.54280665255E+03  0.97779810026E+02 0.  0.
        254    2    1    2    0    0 -0.17106482036E+03 -0.50216867826E+03 -0.13030829948E+04  0.16657185800E+04  0.89171550531E+03 0.  0.
         23    2    4    4    0    0 -0.87999018202E+02 -0.27379371971E+03  0.32933125283E+02  0.30524194734E+03  0.96856737095E+02 0.  0.
         23    2    4    4    0    0 -0.83065802163E+02 -0.22837495855E+03 -0.13360161201E+04  0.13604766327E+04  0.83081561474E+02 0.  0.
          1    1    3    3  502    0 -0.12479577034E+02  0.46072523534E+02 -0.29230390651E+01  0.47822185490E+02  0.00000000000E+00 0. -1.
         -2    1    3    3    0  502  0.18354439740E+03  0.45609615472E+03 -0.57422769504E+02  0.49498446706E+03  0.00000000000E+00 0.  1.
         11    1    5    5    0    0 -0.93012149602E+02 -0.23368818897E+03  0.57414560977E+02  0.25798810331E+03  0.00000000000E+00 0.  1.
        -11    1    5    5    0    0  0.50131313999E+01 -0.40105530743E+02 -0.24481435694E+02  0.47253844037E+02  0.00000000000E+00 0. -1.
          3    1    6    6  503    0 -0.81931792323E+02 -0.12082302287E+03 -0.87384625138E+03  0.88595614592E+03  0.00000000000E+00 0. -1.
         -3    1    6    6    0  503 -0.11340098400E+01 -0.10755193568E+03 -0.46216986869E+03  0.47452048678E+03  0.00000000000E+00 0.  1.
<mgrwt>
<rscale>  0 0.17374250E+04</rscale>
<asrwt>0</asrwt>
<pdfrwt beam="1">  1        1 0.27476570E+00 0.17374250E+04</pdfrwt>
<pdfrwt beam="2">  1       -2 0.65007416E-01 0.17374250E+04</pdfrwt>
<totfact> 0.75694518E+00</totfact>
</mgrwt>
</event>
<event>
12    4  0.4381187E-008  0.1530559E+04  0.7818608E-02  0.8864382E-01
         -2   -1    0    0    0  501 -0.00000000000E+00  0.00000000000E+00  0.21381696028E+03  0.21381696028E+03  0.00000000000E+00 0.  1.
          1   -1    0    0  501    0  0.00000000000E+00 -0.00000000000E+00 -0.27390370649E+04  0.27390370649E+04  0.00000000000E+00 0. -1.
        -24    2    1    2    0    0 -0.25498108694E+03  0.80643242601E+02 -0.16366231337E+04  0.16602559582E+04  0.79974232758E+02 0.  0.
        254    2    1    2    0    0  0.25498108694E+03 -0.80643242601E+02 -0.88859697095E+03  0.12925980669E+04  0.89982581570E+03 0.  0.
         23    2    4    4    0    0 -0.24539400568E+03  0.15715388680E+03 -0.93875446520E+02  0.31942579630E+03  0.91130004538E+02 0.  0.
         23    2    4    4    0    0  0.50037509261E+03 -0.23779712940E+03 -0.79472152443E+03  0.97317227064E+03  0.92516262824E+02 0.  0.
          1    1    3    3  502    0 -0.14313538629E+03  0.79086054574E+02 -0.83459747092E+03  0.85046768386E+03  0.00000000000E+00 0. -1.
         -2    1    3    3    0  502 -0.11184570065E+03  0.15571880273E+01 -0.80202566275E+03  0.80978827437E+03  0.00000000000E+00 0.  1.
         11    1    5    5    0    0 -0.21795762662E+03  0.16137033801E+03 -0.10316628475E+03  0.29015374425E+03  0.00000000000E+00 0.  1.
        -11    1    5    5    0    0 -0.27436379054E+02 -0.42164512126E+01  0.92908382309E+01  0.29272052054E+02  0.00000000000E+00 0. -1.
          2    1    6    6  503    0  0.34565312619E+03 -0.11608772233E+03 -0.52827385472E+03  0.64189228730E+03  0.00000000000E+00 0. -1.
         -2    1    6    6    0  503  0.15472196643E+03 -0.12170940707E+03 -0.26644766971E+03  0.33127998334E+03  0.00000000000E+00 0.  1.
<mgrwt>
<rscale>  0 0.15305588E+04</rscale>
<asrwt>0</asrwt>
<pdfrwt beam="1">  1        1 0.42139029E+00 0.15305588E+04</pdfrwt>
<pdfrwt beam="2">  1       -2 0.32894919E-01 0.15305588E+04</pdfrwt>
<totfact> 0.67540085E+00</totfact>
</mgrwt>
</event>
<event>
12    4  0.4381187E-008  0.2556458E+04  0.7818608E-02  0.8383144E-01
          1   -1    0    0  501    0  0.00000000000E+00  0.00000000000E+00  0.13312585695E+04  0.13312585695E+04  0.00000000000E+00 0. -1.
         -2   -1    0    0    0  501 -0.00000000000E+00 -0.00000000000E+00 -0.12273117003E+04  0.12273117003E+04  0.00000000000E+00 0.  1.
        -24    2    1    2    0    0 -0.10610297377E+04  0.57302959127E+02  0.44047645538E+03  0.11533859414E+04  0.84922838632E+02 0.  0.
        254    2    1    2    0    0  0.10610297377E+04 -0.57302959127E+02 -0.33652958613E+03  0.14051843284E+04  0.85570035694E+03 0.  0.
         23    2    4    4    0    0  0.59182861893E+03  0.12812954349E+03  0.21776623096E+03  0.65022716829E+03  0.93246688581E+02 0.  0.
         23    2    4    4    0    0  0.46920111882E+03 -0.18543250262E+03 -0.55429581709E+03  0.75495716009E+03  0.90451964089E+02 0.  0.
          3    1    3    3  502    0 -0.80559653561E+03  0.19682153477E+02  0.36300625878E+03  0.88382504449E+03  0.00000000000E+00 0. -1.
         -4    1    3    3    0  502 -0.25543320214E+03  0.37620805650E+02  0.77470196601E+02  0.26956089689E+03  0.00000000000E+00 0.  1.
         11    1    5    5    0    0  0.13972566917E+03  0.26785669628E+02  0.10498082668E+02  0.14265673648E+03  0.00000000000E+00 0.  1.
        -11    1    5    5    0    0  0.45210294976E+03  0.10134387386E+03  0.20726814829E+03  0.50757043181E+03  0.00000000000E+00 0. -1.
          1    1    6    6  503    0  0.41763969115E+03 -0.13602620286E+03 -0.49798993773E+03  0.66401808527E+03  0.00000000000E+00 0. -1.
         -1    1    6    6    0  503  0.51561427663E+02 -0.49406299759E+02 -0.56305879362E+02  0.90939074821E+02  0.00000000000E+00 0.  1.
<mgrwt>
<rscale>  0 0.25564579E+04</rscale>
<asrwt>0</asrwt>
<pdfrwt beam="1">  1        1 0.20480901E+00 0.25564579E+04</pdfrwt>
<pdfrwt beam="2">  1       -2 0.18881718E+00 0.25564579E+04</pdfrwt>
<totfact> 0.10526807E+00</totfact>
</mgrwt>
</event>
<event>
12    4  0.4381187E-008  0.1400841E+04  0.7818608E-02  0.8953210E-01
         -2   -1    0    0    0  501 -0.00000000000E+00  0.00000000000E+00  0.26100564020E+03  0.26100564020E+03  0.00000000000E+00 0.  1.
          1   -1    0    0  501    0  0.00000000000E+00 -0.00000000000E+00 -0.18796108143E+04  0.18796108143E+04  0.00000000000E+00 0. -1.
        -24    2    1    2    0    0  0.50472660908E+02  0.19400855383E+03  0.60064618953E+02  0.22469632557E+03  0.81816085313E+02 0.  0.
        254    2    1    2    0    0 -0.50472660908E+02 -0.19400855383E+03 -0.16786697930E+04  0.19159201289E+04  0.90146040286E+03 0.  0.
         23    2    4    4    0    0 -0.24986767744E+03  0.10079017882E+03 -0.14617948335E+04  0.14893189880E+04  0.92921453710E+02 0.  0.
         23    2    4    4    0    0  0.19939501653E+03 -0.29479873265E+03 -0.21687495958E+03  0.42660114091E+03  0.91044604139E+02 0.  0.
          3    1    3    3  502    0  0.46432011211E+00  0.97455520783E+02 -0.56950694158E+01  0.97622886353E+02  0.00000000000E+00 0. -1.
         -4    1    3    3    0  502  0.50008340796E+02  0.96553033044E+02  0.65759688369E+02  0.12707343921E+03  0.00000000000E+00 0.  1.
         11    1    5    5    0    0 -0.14879603971E+03  0.19142086694E+02 -0.64228719129E+03  0.65957525500E+03  0.00000000000E+00 0. -1.
        -11    1    5    5    0    0 -0.10107163774E+03  0.81648092130E+02 -0.81950764217E+03  0.82974373302E+03  0.00000000000E+00 0.  1.
          3    1    6    6  503    0  0.23514476859E+02 -0.30973221332E+02 -0.63297485771E+02  0.74288914157E+02  0.00000000000E+00 0. -1.
         -3    1    6    6    0  503  0.17588053967E+03 -0.26382551132E+03 -0.15357747380E+03  0.35231222675E+03  0.00000000000E+00 0.  1.
<mgrwt>
<rscale>  0 0.14008412E+04</rscale>
<asrwt>0</asrwt>
<pdfrwt beam="1">  1        1 0.28917090E+00 0.14008412E+04</pdfrwt>
<pdfrwt beam="2">  1       -2 0.40154714E-01 0.14008412E+04</pdfrwt>
<totfact> 0.18079274E+01</totfact>
</mgrwt>
</event>
<event>
12    4  0.4381187E-008  0.2203123E+04  0.7818608E-02  0.8517130E-01
          3   -1    0    0  501    0  0.00000000000E+00  0.00000000000E+00  0.13889436454E+04  0.13889436454E+04  0.00000000000E+00 0. -1.
         -4   -1    0    0    0  501 -0.00000000000E+00 -0.00000000000E+00 -0.87364044406E+03  0.87364044406E+03  0.00000000000E+00 0.  1.
        -24    2    1    2    0    0 -0.39767567203E+03  0.30196528157E+03  0.10027781683E+04  0.11231185744E+04  0.80636876412E+02 0.  0.
        254    2    1    2    0    0  0.39767567203E+03 -0.30196528157E+03 -0.48747496700E+03  0.11394655151E+04  0.90078901258E+03 0.  0.
         23    2    4    4    0    0 -0.43470631459E+02 -0.20107649136E+03 -0.61896382936E+03  0.65863147509E+03  0.91420712941E+02 0.  0.
         23    2    4    4    0    0  0.44114630349E+03 -0.10088879021E+03  0.13148886235E+03  0.48083403997E+03  0.95516721070E+02 0.  0.
          3    1    3    3  502    0 -0.25433208245E+03  0.19063022304E+03  0.72091867712E+03  0.78787589703E+03  0.00000000000E+00 0. -1.
         -4    1    3    3    0  502 -0.14334358958E+03  0.11133505853E+03  0.28185949122E+03  0.33524267735E+03  0.00000000000E+00 0.  1.
         11    1    5    5    0    0 -0.67777451208E+02 -0.98313524360E+02 -0.31821547843E+03  0.33988295438E+03  0.00000000000E+00 0. -1.
        -11    1    5    5    0    0  0.24306819750E+02 -0.10276296701E+03 -0.30074835093E+03  0.31874852072E+03  0.00000000000E+00 0.  1.
          1    1    6    6  503    0  0.22811819431E+03 -0.55787837878E+02  0.18640467635E+02  0.23557941435E+03  0.00000000000E+00 0. -1.
         -1    1    6    6    0  503  0.21302810918E+03 -0.45100952331E+02  0.11284839472E+03  0.24525462563E+03  0.00000000000E+00 0.  1.
<mgrwt>
<rscale>  0 0.22031226E+04</rscale>
<asrwt>0</asrwt>
<pdfrwt beam="1">  1        3 0.21368364E+00 0.22031226E+04</pdfrwt>
<pdfrwt beam="2">  1       -4 0.13440622E+00 0.22031226E+04</pdfrwt>
<totfact> 0.10058238E-01</totfact>
</mgrwt>
</event>
<event>
12    4  0.4381187E-008  0.2522177E+04  0.7818608E-02  0.8395127E-01
          1   -1    0    0  501    0  0.00000000000E+00  0.00000000000E+00  0.18605903225E+04  0.18605903225E+04  0.00000000000E+00 0. -1.
         -2   -1    0    0    0  501 -0.00000000000E+00 -0.00000000000E+00 -0.85475248145E+03  0.85475248145E+03  0.00000000000E+00 0.  1.
        -24    2    1    2    0    0  0.32587181873E+02 -0.10364095698E+04  0.48803280851E+02  0.10411474870E+04  0.79997554825E+02 0.  0.
        254    2    1    2    0    0 -0.32587181873E+02  0.10364095698E+04  0.95703456025E+03  0.16741953170E+04  0.90100393403E+03 0.  0.
         23    2    4    4    0    0 -0.43437321683E+03  0.33226629032E+03  0.42874032925E+03  0.70223595335E+03  0.10117353937E+03 0.  0.
         23    2    4    4    0    0  0.40178603496E+03  0.70414327945E+03  0.52829423100E+03  0.97195936363E+03  0.91435409768E+02 0.  0.
          1    1    3    3  502    0  0.49816363523E+02 -0.67282042508E+03  0.64344900153E+01  0.67469281688E+03  0.00000000000E+00 0. -1.
         -2    1    3    3    0  502 -0.17229181650E+02 -0.36358914469E+03  0.42368790836E+02  0.36645467014E+03  0.00000000000E+00 0.  1.
         11    1    5    5    0    0 -0.96933927826E+02  0.71243104118E+02  0.15149851271E+03  0.19345171387E+03  0.00000000000E+00 0.  1.
        -11    1    5    5    0    0 -0.33743928900E+03  0.26102318620E+03  0.27724181654E+03  0.50878423947E+03  0.00000000000E+00 0. -1.
          4    1    6    6  503    0  0.30777587350E+03  0.45278063739E+03  0.35423481198E+03  0.65208787439E+03  0.00000000000E+00 0. -1.
         -4    1    6    6    0  503  0.94010161451E+02  0.25136264206E+03  0.17405941903E+03  0.31987148924E+03  0.00000000000E+00 0.  1.
<mgrwt>
<rscale>  0 0.25221770E+04</rscale>
<asrwt>0</asrwt>
<pdfrwt beam="1">  1        1 0.28624466E+00 0.25221770E+04</pdfrwt>
<pdfrwt beam="2">  1       -2 0.13150038E+00 0.25221770E+04</pdfrwt>
<totfact> 0.12177979E+00</totfact>
</mgrwt>
</event>
<event>
12    4  0.4381187E-008  0.1813171E+04  0.7818608E-02  0.8699326E-01
          1   -1    0    0  501    0  0.00000000000E+00  0.00000000000E+00  0.56694669618E+03  0.56694669618E+03  0.00000000000E+00 0. -1.
         -2   -1    0    0    0  501 -0.00000000000E+00 -0.00000000000E+00 -0.14496906055E+04  0.14496906055E+04  0.00000000000E+00 0.  1.
        -24    2    1    2    0    0 -0.62508855524E+03 -0.23347445187E+03 -0.38090510406E+03  0.77247293686E+03  0.79873138918E+02 0.  0.
        254    2    1    2    0    0  0.62508855524E+03  0.23347445187E+03 -0.50183880523E+03  0.12441643648E+04  0.92241897128E+03 0.  0.
         23    2    4    4    0    0  0.65938505163E+03 -0.18614392301E+03 -0.20452485799E+03  0.72090884859E+03  0.91874610467E+02 0.  0.
         23    2    4    4    0    0 -0.34296496393E+02  0.41961837488E+03 -0.29731394723E+03  0.52325551619E+03  0.90249220472E+02 0.  0.
          3    1    3    3  502    0 -0.45828806194E+03 -0.20774358388E+03 -0.27996590087E+03  0.57581789657E+03  0.00000000000E+00 0. -1.
         -4    1    3    3    0  502 -0.16680049329E+03 -0.25730867989E+02 -0.10093920319E+03  0.19665504029E+03  0.00000000000E+00 0.  1.
         11    1    5    5    0    0  0.38870390677E+03 -0.84521034654E+02 -0.78261964964E+02  0.40541271268E+03  0.00000000000E+00 0. -1.
        -11    1    5    5    0    0  0.27068114486E+03 -0.10162288836E+03 -0.12626289303E+03  0.31549613591E+03  0.00000000000E+00 0.  1.
          4    1    6    6  503    0 -0.53181852961E+02  0.19089187338E+03 -0.16822241682E+03  0.25993614278E+03  0.00000000000E+00 0. -1.
         -4    1    6    6    0  503  0.18885356568E+02  0.22872650151E+03 -0.12909153042E+03  0.26331937340E+03  0.00000000000E+00 0.  1.
<mgrwt>
<rscale>  0 0.18131710E+04</rscale>
<asrwt>0</asrwt>
<pdfrwt beam="1">  1        1 0.87222571E-01 0.18131710E+04</pdfrwt>
<pdfrwt beam="2">  1       -2 0.22302932E+00 0.18131710E+04</pdfrwt>
<totfact> 0.28971342E+00</totfact>
</mgrwt>
</event>
<event>
12    4  0.4381187E-008  0.2133145E+04  0.7818608E-02  0.8546782E-01
          1   -1    0    0  501    0  0.00000000000E+00  0.00000000000E+00  0.22920635124E+04  0.22920635124E+04  0.00000000000E+00 0. -1.
         -2   -1    0    0    0  501 -0.00000000000E+00 -0.00000000000E+00 -0.49631117214E+03  0.49631117214E+03  0.00000000000E+00 0.  1.
        -24    2    1    2    0    0  0.82091844016E+03  0.10995441940E+03  0.10375296619E+04  0.13299542099E+04  0.79456537297E+02 0.  0.
        254    2    1    2    0    0 -0.82091844016E+03 -0.10995441940E+03  0.75822267843E+03  0.14584204747E+04  0.93064041995E+03 0.  0.
         23    2    4    4    0    0 -0.58573740179E+03  0.31217754347E+03  0.16975321029E+03  0.69148451903E+03  0.93763346468E+02 0.  0.
         23    2    4    4    0    0 -0.23518103836E+03 -0.42213196286E+03  0.58846946813E+03  0.76693595569E+03  0.91591103993E+02 0.  0.
          3    1    3    3  502    0  0.44851551165E+03  0.76633484665E+02  0.51165609220E+03  0.68471221097E+03  0.00000000000E+00 0. -1.
         -4    1    3    3    0  502  0.37240292851E+03  0.33320934731E+02  0.52587356967E+03  0.64524199889E+03  0.00000000000E+00 0.  1.
         11    1    5    5    0    0 -0.31753321202E+02  0.27188382009E+02 -0.10190732027E+02  0.43027114043E+02  0.00000000000E+00 0. -1.
        -11    1    5    5    0    0 -0.55398408059E+03  0.28498916146E+03  0.17994394232E+03  0.64845740498E+03  0.00000000000E+00 0.  1.
          2    1    6    6  503    0 -0.12125957214E+03 -0.28477039854E+03  0.32581073719E+03  0.44938925241E+03  0.00000000000E+00 0.  1.
         -2    1    6    6    0  503 -0.11392146622E+03 -0.13736156433E+03  0.26265873094E+03  0.31754670328E+03  0.00000000000E+00 0. -1.
<mgrwt>
<rscale>  0 0.21331448E+04</rscale>
<asrwt>0</asrwt>
<pdfrwt beam="1">  1        1 0.35262515E+00 0.21331448E+04</pdfrwt>
<pdfrwt beam="2">  1       -2 0.76355566E-01 0.21331448E+04</pdfrwt>
<totfact> 0.23298840E+00</totfact>
</mgrwt>
</event>
<event>
12    4  0.4381187E-008  0.2321261E+04  0.7818608E-02  0.8469585E-01
          1   -1    0    0  501    0  0.00000000000E+00  0.00000000000E+00  0.19059824954E+04  0.19059824954E+04  0.00000000000E+00 0. -1.
         -2   -1    0    0    0  501 -0.00000000000E+00 -0.00000000000E+00 -0.70675499171E+03  0.70675499171E+03  0.00000000000E+00 0.  1.
        -24    2    1    2    0    0 -0.14636590831E+03 -0.54131110308E+03  0.14157444862E+04  0.15248444510E+04  0.79859001629E+02 0.  0.
        254    2    1    2    0    0  0.14636590831E+03  0.54131110308E+03 -0.21651698255E+03  0.10878930361E+04  0.90674746471E+03 0.  0.
         23    2    4    4    0    0  0.28787513643E+03 -0.14508934677E+03 -0.17838667130E+03  0.37990155570E+03  0.92630312550E+02 0.  0.
         23    2    4    4    0    0 -0.14150922813E+03  0.68640044985E+03 -0.38130311254E+02  0.70799148036E+03  0.92884748085E+02 0.  0.
          1    1    3    3  502    0 -0.14550465524E+03 -0.44898446289E+03  0.12292975738E+04  0.13167882052E+04  0.00000000000E+00 0. -1.
         -2    1    3    3    0  502 -0.86125306389E+00 -0.92326640187E+02  0.18644691249E+03  0.20805624581E+03  0.00000000000E+00 0.  1.
         11    1    5    5    0    0  0.20019065623E+03 -0.74009597647E+02 -0.15714684626E+03  0.26504499745E+03  0.00000000000E+00 0. -1.
        -11    1    5    5    0    0  0.87684480204E+02 -0.71079749127E+02 -0.21239825036E+02  0.11485655825E+03  0.00000000000E+00 0.  1.
          1    1    6    6  503    0 -0.35435903414E+02  0.33661055273E+03 -0.50749905221E+02  0.34225417505E+03  0.00000000000E+00 0.  1.
         -1    1    6    6    0  503 -0.10607332471E+03  0.34978989712E+03  0.12619593967E+02  0.36573730531E+03  0.00000000000E+00 0. -1.
<mgrwt>
<rscale>  0 0.23212606E+04</rscale>
<asrwt>0</asrwt>
<pdfrwt beam="1">  1        1 0.29322807E+00 0.23212606E+04</pdfrwt>
<pdfrwt beam="2">  1       -2 0.10873154E+00 0.23212606E+04</pdfrwt>
<totfact> 0.18485857E+00</totfact>
</mgrwt>
</event>
<event>
12    4  0.4381187E-008  0.1676745E+04  0.7818608E-02  0.8774740E-01
         -4   -1    0    0    0  501 -0.00000000000E+00  0.00000000000E+00  0.18721863649E+04  0.18721863649E+04  0.00000000000E+00 0.  1.
          1   -1    0    0  501    0  0.00000000000E+00 -0.00000000000E+00 -0.37542650433E+03  0.37542650433E+03  0.00000000000E+00 0. -1.
        -24    2    1    2    0    0 -0.42195855225E+03 -0.18255068357E+03  0.27444848943E+02  0.46562706269E+03  0.68421998600E+02 0.  0.
        254    2    1    2    0    0  0.42195855225E+03  0.18255068357E+03  0.14693150116E+04  0.17819858065E+04  0.89733663662E+03 0.  0.
         23    2    4    4    0    0 -0.24881363575E+03  0.12293354057E+03  0.24511817801E+03  0.38188530646E+03  0.93448303209E+02 0.  0.
         23    2    4    4    0    0  0.67077218799E+03  0.59617143004E+02  0.12241968336E+04  0.14001005001E+04  0.90188640861E+02 0.  0.
          3    1    3    3  502    0 -0.42072648261E+03 -0.18188083484E+03  0.20792670337E+02  0.45882866780E+03  0.00000000000E+00 0. -1.
         -4    1    3    3    0  502 -0.12320696320E+01 -0.66984872669E+00  0.66521786059E+01  0.67983948914E+01  0.00000000000E+00 0.  1.
         11    1    5    5    0    0 -0.23017120447E+03  0.11540456584E+03  0.18112133945E+03  0.31480460097E+03  0.00000000000E+00 0. -1.
        -11    1    5    5    0    0 -0.18642431271E+02  0.75289747222E+01  0.63996838558E+02  0.67080705494E+02  0.00000000000E+00 0.  1.
          2    1    6    6  503    0  0.66366381324E+03  0.52356805882E+02  0.11808642716E+04  0.13555926085E+04  0.00000000000E+00 0. -1.
         -2    1    6    6    0  503  0.71083747547E+01  0.72603371217E+01  0.43332561968E+02  0.44507891587E+02  0.00000000000E+00 0.  1.
<mgrwt>
<rscale>  0 0.16767449E+04</rscale>
<asrwt>0</asrwt>
<pdfrwt beam="1">  1        1 0.57757925E-01 0.16767449E+04</pdfrwt>
<pdfrwt beam="2">  1       -4 0.28802867E+00 0.16767449E+04</pdfrwt>
<totfact> 0.10870141E+00</totfact>
</mgrwt>
</event>
<event>
12    4  0.4381187E-008  0.3129277E+04  0.7818608E-02  0.8207749E-01
         -2   -1    0    0    0  501 -0.00000000000E+00  0.00000000000E+00  0.19873683621E+04  0.19873683621E+04  0.00000000000E+00 0.  1.
          1   -1    0    0  501    0  0.00000000000E+00 -0.00000000000E+00 -0.12318266695E+04  0.12318266695E+04  0.00000000000E+00 0. -1.
        -24    2    1    2    0    0  0.26574341883E+03  0.19934072556E+03 -0.10902304353E+04  0.11425791889E+04  0.80799204007E+02 0.  0.
        254    2    1    2    0    0 -0.26574341883E+03 -0.19934072556E+03  0.18457721280E+04  0.20766158427E+04  0.89168510151E+03 0.  0.
         23    2    4    4    0    0  0.23859517004E+03  0.10289943214E+03  0.24231297755E+03  0.36623606632E+03  0.88866916698E+02 0.  0.
         23    2    4    4    0    0 -0.50433858887E+03 -0.30224015770E+03  0.16034591504E+04  0.17103797764E+04  0.92796590712E+02 0.  0.
          3    1    3    3  502    0  0.23104323384E+03  0.13303920556E+03 -0.82645484473E+03  0.86839392933E+03  0.00000000000E+00 0. -1.
         -4    1    3    3    0  502  0.34700184989E+02  0.66301520002E+02 -0.26377559060E+03  0.27418525961E+03  0.00000000000E+00 0.  1.
         11    1    5    5    0    0  0.10624575237E+03  0.78125056382E+02  0.75854867314E+02  0.15213692920E+03  0.00000000000E+00 0. -1.
        -11    1    5    5    0    0  0.13234941767E+03  0.24774375756E+02  0.16645811024E+03  0.21409913712E+03  0.00000000000E+00 0.  1.
          2    1    6    6  503    0 -0.31870590955E+03 -0.19007793183E+03  0.11356271121E+04  0.11947183830E+04  0.00000000000E+00 0. -1.
         -2    1    6    6    0  503 -0.18563267932E+03 -0.11216222587E+03  0.46783203832E+03  0.51566139338E+03  0.00000000000E+00 0.  1.
<mgrwt>
<rscale>  0 0.31292768E+04</rscale>
<asrwt>0</asrwt>
<pdfrwt beam="1">  1        1 0.18951180E+00 0.31292768E+04</pdfrwt>
<pdfrwt beam="2">  1       -2 0.30574898E+00 0.31292768E+04</pdfrwt>
<totfact> 0.21931996E-01</totfact>
</mgrwt>
</event>
<event>
12    4  0.4381187E-008  0.1387731E+04  0.7818608E-02  0.8962748E-01
         -2   -1    0    0    0  501 -0.00000000000E+00  0.00000000000E+00  0.41996289369E+03  0.41996289369E+03  0.00000000000E+00 0.  1.
          1   -1    0    0  501    0  0.00000000000E+00 -0.00000000000E+00 -0.11464093896E+04  0.11464093896E+04  0.00000000000E+00 0. -1.
        -24    2    1    2    0    0  0.95702948229E+01  0.33936468770E+03 -0.44675179803E+03  0.56675073282E+03  0.79744857559E+02 0.  0.
        254    2    1    2    0    0 -0.95702948229E+01 -0.33936468770E+03 -0.27969469785E+03  0.99962155045E+03  0.89763808872E+03 0.  0.
         23    2    4    4    0    0 -0.25282585417E+03  0.20028702327E+03  0.96596968121E+01  0.33451381155E+03  0.88149737093E+02 0.  0.
         23    2    4    4    0    0  0.24325555935E+03 -0.53965171096E+03 -0.28935439466E+03  0.66510773889E+03  0.90802545827E+02 0.  0.
          3    1    3    3  502    0 -0.16244954446E+02  0.20668205237E+03 -0.32101122987E+03  0.38213816744E+03  0.00000000000E+00 0. -1.
         -4    1    3    3    0  502  0.25815249269E+02  0.13268263532E+03 -0.12574056817E+03  0.18461256538E+03  0.00000000000E+00 0.  1.
         11    1    5    5    0    0 -0.11308375789E+03  0.82111227339E+02 -0.39100994794E+02  0.14511746190E+03  0.00000000000E+00 0.  1.
        -11    1    5    5    0    0 -0.13974209628E+03  0.11817579593E+03  0.48760691606E+02  0.18939634965E+03  0.00000000000E+00 0. -1.
          3    1    6    6  503    0  0.61786887600E+02 -0.15412943072E+03 -0.12730475628E+03  0.20923671252E+03  0.00000000000E+00 0. -1.
         -3    1    6    6    0  503  0.18146867175E+03 -0.38552228025E+03 -0.16204963838E+03  0.45587102638E+03  0.00000000000E+00 0.  1.
<mgrwt>
<rscale>  0 0.13877311E+04</rscale>
<asrwt>0</asrwt>
<pdfrwt beam="1">  1        1 0.17637067E+00 0.13877311E+04</pdfrwt>
<pdfrwt beam="2">  1       -2 0.64609677E-01 0.13877311E+04</pdfrwt>
<totfact> 0.22155086E+01</totfact>
</mgrwt>
</event>
<event>
12    4  0.4381187E-008  0.1529406E+04  0.7818608E-02  0.8865130E-01
          1   -1    0    0  501    0  0.00000000000E+00  0.00000000000E+00  0.22126351345E+04  0.22126351345E+04  0.00000000000E+00 0. -1.
         -2   -1    0    0    0  501 -0.00000000000E+00 -0.00000000000E+00 -0.26428701869E+03  0.26428701869E+03  0.00000000000E+00 0.  1.
        -24    2    1    2    0    0 -0.48033159813E+03 -0.20933067290E+02  0.43149326397E+03  0.65058092506E+03  0.76892559675E+02 0.  0.
        254    2    1    2    0    0  0.48033159813E+03  0.20933067290E+02  0.15168548519E+04  0.18263412282E+04  0.89639109912E+03 0.  0.
         23    2    4    4    0    0 -0.19490629037E+03 -0.18619821877E+03  0.61244459242E+03  0.67516500930E+03  0.90006512531E+02 0.  0.
         23    2    4    4    0    0  0.67523788849E+03  0.20713128606E+03  0.90441025944E+03  0.11511762189E+04  0.91647115411E+02 0.  0.
          1    1    3    3  502    0 -0.10548487139E+03  0.36630090104E+01  0.13874022850E+03  0.17432534736E+03  0.00000000000E+00 0. -1.
         -2    1    3    3    0  502 -0.37484672673E+03 -0.24596076300E+02  0.29275303547E+03  0.47625557770E+03  0.00000000000E+00 0.  1.
         11    1    5    5    0    0 -0.14282278343E+03 -0.13487905187E+03  0.52856611941E+03  0.56389081273E+03  0.00000000000E+00 0. -1.
        -11    1    5    5    0    0 -0.52083506933E+02 -0.51319166903E+02  0.83878473013E+02  0.11127419656E+03  0.00000000000E+00 0.  1.
          2    1    6    6  503    0  0.59968807336E+03  0.15566737317E+03  0.76419855508E+03  0.98379751371E+03  0.00000000000E+00 0. -1.
         -2    1    6    6    0  503  0.75549815133E+02  0.51463912895E+02  0.14021170436E+03  0.16737870515E+03  0.00000000000E+00 0.  1.
<mgrwt>
<rscale>  0 0.15294061E+04</rscale>
<asrwt>0</asrwt>
<pdfrwt beam="1">  1        1 0.34040539E+00 0.15294061E+04</pdfrwt>
<pdfrwt beam="2">  1       -2 0.40659543E-01 0.15294061E+04</pdfrwt>
<totfact> 0.10376608E+01</totfact>
</mgrwt>
</event>
<event>
12    4  0.4381187E-008  0.4793860E+04  0.7818608E-02  0.7861118E-01
         -2   -1    0    0    0  501 -0.00000000000E+00  0.00000000000E+00  0.23359587639E+04  0.23359587639E+04  0.00000000000E+00 0.  1.
          1   -1    0    0  501    0  0.00000000000E+00 -0.00000000000E+00 -0.24594922054E+04  0.24594922054E+04  0.00000000000E+00 0. -1.
        -24    2    1    2    0    0  0.14534187592E+04  0.12654096185E+04 -0.13375647305E+04  0.23473217624E+04  0.84572192031E+02 0.  0.
        254    2    1    2    0    0 -0.14534187592E+04 -0.12654096185E+04  0.12140312890E+04  0.24481292070E+04  0.89765085147E+03 0.  0.
         23    2    4    4    0    0 -0.45057314016E+03  0.36252974231E+02  0.13948510867E+03  0.48220467077E+03  0.93460238567E+02 0.  0.
         23    2    4    4    0    0 -0.10028456190E+04 -0.13016625927E+04  0.10745461803E+04  0.19659245362E+04  0.10092050056E+03 0.  0.
          1    1    3    3  502    0  0.14028418134E+04  0.12387208831E+04 -0.12907699010E+04  0.22734294617E+04  0.00000000000E+00 0. -1.
         -2    1    3    3    0  502  0.50576945781E+02  0.26688735416E+02 -0.46794829462E+02  0.73892300729E+02  0.00000000000E+00 0.  1.
         11    1    5    5    0    0 -0.65366105874E+02 -0.25471667301E+02  0.84265555275E+01  0.70657911590E+02  0.00000000000E+00 0. -1.
        -11    1    5    5    0    0 -0.38520703429E+03  0.61724641533E+02  0.13105855314E+03  0.41154675918E+03  0.00000000000E+00 0.  1.
          1    1    6    6  503    0 -0.12412581118E+02 -0.37557775154E+02  0.35853849247E+02  0.53386863088E+02  0.00000000000E+00 0. -1.
         -1    1    6    6    0  503 -0.99043303793E+03 -0.12641048176E+04  0.10386923311E+04  0.19125376731E+04  0.00000000000E+00 0.  1.
<mgrwt>
<rscale>  0 0.47938596E+04</rscale>
<asrwt>0</asrwt>
<pdfrwt beam="1">  1        1 0.37838342E+00 0.47938596E+04</pdfrwt>
<pdfrwt beam="2">  1       -2 0.35937827E+00 0.47938596E+04</pdfrwt>
<totfact> 0.12653838E-02</totfact>
</mgrwt>
</event>
<event>
12    4  0.4381187E-008  0.1188745E+04  0.7818608E-02  0.9122766E-01
         -2   -1    0    0    0  501 -0.00000000000E+00  0.00000000000E+00  0.61600830407E+03  0.61600830407E+03  0.00000000000E+00 0.  1.
          1   -1    0    0  501    0  0.00000000000E+00 -0.00000000000E+00 -0.57349645402E+03  0.57349645402E+03  0.00000000000E+00 0. -1.
        -24    2    1    2    0    0  0.51990430410E+02  0.29837226745E+02 -0.22858575566E+03  0.24947185579E+03  0.79946820991E+02 0.  0.
        254    2    1    2    0    0 -0.51990430410E+02 -0.29837226745E+02  0.27109760571E+03  0.94003290230E+03  0.89809502873E+03 0.  0.
         23    2    4    4    0    0  0.10801133516E+03 -0.59491644454E+02  0.56860971415E+03  0.58872879163E+03  0.89882583355E+02 0.  0.
         23    2    4    4    0    0 -0.16000176557E+03  0.29654417708E+02 -0.29751210844E+03  0.35130411067E+03  0.91766954987E+02 0.  0.
          3    1    3    3  502    0  0.38390361649E+02  0.14670322188E+02 -0.22507951897E+03  0.22880084808E+03  0.00000000000E+00 0. -1.
         -4    1    3    3    0  502  0.13600068761E+02  0.15166904557E+02 -0.35062366896E+01  0.20671007713E+02  0.00000000000E+00 0.  1.
         11    1    5    5    0    0 -0.87799163453E+01 -0.48645000822E+01  0.15874847871E+03  0.15906548898E+03  0.00000000000E+00 0. -1.
        -11    1    5    5    0    0  0.11679125151E+03 -0.54627144372E+02  0.40986123544E+03  0.42966330266E+03  0.00000000000E+00 0.  1.
          4    1    6    6  503    0 -0.86905717051E+02  0.44557775664E+02 -0.98234256478E+02  0.13852064169E+03  0.00000000000E+00 0.  1.
         -4    1    6    6    0  503 -0.73096048521E+02 -0.14903357956E+02 -0.19927785196E+03  0.21278346898E+03  0.00000000000E+00 0. -1.
<mgrwt>
<rscale>  0 0.11887448E+04</rscale>
<asrwt>0</asrwt>
<pdfrwt beam="1">  1        1 0.88230224E-01 0.11887448E+04</pdfrwt>
<pdfrwt beam="2">  1       -2 0.94770508E-01 0.11887448E+04</pdfrwt>
<totfact> 0.29696973E+01</totfact>
</mgrwt>
</event>
<event>
12    4  0.4381187E-008  0.3776891E+04  0.7818608E-02  0.8051132E-01
         -4   -1    0    0    0  501 -0.00000000000E+00  0.00000000000E+00  0.13633926265E+04  0.13633926265E+04  0.00000000000E+00 0.  1.
          1   -1    0    0  501    0  0.00000000000E+00 -0.00000000000E+00 -0.26157004350E+04  0.26157004350E+04  0.00000000000E+00 0. -1.
        -24    2    1    2    0    0 -0.75690843491E+03 -0.85919731838E+03 -0.20275997330E+04  0.23299942378E+04  0.81129895389E+02 0.  0.
        254    2    1    2    0    0  0.75690843491E+03  0.85919731838E+03  0.77529192452E+03  0.16490988237E+04  0.89850929398E+03 0.  0.
         23    2    4    4    0    0  0.75079375624E+03  0.93854628105E+03  0.42355419020E+03  0.12775573698E+04  0.90522344861E+02 0.  0.
         23    2    4    4    0    0  0.61146786705E+01 -0.79348962667E+02  0.35173773433E+03  0.37154145394E+03  0.89386638137E+02 0.  0.
          1    1    3    3  502    0 -0.67158986551E+03 -0.72489333900E+03 -0.17721335002E+04  0.20290294337E+04  0.00000000000E+00 0. -1.
         -2    1    3    3    0  502 -0.85318569400E+02 -0.13430397938E+03 -0.25546623289E+03  0.30096480410E+03  0.00000000000E+00 0.  1.
         11    1    5    5    0    0  0.41859113581E+03  0.57831712751E+03  0.22118101055E+03  0.74738897394E+03  0.00000000000E+00 0. -1.
        -11    1    5    5    0    0  0.33220262043E+03  0.36022915354E+03  0.20237317965E+03  0.53016839582E+03  0.00000000000E+00 0.  1.
          3    1    6    6  503    0  0.41673330065E+02 -0.42648574806E+02  0.25777697044E+03  0.26458369916E+03  0.00000000000E+00 0. -1.
         -3    1    6    6    0  503 -0.35558651395E+02 -0.36700387861E+02  0.93960763885E+02  0.10695775478E+03  0.00000000000E+00 0.  1.
<mgrwt>
<rscale>  0 0.37768911E+04</rscale>
<asrwt>0</asrwt>
<pdfrwt beam="1">  1        1 0.40241544E+00 0.37768911E+04</pdfrwt>
<pdfrwt beam="2">  1       -4 0.20975272E+00 0.37768911E+04</pdfrwt>
<totfact> 0.49746241E-02</totfact>
</mgrwt>
</event>
<event>
12    4  0.4381187E-008  0.1164268E+04  0.7818608E-02  0.9144721E-01
         -2   -1    0    0    0  501 -0.00000000000E+00  0.00000000000E+00  0.33373825274E+03  0.33373825274E+03  0.00000000000E+00 0.  1.
          1   -1    0    0  501    0  0.00000000000E+00 -0.00000000000E+00 -0.10154062848E+04  0.10154062848E+04  0.00000000000E+00 0. -1.
        -24    2    1    2    0    0  0.18149184531E+02  0.82090319388E+01  0.11921768722E+03  0.14431868292E+03  0.78855844369E+02 0.  0.
        254    2    1    2    0    0 -0.18149184531E+02 -0.82090319388E+01 -0.80088571929E+03  0.12048258546E+04  0.89988367221E+03 0.  0.
         23    2    4    4    0    0  0.29746579033E+03 -0.31340973124E+03 -0.49033584949E+03  0.65994318064E+03  0.91565279067E+02 0.  0.
         23    2    4    4    0    0 -0.31561497486E+03  0.30520069930E+03 -0.31054986980E+03  0.54488267399E+03  0.87724726107E+02 0.  0.
          3    1    3    3  502    0 -0.30664071723E+02 -0.40361197016E+01  0.42327581163E+02  0.52423274258E+02  0.00000000000E+00 0. -1.
         -4    1    3    3    0  502  0.48813256254E+02  0.12245151640E+02  0.76890106053E+02  0.91895408665E+02  0.00000000000E+00 0.  1.
         11    1    5    5    0    0  0.27995263802E+03 -0.31335686115E+03 -0.44849127810E+03  0.61458150680E+03  0.00000000000E+00 0. -1.
        -11    1    5    5    0    0  0.17513152303E+02 -0.52870084493E-01 -0.41844571394E+02  0.45361673844E+02  0.00000000000E+00 0.  1.
          4    1    6    6  503    0 -0.29115695279E+03  0.30471563221E+03 -0.28109898347E+03  0.50659710439E+03  0.00000000000E+00 0. -1.
         -4    1    6    6    0  503 -0.24458022072E+02  0.48506709238E+00 -0.29450886334E+02  0.38285569601E+02  0.00000000000E+00 0.  1.
<mgrwt>
<rscale>  0 0.11642679E+04</rscale>
<asrwt>0</asrwt>
<pdfrwt beam="1">  1        1 0.15621635E+00 0.11642679E+04</pdfrwt>
<pdfrwt beam="2">  1       -2 0.51344347E-01 0.11642679E+04</pdfrwt>
<totfact> 0.45881264E+01</totfact>
</mgrwt>
</event>
<event>
12    4  0.4381187E-008  0.1249266E+04  0.7818608E-02  0.9070794E-01
         -2   -1    0    0    0  501 -0.00000000000E+00  0.00000000000E+00  0.11388851986E+04  0.11388851986E+04  0.00000000000E+00 0.  1.
          1   -1    0    0  501    0  0.00000000000E+00 -0.00000000000E+00 -0.34258648670E+03  0.34258648670E+03  0.00000000000E+00 0. -1.
        -24    2    1    2    0    0 -0.28867918316E+03  0.68066237624E+02  0.18954393381E+03  0.36073577501E+03  0.78960199059E+02 0.  0.
        254    2    1    2    0    0  0.28867918316E+03 -0.68066237624E+02  0.60675477811E+03  0.11207359103E+04  0.89438746436E+03 0.  0.
         23    2    4    4    0    0  0.76451453790E+02 -0.24733615301E+03  0.74611535994E+03  0.79508315126E+03  0.91918930107E+02 0.  0.
         23    2    4    4    0    0  0.21222772937E+03  0.17926991538E+03 -0.13936058184E+03  0.32565275905E+03  0.97211295796E+02 0.  0.
          3    1    3    3  502    0 -0.59566385540E+02  0.21061739398E+02  0.81445732576E+02  0.10307840951E+03  0.00000000000E+00 0. -1.
         -4    1    3    3    0  502 -0.22911279762E+03  0.47004498226E+02  0.10809820124E+03  0.25765736550E+03  0.00000000000E+00 0.  1.
         11    1    5    5    0    0  0.84361714872E+02 -0.23785207463E+03  0.73883251766E+03  0.78074579570E+03  0.00000000000E+00 0. -1.
        -11    1    5    5    0    0 -0.79102610819E+01 -0.94840783737E+01  0.72828422794E+01  0.14337355567E+02  0.00000000000E+00 0.  1.
          2    1    6    6  503    0  0.19580494795E+03  0.18090697832E+03 -0.10312398212E+03  0.28583468672E+03  0.00000000000E+00 0. -1.
         -2    1    6    6    0  503  0.16422781423E+02 -0.16370629339E+01 -0.36236599719E+02  0.39818072328E+02  0.00000000000E+00 0.  1.
<mgrwt>
<rscale>  0 0.12492665E+04</rscale>
<asrwt>0</asrwt>
<pdfrwt beam="1">  1        1 0.52705614E-01 0.12492665E+04</pdfrwt>
<pdfrwt beam="2">  1       -2 0.17521311E+00 0.12492665E+04</pdfrwt>
<totfact> 0.12407752E+01</totfact>
</mgrwt>
</event>
<event>
12    4  0.4381187E-008  0.1544417E+04  0.7818608E-02  0.8855442E-01
         -2   -1    0    0    0  501 -0.00000000000E+00  0.00000000000E+00  0.42181129136E+03  0.42181129136E+03  0.00000000000E+00 0.  1.
          1   -1    0    0  501    0  0.00000000000E+00 -0.00000000000E+00 -0.14136795800E+04  0.14136795800E+04  0.00000000000E+00 0. -1.
        -24    2    1    2    0    0 -0.30623587080E+03  0.13624072616E+03 -0.78675959760E+03  0.85907025440E+03  0.81664518342E+02 0.  0.
        254    2    1    2    0    0  0.30623587080E+03 -0.13624072616E+03 -0.20510869100E+03  0.97642061692E+03  0.89386000133E+03 0.  0.
         23    2    4    4    0    0  0.78429328439E+02 -0.49989608165E+03 -0.98543989394E+02  0.52402788437E+03  0.94058778108E+02 0.  0.
         23    2    4    4    0    0  0.22780654237E+03  0.36365535549E+03 -0.10656470161E+03  0.45239273255E+03  0.95718914068E+02 0.  0.
          3    1    3    3  502    0 -0.28995186094E+03  0.12179693391E+03 -0.66796454525E+03  0.73829750676E+03  0.00000000000E+00 0. -1.
         -2    1    3    3    0  502 -0.16284009866E+02  0.14443792251E+02 -0.11879505235E+03  0.12077274765E+03  0.00000000000E+00 0.  1.
         11    1    5    5    0    0  0.60483408696E+00 -0.19599202159E+02  0.14645868956E+02  0.24474395335E+02  0.00000000000E+00 0. -1.
        -11    1    5    5    0    0  0.77824494352E+02 -0.48029687949E+03 -0.11318985835E+03  0.49955348903E+03  0.00000000000E+00 0.  1.
          4    1    6    6  503    0  0.13021772017E+03  0.26571206508E+03 -0.10542978658E+03  0.31412576475E+03  0.00000000000E+00 0. -1.
         -4    1    6    6    0  503  0.97588822192E+02  0.97943290409E+02 -0.11349150235E+01  0.13826696780E+03  0.00000000000E+00 0.  1.
<mgrwt>
<rscale>  0 0.15444171E+04</rscale>
<asrwt>0</asrwt>
<pdfrwt beam="1">  1        1 0.21748917E+00 0.15444171E+04</pdfrwt>
<pdfrwt beam="2">  1       -2 0.64894044E-01 0.15444171E+04</pdfrwt>
<totfact> 0.13922499E+01</totfact>
</mgrwt>
</event>
<event>
12    4  0.4381187E-008  0.1333155E+04  0.7818608E-02  0.9003679E-01
         -2   -1    0    0    0  501 -0.00000000000E+00  0.00000000000E+00  0.86002650848E+03  0.86002650848E+03  0.00000000000E+00 0.  1.
          1   -1    0    0  501    0  0.00000000000E+00 -0.00000000000E+00 -0.51664144678E+03  0.51664144678E+03  0.00000000000E+00 0. -1.
        -24    2    1    2    0    0 -0.34936768734E+03  0.18396283832E+02  0.15892512694E+03  0.39256358707E+03  0.80329133606E+02 0.  0.
        254    2    1    2    0    0  0.34936768734E+03 -0.18396283832E+02  0.18445993475E+03  0.98410436819E+03  0.90113247403E+03 0.  0.
         23    2    4    4    0    0 -0.17160612376E+03 -0.17125532022E+03  0.32569095562E+03  0.41586069815E+03  0.89935950973E+02 0.  0.
         23    2    4    4    0    0  0.52097381110E+03  0.15285903639E+03 -0.14123102087E+03  0.56824367004E+03  0.90416096023E+02 0.  0.
          3    1    3    3  502    0 -0.15585469925E+03  0.46628218408E+02  0.59880009602E+02  0.17335078189E+03  0.00000000000E+00 0. -1.
         -4    1    3    3    0  502 -0.19351298809E+03 -0.28231934576E+02  0.99045117341E+02  0.21921280519E+03  0.00000000000E+00 0.  1.
         11    1    5    5    0    0 -0.50941544218E+02 -0.10670656768E+03  0.11730035085E+03  0.16655541067E+03  0.00000000000E+00 0. -1.
        -11    1    5    5    0    0 -0.12066457954E+03 -0.64548752545E+02  0.20839060477E+03  0.24930528748E+03  0.00000000000E+00 0.  1.
          3    1    6    6  503    0  0.92317284843E+02  0.63200666740E+02 -0.39532630177E+02  0.11865763442E+03  0.00000000000E+00 0. -1.
         -3    1    6    6    0  503  0.42865652626E+03  0.89658369652E+02 -0.10169839069E+03  0.44958603562E+03  0.00000000000E+00 0.  1.
<mgrwt>
<rscale>  0 0.13331547E+04</rscale>
<asrwt>0</asrwt>
<pdfrwt beam="1">  1        1 0.79483299E-01 0.13331547E+04</pdfrwt>
<pdfrwt beam="2">  1       -2 0.13231177E+00 0.13331547E+04</pdfrwt>
<totfact> 0.15068016E+01</totfact>
</mgrwt>
</event>
<event>
12    4  0.4381187E-008  0.1285548E+04  0.7818608E-02  0.9041105E-01
         -2   -1    0    0    0  501 -0.00000000000E+00  0.00000000000E+00  0.36980044288E+03  0.36980044288E+03  0.00000000000E+00 0.  1.
          1   -1    0    0  501    0  0.00000000000E+00 -0.00000000000E+00 -0.11172468611E+04  0.11172468611E+04  0.00000000000E+00 0. -1.
        -24    2    1    2    0    0 -0.16229581887E+03 -0.24589020124E+03 -0.13862834081E+03  0.33521178728E+03  0.79669326391E+02 0.  0.
        254    2    1    2    0    0  0.16229581887E+03  0.24589020124E+03 -0.60881807743E+03  0.11518355167E+04  0.93234311402E+03 0.  0.
         23    2    4    4    0    0  0.59830439926E+01  0.58142935357E+03 -0.29380786573E+03  0.65769184539E+03  0.90219795624E+02 0.  0.
         23    2    4    4    0    0  0.15631277488E+03 -0.33553915233E+03 -0.31501021171E+03  0.49414367132E+03  0.89029928028E+02 0.  0.
          3    1    3    3  502    0 -0.56821145954E+02 -0.78489303933E+02 -0.88199152828E+02  0.13102787497E+03  0.00000000000E+00 0. -1.
         -4    1    3    3    0  502 -0.10547467292E+03 -0.16740089731E+03 -0.50429187978E+02  0.20418391231E+03  0.00000000000E+00 0.  1.
         11    1    5    5    0    0 -0.20138867463E+02  0.42367138242E+03 -0.17667540818E+03  0.45947493307E+03  0.00000000000E+00 0.  1.
        -11    1    5    5    0    0  0.26121911456E+02  0.15775797116E+03 -0.11713245754E+03  0.19821691233E+03  0.00000000000E+00 0. -1.
          3    1    6    6  503    0  0.19577481759E+01 -0.13804674011E+02 -0.43703735106E+02  0.45873938840E+02  0.00000000000E+00 0. -1.
         -3    1    6    6    0  503  0.15435502670E+03 -0.32173447832E+03 -0.27130647660E+03  0.44826973248E+03  0.00000000000E+00 0.  1.
<mgrwt>
<rscale>  0 0.12855480E+04</rscale>
<asrwt>0</asrwt>
<pdfrwt beam="1">  1        1 0.17188413E+00 0.12855480E+04</pdfrwt>
<pdfrwt beam="2">  1       -2 0.56892377E-01 0.12855480E+04</pdfrwt>
<totfact> 0.30745987E+01</totfact>
</mgrwt>
</event>
<event>
12    4  0.4381187E-008  0.1730332E+04  0.7818608E-02  0.8744251E-01
          1   -1    0    0  501    0  0.00000000000E+00  0.00000000000E+00  0.94555191002E+03  0.94555191002E+03  0.00000000000E+00 0. -1.
         -2   -1    0    0    0  501 -0.00000000000E+00 -0.00000000000E+00 -0.79161446674E+03  0.79161446674E+03  0.00000000000E+00 0.  1.
        -24    2    1    2    0    0 -0.33430049571E+03  0.36873054826E+03 -0.32652182242E+03  0.60059285022E+03  0.79851315408E+02 0.  0.
        254    2    1    2    0    0  0.33430049571E+03 -0.36873054826E+03  0.48045926571E+03  0.11365735265E+04  0.90179778031E+03 0.  0.
         23    2    4    4    0    0  0.37691390948E+03  0.83772104214E+02 -0.84506076505E+02  0.40578884161E+03  0.91877344338E+02 0.  0.
         23    2    4    4    0    0 -0.42613413774E+02 -0.45250265247E+03  0.56496534221E+03  0.73078468492E+03  0.91026722953E+02 0.  0.
          1    1    3    3  502    0 -0.27530210176E+01 -0.34090908050E+01 -0.79264165017E+01  0.90569919619E+01  0.00000000000E+00 0. -1.
         -2    1    3    3    0  502 -0.33154747469E+03  0.37213963907E+03 -0.31859540592E+03  0.59153585826E+03  0.00000000000E+00 0.  1.
         11    1    5    5    0    0  0.54660858604E+02 -0.15333467122E+02  0.49163517094E+01  0.56983288704E+02  0.00000000000E+00 0.  1.
        -11    1    5    5    0    0  0.32225305088E+03  0.99105571336E+02 -0.89422428215E+02  0.34880555291E+03  0.00000000000E+00 0. -1.
          2    1    6    6  503    0 -0.44821419786E+02 -0.26524000017E+03  0.39489021258E+03  0.47780696662E+03  0.00000000000E+00 0. -1.
         -2    1    6    6    0  503  0.22080060120E+01 -0.18726265230E+03  0.17007512963E+03  0.25297771830E+03  0.00000000000E+00 0.  1.
<mgrwt>
<rscale>  0 0.17303324E+04</rscale>
<asrwt>0</asrwt>
<pdfrwt beam="1">  1        1 0.14546952E+00 0.17303324E+04</pdfrwt>
<pdfrwt beam="2">  1       -2 0.12178684E+00 0.17303324E+04</pdfrwt>
<totfact> 0.71149343E+00</totfact>
</mgrwt>
</event>
<event>
12    4  0.4381187E-008  0.1476056E+04  0.7818608E-02  0.8900533E-01
          1   -1    0    0  501    0  0.00000000000E+00  0.00000000000E+00  0.20375886935E+04  0.20375886935E+04  0.00000000000E+00 0. -1.
         -2   -1    0    0    0  501 -0.00000000000E+00 -0.00000000000E+00 -0.26731874106E+03  0.26731874106E+03  0.00000000000E+00 0.  1.
        -24    2    1    2    0    0 -0.40178152905E+03 -0.21680222324E+03  0.59133514301E+03  0.75143210265E+03  0.80878627936E+02 0.  0.
        254    2    1    2    0    0  0.40178152905E+03  0.21680222324E+03  0.11789348095E+04  0.15534753319E+04  0.90275507247E+03 0.  0.
         23    2    4    4    0    0  0.43612620065E+03 -0.43465047350E+02  0.12793148134E+03  0.46592430388E+03  0.92863985435E+02 0.  0.
         23    2    4    4    0    0 -0.34344671602E+02  0.26026727059E+03  0.10510033281E+04  0.10875510281E+04  0.96128217858E+02 0.  0.
          1    1    3    3  502    0  0.33269130368E+01 -0.12322949856E+01  0.94229867741E+00  0.36708075519E+01  0.00000000000E+00 0. -1.
         -2    1    3    3    0  502 -0.40510844209E+03 -0.21556992825E+03  0.59039284433E+03  0.74776129510E+03  0.00000000000E+00 0.  1.
         11    1    5    5    0    0  0.26018538035E+03 -0.63418118401E+02  0.49843692566E+02  0.27240169526E+03  0.00000000000E+00 0. -1.
        -11    1    5    5    0    0  0.17594082030E+03  0.19953071052E+02  0.78087788771E+02  0.19352260862E+03  0.00000000000E+00 0.  1.
          2    1    6    6  503    0  0.32765221620E+02  0.71485920020E+02  0.32863517924E+03  0.33791252943E+03  0.00000000000E+00 0. -1.
         -2    1    6    6    0  503 -0.67109893222E+02  0.18878135057E+03  0.72236814889E+03  0.74963849863E+03  0.00000000000E+00 0.  1.
<mgrwt>
<rscale>  0 0.14760564E+04</rscale>
<asrwt>0</asrwt>
<pdfrwt beam="1">  1        1 0.31347517E+00 0.14760564E+04</pdfrwt>
<pdfrwt beam="2">  1       -2 0.41125961E-01 0.14760564E+04</pdfrwt>
<totfact> 0.13400337E+01</totfact>
</mgrwt>
</event>
<event>
12    4  0.4381187E-008  0.1174121E+04  0.7818608E-02  0.9135815E-01
          1   -1    0    0  501    0  0.00000000000E+00  0.00000000000E+00  0.17687745432E+04  0.17687745432E+04  0.00000000000E+00 0. -1.
         -2   -1    0    0    0  501 -0.00000000000E+00 -0.00000000000E+00 -0.19484673770E+03  0.19484673770E+03  0.00000000000E+00 0.  1.
        -24    2    1    2    0    0 -0.17260330557E+03 -0.13373702761E+03  0.17257034795E+03  0.28968635020E+03  0.80375138273E+02 0.  0.
        254    2    1    2    0    0  0.17260330557E+03  0.13373702761E+03  0.14013574575E+04  0.16739349307E+04  0.88914449599E+03 0.  0.
         23    2    4    4    0    0  0.52530695637E+03  0.32513414965E+02  0.88364412538E+03  0.10329516299E+04  0.95695395810E+02 0.  0.
         23    2    4    4    0    0 -0.35270365080E+03  0.10122361264E+03  0.51771333214E+03  0.64098330081E+03  0.90478796340E+02 0.  0.
          1    1    3    3  502    0 -0.12478284827E+03 -0.12719705960E+03  0.16078328977E+03  0.24000232803E+03  0.00000000000E+00 0. -1.
         -2    1    3    3    0  502 -0.47820457300E+02 -0.65399680119E+01  0.11787058181E+02  0.49684022165E+02  0.00000000000E+00 0.  1.
         11    1    5    5    0    0  0.34432961499E+03 -0.21664560836E+02  0.54004114207E+03  0.64084059803E+03  0.00000000000E+00 0. -1.
        -11    1    5    5    0    0  0.18097734138E+03  0.54177975801E+02  0.34360298331E+03  0.39211103184E+03  0.00000000000E+00 0.  1.
          3    1    6    6  503    0 -0.35093090732E+03  0.10877805047E+03  0.51528280102E+03  0.63285190290E+03  0.00000000000E+00 0. -1.
         -3    1    6    6    0  503 -0.17727434825E+01 -0.75544378280E+01  0.24305311216E+01  0.81313979048E+01  0.00000000000E+00 0.  1.
<mgrwt>
<rscale>  0 0.11741209E+04</rscale>
<asrwt>0</asrwt>
<pdfrwt beam="1">  1        1 0.27211915E+00 0.11741209E+04</pdfrwt>
<pdfrwt beam="2">  1       -2 0.29976422E-01 0.11741209E+04</pdfrwt>
<totfact> 0.38265586E+01</totfact>
</mgrwt>
</event>
<event>
12    4  0.4381187E-008  0.1071788E+04  0.7818608E-02  0.9233134E-01
         -2   -1    0    0    0  501 -0.00000000000E+00  0.00000000000E+00  0.62593445633E+03  0.62593445633E+03  0.00000000000E+00 0.  1.
          1   -1    0    0  501    0  0.00000000000E+00 -0.00000000000E+00 -0.45880591850E+03  0.45880591850E+03  0.00000000000E+00 0. -1.
        -24    2    1    2    0    0 -0.55564248394E+02 -0.71791024529E+02 -0.76301963027E+02  0.14273339087E+03  0.79432325939E+02 0.  0.
        254    2    1    2    0    0  0.55564248394E+02  0.71791024529E+02  0.24343050086E+03  0.94200698397E+03  0.90547082349E+03 0.  0.
         23    2    4    4    0    0  0.40034738923E+03 -0.20390084134E+03  0.13330350414E+03  0.47759625010E+03  0.92058507083E+02 0.  0.
         23    2    4    4    0    0 -0.34478314084E+03  0.27569186587E+03  0.11012699672E+03  0.46441073387E+03  0.93101854017E+02 0.  0.
          3    1    3    3  502    0 -0.16868831255E+02 -0.49698765913E+02 -0.82466672068E+02  0.97751096173E+02  0.00000000000E+00 0. -1.
         -4    1    3    3    0  502 -0.38695417139E+02 -0.22092258617E+02  0.61647090407E+01  0.44982294694E+02  0.00000000000E+00 0.  1.
         11    1    5    5    0    0  0.11556831521E+03 -0.10719493773E+03  0.53140462982E+02  0.16634512004E+03  0.00000000000E+00 0. -1.
        -11    1    5    5    0    0  0.28477907402E+03 -0.96705903608E+02  0.80163041158E+02  0.31125113005E+03  0.00000000000E+00 0.  1.
          4    1    6    6  503    0 -0.10449751552E+03  0.36562031341E+02  0.11211169803E+02  0.11127534863E+03  0.00000000000E+00 0.  1.
         -4    1    6    6    0  503 -0.24028562532E+03  0.23912983453E+03  0.98915826913E+02  0.35313538524E+03  0.00000000000E+00 0. -1.
<mgrwt>
<rscale>  0 0.10717881E+04</rscale>
<asrwt>0</asrwt>
<pdfrwt beam="1">  1        1 0.70585526E-01 0.10717881E+04</pdfrwt>
<pdfrwt beam="2">  1       -2 0.96297609E-01 0.10717881E+04</pdfrwt>
<totfact> 0.39305792E+01</totfact>
</mgrwt>
</event>
<event>
12    4  0.4381187E-008  0.1409680E+04  0.7818608E-02  0.8946841E-01
         -2   -1    0    0    0  501 -0.00000000000E+00  0.00000000000E+00  0.32433427498E+03  0.32433427498E+03  0.00000000000E+00 0.  1.
          1   -1    0    0  501    0  0.00000000000E+00 -0.00000000000E+00 -0.15317511535E+04  0.15317511535E+04  0.00000000000E+00 0. -1.
        -24    2    1    2    0    0 -0.33454696407E+03  0.80804374228E+02 -0.57768299057E+02  0.36085782729E+03  0.91815995758E+02 0.  0.
        254    2    1    2    0    0  0.33454696407E+03 -0.80804374228E+02 -0.11496485795E+04  0.14952276012E+04  0.89194321851E+03 0.  0.
         23    2    4    4    0    0  0.32791313292E+03 -0.37176253853E+03 -0.28514225226E+03  0.57850943722E+03  0.87365079620E+02 0.  0.
         23    2    4    4    0    0  0.66338311587E+01  0.29095816431E+03 -0.86450632723E+03  0.91671816399E+03  0.91106208753E+02 0.  0.
          3    1    3    3  502    0 -0.41979005521E+01  0.45226023909E+00 -0.18082137714E+02  0.18568538248E+02  0.00000000000E+00 0. -1.
         -4    1    3    3    0  502 -0.33034906352E+03  0.80352113989E+02 -0.39686161343E+02  0.34228928904E+03  0.00000000000E+00 0.  1.
         11    1    5    5    0    0  0.26610042350E+03 -0.28889813514E+03 -0.18347449321E+03  0.43351407997E+03  0.00000000000E+00 0.  1.
        -11    1    5    5    0    0  0.61812709419E+02 -0.82864403399E+02 -0.10166775905E+03  0.14499535726E+03  0.00000000000E+00 0. -1.
          3    1    6    6  503    0  0.72181019221E+01  0.11184126093E+03 -0.47435630183E+03  0.48741611558E+03  0.00000000000E+00 0. -1.
         -3    1    6    6    0  503 -0.58427076348E+00  0.17911690338E+03 -0.39015002540E+03  0.42930204841E+03  0.00000000000E+00 0.  1.
<mgrwt>
<rscale>  0 0.14096800E+04</rscale>
<asrwt>0</asrwt>
<pdfrwt beam="1">  1        1 0.23565402E+00 0.14096800E+04</pdfrwt>
<pdfrwt beam="2">  1       -2 0.49897581E-01 0.14096800E+04</pdfrwt>
<totfact> 0.20203874E+01</totfact>
</mgrwt>
</event>
<event>
12    4  0.4381187E-008  0.1089948E+04  0.7818608E-02  0.9215045E-01
          1   -1    0    0  501    0  0.00000000000E+00  0.00000000000E+00  0.13232793185E+04  0.13232793185E+04  0.00000000000E+00 0. -1.
         -2   -1    0    0    0  501 -0.00000000000E+00 -0.00000000000E+00 -0.22443975570E+03  0.22443975570E+03  0.00000000000E+00 0.  1.
        -24    2    1    2    0    0  0.26140506432E+02 -0.11157381259E+03  0.16879773477E+03  0.21914102153E+03  0.79987938587E+02 0.  0.
        254    2    1    2    0    0 -0.26140506432E+02  0.11157381259E+03  0.93004182805E+03  0.13285780527E+04  0.94181197616E+03 0.  0.
         23    2    4    4    0    0  0.25230701868E+02 -0.35690609020E+03  0.71138135461E+03  0.80147772197E+03  0.91019567033E+02 0.  0.
         23    2    4    4    0    0 -0.51371208300E+02  0.46847990280E+03  0.21866047344E+03  0.52710033072E+03  0.88937818932E+02 0.  0.
          1    1    3    3  502    0 -0.23625465217E+00  0.99925002900E+01  0.69757147820E+00  0.10019604996E+02  0.00000000000E+00 0. -1.
         -2    1    3    3    0  502  0.26376761084E+02 -0.12156631288E+03  0.16810016329E+03  0.20912141653E+03  0.00000000000E+00 0.  1.
         11    1    5    5    0    0  0.13769590191E+02 -0.27561244206E+01  0.18248023292E+02  0.23025815727E+02  0.00000000000E+00 0. -1.
        -11    1    5    5    0    0  0.11461111676E+02 -0.35414996578E+03  0.69313333132E+03  0.77845190624E+03  0.00000000000E+00 0.  1.
          4    1    6    6  503    0 -0.64343027460E+02  0.18574654523E+03  0.89995302074E+02  0.21619657408E+03  0.00000000000E+00 0. -1.
         -4    1    6    6    0  503  0.12971819160E+02  0.28273335757E+03  0.12866517137E+03  0.31090375665E+03  0.00000000000E+00 0.  1.
<mgrwt>
<rscale>  0 0.10899477E+04</rscale>
<asrwt>0</asrwt>
<pdfrwt beam="1">  1        1 0.20358143E+00 0.10899477E+04</pdfrwt>
<pdfrwt beam="2">  1       -2 0.34529194E-01 0.10899477E+04</pdfrwt>
<totfact> 0.59845531E+01</totfact>
</mgrwt>
</event>
<event>
12    4  0.4381187E-008  0.1500252E+04  0.7818608E-02  0.8884286E-01
          1   -1    0    0  501    0  0.00000000000E+00  0.00000000000E+00  0.23864415186E+04  0.23864415186E+04  0.00000000000E+00 0. -1.
         -2   -1    0    0    0  501 -0.00000000000E+00 -0.00000000000E+00 -0.23578569902E+03  0.23578569902E+03  0.00000000000E+00 0.  1.
        -24    2    1    2    0    0  0.17909791777E+03 -0.30534769237E+03  0.13548262515E+03  0.38717693437E+03  0.78975688698E+02 0.  0.
        254    2    1    2    0    0 -0.17909791777E+03  0.30534769237E+03  0.20151731944E+04  0.22350502832E+04  0.89956294260E+03 0.  0.
         23    2    4    4    0    0  0.93348529227E+02  0.48483748741E+03  0.16982775919E+04  0.17709753435E+04  0.91790800175E+02 0.  0.
         23    2    4    4    0    0 -0.27244644700E+03 -0.17948979504E+03  0.31689560250E+03  0.46407493973E+03  0.92190421369E+02 0.  0.
          1    1    3    3  502    0  0.56904332781E+02 -0.79381542729E+02  0.20293368774E+01  0.97691609790E+02  0.00000000000E+00 0. -1.
         -2    1    3    3    0  502  0.12219358499E+03 -0.22596614964E+03  0.13345328828E+03  0.28948532458E+03  0.00000000000E+00 0.  1.
         11    1    5    5    0    0  0.50421595965E+01  0.95663834609E+00  0.33737528976E+01  0.61417211704E+01  0.00000000000E+00 0.  1.
        -11    1    5    5    0    0  0.88306369631E+02  0.48388084906E+03  0.16949038390E+04  0.17648336223E+04  0.00000000000E+00 0. -1.
          4    1    6    6  503    0 -0.49515782858E+01 -0.33613215790E+02  0.25542436647E+02  0.42506263928E+02  0.00000000000E+00 0.  1.
         -4    1    6    6    0  503 -0.26749486872E+03 -0.14587657925E+03  0.29135316586E+03  0.42156867580E+03  0.00000000000E+00 0. -1.
<mgrwt>
<rscale>  0 0.15002517E+04</rscale>
<asrwt>0</asrwt>
<pdfrwt beam="1">  1        1 0.36714483E+00 0.15002517E+04</pdfrwt>
<pdfrwt beam="2">  1       -2 0.36274724E-01 0.15002517E+04</pdfrwt>
<totfact> 0.98808193E+00</totfact>
</mgrwt>
</event>
<event>
12    4  0.4381187E-008  0.1247368E+04  0.7818608E-02  0.9072377E-01
         -2   -1    0    0    0  501 -0.00000000000E+00  0.00000000000E+00  0.38958936487E+03  0.38958936487E+03  0.00000000000E+00 0.  1.
          1   -1    0    0  501    0  0.00000000000E+00 -0.00000000000E+00 -0.99843957200E+03  0.99843957200E+03  0.00000000000E+00 0. -1.
        -24    2    1    2    0    0 -0.10618429049E+03  0.50601029204E+01  0.15697344812E+03  0.20566057804E+03  0.79717637684E+02 0.  0.
        254    2    1    2    0    0  0.10618429049E+03 -0.50601029204E+01 -0.76582365525E+03  0.11823683588E+04  0.89454365842E+03 0.  0.
         23    2    4    4    0    0  0.16112327729E+03 -0.32614739447E+03 -0.34768241900E+02  0.37709649844E+03  0.93059685615E+02 0.  0.
         23    2    4    4    0    0 -0.54938986800E+02  0.32108729155E+03 -0.73105541335E+03  0.80527186038E+03  0.88912376370E+02 0.  0.
          1    1    3    3  502    0 -0.55023300935E+02 -0.36028750239E+02  0.63235676687E+02  0.91238069333E+02  0.00000000000E+00 0. -1.
         -2    1    3    3    0  502 -0.51160989551E+02  0.41088853159E+02  0.93737771433E+02  0.11442250871E+03  0.00000000000E+00 0.  1.
         11    1    5    5    0    0  0.16993746928E+03 -0.28445565659E+03 -0.41552133036E+02  0.33394661818E+03  0.00000000000E+00 0. -1.
        -11    1    5    5    0    0 -0.88141919899E+01 -0.41691737881E+02  0.67838911363E+01  0.43149880266E+02  0.00000000000E+00 0.  1.
          2    1    6    6  503    0 -0.37076126190E+02  0.44190254089E+02 -0.92152976467E+02  0.10871793211E+03  0.00000000000E+00 0. -1.
         -2    1    6    6    0  503 -0.17862860611E+02  0.27689703746E+03 -0.63890243688E+03  0.69655392828E+03  0.00000000000E+00 0.  1.
<mgrwt>
<rscale>  0 0.12473675E+04</rscale>
<asrwt>0</asrwt>
<pdfrwt beam="1">  1        1 0.15360609E+00 0.12473675E+04</pdfrwt>
<pdfrwt beam="2">  1       -2 0.59936826E-01 0.12473675E+04</pdfrwt>
<totfact> 0.34059184E+01</totfact>
</mgrwt>
</event>
<event>
12    4  0.4381187E-008  0.2375368E+04  0.7818608E-02  0.8448783E-01
          1   -1    0    0  501    0  0.00000000000E+00  0.00000000000E+00  0.12054875411E+04  0.12054875411E+04  0.00000000000E+00 0. -1.
         -2   -1    0    0    0  501 -0.00000000000E+00 -0.00000000000E+00 -0.11701431960E+04  0.11701431960E+04  0.00000000000E+00 0.  1.
        -24    2    1    2    0    0 -0.88671870364E+03 -0.21561945318E+03  0.46000800212E+03  0.10256893066E+04  0.87575017155E+02 0.  0.
        254    2    1    2    0    0  0.88671870364E+03  0.21561945318E+03 -0.42466365705E+03  0.13499414306E+04  0.89957814358E+03 0.  0.
         23    2    4    4    0    0  0.60981769712E+03  0.15936985115E+03  0.19227982131E+03  0.66526415123E+03  0.91260550396E+02 0.  0.
         23    2    4    4    0    0  0.27690100652E+03  0.56249602036E+02 -0.61694347836E+03  0.68467727935E+03  0.91244376378E+02 0.  0.
          3    1    3    3  502    0 -0.68411934007E+03 -0.19047597329E+03  0.38789193999E+03  0.80917274112E+03  0.00000000000E+00 0. -1.
         -4    1    3    3    0  502 -0.20259936357E+03 -0.25143479892E+02  0.72116062134E+02  0.21651656546E+03  0.00000000000E+00 0.  1.
         11    1    5    5    0    0  0.43627106028E+03  0.13370507339E+03  0.17603885681E+03  0.48907991555E+03  0.00000000000E+00 0. -1.
        -11    1    5    5    0    0  0.17354663684E+03  0.25664777760E+02  0.16240964505E+02  0.17618423569E+03  0.00000000000E+00 0.  1.
          1    1    6    6  503    0  0.11926385846E+03  0.10338777990E+02 -0.16513973333E+03  0.20396541322E+03  0.00000000000E+00 0. -1.
         -1    1    6    6    0  503  0.15763714806E+03  0.45910824046E+02 -0.45180374503E+03  0.48071186613E+03  0.00000000000E+00 0.  1.
<mgrwt>
<rscale>  0 0.23753678E+04</rscale>
<asrwt>0</asrwt>
<pdfrwt beam="1">  1        1 0.18545962E+00 0.23753678E+04</pdfrwt>
<pdfrwt beam="2">  1       -2 0.18002203E+00 0.23753678E+04</pdfrwt>
<totfact> 0.15120661E+00</totfact>
</mgrwt>
</event>
<event>
12    4  0.4381187E-008  0.1516032E+04  0.7818608E-02  0.8873861E-01
         -2   -1    0    0    0  501 -0.00000000000E+00  0.00000000000E+00  0.70872627272E+03  0.70872627272E+03  0.00000000000E+00 0.  1.
          1   -1    0    0  501    0  0.00000000000E+00 -0.00000000000E+00 -0.81073345682E+03  0.81073345682E+03  0.00000000000E+00 0. -1.
        -24    2    1    2    0    0  0.26123189602E+03  0.18993542519E+03 -0.39129037714E+03  0.51612046577E+03  0.94628783698E+02 0.  0.
        254    2    1    2    0    0 -0.26123189602E+03 -0.18993542519E+03  0.28928319305E+03  0.10033392638E+04  0.90481343004E+03 0.  0.
         23    2    4    4    0    0 -0.48812176667E+03 -0.12191576137E+03  0.46817169916E+03  0.69316373582E+03  0.90359906976E+02 0.  0.
         23    2    4    4    0    0  0.22688987065E+03 -0.68019663822E+02 -0.17888850611E+03  0.31017552795E+03  0.90011512873E+02 0.  0.
          1    1    3    3  502    0  0.83888696463E+02  0.72506471012E+02 -0.20639519120E+03  0.23429356944E+03  0.00000000000E+00 0. -1.
         -2    1    3    3    0  502  0.17734319956E+03  0.11742895418E+03 -0.18489518594E+03  0.28182689633E+03  0.00000000000E+00 0.  1.
         11    1    5    5    0    0 -0.40738508822E+03 -0.13436364451E+03  0.38166450807E+03  0.57418115242E+03  0.00000000000E+00 0. -1.
        -11    1    5    5    0    0 -0.80736678454E+02  0.12447883145E+02  0.86507191087E+02  0.11898258340E+03  0.00000000000E+00 0.  1.
          2    1    6    6  503    0  0.22329662928E+03 -0.66935304091E+02 -0.14170696447E+03  0.27280502810E+03  0.00000000000E+00 0. -1.
         -2    1    6    6    0  503  0.35932413715E+01 -0.10843597308E+01 -0.37181541644E+02  0.37370499844E+02  0.00000000000E+00 0.  1.
<mgrwt>
<rscale>  0 0.15160318E+04</rscale>
<asrwt>0</asrwt>
<pdfrwt beam="1">  1        1 0.12472822E+00 0.15160318E+04</pdfrwt>
<pdfrwt beam="2">  1       -2 0.10903481E+00 0.15160318E+04</pdfrwt>
<totfact> 0.12292025E+01</totfact>
</mgrwt>
</event>
<event>
12    4  0.4381187E-008  0.1426667E+04  0.7818608E-02  0.8934739E-01
          3   -1    0    0  501    0  0.00000000000E+00  0.00000000000E+00  0.83491883920E+03  0.83491883920E+03  0.00000000000E+00 0. -1.
         -4   -1    0    0    0  501 -0.00000000000E+00 -0.00000000000E+00 -0.60945380489E+03  0.60945380489E+03  0.00000000000E+00 0.  1.
        -24    2    1    2    0    0 -0.41157880387E+03 -0.71155794602E+02  0.10718019505E+03  0.43850658099E+03  0.79625174799E+02 0.  0.
        254    2    1    2    0    0  0.41157880387E+03  0.71155794602E+02  0.11828483926E+03  0.10058660631E+04  0.90736705626E+03 0.  0.
         23    2    4    4    0    0  0.24563024448E+03 -0.35502688891E+02 -0.37848045373E+03  0.46384656770E+03  0.10154568719E+03 0.  0.
         23    2    4    4    0    0  0.16594855939E+03  0.10665848349E+03  0.49676529300E+03  0.54201949539E+03  0.89968997974E+02 0.  0.
          3    1    3    3  502    0 -0.27002761225E+03 -0.52410305353E+02  0.31390997816E+02  0.27685221008E+03  0.00000000000E+00 0. -1.
         -4    1    3    3    0  502 -0.14155119162E+03 -0.18745489249E+02  0.75789197235E+02  0.16165437091E+03  0.00000000000E+00 0.  1.
         11    1    5    5    0    0  0.17660608032E+03 -0.10498994797E+02 -0.33412690749E+03  0.37807502801E+03  0.00000000000E+00 0.  1.
        -11    1    5    5    0    0  0.69024164158E+02 -0.25003694094E+02 -0.44353546246E+02  0.85771539689E+02  0.00000000000E+00 0. -1.
          2    1    6    6  503    0 -0.64937258963E+01  0.22007033921E+02  0.34555017336E+02  0.41479238675E+02  0.00000000000E+00 0. -1.
         -2    1    6    6    0  503  0.17244228529E+03  0.84651449572E+02  0.46221027566E+03  0.50054025672E+03  0.00000000000E+00 0.  1.
<mgrwt>
<rscale>  0 0.14266667E+04</rscale>
<asrwt>0</asrwt>
<pdfrwt beam="1">  1        3 0.12844905E+00 0.14266667E+04</pdfrwt>
<pdfrwt beam="2">  1       -4 0.93762123E-01 0.14266667E+04</pdfrwt>
<totfact> 0.10250599E+00</totfact>
</mgrwt>
</event>
<event>
12    4  0.4381187E-008  0.2091385E+04  0.7818608E-02  0.8565048E-01
          1   -1    0    0  501    0  0.00000000000E+00  0.00000000000E+00  0.23238180470E+04  0.23238180470E+04  0.00000000000E+00 0. -1.
         -2   -1    0    0    0  501 -0.00000000000E+00 -0.00000000000E+00 -0.47054994718E+03  0.47054994718E+03  0.00000000000E+00 0.  1.
        -24    2    1    2    0    0  0.97395540357E+02 -0.23395451799E+03  0.16683713312E+04  0.16894106541E+04  0.80155173154E+02 0.  0.
        254    2    1    2    0    0 -0.97395540357E+02  0.23395451799E+03  0.18489676861E+03  0.11049573400E+04  0.10594920011E+04 0.  0.
         23    2    4    4    0    0  0.23609820542E+03  0.21982920334E+03 -0.33839593814E+03  0.47644669850E+03  0.91773658086E+02 0.  0.
         23    2    4    4    0    0 -0.33349374578E+03  0.14125314650E+02  0.52329270674E+03  0.62851064153E+03  0.98857304205E+02 0.  0.
          3    1    3    3  502    0  0.93054819455E+02 -0.15433151796E+03  0.13055742470E+04  0.13179535392E+04  0.00000000000E+00 0. -1.
         -4    1    3    3    0  502  0.43407209023E+01 -0.79623000026E+02  0.36279708411E+03  0.37145711493E+03  0.00000000000E+00 0.  1.
         11    1    5    5    0    0  0.13380256734E+03  0.85447345250E+02 -0.11331859306E+03  0.19505250413E+03  0.00000000000E+00 0.  1.
        -11    1    5    5    0    0  0.10229563809E+03  0.13438185809E+03 -0.22507734508E+03  0.28139419436E+03  0.00000000000E+00 0. -1.
          2    1    6    6  503    0 -0.23467077675E+03  0.34312397730E+02  0.29198979519E+03  0.37617250643E+03  0.00000000000E+00 0.  1.
         -2    1    6    6    0  503 -0.98822969027E+02 -0.20187083080E+02  0.23130291156E+03  0.25233813510E+03  0.00000000000E+00 0. -1.
<mgrwt>
<rscale>  0 0.20913847E+04</rscale>
<asrwt>0</asrwt>
<pdfrwt beam="1">  1        1 0.35751046E+00 0.20913847E+04</pdfrwt>
<pdfrwt beam="2">  1       -2 0.72392301E-01 0.20913847E+04</pdfrwt>
<totfact> 0.25027935E+00</totfact>
</mgrwt>
</event>
<event>
12    4  0.4381187E-008  0.2130839E+04  0.7818608E-02  0.8547779E-01
         -2   -1    0    0    0  501 -0.00000000000E+00  0.00000000000E+00  0.10731152844E+04  0.10731152844E+04  0.00000000000E+00 0.  1.
          1   -1    0    0  501    0  0.00000000000E+00 -0.00000000000E+00 -0.10577784574E+04  0.10577784574E+04  0.00000000000E+00 0. -1.
        -24    2    1    2    0    0  0.63873582493E+03 -0.26078953506E+03 -0.52003826665E+03  0.86769981954E+03  0.80427249159E+02 0.  0.
        254    2    1    2    0    0 -0.63873582493E+03  0.26078953506E+03  0.53537509365E+03  0.12631939223E+04  0.91270902204E+03 0.  0.
         23    2    4    4    0    0 -0.67419860861E+03 -0.94615158965E+02  0.57071433310E+03  0.89297570349E+03  0.90526045127E+02 0.  0.
         23    2    4    4    0    0  0.35462783685E+02  0.35540469403E+03 -0.35339239451E+02  0.37021821886E+03  0.90788557485E+02 0.  0.
          1    1    3    3  502    0  0.46439741758E+03 -0.15041582212E+03 -0.37242948082E+03  0.61399804493E+03  0.00000000000E+00 0. -1.
         -2    1    3    3    0  502  0.17433840735E+03 -0.11037371294E+03 -0.14760878584E+03  0.25370177461E+03  0.00000000000E+00 0.  1.
         11    1    5    5    0    0 -0.21307288262E+03 -0.22285978716E+02  0.23516028518E+03  0.31811488158E+03  0.00000000000E+00 0.  1.
        -11    1    5    5    0    0 -0.46112572599E+03 -0.72329180248E+02  0.33555404792E+03  0.57486082191E+03  0.00000000000E+00 0. -1.
          1    1    6    6  503    0  0.55312483009E+02  0.21727254943E+03  0.72287626866E+01  0.22431916218E+03  0.00000000000E+00 0. -1.
         -1    1    6    6    0  503 -0.19849699325E+02  0.13813214460E+03 -0.42568002137E+02  0.14589905668E+03  0.00000000000E+00 0.  1.
<mgrwt>
<rscale>  0 0.21308385E+04</rscale>
<asrwt>0</asrwt>
<pdfrwt beam="1">  1        1 0.16273515E+00 0.21308385E+04</pdfrwt>
<pdfrwt beam="2">  1       -2 0.16509466E+00 0.21308385E+04</pdfrwt>
<totfact> 0.25376322E+00</totfact>
</mgrwt>
</event>
<event>
12    4  0.4381187E-008  0.2195464E+04  0.7818608E-02  0.8520319E-01
         -2   -1    0    0    0  501 -0.00000000000E+00  0.00000000000E+00  0.73162670691E+03  0.73162670691E+03  0.00000000000E+00 0.  1.
          1   -1    0    0  501    0  0.00000000000E+00 -0.00000000000E+00 -0.16470354033E+04  0.16470354033E+04  0.00000000000E+00 0. -1.
        -24    2    1    2    0    0 -0.32941801932E+03  0.89183817106E+01  0.53756561074E+03  0.63556092962E+03  0.79781830163E+02 0.  0.
        254    2    1    2    0    0  0.32941801932E+03 -0.89183817106E+01 -0.14529743072E+04  0.17431011806E+04  0.90480474118E+03 0.  0.
         23    2    4    4    0    0  0.42050506118E+02 -0.14677607620E+03  0.64777727207E+02  0.18968506093E+03  0.92047850534E+02 0.  0.
         23    2    4    4    0    0  0.28736751320E+03  0.13785769449E+03 -0.15177520344E+04  0.15534161197E+04  0.89137935524E+02 0.  0.
          1    1    3    3  502    0 -0.58831682825E+02  0.31657407123E+02  0.12321419971E+03  0.14016096939E+03  0.00000000000E+00 0. -1.
         -2    1    3    3    0  502 -0.27058633650E+03 -0.22739025412E+02  0.41435141102E+03  0.49539996023E+03  0.00000000000E+00 0.  1.
         11    1    5    5    0    0 -0.15294283284E+02  0.42279016013E+01  0.60819432464E+00  0.15879551425E+02  0.00000000000E+00 0. -1.
        -11    1    5    5    0    0  0.57344789402E+02 -0.15100397780E+03  0.64169532882E+02  0.17380550950E+03  0.00000000000E+00 0.  1.
          1    1    6    6  503    0  0.15033886584E+03  0.11003402328E+03 -0.73306915302E+03  0.75637268854E+03  0.00000000000E+00 0. -1.
         -1    1    6    6    0  503  0.13702864737E+03  0.27823671211E+02 -0.78468288136E+03  0.79704343117E+03  0.00000000000E+00 0.  1.
<mgrwt>
<rscale>  0 0.21954636E+04</rscale>
<asrwt>0</asrwt>
<pdfrwt beam="1">  1        1 0.25339006E+00 0.21954636E+04</pdfrwt>
<pdfrwt beam="2">  1       -2 0.11255796E+00 0.21954636E+04</pdfrwt>
<totfact> 0.25779556E+00</totfact>
</mgrwt>
</event>
<event>
12    4  0.4381187E-008  0.1833292E+04  0.7818608E-02  0.8688793E-01
          1   -1    0    0  501    0  0.00000000000E+00  0.00000000000E+00  0.33797213652E+04  0.33797213652E+04  0.00000000000E+00 0. -1.
         -2   -1    0    0    0  501 -0.00000000000E+00 -0.00000000000E+00 -0.24861213089E+03  0.24861213089E+03  0.00000000000E+00 0.  1.
        -24    2    1    2    0    0 -0.16596749825E+03 -0.13816492349E+03  0.24903549050E+04  0.25009947377E+04  0.80451030891E+02 0.  0.
        254    2    1    2    0    0  0.16596749825E+03  0.13816492349E+03  0.64075432926E+03  0.11273387584E+04  0.90204867338E+03 0.  0.
         23    2    4    4    0    0  0.44558973000E+03  0.34260460888E+03  0.38721260989E+03  0.68867539392E+03  0.91717323482E+02 0.  0.
         23    2    4    4    0    0 -0.27962223175E+03 -0.20443968539E+03  0.25354171937E+03  0.43866336447E+03  0.90321461541E+02 0.  0.
          3    1    3    3  502    0 -0.12883954109E+03 -0.12981115403E+03  0.22718903645E+04  0.22792403102E+04  0.00000000000E+00 0. -1.
         -4    1    3    3    0  502 -0.37127957167E+02 -0.83537694611E+01  0.21846454048E+03  0.22175442750E+03  0.00000000000E+00 0.  1.
         11    1    5    5    0    0  0.37740355170E+02  0.23817107718E+02  0.65290529991E+02  0.79085032306E+02  0.00000000000E+00 0. -1.
        -11    1    5    5    0    0  0.40784937483E+03  0.31878750117E+03  0.32192207990E+03  0.60959036162E+03  0.00000000000E+00 0.  1.
          4    1    6    6  503    0 -0.18313526096E+03 -0.17247621061E+03  0.14679504856E+03  0.29126509113E+03  0.00000000000E+00 0. -1.
         -4    1    6    6    0  503 -0.96486970789E+02 -0.31963474782E+02  0.10674667081E+03  0.14739827333E+03  0.00000000000E+00 0.  1.
<mgrwt>
<rscale>  0 0.18332918E+04</rscale>
<asrwt>0</asrwt>
<pdfrwt beam="1">  1        1 0.51995710E+00 0.18332918E+04</pdfrwt>
<pdfrwt beam="2">  1       -2 0.38248023E-01 0.18332918E+04</pdfrwt>
<totfact> 0.16636253E+00</totfact>
</mgrwt>
</event>
<event>
12    4  0.4381187E-008  0.2268158E+04  0.7818608E-02  0.8490583E-01
         -2   -1    0    0    0  501 -0.00000000000E+00  0.00000000000E+00  0.93021424462E+03  0.93021424462E+03  0.00000000000E+00 0.  1.
          1   -1    0    0  501    0  0.00000000000E+00 -0.00000000000E+00 -0.13826228921E+04  0.13826228921E+04  0.00000000000E+00 0. -1.
        -24    2    1    2    0    0 -0.88945475821E+03 -0.51384415474E+01  0.17365828840E+03  0.90986954776E+03  0.80927265742E+02 0.  0.
        254    2    1    2    0    0  0.88945475821E+03  0.51384415474E+01 -0.62606693588E+03  0.14029675890E+04  0.88611628863E+03 0.  0.
         23    2    4    4    0    0 -0.49702979734E+01 -0.97775178789E+01  0.17492492287E+03  0.19880438218E+03  0.93830432230E+02 0.  0.
         23    2    4    4    0    0  0.89442505618E+03  0.14915959426E+02 -0.80099185875E+03  0.12041632068E+04  0.90567123176E+02 0.  0.
          3    1    3    3  502    0 -0.42826788568E+03 -0.15986140317E+02  0.12248292541E+03  0.44572525798E+03  0.00000000000E+00 0. -1.
         -4    1    3    3    0  502 -0.46118687252E+03  0.10847698770E+02  0.51175362992E+02  0.46414428978E+03  0.00000000000E+00 0.  1.
         11    1    5    5    0    0 -0.43774119918E+02 -0.79404088983E+01  0.13880219034E+03  0.14575757857E+03  0.00000000000E+00 0.  1.
        -11    1    5    5    0    0  0.38803821945E+02 -0.18371089806E+01  0.36122732534E+02  0.53046803604E+02  0.00000000000E+00 0. -1.
          4    1    6    6  503    0  0.10927294039E+02 -0.63028037175E+01 -0.25313136671E+02  0.28282255530E+02  0.00000000000E+00 0. -1.
         -4    1    6    6    0  503  0.88349776214E+03  0.21218763144E+02 -0.77567872208E+03  0.11758809512E+04  0.00000000000E+00 0.  1.
<mgrwt>
<rscale>  0 0.22681583E+04</rscale>
<asrwt>0</asrwt>
<pdfrwt beam="1">  1        1 0.21271121E+00 0.22681583E+04</pdfrwt>
<pdfrwt beam="2">  1       -2 0.14310988E+00 0.22681583E+04</pdfrwt>
<totfact> 0.21322010E+00</totfact>
</mgrwt>
</event>
<event>
12    4  0.4381187E-008  0.1114477E+04  0.7818608E-02  0.9191195E-01
         -2   -1    0    0    0  501 -0.00000000000E+00  0.00000000000E+00  0.15238058717E+03  0.15238058717E+03  0.00000000000E+00 0.  1.
          1   -1    0    0  501    0  0.00000000000E+00 -0.00000000000E+00 -0.20377592562E+04  0.20377592562E+04  0.00000000000E+00 0. -1.
        -24    2    1    2    0    0  0.10022019554E+03 -0.21733848467E+02 -0.41161982966E+03  0.43424007457E+03  0.92828392349E+02 0.  0.
        254    2    1    2    0    0 -0.10022019554E+03  0.21733848467E+02 -0.14737588394E+04  0.17558997688E+04  0.94905344091E+03 0.  0.
         23    2    4    4    0    0  0.32033556370E+02  0.46462823962E+03 -0.86223087499E+03  0.98411347157E+03  0.90175902281E+02 0.  0.
         23    2    4    4    0    0 -0.13225375191E+03 -0.44289439115E+03 -0.61152796436E+03  0.77178629721E+03  0.89672408049E+02 0.  0.
          1    1    3    3  502    0  0.10644998854E+03 -0.38721211659E+02 -0.38963845244E+03  0.40576970798E+03  0.00000000000E+00 0. -1.
         -2    1    3    3    0  502 -0.62297930060E+01  0.16987363192E+02 -0.21981377225E+02  0.28470366591E+02  0.00000000000E+00 0.  1.
         11    1    5    5    0    0  0.30407341880E+02  0.46298572510E+02 -0.85061383834E+02  0.10150666617E+03  0.00000000000E+00 0. -1.
        -11    1    5    5    0    0  0.16262144895E+01  0.41832966711E+03 -0.77716949116E+03  0.88260680540E+03  0.00000000000E+00 0.  1.
          4    1    6    6  503    0 -0.56012456702E+02 -0.26343912796E+03 -0.29013488747E+03  0.39587349289E+03  0.00000000000E+00 0. -1.
         -4    1    6    6    0  503 -0.76241295206E+02 -0.17945526320E+03 -0.32139307689E+03  0.37591280433E+03  0.00000000000E+00 0.  1.
<mgrwt>
<rscale>  0 0.11144774E+04</rscale>
<asrwt>0</asrwt>
<pdfrwt beam="1">  1        1 0.31350141E+00 0.11144774E+04</pdfrwt>
<pdfrwt beam="2">  1       -2 0.23443168E-01 0.11144774E+04</pdfrwt>
<totfact> 0.39681933E+01</totfact>
</mgrwt>
</event>
<event>
12    4  0.4381187E-008  0.1608803E+04  0.7818608E-02  0.8815158E-01
          1   -1    0    0  501    0  0.00000000000E+00  0.00000000000E+00  0.52714364633E+03  0.52714364633E+03  0.00000000000E+00 0. -1.
         -2   -1    0    0    0  501 -0.00000000000E+00 -0.00000000000E+00 -0.12274862025E+04  0.12274862025E+04  0.00000000000E+00 0.  1.
        -24    2    1    2    0    0 -0.31569510781E+03  0.40983516117E+03 -0.12709940205E+03  0.54167564382E+03  0.98132485371E+02 0.  0.
        254    2    1    2    0    0  0.31569510781E+03 -0.40983516117E+03 -0.57324315413E+03  0.12129542050E+04  0.93542606833E+03 0.  0.
         23    2    4    4    0    0 -0.23081368414E+03 -0.29144781641E+03 -0.51722820775E+03  0.64350832899E+03  0.91439401313E+02 0.  0.
         23    2    4    4    0    0  0.54650879195E+03 -0.11838734475E+03 -0.56014946379E+02  0.56944587603E+03  0.91888565339E+02 0.  0.
          3    1    3    3  502    0 -0.34776321934E+02  0.97375445047E+02 -0.25508924552E+01  0.10343054151E+03  0.00000000000E+00 0. -1.
         -4    1    3    3    0  502 -0.28091878588E+03  0.31245971612E+03 -0.12454850960E+03  0.43824510231E+03  0.00000000000E+00 0.  1.
         11    1    5    5    0    0 -0.13142059235E+02 -0.60170415239E+02 -0.12036220745E+03  0.13520448799E+03  0.00000000000E+00 0.  1.
        -11    1    5    5    0    0 -0.21767162490E+03 -0.23127740117E+03 -0.39686600030E+03  0.50830384100E+03  0.00000000000E+00 0. -1.
          2    1    6    6  503    0  0.53557346580E+03 -0.99516792533E+02 -0.51467116139E+02  0.54716669609E+03  0.00000000000E+00 0. -1.
         -2    1    6    6    0  503  0.10935326145E+02 -0.18870552221E+02 -0.45478302399E+01  0.22279179942E+02  0.00000000000E+00 0.  1.
<mgrwt>
<rscale>  0 0.16088027E+04</rscale>
<asrwt>0</asrwt>
<pdfrwt beam="1">  1        1 0.81099023E-01 0.16088027E+04</pdfrwt>
<pdfrwt beam="2">  1       -2 0.18884403E+00 0.16088027E+04</pdfrwt>
<totfact> 0.54457305E+00</totfact>
</mgrwt>
</event>
<event>
12    4  0.4381187E-008  0.1536416E+04  0.7818608E-02  0.8860591E-01
         -2   -1    0    0    0  501 -0.00000000000E+00  0.00000000000E+00  0.82038109968E+03  0.82038109968E+03  0.00000000000E+00 0.  1.
          1   -1    0    0  501    0  0.00000000000E+00 -0.00000000000E+00 -0.71935337686E+03  0.71935337686E+03  0.00000000000E+00 0. -1.
        -24    2    1    2    0    0 -0.45861042446E+03  0.60885265484E+02  0.31422745384E+03  0.56494996903E+03  0.79993985923E+02 0.  0.
        254    2    1    2    0    0  0.45861042446E+03 -0.60885265484E+02 -0.21319973102E+03  0.97478450751E+03  0.83109576693E+03 0.  0.
         23    2    4    4    0    0  0.12999563458E+03  0.78397951551E+02 -0.48534228975E+03  0.51668886015E+03  0.91461118293E+02 0.  0.
         23    2    4    4    0    0  0.32861478988E+03 -0.13928321704E+03  0.27214255873E+03  0.45809564737E+03  0.91665452557E+02 0.  0.
          1    1    3    3  502    0 -0.14263237470E+01  0.45278655275E+01 -0.30227936656E+01  0.56278990051E+01  0.00000000000E+00 0. -1.
         -2    1    3    3    0  502 -0.45718410071E+03  0.56357399957E+02  0.31725024751E+03  0.55932207002E+03  0.00000000000E+00 0.  1.
         11    1    5    5    0    0  0.12032984022E+03  0.43928353425E+02 -0.44346578976E+03  0.46159601100E+03  0.00000000000E+00 0.  1.
        -11    1    5    5    0    0  0.96657943634E+01  0.34469598127E+02 -0.41876499992E+02  0.55092849148E+02  0.00000000000E+00 0. -1.
          1    1    6    6  503    0  0.19980763555E+02 -0.28252203367E+02  0.54154912341E+02  0.64266417653E+02  0.00000000000E+00 0. -1.
         -1    1    6    6    0  503  0.30863402632E+03 -0.11103101367E+03  0.21798764639E+03  0.39382922971E+03  0.00000000000E+00 0.  1.
<mgrwt>
<rscale>  0 0.15364165E+04</rscale>
<asrwt>0</asrwt>
<pdfrwt beam="1">  1        1 0.11066975E+00 0.15364165E+04</pdfrwt>
<pdfrwt beam="2">  1       -2 0.12621248E+00 0.15364165E+04</pdfrwt>
<totfact> 0.10325271E+01</totfact>
</mgrwt>
</event>
<event>
12    4  0.4381187E-008  0.1277299E+04  0.7818608E-02  0.9047763E-01
         -2   -1    0    0    0  501 -0.00000000000E+00  0.00000000000E+00  0.47323565257E+03  0.47323565257E+03  0.00000000000E+00 0.  1.
          1   -1    0    0  501    0  0.00000000000E+00 -0.00000000000E+00 -0.86188179056E+03  0.86188179056E+03  0.00000000000E+00 0. -1.
        -24    2    1    2    0    0  0.26680131665E+03  0.14625594373E+02 -0.28104868769E+03  0.39599826179E+03  0.80183588795E+02 0.  0.
        254    2    1    2    0    0 -0.26680131665E+03 -0.14625594373E+02 -0.10759745030E+03  0.93911918134E+03  0.89385165149E+03 0.  0.
         23    2    4    4    0    0  0.20875163680E+03  0.17200377459E+03  0.18873092699E+03  0.34145842471E+03  0.88385228766E+02 0.  0.
         23    2    4    4    0    0 -0.47555295345E+03 -0.18662936896E+03 -0.29632837729E+03  0.59766075663E+03  0.91688275914E+02 0.  0.
          1    1    3    3  502    0  0.14174155009E+03 -0.31409047846E+02 -0.15870701970E+03  0.21509326677E+03  0.00000000000E+00 0. -1.
         -2    1    3    3    0  502  0.12505976656E+03  0.46034642219E+02 -0.12234166799E+03  0.18090499501E+03  0.00000000000E+00 0.  1.
         11    1    5    5    0    0  0.13716142421E+02  0.36704332633E+01 -0.88969371313E+01  0.16755898471E+02  0.00000000000E+00 0. -1.
        -11    1    5    5    0    0  0.19503549438E+03  0.16833334133E+03  0.19762786412E+03  0.32470252624E+03  0.00000000000E+00 0.  1.
          2    1    6    6  503    0 -0.10438489058E+03 -0.45044409850E+02 -0.24481065238E+02  0.11629499901E+03  0.00000000000E+00 0. -1.
         -2    1    6    6    0  503 -0.37116806287E+03 -0.14158495911E+03 -0.27184731205E+03  0.48136575762E+03  0.00000000000E+00 0.  1.
<mgrwt>
<rscale>  0 0.12772990E+04</rscale>
<asrwt>0</asrwt>
<pdfrwt beam="1">  1        1 0.13259720E+00 0.12772990E+04</pdfrwt>
<pdfrwt beam="2">  1       -2 0.72805485E-01 0.12772990E+04</pdfrwt>
<totfact> 0.28788586E+01</totfact>
</mgrwt>
</event>
<event>
12    4  0.4381187E-008  0.2067784E+04  0.7818608E-02  0.8575569E-01
          1   -1    0    0  501    0  0.00000000000E+00  0.00000000000E+00  0.64441871917E+03  0.64441871917E+03  0.00000000000E+00 0. -1.
         -2   -1    0    0    0  501 -0.00000000000E+00 -0.00000000000E+00 -0.16587545253E+04  0.16587545253E+04  0.00000000000E+00 0.  1.
        -24    2    1    2    0    0  0.45176394413E+03  0.26503745616E+03  0.31344323202E+03  0.61562568532E+03  0.80080024654E+02 0.  0.
        254    2    1    2    0    0 -0.45176394413E+03 -0.26503745616E+03 -0.13277790382E+04  0.16875475592E+04  0.90026889088E+03 0.  0.
         23    2    4    4    0    0 -0.74255327329E+02 -0.34720814806E+03 -0.75551072271E+02  0.37400212401E+03  0.90012624269E+02 0.  0.
         23    2    4    4    0    0 -0.37750861680E+03  0.82170691899E+02 -0.12522279659E+04  0.13135454352E+04  0.89788380581E+02 0.  0.
          1    1    3    3  502    0  0.39562603079E+03  0.25094027798E+03  0.29962894896E+03  0.55611912969E+03  0.00000000000E+00 0. -1.
         -2    1    3    3    0  502  0.56137913341E+02  0.14097178180E+02  0.13814283051E+02  0.59506555631E+02  0.00000000000E+00 0.  1.
         11    1    5    5    0    0 -0.37875884081E+02 -0.41102092111E+02 -0.26526918009E+02  0.61867939596E+02  0.00000000000E+00 0. -1.
        -11    1    5    5    0    0 -0.36379443248E+02 -0.30610605595E+03 -0.49024154262E+02  0.31213418441E+03  0.00000000000E+00 0.  1.
          4    1    6    6  503    0 -0.76322284636E+02  0.22600773390E+02 -0.15598012481E+03  0.17511620549E+03  0.00000000000E+00 0. -1.
         -4    1    6    6    0  503 -0.30118633216E+03  0.59569918509E+02 -0.10962478411E+04  0.11384292297E+04  0.00000000000E+00 0.  1.
<mgrwt>
<rscale>  0 0.20677838E+04</rscale>
<asrwt>0</asrwt>
<pdfrwt beam="1">  1        1 0.99141341E-01 0.20677838E+04</pdfrwt>
<pdfrwt beam="2">  1       -2 0.25519300E+00 0.20677838E+04</pdfrwt>
<totfact> 0.14877335E+00</totfact>
</mgrwt>
</event>
<event>
12    4  0.4381187E-008  0.1429578E+04  0.7818608E-02  0.8932683E-01
          1   -1    0    0  501    0  0.00000000000E+00  0.00000000000E+00  0.17266883329E+04  0.17266883329E+04  0.00000000000E+00 0. -1.
         -2   -1    0    0    0  501 -0.00000000000E+00 -0.00000000000E+00 -0.29589777760E+03  0.29589777760E+03  0.00000000000E+00 0.  1.
        -24    2    1    2    0    0  0.27134164552E+03  0.10322673565E+03 -0.58520713030E+01  0.30108709725E+03  0.79606192245E+02 0.  0.
        254    2    1    2    0    0 -0.27134164552E+03 -0.10322673565E+03  0.14366426266E+04  0.17214990132E+04  0.90295889636E+03 0.  0.
         23    2    4    4    0    0 -0.74111492267E+02 -0.12622069108E+02 -0.10712621029E+03  0.15982647090E+03  0.91742280072E+02 0.  0.
         23    2    4    4    0    0 -0.19723015326E+03 -0.90604666538E+02  0.15437688369E+04  0.15616725423E+04  0.92141026939E+02 0.  0.
          3    1    3    3  502    0  0.11221672904E+02 -0.89037892869E+01  0.98637973173E+01  0.17392466874E+02  0.00000000000E+00 0. -1.
         -4    1    3    3    0  502  0.26011997262E+03  0.11213052493E+03 -0.15715868620E+02  0.28369463037E+03  0.00000000000E+00 0.  1.
         11    1    5    5    0    0 -0.33423555904E+02  0.20867356355E+02 -0.98939056446E+02  0.10649656117E+03  0.00000000000E+00 0. -1.
        -11    1    5    5    0    0 -0.40687936362E+02 -0.33489425464E+02 -0.81871538469E+01  0.53329909726E+02  0.00000000000E+00 0.  1.
          2    1    6    6  503    0 -0.86863856191E+02 -0.58484758626E+02  0.45711429251E+03  0.46895551274E+03  0.00000000000E+00 0. -1.
         -2    1    6    6    0  503 -0.11036629707E+03 -0.32119907912E+02  0.10866545444E+04  0.10927170296E+04  0.00000000000E+00 0.  1.
<mgrwt>
<rscale>  0 0.14295779E+04</rscale>
<asrwt>0</asrwt>
<pdfrwt beam="1">  1        1 0.26564435E+00 0.14295779E+04</pdfrwt>
<pdfrwt beam="2">  1       -2 0.45522736E-01 0.14295779E+04</pdfrwt>
<totfact> 0.17859571E+01</totfact>
</mgrwt>
</event>
<event>
12    4  0.4381187E-008  0.1290027E+04  0.7818608E-02  0.9037511E-01
         -2   -1    0    0    0  501 -0.00000000000E+00  0.00000000000E+00  0.69983151044E+03  0.69983151044E+03  0.00000000000E+00 0.  1.
          1   -1    0    0  501    0  0.00000000000E+00 -0.00000000000E+00 -0.59448949772E+03  0.59448949772E+03  0.00000000000E+00 0. -1.
        -24    2    1    2    0    0 -0.19259721860E+03  0.12761001066E+03 -0.18642563668E+03  0.30703965006E+03  0.78363417885E+02 0.  0.
        254    2    1    2    0    0  0.19259721860E+03 -0.12761001066E+03  0.29176764940E+03  0.98728135810E+03  0.91444962429E+03 0.  0.
         23    2    4    4    0    0  0.16254634810E+03  0.18044784932E+03 -0.24746345599E+03  0.35883150146E+03  0.92407482292E+02 0.  0.
         23    2    4    4    0    0  0.30050870498E+02 -0.30805785998E+03  0.53923110539E+03  0.62844985664E+03  0.91522332628E+02 0.  0.
          1    1    3    3  502    0 -0.63646606700E+02  0.19965326063E+02 -0.94157994399E+02  0.11539164917E+03  0.00000000000E+00 0. -1.
         -2    1    3    3    0  502 -0.12895061190E+03  0.10764468460E+03 -0.92267642281E+02  0.19164800089E+03  0.00000000000E+00 0.  1.
         11    1    5    5    0    0  0.14559153827E+03  0.19023156476E+03 -0.22106611719E+03  0.32596805429E+03  0.00000000000E+00 0.  1.
        -11    1    5    5    0    0  0.16954809827E+02 -0.97837154406E+01 -0.26397338800E+02  0.32863447169E+02  0.00000000000E+00 0. -1.
          4    1    6    6  503    0  0.29539597515E+02 -0.23192599952E+02  0.72595398972E+02  0.81734793483E+02  0.00000000000E+00 0. -1.
         -4    1    6    6    0  503  0.51127298279E+00 -0.28486526003E+03  0.46663570642E+03  0.54671506315E+03  0.00000000000E+00 0.  1.
<mgrwt>
<rscale>  0 0.12900271E+04</rscale>
<asrwt>0</asrwt>
<pdfrwt beam="1">  1        1 0.91459923E-01 0.12900271E+04</pdfrwt>
<pdfrwt beam="2">  1       -2 0.10766639E+00 0.12900271E+04</pdfrwt>
<totfact> 0.20665754E+01</totfact>
</mgrwt>
</event>
<event>
12    4  0.4381187E-008  0.1648488E+04  0.7818608E-02  0.8791302E-01
          1   -1    0    0  501    0  0.00000000000E+00  0.00000000000E+00  0.61748124422E+03  0.61748124422E+03  0.00000000000E+00 0. -1.
         -2   -1    0    0    0  501 -0.00000000000E+00 -0.00000000000E+00 -0.11002404191E+04  0.11002404191E+04  0.00000000000E+00 0.  1.
        -24    2    1    2    0    0  0.36638792234E+03 -0.28810003619E+03 -0.50838870034E+03  0.69776210443E+03  0.10569362925E+03 0.  0.
        254    2    1    2    0    0 -0.36638792234E+03  0.28810003619E+03  0.25629525498E+02  0.10199595588E+04  0.90687313811E+03 0.  0.
         23    2    4    4    0    0 -0.43416769399E+03  0.19812444199E+03  0.39307989993E+03  0.62485216444E+03  0.90407624961E+02 0.  0.
         23    2    4    4    0    0  0.67779771657E+02  0.89975594200E+02 -0.36745037443E+03  0.39510739441E+03  0.91653534834E+02 0.  0.
          3    1    3    3  502    0  0.10450850511E+03 -0.80622538024E+02 -0.21924869999E+03  0.25591407488E+03  0.00000000000E+00 0. -1.
         -4    1    3    3    0  502  0.26187941723E+03 -0.20747749817E+03 -0.28914000035E+03  0.44184802955E+03  0.00000000000E+00 0.  1.
         11    1    5    5    0    0 -0.34230479142E+03  0.11762689530E+03  0.31549873431E+03  0.48015425446E+03  0.00000000000E+00 0. -1.
        -11    1    5    5    0    0 -0.91862902578E+02  0.80497546690E+02  0.77581165623E+02  0.14469790998E+03  0.00000000000E+00 0.  1.
          4    1    6    6  503    0  0.70617016252E+02  0.70030682792E+02 -0.36023020954E+03  0.37370692177E+03  0.00000000000E+00 0. -1.
         -4    1    6    6    0  503 -0.28372445955E+01  0.19944911408E+02 -0.72201648962E+01  0.21400472637E+02  0.00000000000E+00 0.  1.
<mgrwt>
<rscale>  0 0.16484876E+04</rscale>
<asrwt>0</asrwt>
<pdfrwt beam="1">  1        1 0.94997116E-01 0.16484876E+04</pdfrwt>
<pdfrwt beam="2">  1       -2 0.16926775E+00 0.16484876E+04</pdfrwt>
<totfact> 0.59224594E+00</totfact>
</mgrwt>
</event>
<event>
12    4  0.4381187E-008  0.1352049E+04  0.7818608E-02  0.8989279E-01
          1   -1    0    0  501    0  0.00000000000E+00  0.00000000000E+00  0.54593028716E+03  0.54593028716E+03  0.00000000000E+00 0. -1.
         -2   -1    0    0    0  501 -0.00000000000E+00 -0.00000000000E+00 -0.83711964098E+03  0.83711964098E+03  0.00000000000E+00 0.  1.
        -24    2    1    2    0    0 -0.17872864961E+03  0.15941934487E+03  0.18389992790E+03  0.31280432180E+03  0.81663348836E+02 0.  0.
        254    2    1    2    0    0  0.17872864961E+03 -0.15941934487E+03 -0.47508928173E+03  0.10702456063E+04  0.92863199093E+03 0.  0.
         23    2    4    4    0    0  0.44004813777E+02 -0.39568016832E+03 -0.62485634676E+03  0.74655358866E+03  0.91638351192E+02 0.  0.
         23    2    4    4    0    0  0.13472383584E+03  0.23626082345E+03  0.14976706504E+03  0.32369201769E+03  0.91524094656E+02 0.  0.
          3    1    3    3  502    0 -0.62560790583E+02  0.96612378488E+02  0.11936935618E+03  0.16582173377E+03  0.00000000000E+00 0. -1.
         -4    1    3    3    0  502 -0.11616785903E+03  0.62806966381E+02  0.64530571727E+02  0.14698258803E+03  0.00000000000E+00 0.  1.
         11    1    5    5    0    0  0.61629890555E+00 -0.67768630508E+01 -0.54145907972E+02  0.54571833827E+02  0.00000000000E+00 0. -1.
        -11    1    5    5    0    0  0.43388514872E+02 -0.38890330527E+03 -0.57071043879E+03  0.69198175483E+03  0.00000000000E+00 0.  1.
          4    1    6    6  503    0  0.13091334625E+03  0.21351055653E+03  0.16130526767E+03  0.29790006941E+03  0.00000000000E+00 0.  1.
         -4    1    6    6    0  503  0.38104895814E+01  0.22750266919E+02 -0.11538202631E+02  0.25791948272E+02  0.00000000000E+00 0. -1.
<mgrwt>
<rscale>  0 0.13520488E+04</rscale>
<asrwt>0</asrwt>
<pdfrwt beam="1">  1        1 0.83989275E-01 0.13520488E+04</pdfrwt>
<pdfrwt beam="2">  1       -2 0.12878764E+00 0.13520488E+04</pdfrwt>
<totfact> 0.14918409E+01</totfact>
</mgrwt>
</event>
<event>
12    4  0.4381187E-008  0.1439162E+04  0.7818608E-02  0.8925949E-01
          1   -1    0    0  501    0  0.00000000000E+00  0.00000000000E+00  0.21853006172E+04  0.21853006172E+04  0.00000000000E+00 0. -1.
         -2   -1    0    0    0  501 -0.00000000000E+00 -0.00000000000E+00 -0.23694521310E+03  0.23694521310E+03  0.00000000000E+00 0.  1.
        -24    2    1    2    0    0  0.34366132372E+03  0.10269509246E+02  0.10308925012E+04  0.10897401313E+04  0.81151934777E+02 0.  0.
        254    2    1    2    0    0 -0.34366132372E+03 -0.10269509246E+02  0.91746290287E+03  0.13325056990E+04  0.90311942256E+03 0.  0.
         23    2    4    4    0    0 -0.48175211162E+03 -0.33533877010E+03  0.65534138549E+03  0.88334353116E+03  0.79286031125E+02 0.  0.
         23    2    4    4    0    0  0.13809078791E+03  0.32506926086E+03  0.26212151739E+03  0.44916216781E+03  0.91103639089E+02 0.  0.
          3    1    3    3  502    0  0.27174802494E+03  0.41223251162E+02  0.79070494929E+03  0.83711448580E+03  0.00000000000E+00 0. -1.
         -4    1    3    3    0  502  0.71913298775E+02 -0.30953741916E+02  0.24018755193E+03  0.25262564553E+03  0.00000000000E+00 0.  1.
         11    1    5    5    0    0 -0.40320891619E+02 -0.31460748031E+02  0.95569916130E+02  0.10839355072E+03  0.00000000000E+00 0.  1.
        -11    1    5    5    0    0 -0.44143122000E+03 -0.30387802207E+03  0.55977146936E+03  0.77494998045E+03  0.00000000000E+00 0. -1.
          3    1    6    6  503    0  0.14491628004E+03  0.31535175138E+03  0.26533042048E+03  0.43686117629E+03  0.00000000000E+00 0. -1.
         -3    1    6    6    0  503 -0.68254921299E+01  0.97175094723E+01 -0.32089030950E+01  0.12300991514E+02  0.00000000000E+00 0.  1.
<mgrwt>
<rscale>  0 0.14391616E+04</rscale>
<asrwt>0</asrwt>
<pdfrwt beam="1">  1        1 0.33620008E+00 0.14391616E+04</pdfrwt>
<pdfrwt beam="2">  1       -2 0.36453111E-01 0.14391616E+04</pdfrwt>
<totfact> 0.13499646E+01</totfact>
</mgrwt>
</event>
<event>
12    4  0.4381187E-008  0.1611278E+04  0.7818608E-02  0.8813650E-01
          1   -1    0    0  501    0  0.00000000000E+00  0.00000000000E+00  0.44686765620E+03  0.44686765620E+03  0.00000000000E+00 0. -1.
         -2   -1    0    0    0  501 -0.00000000000E+00 -0.00000000000E+00 -0.14524522471E+04  0.14524522471E+04  0.00000000000E+00 0.  1.
        -24    2    1    2    0    0 -0.37697744321E+03  0.33209214748E+03 -0.24444365744E+03  0.56431233761E+03  0.79363251011E+02 0.  0.
        254    2    1    2    0    0  0.37697744321E+03 -0.33209214748E+03 -0.76114093344E+03  0.13350075657E+04  0.97494230224E+03 0.  0.
         23    2    4    4    0    0  0.34398239877E+03 -0.60524096238E+03 -0.24554158217E+03  0.74352945357E+03  0.88909316412E+02 0.  0.
         23    2    4    4    0    0  0.32995044439E+02  0.27314881490E+03 -0.51559935127E+03  0.59147811209E+03  0.91130225595E+02 0.  0.
          3    1    3    3  502    0 -0.23460642239E+03  0.25230272218E+03 -0.15010760590E+03  0.37580464392E+03  0.00000000000E+00 0. -1.
         -4    1    3    3    0  502 -0.14237102082E+03  0.79789425300E+02 -0.94336051538E+02  0.18850769369E+03  0.00000000000E+00 0.  1.
         11    1    5    5    0    0  0.48580555669E+02 -0.10649279725E+03 -0.87902097911E+01  0.11737995588E+03  0.00000000000E+00 0. -1.
        -11    1    5    5    0    0  0.29540184310E+03 -0.49874816513E+03 -0.23675137238E+03  0.62614949768E+03  0.00000000000E+00 0.  1.
          4    1    6    6  503    0 -0.16121216319E+01  0.15220664201E+03 -0.36359674599E+03  0.39417262018E+03  0.00000000000E+00 0. -1.
         -4    1    6    6    0  503  0.34607166071E+02  0.12094217288E+03 -0.15200260529E+03  0.19730549191E+03  0.00000000000E+00 0.  1.
<mgrwt>
<rscale>  0 0.16112777E+04</rscale>
<asrwt>0</asrwt>
<pdfrwt beam="1">  1        1 0.68748872E-01 0.16112777E+04</pdfrwt>
<pdfrwt beam="2">  1       -2 0.22345419E+00 0.16112777E+04</pdfrwt>
<totfact> 0.40706208E+00</totfact>
</mgrwt>
</event>
<event>
12    4  0.4381187E-008  0.2255861E+04  0.7818608E-02  0.8495531E-01
         -2   -1    0    0    0  501 -0.00000000000E+00  0.00000000000E+00  0.89931461090E+03  0.89931461090E+03  0.00000000000E+00 0.  1.
          1   -1    0    0  501    0  0.00000000000E+00 -0.00000000000E+00 -0.14146625053E+04  0.14146625053E+04  0.00000000000E+00 0. -1.
        -24    2    1    2    0    0 -0.81246316170E+03  0.15902041055E+03 -0.67867116191E+03  0.10734905944E+04  0.80022685535E+02 0.  0.
        254    2    1    2    0    0  0.81246316170E+03 -0.15902041055E+03  0.16332326747E+03  0.12404865218E+04  0.90925708195E+03 0.  0.
         23    2    4    4    0    0  0.67070509449E+03 -0.25337115907E+03  0.48095568725E+03  0.86827634342E+03  0.92429256273E+02 0.  0.
         23    2    4    4    0    0  0.14175806721E+03  0.94350748517E+02 -0.31763241979E+03  0.37221017842E+03  0.93019618641E+02 0.  0.
          1    1    3    3  502    0 -0.75053334386E+03  0.12471803472E+03 -0.62585071968E+03  0.98516192159E+03  0.00000000000E+00 0. -1.
         -2    1    3    3    0  502 -0.61929817838E+02  0.34302375836E+02 -0.52820442232E+02  0.88328672825E+02  0.00000000000E+00 0.  1.
         11    1    5    5    0    0  0.22502109411E+03 -0.12712976527E+03  0.14817538429E+03  0.29791343461E+03  0.00000000000E+00 0. -1.
        -11    1    5    5    0    0  0.44568400038E+03 -0.12624139380E+03  0.33278030297E+03  0.57036290881E+03  0.00000000000E+00 0.  1.
          1    1    6    6  503    0  0.64115477786E+02  0.96390719099E+02 -0.17556256250E+03  0.21029545542E+03  0.00000000000E+00 0. -1.
         -1    1    6    6    0  503  0.77642589420E+02 -0.20399705821E+01 -0.14206985729E+03  0.16191472299E+03  0.00000000000E+00 0.  1.
<mgrwt>
<rscale>  0 0.22558605E+04</rscale>
<asrwt>0</asrwt>
<pdfrwt beam="1">  1        1 0.21764039E+00 0.22558605E+04</pdfrwt>
<pdfrwt beam="2">  1       -2 0.13835609E+00 0.22558605E+04</pdfrwt>
<totfact> 0.22130849E+00</totfact>
</mgrwt>
</event>
<event>
12    4  0.4381187E-008  0.1112703E+04  0.7818608E-02  0.9192898E-01
         -2   -1    0    0    0  501 -0.00000000000E+00  0.00000000000E+00  0.52212191999E+03  0.52212191999E+03  0.00000000000E+00 0.  1.
          1   -1    0    0  501    0  0.00000000000E+00 -0.00000000000E+00 -0.59282524504E+03  0.59282524504E+03  0.00000000000E+00 0. -1.
        -24    2    1    2    0    0  0.23108778109E+02 -0.59496739606E+02  0.15508567732E+03  0.18370139059E+03  0.74971700957E+02 0.  0.
        254    2    1    2    0    0 -0.23108778109E+02  0.59496739606E+02 -0.22578900238E+03  0.93124577444E+03  0.90120149865E+03 0.  0.
         23    2    4    4    0    0  0.36510726400E+03 -0.35803402361E+02 -0.33624091585E+03  0.50606986840E+03  0.91997610664E+02 0.  0.
         23    2    4    4    0    0 -0.38821604211E+03  0.95300141966E+02  0.11045191347E+03  0.42517590605E+03  0.93707595672E+02 0.  0.
          1    1    3    3  502    0  0.47605963944E+02 -0.37915806590E+02  0.71081848972E+02  0.93576521872E+02  0.00000000000E+00 0. -1.
         -2    1    3    3    0  502 -0.24497185835E+02 -0.21580933015E+02  0.84003828352E+02  0.90124868718E+02  0.00000000000E+00 0.  1.
         11    1    5    5    0    0  0.18241084120E+03 -0.61334144064E+02 -0.15069739485E+03  0.24442851108E+03  0.00000000000E+00 0.  1.
        -11    1    5    5    0    0  0.18269642280E+03  0.25530741704E+02 -0.18554352099E+03  0.26164135732E+03  0.00000000000E+00 0. -1.
          1    1    6    6  503    0 -0.17034875124E+03  0.83068889202E+02  0.26472395360E+02  0.19136333274E+03  0.00000000000E+00 0.  1.
         -1    1    6    6    0  503 -0.21786729087E+03  0.12231252764E+02  0.83979518106E+02  0.23381257330E+03  0.00000000000E+00 0. -1.
<mgrwt>
<rscale>  0 0.11127031E+04</rscale>
<asrwt>0</asrwt>
<pdfrwt beam="1">  1        1 0.91203884E-01 0.11127031E+04</pdfrwt>
<pdfrwt beam="2">  1       -2 0.80326449E-01 0.11127031E+04</pdfrwt>
<totfact> 0.41609764E+01</totfact>
</mgrwt>
</event>
<event>
12    4  0.4381187E-008  0.1659002E+04  0.7818608E-02  0.8785099E-01
         -2   -1    0    0    0  501 -0.00000000000E+00  0.00000000000E+00  0.10674395804E+04  0.10674395804E+04  0.00000000000E+00 0.  1.
          1   -1    0    0  501    0  0.00000000000E+00 -0.00000000000E+00 -0.64460028881E+03  0.64460028881E+03  0.00000000000E+00 0. -1.
        -24    2    1    2    0    0 -0.56923814719E+03  0.75992269844E+01  0.19736433205E+03  0.60745027199E+03  0.77157870043E+02 0.  0.
        254    2    1    2    0    0  0.56923814719E+03 -0.75992269844E+01  0.22547495952E+03  0.11045895972E+04  0.91934183217E+03 0.  0.
         23    2    4    4    0    0  0.61208641255E+03 -0.33250472156E+03  0.92117275316E+01  0.70306527162E+03  0.94903919538E+02 0.  0.
         23    2    4    4    0    0 -0.42848265356E+02  0.32490549457E+03  0.21626323199E+03  0.40152432558E+03  0.83978832294E+02 0.  0.
          1    1    3    3  502    0 -0.21703046460E+03 -0.88898918345E+01  0.37985970755E+02  0.22050892662E+03  0.00000000000E+00 0. -1.
         -2    1    3    3    0  502 -0.35220768259E+03  0.16489118819E+02  0.15937836129E+03  0.38694134538E+03  0.00000000000E+00 0.  1.
         11    1    5    5    0    0  0.53835031510E+03 -0.25387134086E+03  0.74960141709E+01  0.59525449154E+03  0.00000000000E+00 0.  1.
        -11    1    5    5    0    0  0.73736097453E+02 -0.78633380699E+02  0.17157133607E+01  0.10781078007E+03  0.00000000000E+00 0. -1.
          1    1    6    6  503    0  0.24363020464E+02  0.64790885513E+02  0.36295655194E+02  0.78158749975E+02  0.00000000000E+00 0. -1.
         -1    1    6    6    0  503 -0.67211285821E+02  0.26011460906E+03  0.17996757680E+03  0.32336557560E+03  0.00000000000E+00 0.  1.
<mgrwt>
<rscale>  0 0.16590019E+04</rscale>
<asrwt>0</asrwt>
<pdfrwt beam="1">  1        1 0.99169275E-01 0.16590019E+04</pdfrwt>
<pdfrwt beam="2">  1       -2 0.16422147E+00 0.16590019E+04</pdfrwt>
<totfact> 0.60413412E+00</totfact>
</mgrwt>
</event>
<event>
12    4  0.4381187E-008  0.2620432E+04  0.7818608E-02  0.8361294E-01
          1   -1    0    0  501    0  0.00000000000E+00  0.00000000000E+00  0.11131816653E+04  0.11131816653E+04  0.00000000000E+00 0. -1.
         -2   -1    0    0    0  501 -0.00000000000E+00 -0.00000000000E+00 -0.15421261887E+04  0.15421261887E+04  0.00000000000E+00 0.  1.
        -24    2    1    2    0    0  0.64036769577E+03 -0.85365370912E+03 -0.63893936945E+03  0.12464958522E+04  0.81932598862E+02 0.  0.
        254    2    1    2    0    0 -0.64036769577E+03  0.85365370912E+03  0.20999484611E+03  0.14088120018E+04  0.89546523111E+03 0.  0.
         23    2    4    4    0    0 -0.67056777619E+03  0.33792511264E+03 -0.15266103829E+03  0.77153194197E+03  0.90009003117E+02 0.  0.
         23    2    4    4    0    0  0.30200080420E+02  0.51572859648E+03  0.36265588440E+03  0.63728005983E+03  0.87855301912E+02 0.  0.
          1    1    3    3  502    0  0.59277296595E+03 -0.74812252132E+03 -0.56754136291E+03  0.11104820101E+04  0.00000000000E+00 0. -1.
         -2    1    3    3    0  502  0.47594729820E+02 -0.10553118780E+03 -0.71398006545E+02  0.13601384210E+03  0.00000000000E+00 0.  1.
         11    1    5    5    0    0 -0.16341457989E+03  0.61077876968E+02 -0.22138037527E+01  0.17446986244E+03  0.00000000000E+00 0.  1.
        -11    1    5    5    0    0 -0.50715319631E+03  0.27684723567E+03 -0.15044723454E+03  0.59706207952E+03  0.00000000000E+00 0. -1.
          1    1    6    6  503    0 -0.30180043639E+02  0.22099417872E+03  0.16137663347E+03  0.27530288755E+03  0.00000000000E+00 0. -1.
         -1    1    6    6    0  503  0.60380124059E+02  0.29473441776E+03  0.20127925094E+03  0.36197717228E+03  0.00000000000E+00 0.  1.
<mgrwt>
<rscale>  0 0.26204325E+04</rscale>
<asrwt>0</asrwt>
<pdfrwt beam="1">  1        1 0.17125872E+00 0.26204325E+04</pdfrwt>
<pdfrwt beam="2">  1       -2 0.23725018E+00 0.26204325E+04</pdfrwt>
<totfact> 0.73643132E-01</totfact>
</mgrwt>
</event>
<event>
12    4  0.4381187E-008  0.2151456E+04  0.7818608E-02  0.8538909E-01
         -2   -1    0    0    0  501 -0.00000000000E+00  0.00000000000E+00  0.38406758518E+03  0.38406758518E+03  0.00000000000E+00 0.  1.
          1   -1    0    0  501    0  0.00000000000E+00 -0.00000000000E+00 -0.30129870605E+04  0.30129870605E+04  0.00000000000E+00 0. -1.
        -24    2    1    2    0    0  0.58622215373E+03 -0.36603804221E+03 -0.20817943656E+03  0.72595424247E+03  0.77657082667E+02 0.  0.
        254    2    1    2    0    0 -0.58622215373E+03  0.36603804221E+03 -0.24207400388E+04  0.26711004032E+04  0.89283524060E+03 0.  0.
         23    2    4    4    0    0 -0.52319815628E+03  0.59352277950E+03 -0.13240148666E+04  0.15451385484E+04  0.91826826360E+02 0.  0.
         23    2    4    4    0    0 -0.63023997454E+02 -0.22748473729E+03 -0.10967251721E+04  0.11259618549E+04  0.96242742205E+02 0.  0.
          1    1    3    3  502    0  0.25977813710E+03 -0.17024171619E+03 -0.13335797132E+03  0.33801075569E+03  0.00000000000E+00 0. -1.
         -2    1    3    3    0  502  0.32644401663E+03 -0.19579632602E+03 -0.74821465234E+02  0.38794348679E+03  0.00000000000E+00 0.  1.
         11    1    5    5    0    0 -0.11847334450E+03  0.18073155336E+03 -0.41444811991E+03  0.46740461255E+03  0.00000000000E+00 0.  1.
        -11    1    5    5    0    0 -0.40472481178E+03  0.41279122613E+03 -0.90956674674E+03  0.10777339358E+04  0.00000000000E+00 0. -1.
          3    1    6    6  503    0  0.22495703600E+02 -0.74705007478E+02 -0.27904217434E+03  0.28974373139E+03  0.00000000000E+00 0. -1.
         -3    1    6    6    0  503 -0.85519701054E+02 -0.15277972981E+03 -0.81768299780E+03  0.83621812346E+03  0.00000000000E+00 0.  1.
<mgrwt>
<rscale>  0 0.21514559E+04</rscale>
<asrwt>0</asrwt>
<pdfrwt beam="1">  1        1 0.46353646E+00 0.21514559E+04</pdfrwt>
<pdfrwt beam="2">  1       -2 0.59087322E-01 0.21514559E+04</pdfrwt>
<totfact> 0.12602751E+00</totfact>
</mgrwt>
</event>
<event>
12    4  0.4381187E-008  0.2103357E+04  0.7818608E-02  0.8559766E-01
          1   -1    0    0  501    0  0.00000000000E+00  0.00000000000E+00  0.15664499215E+04  0.15664499215E+04  0.00000000000E+00 0. -1.
         -2   -1    0    0    0  501 -0.00000000000E+00 -0.00000000000E+00 -0.70607270038E+03  0.70607270038E+03  0.00000000000E+00 0.  1.
        -24    2    1    2    0    0 -0.54957949092E+03  0.53192970657E+03 -0.63396719470E+02  0.77163426229E+03  0.80084087879E+02 0.  0.
        254    2    1    2    0    0  0.54957949092E+03 -0.53192970657E+03  0.92377394058E+03  0.15008883596E+04  0.90239722132E+03 0.  0.
         23    2    4    4    0    0 -0.12009073818E+03 -0.12744307734E+03  0.62927004726E+03  0.65996498185E+03  0.94389943961E+02 0.  0.
         23    2    4    4    0    0  0.66967022910E+03 -0.40448662923E+03  0.29450389331E+03  0.84092337773E+03  0.91388922016E+02 0.  0.
          1    1    3    3  502    0 -0.27750084054E+03  0.23562852050E+03  0.22063780939E+01  0.36404997497E+03  0.00000000000E+00 0. -1.
         -2    1    3    3    0  502 -0.27207865038E+03  0.29630118608E+03 -0.65603097564E+02  0.40758428733E+03  0.00000000000E+00 0.  1.
         11    1    5    5    0    0 -0.90251397281E+02 -0.75436375572E+02  0.25373895144E+03  0.27967734436E+03  0.00000000000E+00 0.  1.
        -11    1    5    5    0    0 -0.29839340902E+02 -0.52006701769E+02  0.37553109582E+03  0.38028763748E+03  0.00000000000E+00 0. -1.
          1    1    6    6  503    0  0.22171319447E+03 -0.10052842154E+03  0.58501079031E+02  0.25036988714E+03  0.00000000000E+00 0. -1.
         -1    1    6    6    0  503  0.44795703463E+03 -0.30395820770E+03  0.23600281428E+03  0.59055349059E+03  0.00000000000E+00 0.  1.
<mgrwt>
<rscale>  0 0.21033569E+04</rscale>
<asrwt>0</asrwt>
<pdfrwt beam="1">  1        1 0.24099229E+00 0.21033569E+04</pdfrwt>
<pdfrwt beam="2">  1       -2 0.10862657E+00 0.21033569E+04</pdfrwt>
<totfact> 0.32172408E+00</totfact>
</mgrwt>
</event>
<event>
12    4  0.4381187E-008  0.2620817E+04  0.7818608E-02  0.8361164E-01
         -2   -1    0    0    0  501 -0.00000000000E+00  0.00000000000E+00  0.19201251546E+04  0.19201251546E+04  0.00000000000E+00 0.  1.
          1   -1    0    0  501    0  0.00000000000E+00 -0.00000000000E+00 -0.89430129614E+03  0.89430129614E+03  0.00000000000E+00 0. -1.
        -24    2    1    2    0    0 -0.25924173230E+03 -0.40264479351E+03 -0.67611066137E+03  0.83211463460E+03  0.77201251199E+02 0.  0.
        254    2    1    2    0    0  0.25924173230E+03  0.40264479351E+03  0.17019345198E+04  0.19823118161E+04  0.89646523695E+03 0.  0.
         23    2    4    4    0    0  0.44866900098E+03  0.31654918518E+03  0.46547216428E+03  0.72552582016E+03  0.90642820593E+02 0.  0.
         23    2    4    4    0    0 -0.18942726868E+03  0.86095608333E+02  0.12364623555E+04  0.12567859960E+04  0.85887944855E+02 0.  0.
          1    1    3    3  502    0 -0.25074117829E+03 -0.39293743454E+03 -0.62665921853E+03  0.78100751733E+03  0.00000000000E+00 0. -1.
         -2    1    3    3    0  502 -0.85005540107E+01 -0.97073589706E+01 -0.49451442846E+02  0.51107117276E+02  0.00000000000E+00 0.  1.
         11    1    5    5    0    0  0.34826759945E+03  0.21224595575E+03  0.37979258561E+03  0.55729801242E+03  0.00000000000E+00 0. -1.
        -11    1    5    5    0    0  0.10040140153E+03  0.10430322942E+03  0.85679578672E+02  0.16822780774E+03  0.00000000000E+00 0.  1.
          2    1    6    6  503    0 -0.11882691143E+03  0.89344671819E+01  0.72674124793E+03  0.73644585750E+03  0.00000000000E+00 0. -1.
         -2    1    6    6    0  503 -0.70600357253E+02  0.77161141151E+02  0.50972110761E+03  0.52034013845E+03  0.00000000000E+00 0.  1.
<mgrwt>
<rscale>  0 0.26208170E+04</rscale>
<asrwt>0</asrwt>
<pdfrwt beam="1">  1        1 0.13758482E+00 0.26208170E+04</pdfrwt>
<pdfrwt beam="2">  1       -2 0.29540387E+00 0.26208170E+04</pdfrwt>
<totfact> 0.48096621E-01</totfact>
</mgrwt>
</event>
<event>
12    4  0.4381187E-008  0.1424071E+04  0.7818608E-02  0.8936576E-01
         -2   -1    0    0    0  501 -0.00000000000E+00  0.00000000000E+00  0.19422088412E+04  0.19422088412E+04  0.00000000000E+00 0.  1.
          1   -1    0    0  501    0  0.00000000000E+00 -0.00000000000E+00 -0.26104029850E+03  0.26104029850E+03  0.00000000000E+00 0. -1.
        -24    2    1    2    0    0  0.26739113176E+03 -0.17318667438E+03  0.95304915162E+03  0.10080068376E+04  0.79268264566E+02 0.  0.
        254    2    1    2    0    0 -0.26739113176E+03  0.17318667438E+03  0.72811939103E+03  0.11952423020E+04  0.89272317739E+03 0.  0.
         23    2    4    4    0    0 -0.36892733305E+03 -0.13299676006E+03  0.75922913833E+03  0.85941947975E+03  0.91528369581E+02 0.  0.
         23    2    4    4    0    0  0.10153620129E+03  0.30618343444E+03 -0.31109747297E+02  0.33582282228E+03  0.88041216972E+02 0.  0.
          1    1    3    3  502    0 -0.80775058601E+00  0.32599100302E+01  0.13514908619E+01  0.36202212590E+01  0.00000000000E+00 0. -1.
         -2    1    3    3    0  502  0.26819888235E+03 -0.17644658441E+03  0.95169766076E+03  0.10043866164E+04  0.00000000000E+00 0.  1.
         11    1    5    5    0    0 -0.13653671762E+03 -0.33973485537E+01  0.25162074665E+03  0.28629847603E+03  0.00000000000E+00 0. -1.
        -11    1    5    5    0    0 -0.23239061544E+03 -0.12959941150E+03  0.50760839168E+03  0.57312100372E+03  0.00000000000E+00 0.  1.
          1    1    6    6  503    0  0.84112846484E+02  0.19761747684E+03 -0.58320103358E+02  0.22255083139E+03  0.00000000000E+00 0. -1.
         -1    1    6    6    0  503  0.17423354805E+02  0.10856595760E+03  0.27210356061E+02  0.11327199088E+03  0.00000000000E+00 0.  1.
<mgrwt>
<rscale>  0 0.14240713E+04</rscale>
<asrwt>0</asrwt>
<pdfrwt beam="1">  1        1 0.40160047E-01 0.14240713E+04</pdfrwt>
<pdfrwt beam="2">  1       -2 0.29880135E+00 0.14240713E+04</pdfrwt>
<totfact> 0.28992294E+00</totfact>
</mgrwt>
</event>
<event>
12    4  0.4381187E-008  0.1313684E+04  0.7818608E-02  0.9018783E-01
         -2   -1    0    0    0  501 -0.00000000000E+00  0.00000000000E+00  0.57530605932E+03  0.57530605932E+03  0.00000000000E+00 0.  1.
          1   -1    0    0  501    0  0.00000000000E+00 -0.00000000000E+00 -0.74993415880E+03  0.74993415880E+03  0.00000000000E+00 0. -1.
        -24    2    1    2    0    0 -0.23387131906E+03  0.23156086976E+03  0.35097415322E+02  0.34063203477E+03  0.80511640547E+02 0.  0.
        254    2    1    2    0    0  0.23387131906E+03 -0.23156086976E+03 -0.20972551479E+03  0.98460818335E+03  0.90396474095E+03 0.  0.
         23    2    4    4    0    0 -0.50738582729E+02  0.15615390006E+03  0.24883680083E+03  0.31405065860E+03  0.98740156145E+02 0.  0.
         23    2    4    4    0    0  0.28460990179E+03 -0.38771476983E+03 -0.45856231563E+03  0.67055752475E+03  0.89679751022E+02 0.  0.
          3    1    3    3  502    0 -0.12100174135E+02  0.48195064645E+02 -0.56144017072E+01  0.50006999278E+02  0.00000000000E+00 0. -1.
         -4    1    3    3    0  502 -0.22177114493E+03  0.18336580512E+03  0.40711817029E+02  0.29062503550E+03  0.00000000000E+00 0.  1.
         11    1    5    5    0    0  0.17440425242E+02  0.25146988150E+02  0.81566895402E+01  0.31671296625E+02  0.00000000000E+00 0. -1.
        -11    1    5    5    0    0 -0.68179007972E+02  0.13100691191E+03  0.24068011129E+03  0.28237936197E+03  0.00000000000E+00 0.  1.
          4    1    6    6  503    0 -0.43486798639E+01 -0.21228530191E+02 -0.29463855038E+02  0.36574311536E+02  0.00000000000E+00 0. -1.
         -4    1    6    6    0  503  0.28895858166E+03 -0.36648623964E+03 -0.42909846059E+03  0.63398321321E+03  0.00000000000E+00 0.  1.
<mgrwt>
<rscale>  0 0.13136844E+04</rscale>
<asrwt>0</asrwt>
<pdfrwt beam="1">  1        1 0.11537449E+00 0.13136844E+04</pdfrwt>
<pdfrwt beam="2">  1       -2 0.88508625E-01 0.13136844E+04</pdfrwt>
<totfact> 0.23133214E+01</totfact>
</mgrwt>
</event>
<event>
12    4  0.4381187E-008  0.1514296E+04  0.7818608E-02  0.8875002E-01
         -2   -1    0    0    0  501 -0.00000000000E+00  0.00000000000E+00  0.92799268117E+03  0.92799268117E+03  0.00000000000E+00 0.  1.
          1   -1    0    0  501    0  0.00000000000E+00 -0.00000000000E+00 -0.61775605100E+03  0.61775605100E+03  0.00000000000E+00 0. -1.
        -24    2    1    2    0    0  0.22387966830E+03  0.86422657131E+02 -0.31520765007E+03  0.40434315164E+03  0.80910691957E+02 0.  0.
        254    2    1    2    0    0 -0.22387966830E+03 -0.86422657131E+02  0.62544428024E+03  0.11414055805E+04  0.92414023288E+03 0.  0.
         23    2    4    4    0    0  0.16960426992E+03 -0.32027236226E+03  0.55541194403E+03  0.66951358764E+03  0.91793366069E+02 0.  0.
         23    2    4    4    0    0 -0.39348393822E+03  0.23384970513E+03  0.70032336216E+02  0.47189199289E+03  0.90896812984E+02 0.  0.
          3    1    3    3  502    0  0.11572507585E+03  0.84139054082E+02 -0.15406144974E+03  0.21025366560E+03  0.00000000000E+00 0. -1.
         -4    1    3    3    0  502  0.10815459245E+03  0.22836030487E+01 -0.16114620033E+03  0.19408948604E+03  0.00000000000E+00 0.  1.
         11    1    5    5    0    0  0.99717775675E+02 -0.10769342537E+03  0.17751555203E+03  0.23033297607E+03  0.00000000000E+00 0.  1.
        -11    1    5    5    0    0  0.69886494247E+02 -0.21257893690E+03  0.37789639200E+03  0.43918061156E+03  0.00000000000E+00 0. -1.
          2    1    6    6  503    0 -0.37801370102E+03  0.21917424081E+03  0.85889373489E+02  0.44531863926E+03  0.00000000000E+00 0. -1.
         -2    1    6    6    0  503 -0.15470237196E+02  0.14675464326E+02 -0.15857037272E+02  0.26573353630E+02  0.00000000000E+00 0.  1.
<mgrwt>
<rscale>  0 0.15142960E+04</rscale>
<asrwt>0</asrwt>
<pdfrwt beam="1">  1        1 0.95039392E-01 0.15142960E+04</pdfrwt>
<pdfrwt beam="2">  1       -2 0.14276810E+00 0.15142960E+04</pdfrwt>
<totfact> 0.94682263E+00</totfact>
</mgrwt>
</event>
<event>
12    4  0.4381187E-008  0.2451200E+04  0.7818608E-02  0.8420580E-01
         -2   -1    0    0    0  501 -0.00000000000E+00  0.00000000000E+00  0.61354029323E+03  0.61354029323E+03  0.00000000000E+00 0.  1.
          1   -1    0    0  501    0  0.00000000000E+00 -0.00000000000E+00 -0.24482420225E+04  0.24482420225E+04  0.00000000000E+00 0. -1.
        -24    2    1    2    0    0  0.80818785874E+03  0.51712351040E+03 -0.13564448143E+04  0.16632384952E+04  0.76389905154E+02 0.  0.
        254    2    1    2    0    0 -0.80818785874E+03 -0.51712351040E+03 -0.47825691498E+03  0.13985438206E+04  0.89811513808E+03 0.  0.
         23    2    4    4    0    0 -0.85100992508E+03 -0.69987318102E+03 -0.40178499510E+03  0.11761565893E+04  0.88728676951E+02 0.  0.
         23    2    4    4    0    0  0.42822066343E+02  0.18274967062E+03 -0.76471919880E+02  0.22238723128E+03  0.91525704743E+02 0.  0.
          1    1    3    3  502    0  0.61606689309E+03  0.42838619778E+03 -0.10801645796E+04  0.13152219091E+04  0.00000000000E+00 0. -1.
         -2    1    3    3    0  502  0.19212096565E+03  0.88737312629E+02 -0.27628023477E+03  0.34801658613E+03  0.00000000000E+00 0.  1.
         11    1    5    5    0    0 -0.98020239528E+02 -0.46740244444E+02 -0.41838726669E+02  0.11637481195E+03  0.00000000000E+00 0. -1.
        -11    1    5    5    0    0 -0.75298968555E+03 -0.65313293658E+03 -0.35994626843E+03  0.10597817773E+04  0.00000000000E+00 0.  1.
          2    1    6    6  503    0  0.44684290245E+02  0.19063812124E+03 -0.61283201639E+02  0.20517117212E+03  0.00000000000E+00 0.  1.
         -2    1    6    6    0  503 -0.18622239024E+01 -0.78884506257E+01 -0.15188718241E+02  0.17216059158E+02  0.00000000000E+00 0. -1.
<mgrwt>
<rscale>  0 0.24511998E+04</rscale>
<asrwt>0</asrwt>
<pdfrwt beam="1">  1        1 0.37665262E+00 0.24511998E+04</pdfrwt>
<pdfrwt beam="2">  1       -2 0.94390815E-01 0.24511998E+04</pdfrwt>
<totfact> 0.10915642E+00</totfact>
</mgrwt>
</event>
<event>
12    4  0.4381187E-008  0.1321317E+04  0.7818608E-02  0.9012829E-01
          1   -1    0    0  501    0  0.00000000000E+00  0.00000000000E+00  0.25702313440E+04  0.25702313440E+04  0.00000000000E+00 0. -1.
         -2   -1    0    0    0  501 -0.00000000000E+00 -0.00000000000E+00 -0.16981733289E+03  0.16981733289E+03  0.00000000000E+00 0.  1.
        -24    2    1    2    0    0 -0.88230285995E+02 -0.30593503894E+03  0.10127375747E+04  0.10642063758E+04  0.74276399225E+02 0.  0.
        254    2    1    2    0    0  0.88230285995E+02  0.30593503894E+03  0.13876764363E+04  0.16758423011E+04  0.88398003076E+03 0.  0.
         23    2    4    4    0    0 -0.78782201240E+02 -0.17428164494E+03  0.20209709263E+02  0.21422277503E+03  0.94351671934E+02 0.  0.
         23    2    4    4    0    0  0.16701248724E+03  0.48021668388E+03  0.13674667271E+04  0.14616195261E+04  0.88685709014E+02 0.  0.
          3    1    3    3  502    0 -0.72029271114E+02 -0.24813581058E+03  0.70945258493E+03  0.75503812265E+03  0.00000000000E+00 0. -1.
         -4    1    3    3    0  502 -0.16201014882E+02 -0.57799228358E+02  0.30328498982E+03  0.30916825311E+03  0.00000000000E+00 0.  1.
         11    1    5    5    0    0  0.17437128805E+02 -0.61859081081E+02 -0.34720083588E+01  0.64363454035E+02  0.00000000000E+00 0.  1.
        -11    1    5    5    0    0 -0.96219330046E+02 -0.11242256386E+03  0.23681717622E+02  0.14985932099E+03  0.00000000000E+00 0. -1.
          1    1    6    6  503    0  0.11599932428E+03  0.41267820132E+03  0.10804019560E+04  0.11623370972E+04  0.00000000000E+00 0. -1.
         -1    1    6    6    0  503  0.51013162959E+02  0.67538482563E+02  0.28706477111E+03  0.29928242888E+03  0.00000000000E+00 0.  1.
<mgrwt>
<rscale>  0 0.13213173E+04</rscale>
<asrwt>0</asrwt>
<pdfrwt beam="1">  1        1 0.39542018E+00 0.13213173E+04</pdfrwt>
<pdfrwt beam="2">  1       -2 0.26125746E-01 0.13213173E+04</pdfrwt>
<totfact> 0.13872710E+01</totfact>
</mgrwt>
</event>
<event>
12    4  0.4381187E-008  0.1769439E+04  0.7818608E-02  0.8722722E-01
          1   -1    0    0  501    0  0.00000000000E+00  0.00000000000E+00  0.28896587506E+04  0.28896587506E+04  0.00000000000E+00 0. -1.
         -2   -1    0    0    0  501 -0.00000000000E+00 -0.00000000000E+00 -0.27087244221E+03  0.27087244221E+03  0.00000000000E+00 0.  1.
        -24    2    1    2    0    0  0.87925633721E+02  0.85926741886E+02  0.21068894716E+04  0.21119829565E+04  0.79840095794E+02 0.  0.
        254    2    1    2    0    0 -0.87925633721E+02 -0.85926741886E+02  0.51189683675E+03  0.10485482363E+04  0.90680797875E+03 0.  0.
         23    2    4    4    0    0  0.19114261970E+03  0.45029797733E+01  0.67025770150E+03  0.70256989917E+03  0.88336283069E+02 0.  0.
         23    2    4    4    0    0 -0.27906825342E+03 -0.90429721659E+02 -0.15836086475E+03  0.34597833712E+03  0.92553885092E+02 0.  0.
          3    1    3    3  502    0  0.40519662346E+02 -0.66292281195E+01  0.74392636175E+03  0.74505853556E+03  0.00000000000E+00 0. -1.
         -4    1    3    3    0  502  0.47405971375E+02  0.92555970005E+02  0.13629631099E+04  0.13669244209E+04  0.00000000000E+00 0.  1.
         11    1    5    5    0    0  0.60070700836E+01  0.13456968366E+02  0.12915825042E+02  0.19595750180E+02  0.00000000000E+00 0. -1.
        -11    1    5    5    0    0  0.18513554962E+03 -0.89539885923E+01  0.65734187645E+03  0.68297414899E+03  0.00000000000E+00 0.  1.
          1    1    6    6  503    0 -0.18617037330E+03 -0.10474437627E+03 -0.10973725403E+03  0.24015215422E+03  0.00000000000E+00 0. -1.
         -1    1    6    6    0  503 -0.92897880122E+02  0.14314654612E+02 -0.48623610719E+02  0.10582618290E+03  0.00000000000E+00 0.  1.
<mgrwt>
<rscale>  0 0.17694394E+04</rscale>
<asrwt>0</asrwt>
<pdfrwt beam="1">  1        1 0.44456286E+00 0.17694394E+04</pdfrwt>
<pdfrwt beam="2">  1       -2 0.41672685E-01 0.17694394E+04</pdfrwt>
<totfact> 0.32677114E+00</totfact>
</mgrwt>
</event>
<event>
12    4  0.4381187E-008  0.1169917E+04  0.7818608E-02  0.9139603E-01
          1   -1    0    0  501    0  0.00000000000E+00  0.00000000000E+00  0.35862656810E+04  0.35862656810E+04  0.00000000000E+00 0. -1.
         -2   -1    0    0    0  501 -0.00000000000E+00 -0.00000000000E+00 -0.95413035039E+02  0.95413035039E+02  0.00000000000E+00 0.  1.
        -24    2    1    2    0    0  0.95898184633E+02  0.19888133129E+03  0.53035593593E+03  0.58013741645E+03  0.80819288746E+02 0.  0.
        254    2    1    2    0    0 -0.95898184633E+02 -0.19888133129E+03  0.29604967100E+04  0.31015412996E+04  0.89792394847E+03 0.  0.
         23    2    4    4    0    0 -0.45061871740E+03 -0.17601889196E+03  0.11012433394E+04  0.12062651532E+04  0.91098016266E+02 0.  0.
         23    2    4    4    0    0  0.35472053276E+03 -0.22862439324E+02  0.18592533707E+04  0.18952761464E+04  0.94335715413E+02 0.  0.
          3    1    3    3  502    0  0.93503335383E+02  0.18241381692E+03  0.52338809470E+03  0.56209676392E+03  0.00000000000E+00 0. -1.
         -4    1    3    3    0  502  0.23948492506E+01  0.16467514364E+02  0.69678412306E+01  0.18040652529E+02  0.00000000000E+00 0.  1.
         11    1    5    5    0    0 -0.62187510777E+02 -0.32140144719E+02  0.94225620547E+02  0.11738289043E+03  0.00000000000E+00 0. -1.
        -11    1    5    5    0    0 -0.38843120662E+03 -0.14387874724E+03  0.10070177188E+04  0.10888822628E+04  0.00000000000E+00 0.  1.
          1    1    6    6  503    0  0.23537799075E+03 -0.55599343342E+00  0.14275758216E+04  0.14468503150E+04  0.00000000000E+00 0. -1.
         -1    1    6    6    0  503  0.11934254201E+03 -0.22306445891E+02  0.43167754911E+03  0.44842583140E+03  0.00000000000E+00 0.  1.
<mgrwt>
<rscale>  0 0.11699171E+04</rscale>
<asrwt>0</asrwt>
<pdfrwt beam="1">  1        1 0.55173308E+00 0.11699171E+04</pdfrwt>
<pdfrwt beam="2">  1       -2 0.14678931E-01 0.11699171E+04</pdfrwt>
<totfact> 0.69466797E+00</totfact>
</mgrwt>
</event>
<event>
12    4  0.4381187E-008  0.3122727E+04  0.7818608E-02  0.8209528E-01
          1   -1    0    0  501    0  0.00000000000E+00  0.00000000000E+00  0.16683329717E+04  0.16683329717E+04  0.00000000000E+00 0. -1.
         -2   -1    0    0    0  501 -0.00000000000E+00 -0.00000000000E+00 -0.14612527685E+04  0.14612527685E+04  0.00000000000E+00 0.  1.
        -24    2    1    2    0    0  0.74903673813E+03  0.28676572968E+03  0.12841685768E+04  0.15160428914E+04  0.77501586960E+02 0.  0.
        254    2    1    2    0    0 -0.74903673813E+03 -0.28676572968E+03 -0.10770883737E+04  0.16135428488E+04  0.89448898334E+03 0.  0.
         23    2    4    4    0    0 -0.49759634551E+03 -0.24613398828E+03 -0.65387289248E+02  0.56617485349E+03  0.89968905047E+02 0.  0.
         23    2    4    4    0    0 -0.25144039261E+03 -0.40631741402E+02 -0.10117010844E+04  0.10473679953E+04  0.92560379379E+02 0.  0.
          3    1    3    3  502    0  0.40751352975E+03  0.11496734628E+03  0.66486385199E+03  0.78824406710E+03  0.00000000000E+00 0. -1.
         -4    1    3    3    0  502  0.34152320837E+03  0.17179838340E+03  0.61930472486E+03  0.72779882428E+03  0.00000000000E+00 0.  1.
         11    1    5    5    0    0 -0.22610006121E+03 -0.67707812092E+02 -0.47858780270E+02  0.24082368726E+03  0.00000000000E+00 0.  1.
        -11    1    5    5    0    0 -0.27149628431E+03 -0.17842617619E+03 -0.17528508978E+02  0.32535116623E+03  0.00000000000E+00 0. -1.
          1    1    6    6  503    0 -0.15356516720E+03 -0.37264577770E+02 -0.77956109338E+03  0.79541587088E+03  0.00000000000E+00 0.  1.
         -1    1    6    6    0  503 -0.97875225414E+02 -0.33671636317E+01 -0.23213999107E+03  0.25195212441E+03  0.00000000000E+00 0. -1.
<mgrwt>
<rscale>  0 0.31227271E+04</rscale>
<asrwt>0</asrwt>
<pdfrwt beam="1">  1        1 0.25666661E+00 0.31227271E+04</pdfrwt>
<pdfrwt beam="2">  1       -2 0.22480812E+00 0.31227271E+04</pdfrwt>
<totfact> 0.34163680E-01</totfact>
</mgrwt>
</event>
<event>
12    4  0.4381187E-008  0.1820500E+04  0.7818608E-02  0.8695473E-01
         -2   -1    0    0    0  501 -0.00000000000E+00  0.00000000000E+00  0.49798977905E+03  0.49798977905E+03  0.00000000000E+00 0.  1.
          1   -1    0    0  501    0  0.00000000000E+00 -0.00000000000E+00 -0.16637990508E+04  0.16637990508E+04  0.00000000000E+00 0. -1.
        -24    2    1    2    0    0  0.45534097453E+03  0.48744405191E+03 -0.24752592705E+03  0.71584936524E+03  0.78956458398E+02 0.  0.
        254    2    1    2    0    0 -0.45534097453E+03 -0.48744405191E+03 -0.91828334470E+03  0.14459394646E+04  0.89585686767E+03 0.  0.
         23    2    4    4    0    0 -0.29430308710E+03  0.17261372506E+03 -0.79295451531E+02  0.36241301866E+03  0.92981838582E+02 0.  0.
         23    2    4    4    0    0 -0.16103788743E+03 -0.66005777697E+03 -0.83898789317E+03  0.10835264460E+04  0.92300617942E+02 0.  0.
          3    1    3    3  502    0  0.32676149828E+03  0.39616122956E+03 -0.20066225386E+03  0.55134575059E+03  0.00000000000E+00 0. -1.
         -2    1    3    3    0  502  0.12857947625E+03  0.91282822348E+02 -0.46863673187E+02  0.16450361465E+03  0.00000000000E+00 0.  1.
         11    1    5    5    0    0 -0.11119976384E+03  0.57880079994E+02  0.15761692321E+02  0.12634841544E+03  0.00000000000E+00 0.  1.
        -11    1    5    5    0    0 -0.18310332326E+03  0.11473364507E+03 -0.95057143852E+02  0.23606460323E+03  0.00000000000E+00 0. -1.
          4    1    6    6  503    0  0.10236548089E+02 -0.64038977553E+02 -0.94115813601E+02  0.11429594889E+03  0.00000000000E+00 0. -1.
         -4    1    6    6    0  503 -0.17127443552E+03 -0.59601879941E+03 -0.74487207957E+03  0.96923049706E+03  0.00000000000E+00 0.  1.
<mgrwt>
<rscale>  0 0.18204998E+04</rscale>
<asrwt>0</asrwt>
<pdfrwt beam="1">  1        1 0.25596908E+00 0.18204998E+04</pdfrwt>
<pdfrwt beam="2">  1       -2 0.76613813E-01 0.18204998E+04</pdfrwt>
<totfact> 0.63531131E+00</totfact>
</mgrwt>
</event>
<event>
12    4  0.4381187E-008  0.1708310E+04  0.7818608E-02  0.8756639E-01
         -2   -1    0    0    0  501 -0.00000000000E+00  0.00000000000E+00  0.26103170284E+03  0.26103170284E+03  0.00000000000E+00 0.  1.
          1   -1    0    0  501    0  0.00000000000E+00 -0.00000000000E+00 -0.27949901059E+04  0.27949901059E+04  0.00000000000E+00 0. -1.
        -24    2    1    2    0    0  0.24364142241E+02 -0.24518789396E+03  0.86160662998E+02  0.27311216543E+03  0.80348492737E+02 0.  0.
        254    2    1    2    0    0 -0.24364142241E+02  0.24518789396E+03 -0.26201190660E+04  0.27829096433E+04  0.90490410971E+03 0.  0.
         23    2    4    4    0    0  0.14919884388E+03 -0.24795714313E+03 -0.40671382280E+03  0.50681418223E+03  0.87757858938E+02 0.  0.
         23    2    4    4    0    0 -0.17356298612E+03  0.49314503709E+03 -0.22134052432E+04  0.22760954611E+04  0.90175602961E+02 0.  0.
          1    1    3    3  502    0 -0.80996547870E+01  0.29234378436E+01  0.48395182026E+00  0.86246800438E+01  0.00000000000E+00 0. -1.
         -2    1    3    3    0  502  0.32463797028E+02 -0.24811133180E+03  0.85676711178E+02  0.26448748538E+03  0.00000000000E+00 0.  1.
         11    1    5    5    0    0  0.20217100773E+02 -0.98706991570E+02 -0.18012947790E+03  0.20639387142E+03  0.00000000000E+00 0. -1.
        -11    1    5    5    0    0  0.12898174311E+03 -0.14925015156E+03 -0.22658434490E+03  0.30042031081E+03  0.00000000000E+00 0.  1.
          3    1    6    6  503    0 -0.72657420238E+02  0.22964336902E+03 -0.83176617404E+03  0.86593888117E+03  0.00000000000E+00 0. -1.
         -3    1    6    6    0  503 -0.10090556588E+03  0.26350166807E+03 -0.13816390692E+04  0.14101565799E+04  0.00000000000E+00 0.  1.
<mgrwt>
<rscale>  0 0.17083103E+04</rscale>
<asrwt>0</asrwt>
<pdfrwt beam="1">  1        1 0.42999848E+00 0.17083103E+04</pdfrwt>
<pdfrwt beam="2">  1       -2 0.40158723E-01 0.17083103E+04</pdfrwt>
<totfact> 0.41298387E+00</totfact>
</mgrwt>
</event>
<event>
12    4  0.4381187E-008  0.1277830E+04  0.7818608E-02  0.9047333E-01
         -2   -1    0    0    0  501 -0.00000000000E+00  0.00000000000E+00  0.23751123979E+03  0.23751123979E+03  0.00000000000E+00 0.  1.
          1   -1    0    0  501    0  0.00000000000E+00 -0.00000000000E+00 -0.17187082329E+04  0.17187082329E+04  0.00000000000E+00 0. -1.
        -24    2    1    2    0    0 -0.17318070800E+03 -0.18586630369E+02 -0.80516659677E+03  0.82727149078E+03  0.75814579365E+02 0.  0.
        254    2    1    2    0    0  0.17318070800E+03  0.18586630369E+02 -0.67603039630E+03  0.11289479819E+04  0.88722569204E+03 0.  0.
         23    2    4    4    0    0  0.46519597066E+03 -0.19340331274E+03 -0.27305882776E+03  0.58033217891E+03  0.91717947907E+02 0.  0.
         23    2    4    4    0    0 -0.29201526266E+03  0.21198994311E+03 -0.40297156854E+03  0.54861580297E+03  0.91545423768E+02 0.  0.
          3    1    3    3  502    0 -0.13514397220E+03 -0.55180695562E+01 -0.72580749003E+03  0.73830268515E+03  0.00000000000E+00 0. -1.
         -4    1    3    3    0  502 -0.38036735804E+02 -0.13068560813E+02 -0.79359106740E+02  0.88968805628E+02  0.00000000000E+00 0.  1.
         11    1    5    5    0    0  0.38233838012E+03 -0.19392352039E+03 -0.21906958849E+03  0.48143582467E+03  0.00000000000E+00 0. -1.
        -11    1    5    5    0    0  0.82857590533E+02  0.52020764873E+00 -0.53989239278E+02  0.98896354244E+02  0.00000000000E+00 0.  1.
          3    1    6    6  503    0 -0.10208538303E+03  0.48542141671E+02 -0.18345892319E+03  0.21548768281E+03  0.00000000000E+00 0. -1.
         -3    1    6    6    0  503 -0.18992987963E+03  0.16344780144E+03 -0.21951264535E+03  0.33312812016E+03  0.00000000000E+00 0.  1.
<mgrwt>
<rscale>  0 0.12778302E+04</rscale>
<asrwt>0</asrwt>
<pdfrwt beam="1">  1        1 0.26441665E+00 0.12778302E+04</pdfrwt>
<pdfrwt beam="2">  1       -2 0.36540191E-01 0.12778302E+04</pdfrwt>
<totfact> 0.28198512E+01</totfact>
</mgrwt>
</event>
<event>
12    4  0.4381187E-008  0.1472825E+04  0.7818608E-02  0.8902728E-01
         -4   -1    0    0    0  501 -0.00000000000E+00  0.00000000000E+00  0.37483104525E+03  0.37483104525E+03  0.00000000000E+00 0.  1.
          1   -1    0    0  501    0  0.00000000000E+00 -0.00000000000E+00 -0.14467946172E+04  0.14467946172E+04  0.00000000000E+00 0. -1.
        -24    2    1    2    0    0  0.17895786918E+03 -0.37897721225E+03 -0.55978256140E+03  0.70389605277E+03  0.80395837613E+02 0.  0.
        254    2    1    2    0    0 -0.17895786918E+03  0.37897721225E+03 -0.51218101054E+03  0.11177296097E+04  0.90074438463E+03 0.  0.
         23    2    4    4    0    0  0.16800353543E+03 -0.19139076899E+03 -0.31538878160E+03  0.41565431327E+03  0.91884765902E+02 0.  0.
         23    2    4    4    0    0 -0.34696140461E+03  0.57036798124E+03 -0.19679222894E+03  0.70207529641E+03  0.92090662660E+02 0.  0.
          3    1    3    3  502    0  0.15561109186E+03 -0.27900141753E+03 -0.46502296025E+03  0.56418344220E+03  0.00000000000E+00 0. -1.
         -4    1    3    3    0  502  0.23346777327E+02 -0.99975794718E+02 -0.94759601151E+02  0.13971261057E+03  0.00000000000E+00 0.  1.
         11    1    5    5    0    0  0.16830762414E+03 -0.15289627773E+03 -0.29381171709E+03  0.37152396045E+03  0.00000000000E+00 0.  1.
        -11    1    5    5    0    0 -0.30408870455E+00 -0.38494491254E+02 -0.21577064509E+02  0.44130352815E+02  0.00000000000E+00 0. -1.
          3    1    6    6  503    0 -0.41048778967E+02  0.12764730665E+03 -0.19522131365E+02  0.13549889580E+03  0.00000000000E+00 0. -1.
         -3    1    6    6    0  503 -0.30591262565E+03  0.44272067458E+03 -0.17727009758E+03  0.56657640061E+03  0.00000000000E+00 0.  1.
<mgrwt>
<rscale>  0 0.14728252E+04</rscale>
<asrwt>0</asrwt>
<pdfrwt beam="1">  1        1 0.22258379E+00 0.14728252E+04</pdfrwt>
<pdfrwt beam="2">  1       -4 0.57666313E-01 0.14728252E+04</pdfrwt>
<totfact> 0.96771805E+00</totfact>
</mgrwt>
</event>
<event>
12    4  0.4381187E-008  0.1319438E+04  0.7818608E-02  0.9014291E-01
          1   -1    0    0  501    0  0.00000000000E+00  0.00000000000E+00  0.84616781279E+03  0.84616781279E+03  0.00000000000E+00 0. -1.
         -2   -1    0    0    0  501 -0.00000000000E+00 -0.00000000000E+00 -0.51435328064E+03  0.51435328064E+03  0.00000000000E+00 0.  1.
        -24    2    1    2    0    0  0.41544209930E+02  0.23007623650E+03  0.34529959534E+03  0.42461717292E+03  0.80043344635E+02 0.  0.
        254    2    1    2    0    0 -0.41544209930E+02 -0.23007623650E+03 -0.13485063194E+02  0.93590392051E+03  0.90613095384E+03 0.  0.
         23    2    4    4    0    0 -0.22433433231E+03 -0.39992262583E+03  0.27721794680E+03  0.54415948643E+03  0.94845966369E+02 0.  0.
         23    2    4    4    0    0  0.18279012238E+03  0.16984638933E+03 -0.29070300999E+03  0.39174443408E+03  0.81825648813E+02 0.  0.
          3    1    3    3  502    0  0.36488988947E+02  0.23620722035E+03  0.33671627086E+03  0.41292026387E+03  0.00000000000E+00 0. -1.
         -2    1    3    3    0  502  0.50552209834E+01 -0.61309838487E+01  0.85833244851E+01  0.11696909052E+02  0.00000000000E+00 0.  1.
         11    1    5    5    0    0 -0.19994725762E+03 -0.38896225446E+03  0.27648746610E+03  0.51741265943E+03  0.00000000000E+00 0. -1.
        -11    1    5    5    0    0 -0.24387074691E+02 -0.10960371367E+02  0.73048070177E+00  0.26746826999E+02  0.00000000000E+00 0.  1.
          1    1    6    6  503    0  0.17452046697E+03  0.13079976657E+03 -0.26902644587E+03  0.34632528193E+03  0.00000000000E+00 0. -1.
         -1    1    6    6    0  503  0.82696554132E+01  0.39046622763E+02 -0.21676564121E+02  0.45419152149E+02  0.00000000000E+00 0.  1.
<mgrwt>
<rscale>  0 0.13194380E+04</rscale>
<asrwt>0</asrwt>
<pdfrwt beam="1">  1        1 0.13017966E+00 0.13194380E+04</pdfrwt>
<pdfrwt beam="2">  1       -2 0.79131274E-01 0.13194380E+04</pdfrwt>
<totfact> 0.24577942E+01</totfact>
</mgrwt>
</event>
<event>
12    4  0.4381187E-008  0.2424025E+04  0.7818608E-02  0.8430563E-01
          1   -1    0    0  501    0  0.00000000000E+00  0.00000000000E+00  0.14070810306E+04  0.14070810306E+04  0.00000000000E+00 0. -1.
         -2   -1    0    0    0  501 -0.00000000000E+00 -0.00000000000E+00 -0.10439869028E+04  0.10439869028E+04  0.00000000000E+00 0.  1.
        -24    2    1    2    0    0 -0.22172792615E+03  0.76625720078E+03  0.84744569725E+03  0.11664509064E+04  0.78295186660E+02 0.  0.
        254    2    1    2    0    0  0.22172792615E+03 -0.76625720078E+03 -0.48435156943E+03  0.12846170270E+04  0.88279731099E+03 0.  0.
         23    2    4    4    0    0 -0.17370785450E+03 -0.54881489080E+03 -0.57122651531E+03  0.81604202355E+03  0.90844093517E+02 0.  0.
         23    2    4    4    0    0  0.39543578065E+03 -0.21744230998E+03  0.86874945885E+02  0.46857500346E+03  0.91458530788E+02 0.  0.
          3    1    3    3  502    0 -0.20662712244E+03  0.74298767858E+03  0.83301261674E+03  0.11351808129E+04  0.00000000000E+00 0. -1.
         -4    1    3    3    0  502 -0.15100803716E+02  0.23269522200E+02  0.14433080512E+02  0.31270093529E+02  0.00000000000E+00 0.  1.
         11    1    5    5    0    0 -0.25659821716E+02 -0.12408501502E+03 -0.17865520876E+03  0.21902785444E+03  0.00000000000E+00 0.  1.
        -11    1    5    5    0    0 -0.14804803278E+03 -0.42472987578E+03 -0.39257130655E+03  0.59701416911E+03  0.00000000000E+00 0. -1.
          3    1    6    6  503    0  0.91949355801E+01  0.42557409642E+01  0.14038998276E+02  0.17313337173E+02  0.00000000000E+00 0. -1.
         -3    1    6    6    0  503  0.38624084507E+03 -0.22169805094E+03  0.72835947609E+02  0.45126166628E+03  0.00000000000E+00 0.  1.
<mgrwt>
<rscale>  0 0.24240249E+04</rscale>
<asrwt>0</asrwt>
<pdfrwt beam="1">  1        1 0.21647400E+00 0.24240249E+04</pdfrwt>
<pdfrwt beam="2">  1       -2 0.16061337E+00 0.24240249E+04</pdfrwt>
<totfact> 0.14863789E+00</totfact>
</mgrwt>
</event>
<event>
12    4  0.4381187E-008  0.2020561E+04  0.7818608E-02  0.8597067E-01
          1   -1    0    0  501    0  0.00000000000E+00  0.00000000000E+00  0.94096971437E+03  0.94096971437E+03  0.00000000000E+00 0. -1.
         -2   -1    0    0    0  501 -0.00000000000E+00 -0.00000000000E+00 -0.10846969832E+04  0.10846969832E+04  0.00000000000E+00 0.  1.
        -24    2    1    2    0    0  0.13891204450E+03  0.17644660688E+03  0.71603520585E+03  0.75860118651E+03  0.11108277536E+03 0.  0.
        254    2    1    2    0    0 -0.13891204450E+03 -0.17644660688E+03 -0.85976247468E+03  0.12670655111E+04  0.90323503878E+03 0.  0.
         23    2    4    4    0    0  0.10243462736E+03  0.28557934017E+03 -0.59772956766E+03  0.67651330775E+03  0.91330209125E+02 0.  0.
         23    2    4    4    0    0 -0.24134667187E+03 -0.46202594705E+03 -0.26203290702E+03  0.59055220331E+03  0.91512123302E+02 0.  0.
          1    1    3    3  502    0  0.11034713021E+03  0.96817897192E+02  0.58096866441E+03  0.59922849014E+03  0.00000000000E+00 0. -1.
         -2    1    3    3    0  502  0.28564914297E+02  0.79628709692E+02  0.13506654143E+03  0.15937269638E+03  0.00000000000E+00 0.  1.
         11    1    5    5    0    0  0.57338165308E+02  0.83360549554E+02 -0.27480351143E+03  0.29283718397E+03  0.00000000000E+00 0. -1.
        -11    1    5    5    0    0  0.45096462053E+02  0.20221879061E+03 -0.32292605623E+03  0.38367612378E+03  0.00000000000E+00 0.  1.
          4    1    6    6  503    0 -0.85832426532E+02 -0.82510881891E+02 -0.56159106098E+02  0.13164002534E+03  0.00000000000E+00 0. -1.
         -4    1    6    6    0  503 -0.15551424533E+03 -0.37951506516E+03 -0.20587380092E+03  0.45891217797E+03  0.00000000000E+00 0.  1.
<mgrwt>
<rscale>  0 0.20205613E+04</rscale>
<asrwt>0</asrwt>
<pdfrwt beam="1">  1        1 0.14476457E+00 0.20205613E+04</pdfrwt>
<pdfrwt beam="2">  1       -2 0.16687646E+00 0.20205613E+04</pdfrwt>
<totfact> 0.30690324E+00</totfact>
</mgrwt>
</event>
<event>
12    4  0.4381187E-008  0.2215081E+04  0.7818608E-02  0.8512177E-01
         -2   -1    0    0    0  501 -0.00000000000E+00  0.00000000000E+00  0.55489849125E+03  0.55489849125E+03  0.00000000000E+00 0.  1.
          1   -1    0    0  501    0  0.00000000000E+00 -0.00000000000E+00 -0.22105780208E+04  0.22105780208E+04  0.00000000000E+00 0. -1.
        -24    2    1    2    0    0 -0.36139511476E+03 -0.17848725591E+03  0.34001717664E+03  0.53335280395E+03  0.79933744886E+02 0.  0.
        254    2    1    2    0    0  0.36139511476E+03  0.17848725591E+03 -0.19956967062E+04  0.22321237081E+04  0.91493539427E+03 0.  0.
         23    2    4    4    0    0  0.11467038440E+03 -0.24467026119E+03 -0.15120300654E+04  0.15385137492E+04  0.88186189287E+02 0.  0.
         23    2    4    4    0    0  0.24672473035E+03  0.42315751711E+03 -0.48366664082E+03  0.69360995895E+03  0.85005757797E+02 0.  0.
          1    1    3    3  502    0 -0.23459385597E+03 -0.13162024360E+03  0.17898856232E+03  0.32310226125E+03  0.00000000000E+00 0. -1.
         -2    1    3    3    0  502 -0.12680125879E+03 -0.46867012311E+02  0.16102861432E+03  0.21025054269E+03  0.00000000000E+00 0.  1.
         11    1    5    5    0    0  0.12793911478E+03 -0.23273738654E+03 -0.14414596790E+04  0.14657220454E+04  0.00000000000E+00 0.  1.
        -11    1    5    5    0    0 -0.13268730375E+02 -0.11932874652E+02 -0.70570386389E+02  0.72791703774E+02  0.00000000000E+00 0. -1.
          2    1    6    6  503    0  0.12405894077E+03  0.16056251990E+03 -0.24532658430E+03  0.31836469111E+03  0.00000000000E+00 0. -1.
         -2    1    6    6    0  503  0.12266578958E+03  0.26259499721E+03 -0.23834005652E+03  0.37524526784E+03  0.00000000000E+00 0.  1.
<mgrwt>
<rscale>  0 0.22150814E+04</rscale>
<asrwt>0</asrwt>
<pdfrwt beam="1">  1        1 0.34008892E+00 0.22150814E+04</pdfrwt>
<pdfrwt beam="2">  1       -2 0.85369000E-01 0.22150814E+04</pdfrwt>
<totfact> 0.20448398E+00</totfact>
</mgrwt>
</event>
<event>
12    4  0.4381187E-008  0.2560096E+04  0.7818608E-02  0.8381883E-01
         -2   -1    0    0    0  501 -0.00000000000E+00  0.00000000000E+00  0.84979237815E+03  0.84979237815E+03  0.00000000000E+00 0.  1.
          1   -1    0    0  501    0  0.00000000000E+00 -0.00000000000E+00 -0.19281447310E+04  0.19281447310E+04  0.00000000000E+00 0. -1.
        -24    2    1    2    0    0 -0.41950241711E+03  0.88595518106E+03 -0.10667374692E+04  0.14509550773E+04  0.80267971297E+02 0.  0.
        254    2    1    2    0    0  0.41950241711E+03 -0.88595518106E+03 -0.11614883663E+02  0.13269820319E+04  0.89434196293E+03 0.  0.
         23    2    4    4    0    0 -0.28823685366E+02 -0.58387063586E+03  0.33410019004E+03  0.67890047441E+03  0.86874581552E+02 0.  0.
         23    2    4    4    0    0  0.44832610248E+03 -0.30208454520E+03 -0.34571507370E+03  0.64808155749E+03  0.90771285989E+02 0.  0.
          3    1    3    3  502    0 -0.35963069740E+03  0.78260791576E+03 -0.89850989714E+03  0.12446402788E+04  0.00000000000E+00 0. -1.
         -4    1    3    3    0  502 -0.59871719714E+02  0.10334726530E+03 -0.16822757207E+03  0.20631479848E+03  0.00000000000E+00 0.  1.
         11    1    5    5    0    0 -0.35349154445E+02 -0.58286529615E+03  0.32723684117E+03  0.66937692401E+03  0.00000000000E+00 0. -1.
        -11    1    5    5    0    0  0.65254690789E+01 -0.10053397082E+01  0.68633488694E+01  0.95235504058E+01  0.00000000000E+00 0.  1.
          1    1    6    6  503    0  0.32448882790E+03 -0.16741542523E+03 -0.23574096478E+03  0.43462020950E+03  0.00000000000E+00 0. -1.
         -1    1    6    6    0  503  0.12383727458E+03 -0.13466911998E+03 -0.10997410893E+03  0.21346134799E+03  0.00000000000E+00 0.  1.
<mgrwt>
<rscale>  0 0.25600959E+04</rscale>
<asrwt>0</asrwt>
<pdfrwt beam="1">  1        1 0.29663765E+00 0.25600959E+04</pdfrwt>
<pdfrwt beam="2">  1       -2 0.13073729E+00 0.25600959E+04</pdfrwt>
<totfact> 0.11085485E+00</totfact>
</mgrwt>
</event>
<event>
12    4  0.4381187E-008  0.2486736E+04  0.7818608E-02  0.8407726E-01
         -2   -1    0    0    0  501 -0.00000000000E+00  0.00000000000E+00  0.12965723224E+04  0.12965723224E+04  0.00000000000E+00 0.  1.
          1   -1    0    0  501    0  0.00000000000E+00 -0.00000000000E+00 -0.11923470341E+04  0.11923470341E+04  0.00000000000E+00 0. -1.
        -24    2    1    2    0    0  0.36855319120E+03  0.15672342107E+03 -0.95695423851E+03  0.10404372504E+04  0.79715569296E+02 0.  0.
        254    2    1    2    0    0 -0.36855319120E+03 -0.15672342107E+03  0.10611795267E+04  0.14484821061E+04  0.90089108005E+03 0.  0.
         23    2    4    4    0    0 -0.72701057505E+02  0.35461333294E+03  0.28963831992E+03  0.47252233618E+03  0.91383489534E+02 0.  0.
         23    2    4    4    0    0 -0.29585213370E+03 -0.51133675401E+03  0.77154120682E+03  0.97595976987E+03  0.90707648938E+02 0.  0.
          1    1    3    3  502    0  0.13375526029E+03  0.85435240197E+02 -0.45117208363E+03  0.47827387444E+03  0.00000000000E+00 0. -1.
         -2    1    3    3    0  502  0.23479793091E+03  0.71288180871E+02 -0.50578215488E+03  0.56216337598E+03  0.00000000000E+00 0.  1.
         11    1    5    5    0    0 -0.31155613499E+02  0.31071791295E+03  0.25247720788E+03  0.40157319903E+03  0.00000000000E+00 0. -1.
        -11    1    5    5    0    0 -0.41545444006E+02  0.43895419984E+02  0.37161112042E+02  0.70949137144E+02  0.00000000000E+00 0.  1.
          2    1    6    6  503    0 -0.22913627576E+03 -0.30972342471E+03  0.49154638196E+03  0.62453973316E+03  0.00000000000E+00 0. -1.
         -2    1    6    6    0  503 -0.66715857931E+02 -0.20161332930E+03  0.27999482487E+03  0.35142003671E+03  0.00000000000E+00 0.  1.
<mgrwt>
<rscale>  0 0.24867361E+04</rscale>
<asrwt>0</asrwt>
<pdfrwt beam="1">  1        1 0.18343800E+00 0.24867361E+04</pdfrwt>
<pdfrwt beam="2">  1       -2 0.19947267E+00 0.24867361E+04</pdfrwt>
<totfact> 0.11324909E+00</totfact>
</mgrwt>
</event>
<event>
12    4  0.4381187E-008  0.1849911E+04  0.7818608E-02  0.8680199E-01
          3   -1    0    0  501    0  0.00000000000E+00  0.00000000000E+00  0.41351347556E+03  0.41351347556E+03  0.00000000000E+00 0. -1.
         -4   -1    0    0    0  501 -0.00000000000E+00 -0.00000000000E+00 -0.20689598240E+04  0.20689598240E+04  0.00000000000E+00 0.  1.
        -24    2    1    2    0    0  0.13723067452E+03 -0.37323201224E+03  0.14102719001E+03  0.42961202479E+03  0.80891473800E+02 0.  0.
        254    2    1    2    0    0 -0.13723067452E+03  0.37323201224E+03 -0.17964735384E+04  0.20528612748E+04  0.91037785895E+03 0.  0.
         23    2    4    4    0    0  0.13284123862E+03  0.12136271460E+03 -0.16211389342E+04  0.16337066070E+04  0.92358705478E+02 0.  0.
         23    2    4    4    0    0 -0.27007191314E+03  0.25186929764E+03 -0.17533460425E+03  0.41915466780E+03  0.92582021635E+02 0.  0.
          1    1    3    3  502    0  0.84069109107E+02 -0.28423748165E+03  0.13519145793E+03  0.32578411774E+03  0.00000000000E+00 0. -1.
         -2    1    3    3    0  502  0.53161565416E+02 -0.88994530593E+02  0.58357320862E+01  0.10382790705E+03  0.00000000000E+00 0.  1.
         11    1    5    5    0    0  0.60196948641E+02  0.35135705082E+01 -0.64264954356E+03  0.64547227178E+03  0.00000000000E+00 0. -1.
        -11    1    5    5    0    0  0.72644289980E+02  0.11784914409E+03 -0.97848939063E+03  0.98823433517E+03  0.00000000000E+00 0.  1.
          1    1    6    6  503    0 -0.37956211791E+02  0.88784759400E+02 -0.53827180915E+02  0.11054760477E+03  0.00000000000E+00 0. -1.
         -1    1    6    6    0  503 -0.23211570135E+03  0.16308453824E+03 -0.12150742334E+03  0.30860706303E+03  0.00000000000E+00 0.  1.
<mgrwt>
<rscale>  0 0.18499111E+04</rscale>
<asrwt>0</asrwt>
<pdfrwt beam="1">  1        3 0.63617458E-01 0.18499111E+04</pdfrwt>
<pdfrwt beam="2">  1       -4 0.31830151E+00 0.18499111E+04</pdfrwt>
<totfact> 0.12246799E-01</totfact>
</mgrwt>
</event>
<event>
12    4  0.4381187E-008  0.1731099E+04  0.7818608E-02  0.8743824E-01
         -2   -1    0    0    0  501 -0.00000000000E+00  0.00000000000E+00  0.43666088671E+03  0.43666088671E+03  0.00000000000E+00 0.  1.
          1   -1    0    0  501    0  0.00000000000E+00 -0.00000000000E+00 -0.17156920765E+04  0.17156920765E+04  0.00000000000E+00 0. -1.
        -24    2    1    2    0    0  0.12862658358E+03  0.74571407781E+02 -0.12237708120E+04  0.12353367051E+04  0.79599509890E+02 0.  0.
        254    2    1    2    0    0 -0.12862658358E+03 -0.74571407781E+02 -0.55260377863E+02  0.91701625811E+03  0.90319400763E+03 0.  0.
         23    2    4    4    0    0 -0.26127756134E+03 -0.28935012358E+03  0.27979702194E+03  0.48889223446E+03  0.93486819146E+02 0.  0.
         23    2    4    4    0    0  0.13265097775E+03  0.21477871580E+03 -0.33505739980E+03  0.42812402365E+03  0.85443196364E+02 0.  0.
          1    1    3    3  502    0  0.89185878214E+02  0.16098460341E+02 -0.86227655178E+03  0.86702602790E+03  0.00000000000E+00 0. -1.
         -2    1    3    3    0  502  0.39440705367E+02  0.58472947440E+02 -0.36149426017E+03  0.36831067723E+03  0.00000000000E+00 0.  1.
         11    1    5    5    0    0 -0.11300162820E+02 -0.12045130783E+02  0.44795424877E+02  0.47743156004E+02  0.00000000000E+00 0. -1.
        -11    1    5    5    0    0 -0.24997739852E+03 -0.27730499280E+03  0.23500159706E+03  0.44114907846E+03  0.00000000000E+00 0.  1.
          2    1    6    6  503    0  0.10194077604E+01  0.19594246159E+02 -0.74155854296E+02  0.76707655427E+02  0.00000000000E+00 0. -1.
         -2    1    6    6    0  503  0.13163156999E+03  0.19518446964E+03 -0.26090154551E+03  0.35141636823E+03  0.00000000000E+00 0.  1.
<mgrwt>
<rscale>  0 0.17310986E+04</rscale>
<asrwt>0</asrwt>
<pdfrwt beam="1">  1        1 0.26395263E+00 0.17310986E+04</pdfrwt>
<pdfrwt beam="2">  1       -2 0.67178597E-01 0.17310986E+04</pdfrwt>
<totfact> 0.78761051E+00</totfact>
</mgrwt>
</event>
<event>
12    4  0.4381187E-008  0.1598054E+04  0.7818608E-02  0.8821744E-01
          1   -1    0    0  501    0  0.00000000000E+00  0.00000000000E+00  0.15002246189E+04  0.15002246189E+04  0.00000000000E+00 0. -1.
         -2   -1    0    0    0  501 -0.00000000000E+00 -0.00000000000E+00 -0.42556582470E+03  0.42556582470E+03  0.00000000000E+00 0.  1.
        -24    2    1    2    0    0  0.23694870299E+03  0.25692062930E+03  0.83916438966E+03  0.91257027464E+03  0.80216804227E+02 0.  0.
        254    2    1    2    0    0 -0.23694870299E+03 -0.25692062930E+03  0.23549440452E+03  0.10132201689E+04  0.92141445539E+03 0.  0.
         23    2    4    4    0    0  0.64015796108E+02  0.26966625937E+03 -0.10665897943E+03  0.31047539975E+03  0.90558944130E+02 0.  0.
         23    2    4    4    0    0 -0.30096449909E+03 -0.52658688867E+03  0.34215338395E+03  0.70274476920E+03  0.94381626693E+02 0.  0.
          1    1    3    3  502    0  0.23984085108E+03  0.25721465690E+03  0.80734685189E+03  0.88062020918E+03  0.00000000000E+00 0. -1.
         -2    1    3    3    0  502 -0.28921480940E+01 -0.29402760093E+00  0.31817537777E+02  0.31950065462E+02  0.00000000000E+00 0.  1.
         11    1    5    5    0    0  0.70944620034E+02  0.22735794845E+03 -0.57047789431E+02  0.24490656609E+03  0.00000000000E+00 0. -1.
        -11    1    5    5    0    0 -0.69288239269E+01  0.42308310916E+02 -0.49611190001E+02  0.65568833655E+02  0.00000000000E+00 0.  1.
          2    1    6    6  503    0 -0.30549549401E+03 -0.51237368548E+03  0.34241537100E+03  0.68782452467E+03  0.00000000000E+00 0. -1.
         -2    1    6    6    0  503  0.45309949168E+01 -0.14213203183E+02 -0.26198704998E+00  0.14920244531E+02  0.00000000000E+00 0.  1.
<mgrwt>
<rscale>  0 0.15980542E+04</rscale>
<asrwt>0</asrwt>
<pdfrwt beam="1">  1        1 0.23080379E+00 0.15980542E+04</pdfrwt>
<pdfrwt beam="2">  1       -2 0.65471666E-01 0.15980542E+04</pdfrwt>
<totfact> 0.11836222E+01</totfact>
</mgrwt>
</event>
<event>
12    4  0.4381187E-008  0.1293208E+04  0.7818608E-02  0.9034969E-01
          1   -1    0    0  501    0  0.00000000000E+00  0.00000000000E+00  0.90530549261E+03  0.90530549261E+03  0.00000000000E+00 0. -1.
         -2   -1    0    0    0  501 -0.00000000000E+00 -0.00000000000E+00 -0.46182940218E+03  0.46182940218E+03  0.00000000000E+00 0.  1.
        -24    2    1    2    0    0 -0.20119214258E+03  0.17111469169E+03  0.32612224628E+03  0.42703433117E+03  0.79019519946E+02 0.  0.
        254    2    1    2    0    0  0.20119214258E+03 -0.17111469169E+03  0.11735384415E+03  0.94010056362E+03  0.89457175734E+03 0.  0.
         23    2    4    4    0    0 -0.13746396590E+03 -0.45079802085E+03  0.10451595541E+03  0.49118237247E+03  0.90671608373E+02 0.  0.
         23    2    4    4    0    0  0.33865610848E+03  0.27968332915E+03  0.12837888749E+02  0.44891819116E+03  0.91934795090E+02 0.  0.
          1    1    3    3  502    0 -0.17745825949E+03  0.16978544754E+03  0.26427757986E+03  0.36077856266E+03  0.00000000000E+00 0. -1.
         -2    1    3    3    0  502 -0.23733883081E+02  0.13292441520E+01  0.61844666420E+02  0.66255768509E+02  0.00000000000E+00 0.  1.
         11    1    5    5    0    0 -0.13435265192E+03 -0.38129180987E+03  0.60291561542E+02  0.40874093475E+03  0.00000000000E+00 0. -1.
        -11    1    5    5    0    0 -0.31113139833E+01 -0.69506210980E+02  0.44224393863E+02  0.82441437712E+02  0.00000000000E+00 0.  1.
          1    1    6    6  503    0  0.27487200312E+03  0.23486313846E+03 -0.24711949764E+02  0.36238928291E+03  0.00000000000E+00 0. -1.
         -1    1    6    6    0  503  0.63784105357E+02  0.44820190691E+02  0.37549838513E+02  0.86528908245E+02  0.00000000000E+00 0.  1.
<mgrwt>
<rscale>  0 0.12932079E+04</rscale>
<asrwt>0</asrwt>
<pdfrwt beam="1">  1        1 0.13927777E+00 0.12932079E+04</pdfrwt>
<pdfrwt beam="2">  1       -2 0.71050677E-01 0.12932079E+04</pdfrwt>
<totfact> 0.27930085E+01</totfact>
</mgrwt>
</event>
<event>
12    4  0.4381187E-008  0.1726808E+04  0.7818608E-02  0.8746221E-01
         -2   -1    0    0    0  501 -0.00000000000E+00  0.00000000000E+00  0.14216478283E+04  0.14216478283E+04  0.00000000000E+00 0.  1.
          1   -1    0    0  501    0  0.00000000000E+00 -0.00000000000E+00 -0.52436762700E+03  0.52436762700E+03  0.00000000000E+00 0. -1.
        -24    2    1    2    0    0 -0.52412292937E+03  0.13690041616E+03  0.67951668062E+03  0.87281186753E+03  0.81308473216E+02 0.  0.
        254    2    1    2    0    0  0.52412292937E+03 -0.13690041616E+03  0.21776352072E+03  0.10732035878E+04  0.90049898440E+03 0.  0.
         23    2    4    4    0    0 -0.24565297870E+03 -0.70257232609E+02  0.83614934685E+02  0.28356005260E+03  0.90185261838E+02 0.  0.
         23    2    4    4    0    0  0.76977590807E+03 -0.66643183547E+02  0.13414858603E+03  0.78964353521E+03  0.92438125352E+02 0.  0.
          1    1    3    3  502    0 -0.48729963450E+02 -0.69154441257E+01  0.42306372675E+02  0.64901940451E+02  0.00000000000E+00 0. -1.
         -2    1    3    3    0  502 -0.47539296592E+03  0.14381586028E+03  0.63721030795E+03  0.80790992708E+03  0.00000000000E+00 0.  1.
         11    1    5    5    0    0 -0.48196285421E+02 -0.51478070983E+02  0.67552333135E+01  0.70841420777E+02  0.00000000000E+00 0. -1.
        -11    1    5    5    0    0 -0.19745669327E+03 -0.18779161625E+02  0.76859701372E+02  0.21271863182E+03  0.00000000000E+00 0.  1.
          2    1    6    6  503    0  0.57469502313E+01  0.86994910608E+01  0.20901226619E+01  0.10633776113E+02  0.00000000000E+00 0. -1.
         -2    1    6    6    0  503  0.76402895784E+03 -0.75342674608E+02  0.13205846337E+03  0.77900975910E+03  0.00000000000E+00 0.  1.
<mgrwt>
<rscale>  0 0.17268076E+04</rscale>
<asrwt>0</asrwt>
<pdfrwt beam="1">  1        1 0.80671943E-01 0.17268076E+04</pdfrwt>
<pdfrwt beam="2">  1       -2 0.21871505E+00 0.17268076E+04</pdfrwt>
<totfact> 0.34686441E+00</totfact>
</mgrwt>
</event>
<event>
12    4  0.4381187E-008  0.1350253E+04  0.7818608E-02  0.8990637E-01
          1   -1    0    0  501    0  0.00000000000E+00  0.00000000000E+00  0.93434970044E+03  0.93434970044E+03  0.00000000000E+00 0. -1.
         -2   -1    0    0    0  501 -0.00000000000E+00 -0.00000000000E+00 -0.48782108798E+03  0.48782108798E+03  0.00000000000E+00 0.  1.
        -24    2    1    2    0    0  0.18341961104E+03  0.29831528069E+03  0.67839521514E+01  0.35811391702E+03  0.74597554581E+02 0.  0.
        254    2    1    2    0    0 -0.18341961104E+03 -0.29831528069E+03  0.43974466031E+03  0.10640568714E+04  0.90344169647E+03 0.  0.
         23    2    4    4    0    0 -0.21349652582E+03 -0.38045657536E+03  0.66758750214E+03  0.80273205489E+03  0.91529812940E+02 0.  0.
         23    2    4    4    0    0  0.30076914788E+02  0.82141294675E+02 -0.22784284183E+03  0.26132481652E+03  0.93415662828E+02 0.  0.
          1    1    3    3  502    0  0.52751439484E+01  0.34117671979E+02  0.18664857519E+02  0.39245631491E+02  0.00000000000E+00 0. -1.
         -2    1    3    3    0  502  0.17814446709E+03  0.26419760871E+03 -0.11880905367E+02  0.31886828552E+03  0.00000000000E+00 0.  1.
         11    1    5    5    0    0 -0.11108516533E+03 -0.10905670849E+03  0.23623411754E+03  0.28291312785E+03  0.00000000000E+00 0. -1.
        -11    1    5    5    0    0 -0.10241136050E+03 -0.27139986687E+03  0.43135338460E+03  0.51981892703E+03  0.00000000000E+00 0.  1.
          3    1    6    6  503    0  0.24346149128E+02 -0.61456967560E+01 -0.11553817873E+02  0.27640464421E+02  0.00000000000E+00 0. -1.
         -3    1    6    6    0  503  0.57307656599E+01  0.88286991431E+02 -0.21628902396E+03  0.23368435210E+03  0.00000000000E+00 0.  1.
<mgrwt>
<rscale>  0 0.13502526E+04</rscale>
<asrwt>0</asrwt>
<pdfrwt beam="1">  1        1 0.14374611E+00 0.13502526E+04</pdfrwt>
<pdfrwt beam="2">  1       -2 0.75049398E-01 0.13502526E+04</pdfrwt>
<totfact> 0.23342360E+01</totfact>
</mgrwt>
</event>
<event>
12    4  0.4381187E-008  0.2750339E+04  0.7818608E-02  0.8318854E-01
          1   -1    0    0  501    0  0.00000000000E+00  0.00000000000E+00  0.13124093470E+04  0.13124093470E+04  0.00000000000E+00 0. -1.
         -2   -1    0    0    0  501 -0.00000000000E+00 -0.00000000000E+00 -0.14409313177E+04  0.14409313177E+04  0.00000000000E+00 0.  1.
        -24    2    1    2    0    0  0.11333532509E+04 -0.44134375994E+03 -0.21882035766E+03  0.12384136602E+04  0.80697825440E+02 0.  0.
        254    2    1    2    0    0 -0.11333532509E+04  0.44134375994E+03  0.90298386862E+02  0.15149270045E+04  0.89865239350E+03 0.  0.
         23    2    4    4    0    0 -0.24200173974E+03 -0.24643321900E+03  0.14231258011E+03  0.38433784082E+03  0.90379931178E+02 0.  0.
         23    2    4    4    0    0 -0.89135151120E+03  0.68777697895E+03 -0.52014193245E+02  0.11305891637E+04  0.89340312256E+02 0.  0.
          1    1    3    3  502    0  0.63097296600E+03 -0.27475326323E+03 -0.15358778284E+03  0.70512796464E+03  0.00000000000E+00 0. -1.
         -2    1    3    3    0  502  0.50238028494E+03 -0.16659049671E+03 -0.65232574824E+02  0.53328569558E+03  0.00000000000E+00 0.  1.
         11    1    5    5    0    0  0.43857757863E+00 -0.79730793508E+01 -0.90880568512E+01  0.12097732100E+02  0.00000000000E+00 0.  1.
        -11    1    5    5    0    0 -0.24244031732E+03 -0.23846013965E+03  0.15140063696E+03  0.37224010872E+03  0.00000000000E+00 0. -1.
          3    1    6    6  503    0 -0.75430253114E+03  0.56652164349E+03 -0.74152086215E+02  0.94626508596E+03  0.00000000000E+00 0. -1.
         -3    1    6    6    0  503 -0.13704898007E+03  0.12125533546E+03  0.22137892970E+02  0.18432407770E+03  0.00000000000E+00 0.  1.
<mgrwt>
<rscale>  0 0.27503394E+04</rscale>
<asrwt>0</asrwt>
<pdfrwt beam="1">  1        1 0.20190913E+00 0.27503394E+04</pdfrwt>
<pdfrwt beam="2">  1       -2 0.22168174E+00 0.27503394E+04</pdfrwt>
<totfact> 0.65232576E-01</totfact>
</mgrwt>
</event>
<event>
12    4  0.4381187E-008  0.1728040E+04  0.7818608E-02  0.8745532E-01
         -2   -1    0    0    0  501 -0.00000000000E+00  0.00000000000E+00  0.64447672974E+03  0.64447672974E+03  0.00000000000E+00 0.  1.
          1   -1    0    0  501    0  0.00000000000E+00 -0.00000000000E+00 -0.11583518249E+04  0.11583518249E+04  0.00000000000E+00 0. -1.
        -24    2    1    2    0    0  0.15203496314E+02 -0.56869193802E+02  0.47460317066E+03  0.48500333014E+03  0.80714367642E+02 0.  0.
        254    2    1    2    0    0 -0.15203496314E+02  0.56869193802E+02 -0.98847826585E+03  0.13178252245E+04  0.86954516205E+03 0.  0.
         23    2    4    4    0    0  0.35167227174E+02  0.17050134296E+03  0.98299116616E+02  0.22020282346E+03  0.92299107861E+02 0.  0.
         23    2    4    4    0    0 -0.50370723488E+02 -0.11363214916E+03 -0.10867773825E+04  0.10976224011E+04  0.90776545369E+02 0.  0.
          3    1    3    3  502    0 -0.24994404755E+02  0.44160026457E+01  0.91649958269E+02  0.95099611982E+02  0.00000000000E+00 0. -1.
         -2    1    3    3    0  502  0.40197901069E+02 -0.61285196448E+02  0.38295321239E+03  0.38990371816E+03  0.00000000000E+00 0.  1.
         11    1    5    5    0    0 -0.12716460418E+02  0.87283800753E+02  0.86376842668E+02  0.12345496826E+03  0.00000000000E+00 0.  1.
        -11    1    5    5    0    0  0.47883687591E+02  0.83217542207E+02  0.11922273948E+02  0.96747855193E+02  0.00000000000E+00 0. -1.
          3    1    6    6  503    0 -0.24805619965E+02 -0.30938633511E+02 -0.10843228535E+03  0.11545595841E+03  0.00000000000E+00 0. -1.
         -3    1    6    6    0  503 -0.25565103524E+02 -0.82693515647E+02 -0.97834509711E+03  0.98216644266E+03  0.00000000000E+00 0.  1.
<mgrwt>
<rscale>  0 0.17280403E+04</rscale>
<asrwt>0</asrwt>
<pdfrwt beam="1">  1        1 0.17820797E+00 0.17280403E+04</pdfrwt>
<pdfrwt beam="2">  1       -2 0.99150266E-01 0.17280403E+04</pdfrwt>
<totfact> 0.80480171E+00</totfact>
</mgrwt>
</event>
<event>
12    4  0.4381187E-008  0.1866889E+04  0.7818608E-02  0.8671516E-01
          1   -1    0    0  501    0  0.00000000000E+00  0.00000000000E+00  0.11371318924E+04  0.11371318924E+04  0.00000000000E+00 0. -1.
         -2   -1    0    0    0  501 -0.00000000000E+00 -0.00000000000E+00 -0.76624220054E+03  0.76624220054E+03  0.00000000000E+00 0.  1.
        -24    2    1    2    0    0  0.74309169771E+02  0.63861263531E+03  0.45273651239E+03  0.79050187442E+03  0.81085837921E+02 0.  0.
        254    2    1    2    0    0 -0.74309169771E+02 -0.63861263531E+03 -0.81846820577E+02  0.11128722185E+04  0.90467547879E+03 0.  0.
         23    2    4    4    0    0  0.24952128116E+03  0.94336796617E+02 -0.11859921780E+03  0.30551592828E+03  0.90077228079E+02 0.  0.
         23    2    4    4    0    0 -0.32383045093E+03 -0.73294943193E+03  0.36752397221E+02  0.80735629020E+03  0.91610097181E+02 0.  0.
          3    1    3    3  502    0  0.39937758266E+02  0.44901151820E+03  0.27305945223E+03  0.52703684165E+03  0.00000000000E+00 0. -1.
         -4    1    3    3    0  502  0.34371411505E+02  0.18960111712E+03  0.17967706016E+03  0.26346503277E+03  0.00000000000E+00 0.  1.
         11    1    5    5    0    0  0.11609204004E+03  0.15994682270E+02 -0.90939704834E+02  0.14833482915E+03  0.00000000000E+00 0. -1.
        -11    1    5    5    0    0  0.13342924112E+03  0.78342114347E+02 -0.27659512964E+02  0.15718109913E+03  0.00000000000E+00 0.  1.
          3    1    6    6  503    0 -0.59116254201E+02 -0.10070999705E+03  0.35082407150E+02  0.12193445087E+03  0.00000000000E+00 0. -1.
         -3    1    6    6    0  503 -0.26471419673E+03 -0.63223943488E+03  0.16699900706E+01  0.68542183933E+03  0.00000000000E+00 0.  1.
<mgrwt>
<rscale>  0 0.18668888E+04</rscale>
<asrwt>0</asrwt>
<pdfrwt beam="1">  1        1 0.17494337E+00 0.18668888E+04</pdfrwt>
<pdfrwt beam="2">  1       -2 0.11788341E+00 0.18668888E+04</pdfrwt>
<totfact> 0.54301397E+00</totfact>
</mgrwt>
</event>
<event>
12    4  0.4381187E-008  0.1774177E+04  0.7818608E-02  0.8720154E-01
          1   -1    0    0  501    0  0.00000000000E+00  0.00000000000E+00  0.21943450101E+04  0.21943450101E+04  0.00000000000E+00 0. -1.
         -2   -1    0    0    0  501 -0.00000000000E+00 -0.00000000000E+00 -0.35861532825E+03  0.35861532825E+03  0.00000000000E+00 0.  1.
        -24    2    1    2    0    0 -0.17863488881E+03 -0.39021556520E+03 -0.29981007737E+02  0.43768645553E+03  0.80572710669E+02 0.  0.
        254    2    1    2    0    0  0.17863488881E+03  0.39021556520E+03  0.18657106896E+04  0.21152738829E+04  0.89962692898E+03 0.  0.
         23    2    4    4    0    0  0.41453862076E+03 -0.96066623342E+02  0.65874049270E+03  0.78954562317E+03  0.91499672848E+02 0.  0.
         23    2    4    4    0    0 -0.23590373195E+03  0.48628218854E+03  0.12069701969E+04  0.13257282597E+04  0.93045282836E+02 0.  0.
          1    1    3    3  502    0 -0.11135033920E+03 -0.28236736087E+03  0.12143987984E+02  0.30377244932E+03  0.00000000000E+00 0. -1.
         -4    1    3    3    0  502 -0.67284549607E+02 -0.10784820433E+03 -0.42124995722E+02  0.13391400620E+03  0.00000000000E+00 0.  1.
         11    1    5    5    0    0  0.16804268600E+03 -0.51712254756E+02  0.19547510673E+03  0.26291256904E+03  0.00000000000E+00 0.  1.
        -11    1    5    5    0    0  0.24649593476E+03 -0.44354368585E+02  0.46326538597E+03  0.52663305413E+03  0.00000000000E+00 0. -1.
          3    1    6    6  503    0 -0.17517931625E+03  0.26361911462E+03  0.65577936802E+03  0.72816853129E+03  0.00000000000E+00 0. -1.
         -3    1    6    6    0  503 -0.60724415691E+02  0.22266307392E+03  0.55119082891E+03  0.59755972841E+03  0.00000000000E+00 0.  1.
<mgrwt>
<rscale>  0 0.17741767E+04</rscale>
<asrwt>0</asrwt>
<pdfrwt beam="1">  1        1 0.33759153E+00 0.17741767E+04</pdfrwt>
<pdfrwt beam="2">  1       -2 0.55171590E-01 0.17741767E+04</pdfrwt>
<totfact> 0.56406711E+00</totfact>
</mgrwt>
</event>
<event>
12    4  0.4381187E-008  0.1333112E+04  0.7818608E-02  0.9003711E-01
          3   -1    0    0  501    0  0.00000000000E+00  0.00000000000E+00  0.82059324087E+03  0.82059324087E+03  0.00000000000E+00 0. -1.
         -4   -1    0    0    0  501 -0.00000000000E+00 -0.00000000000E+00 -0.54143415797E+03  0.54143415797E+03  0.00000000000E+00 0.  1.
        -24    2    1    2    0    0  0.22058198083E+03  0.62145782414E+02 -0.18914200536E+03  0.30907507172E+03  0.85054060633E+02 0.  0.
        254    2    1    2    0    0 -0.22058198083E+03 -0.62145782414E+02  0.46830108826E+03  0.10529523271E+04  0.91481374354E+03 0.  0.
         23    2    4    4    0    0 -0.76318634782E+02 -0.47826080782E+03  0.27379575279E+03  0.56397938617E+03  0.92469992257E+02 0.  0.
         23    2    4    4    0    0 -0.14426334605E+03  0.41611502540E+03  0.19450533547E+03  0.48897294095E+03  0.85431750946E+02 0.  0.
          1    1    3    3  502    0  0.65604487382E+00  0.13331837940E+02  0.21708404955E+01  0.13523344490E+02  0.00000000000E+00 0. -1.
         -4    1    3    3    0  502  0.21992593596E+03  0.48813944474E+02 -0.19131284585E+03  0.29555172723E+03  0.00000000000E+00 0.  1.
         11    1    5    5    0    0 -0.62187563099E+02 -0.29051612928E+03  0.11826389021E+03  0.31977063984E+03  0.00000000000E+00 0. -1.
        -11    1    5    5    0    0 -0.14131071683E+02 -0.18774467853E+03  0.15553186258E+03  0.24420874632E+03  0.00000000000E+00 0.  1.
          1    1    6    6  503    0 -0.71683519132E+02  0.27893224882E+03  0.16190575627E+03  0.33038644080E+03  0.00000000000E+00 0. -1.
         -1    1    6    6    0  503 -0.72579826917E+02  0.13718277658E+03  0.32599579206E+02  0.15858650015E+03  0.00000000000E+00 0.  1.
<mgrwt>
<rscale>  0 0.13331125E+04</rscale>
<asrwt>0</asrwt>
<pdfrwt beam="1">  1        3 0.12624511E+00 0.13331125E+04</pdfrwt>
<pdfrwt beam="2">  1       -4 0.83297563E-01 0.13331125E+04</pdfrwt>
<totfact> 0.14169937E+00</totfact>
</mgrwt>
</event>
<event>
12    4  0.4381187E-008  0.1133943E+04  0.7818608E-02  0.9172726E-01
          1   -1    0    0  501    0  0.00000000000E+00  0.00000000000E+00  0.24569049453E+04  0.24569049453E+04  0.00000000000E+00 0. -1.
         -2   -1    0    0    0  501 -0.00000000000E+00 -0.00000000000E+00 -0.13083803604E+03  0.13083803604E+03  0.00000000000E+00 0.  1.
        -24    2    1    2    0    0  0.67097363158E+02 -0.16911973287E+03  0.51311948576E+03  0.55021454724E+03  0.79629775461E+02 0.  0.
        254    2    1    2    0    0 -0.67097363158E+02  0.16911973287E+03  0.18129474235E+04  0.20375284341E+04  0.91194310083E+03 0.  0.
         23    2    4    4    0    0  0.12908382340E+03 -0.14708095295E+03  0.15651730198E+04  0.15804313508E+04  0.98494835739E+02 0.  0.
         23    2    4    4    0    0 -0.19618118655E+03  0.31620068582E+03  0.24777440370E+03  0.45709708324E+03  0.95266241165E+02 0.  0.
          3    1    3    3  502    0  0.62889009554E+02 -0.15179155102E+03  0.35599929156E+03  0.39208570246E+03  0.00000000000E+00 0. -1.
         -4    1    3    3    0  502  0.42083536034E+01 -0.17328181857E+02  0.15712019420E+03  0.15812884478E+03  0.00000000000E+00 0.  1.
         11    1    5    5    0    0  0.10179827948E+03 -0.41739680602E+02  0.82391359235E+03  0.83122722423E+03  0.00000000000E+00 0.  1.
        -11    1    5    5    0    0  0.27285543918E+02 -0.10534127235E+03  0.74125942741E+03  0.74920412659E+03  0.00000000000E+00 0. -1.
          3    1    6    6  503    0 -0.19027918211E+03  0.32295280783E+03  0.23900329095E+03  0.44455287234E+03  0.00000000000E+00 0. -1.
         -3    1    6    6    0  503 -0.59020044482E+01 -0.67521220057E+01  0.87711127464E+01  0.12544210892E+02  0.00000000000E+00 0.  1.
<mgrwt>
<rscale>  0 0.11339429E+04</rscale>
<asrwt>0</asrwt>
<pdfrwt beam="1">  1        1 0.37798534E+00 0.11339429E+04</pdfrwt>
<pdfrwt beam="2">  1       -2 0.20128930E-01 0.11339429E+04</pdfrwt>
<totfact> 0.26969143E+01</totfact>
</mgrwt>
</event>
<event>
12    4  0.4381187E-008  0.1695015E+04  0.7818608E-02  0.8764213E-01
          1   -1    0    0  501    0  0.00000000000E+00  0.00000000000E+00  0.35263487679E+04  0.35263487679E+04  0.00000000000E+00 0. -1.
         -2   -1    0    0    0  501 -0.00000000000E+00 -0.00000000000E+00 -0.20368623442E+03  0.20368623442E+03  0.00000000000E+00 0.  1.
        -24    2    1    2    0    0 -0.12295038940E+03 -0.66532692823E+02  0.24998611500E+04  0.25049973017E+04  0.78500412022E+02 0.  0.
        254    2    1    2    0    0  0.12295038940E+03  0.66532692823E+02  0.82280138352E+03  0.12250377007E+04  0.89675629571E+03 0.  0.
         23    2    4    4    0    0  0.16857576867E+03 -0.95405715825E+02  0.96413936053E+03  0.98739152836E+03  0.88641318486E+02 0.  0.
         23    2    4    4    0    0 -0.45625379274E+02  0.16193840865E+03 -0.14133797702E+03  0.23764617232E+03  0.90518263586E+02 0.  0.
          3    1    3    3  502    0 -0.47181190249E+02 -0.65119085408E+02  0.10026895059E+04  0.10059089448E+04  0.00000000000E+00 0. -1.
         -4    1    3    3    0  502 -0.75769199151E+02 -0.14136074153E+01  0.14971716441E+04  0.14990883569E+04  0.00000000000E+00 0.  1.
         11    1    5    5    0    0  0.15936187350E+03 -0.58916741459E+02  0.68647484155E+03  0.70718816254E+03  0.00000000000E+00 0.  1.
        -11    1    5    5    0    0  0.92138951733E+01 -0.36488974366E+02  0.27766451898E+03  0.28020336582E+03  0.00000000000E+00 0. -1.
          4    1    6    6  503    0 -0.18424242368E+01  0.13508310303E+03 -0.12416652776E+03  0.18348887123E+03  0.00000000000E+00 0. -1.
         -4    1    6    6    0  503 -0.43782955037E+02  0.26855305621E+02 -0.17171449261E+02  0.54157301092E+02  0.00000000000E+00 0.  1.
<mgrwt>
<rscale>  0 0.16950147E+04</rscale>
<asrwt>0</asrwt>
<pdfrwt beam="1">  1        1 0.54251515E+00 0.16950147E+04</pdfrwt>
<pdfrwt beam="2">  1       -2 0.31336346E-01 0.16950147E+04</pdfrwt>
<totfact> 0.18978683E+00</totfact>
</mgrwt>
</event>
<event>
12    4  0.4381187E-008  0.1294111E+04  0.7818608E-02  0.9034248E-01
          1   -1    0    0  501    0  0.00000000000E+00  0.00000000000E+00  0.53879083027E+03  0.53879083027E+03  0.00000000000E+00 0. -1.
         -2   -1    0    0    0  501 -0.00000000000E+00 -0.00000000000E+00 -0.77707473288E+03  0.77707473288E+03  0.00000000000E+00 0.  1.
        -24    2    1    2    0    0  0.72251704167E+01 -0.29563181767E+03 -0.22804985067E+03  0.38103881515E+03  0.75719677425E+02 0.  0.
        254    2    1    2    0    0 -0.72251704167E+01  0.29563181767E+03 -0.10234051938E+02  0.93482674800E+03  0.88676148893E+03 0.  0.
         23    2    4    4    0    0 -0.40906778994E+03  0.27116685214E+03  0.99074937965E+02  0.50876992525E+03  0.90349737320E+02 0.  0.
         23    2    4    4    0    0  0.40184261953E+03  0.24464965527E+02 -0.10930898990E+03  0.42605682275E+03  0.86602168185E+02 0.  0.
          1    1    3    3  502    0  0.39522645969E+02 -0.11199481206E+03 -0.85707058478E+02  0.14646015617E+03  0.00000000000E+00 0. -1.
         -2    1    3    3    0  502 -0.32297475552E+02 -0.18363700562E+03 -0.14234279219E+03  0.23457865898E+03  0.00000000000E+00 0.  1.
         11    1    5    5    0    0 -0.16892587433E+03  0.16100381195E+03  0.65910701530E+02  0.24249205978E+03  0.00000000000E+00 0. -1.
        -11    1    5    5    0    0 -0.24014191561E+03  0.11016304019E+03  0.33164236435E+02  0.26627786547E+03  0.00000000000E+00 0.  1.
          1    1    6    6  503    0  0.33034458070E+03 -0.47340150536E+01 -0.64011963154E+02  0.33652263568E+03  0.00000000000E+00 0.  1.
         -1    1    6    6    0  503  0.71498038827E+02  0.29198980581E+02 -0.45297026748E+02  0.89534187076E+02  0.00000000000E+00 0. -1.
<mgrwt>
<rscale>  0 0.12941109E+04</rscale>
<asrwt>0</asrwt>
<pdfrwt beam="1">  1        1 0.82890897E-01 0.12941109E+04</pdfrwt>
<pdfrwt beam="2">  1       -2 0.11954996E+00 0.12941109E+04</pdfrwt>
<totfact> 0.18398917E+01</totfact>
</mgrwt>
</event>
<event>
12    4  0.4381187E-008  0.2784055E+04  0.7818608E-02  0.8308236E-01
          1   -1    0    0  501    0  0.00000000000E+00  0.00000000000E+00  0.12565778613E+04  0.12565778613E+04  0.00000000000E+00 0. -1.
         -2   -1    0    0    0  501 -0.00000000000E+00 -0.00000000000E+00 -0.15420776751E+04  0.15420776751E+04  0.00000000000E+00 0.  1.
        -24    2    1    2    0    0 -0.20325015737E+03 -0.41630702302E+03 -0.12876646245E+04  0.13707218261E+04  0.78587374127E+02 0.  0.
        254    2    1    2    0    0  0.20325015737E+03  0.41630702302E+03  0.10021648107E+04  0.14279337103E+04  0.90555961115E+03 0.  0.
         23    2    4    4    0    0  0.39265647588E+03  0.57934306939E+03  0.51085986497E+03  0.87108715266E+03  0.89428886769E+02 0.  0.
         23    2    4    4    0    0 -0.18940631850E+03 -0.16303604636E+03  0.49130494571E+03  0.55684655764E+03  0.79006538808E+02 0.  0.
          3    1    3    3  502    0 -0.90778861602E+02 -0.12739699259E+03 -0.35679526493E+03  0.38958138625E+03  0.00000000000E+00 0. -1.
         -4    1    3    3    0  502 -0.11247129577E+03 -0.28891003044E+03 -0.93086935961E+03  0.98114043986E+03  0.00000000000E+00 0.  1.
         11    1    5    5    0    0  0.36250703562E+02  0.31811690967E+02  0.61499922890E+02  0.78155855228E+02  0.00000000000E+00 0. -1.
        -11    1    5    5    0    0  0.35640577232E+03  0.54753137842E+03  0.44935994208E+03  0.79293129743E+03  0.00000000000E+00 0.  1.
          1    1    6    6  503    0  0.47259620712E+01 -0.94774619233E+01  0.62784070914E+01  0.12311596063E+02  0.00000000000E+00 0. -1.
         -1    1    6    6    0  503 -0.19413228058E+03 -0.15355858444E+03  0.48502653862E+03  0.54453496158E+03  0.00000000000E+00 0.  1.
<mgrwt>
<rscale>  0 0.27840551E+04</rscale>
<asrwt>0</asrwt>
<pdfrwt beam="1">  1        1 0.19331967E+00 0.27840551E+04</pdfrwt>
<pdfrwt beam="2">  1       -2 0.23724272E+00 0.27840551E+04</pdfrwt>
<totfact> 0.56986432E-01</totfact>
</mgrwt>
</event>
<event>
12    4  0.4381187E-008  0.2248481E+04  0.7818608E-02  0.8498516E-01
          1   -1    0    0  501    0  0.00000000000E+00  0.00000000000E+00  0.26078981932E+04  0.26078981932E+04  0.00000000000E+00 0. -1.
         -2   -1    0    0    0  501 -0.00000000000E+00 -0.00000000000E+00 -0.48464972811E+03  0.48464972811E+03  0.00000000000E+00 0.  1.
        -24    2    1    2    0    0 -0.80679710356E+03  0.36019758242E+03  0.44281476236E+03  0.99122204390E+03  0.75976061158E+02 0.  0.
        254    2    1    2    0    0  0.80679710356E+03 -0.36019758242E+03  0.16804337028E+04  0.21013258775E+04  0.90058267200E+03 0.  0.
         23    2    4    4    0    0  0.98946721612E+03 -0.32981235018E+03  0.14855050884E+04  0.18173857674E+04  0.91346055629E+02 0.  0.
         23    2    4    4    0    0 -0.18267011256E+03 -0.30385232243E+02  0.19492861436E+03  0.28394011001E+03  0.91286302427E+02 0.  0.
          1    1    3    3  502    0 -0.25074076225E+03  0.10543839339E+03  0.17557231253E+03  0.32374962792E+03  0.00000000000E+00 0. -1.
         -2    1    3    3    0  502 -0.55605634130E+03  0.25475918903E+03  0.26724244983E+03  0.66747241598E+03  0.00000000000E+00 0.  1.
         11    1    5    5    0    0  0.77568255089E+03 -0.22301954168E+03  0.11138366357E+04  0.13755192426E+04  0.00000000000E+00 0. -1.
        -11    1    5    5    0    0  0.21378466523E+03 -0.10679280850E+03  0.37166845269E+03  0.44186652482E+03  0.00000000000E+00 0.  1.
          3    1    6    6  503    0 -0.16284282719E+03  0.82017362980E+01  0.15577322442E+03  0.22550022681E+03  0.00000000000E+00 0. -1.
         -3    1    6    6    0  503 -0.19827285376E+02 -0.38586968541E+02  0.39155389939E+02  0.58439883195E+02  0.00000000000E+00 0.  1.
<mgrwt>
<rscale>  0 0.22484814E+04</rscale>
<asrwt>0</asrwt>
<pdfrwt beam="1">  1        1 0.40121510E+00 0.22484814E+04</pdfrwt>
<pdfrwt beam="2">  1       -2 0.74561498E-01 0.22484814E+04</pdfrwt>
<totfact> 0.14706258E+00</totfact>
</mgrwt>
</event>
<event>
12    4  0.4381187E-008  0.2227481E+04  0.7818608E-02  0.8507076E-01
          1   -1    0    0  501    0  0.00000000000E+00  0.00000000000E+00  0.28027586202E+04  0.28027586202E+04  0.00000000000E+00 0. -1.
         -2   -1    0    0    0  501 -0.00000000000E+00 -0.00000000000E+00 -0.44257051636E+03  0.44257051636E+03  0.00000000000E+00 0.  1.
        -24    2    1    2    0    0 -0.22544062829E+03 -0.32966798696E+03 -0.22926026582E+03  0.46736769415E+03  0.79798706380E+02 0.  0.
        254    2    1    2    0    0  0.22544062829E+03  0.32966798696E+03  0.25894483697E+04  0.27779614424E+04  0.92321311616E+03 0.  0.
         23    2    4    4    0    0  0.48215942961E+03  0.26860641076E+02  0.76768728216E+03  0.91133347912E+03  0.89362953043E+02 0.  0.
         23    2    4    4    0    0 -0.25671880132E+03  0.30280734588E+03  0.18217610875E+04  0.18666279633E+04  0.88823767728E+02 0.  0.
          1    1    3    3  502    0 -0.34948549314E+01 -0.50270865021E+02 -0.25775814829E+02  0.56601824273E+02  0.00000000000E+00 0. -1.
         -2    1    3    3    0  502 -0.22194577336E+03 -0.27939712194E+03 -0.20348445099E+03  0.41076586988E+03  0.00000000000E+00 0.  1.
         11    1    5    5    0    0  0.27059617562E+03 -0.21671769122E+02  0.37974078128E+03  0.46679226301E+03  0.00000000000E+00 0.  1.
        -11    1    5    5    0    0  0.21156325399E+03  0.48532410198E+02  0.38794650088E+03  0.44454121611E+03  0.00000000000E+00 0. -1.
          2    1    6    6  503    0 -0.11965433061E+03  0.76329744892E+02  0.61194725869E+03  0.62819012743E+03  0.00000000000E+00 0. -1.
         -2    1    6    6    0  503 -0.13706447071E+03  0.22647760099E+03  0.12098138289E+04  0.12384378359E+04  0.00000000000E+00 0.  1.
<mgrwt>
<rscale>  0 0.22274814E+04</rscale>
<asrwt>0</asrwt>
<pdfrwt beam="1">  1        1 0.43119362E+00 0.22274814E+04</pdfrwt>
<pdfrwt beam="2">  1       -2 0.68087773E-01 0.22274814E+04</pdfrwt>
<totfact> 0.13100159E+00</totfact>
</mgrwt>
</event>
<event>
12    4  0.4381187E-008  0.1418179E+04  0.7818608E-02  0.8940764E-01
         -2   -1    0    0    0  501 -0.00000000000E+00  0.00000000000E+00  0.33419614958E+03  0.33419614958E+03  0.00000000000E+00 0.  1.
          1   -1    0    0  501    0  0.00000000000E+00 -0.00000000000E+00 -0.15045293346E+04  0.15045293346E+04  0.00000000000E+00 0. -1.
        -24    2    1    2    0    0  0.27421387790E+03 -0.26797256090E+03 -0.12947006002E+03  0.41145067280E+03  0.74341209815E+02 0.  0.
        254    2    1    2    0    0 -0.27421387790E+03  0.26797256090E+03 -0.10408631250E+04  0.14272748114E+04  0.89817303345E+03 0.  0.
         23    2    4    4    0    0 -0.11777924305E+03  0.20615105658E+03 -0.11663292802E+04  0.11936800999E+04  0.90432200858E+02 0.  0.
         23    2    4    4    0    0 -0.15643463484E+03  0.61821504312E+02  0.12546615518E+03  0.23359471146E+03  0.10262085437E+03 0.  0.
          1    1    3    3  502    0  0.21976779799E+03 -0.19169703425E+03 -0.68229899951E+02  0.29950118066E+03  0.00000000000E+00 0. -1.
         -4    1    3    3    0  502  0.54446079911E+02 -0.76275526646E+02 -0.61240160072E+02  0.11194949213E+03  0.00000000000E+00 0.  1.
         11    1    5    5    0    0 -0.48108011711E+02  0.11448136371E+03 -0.40247222941E+03  0.42119384952E+03  0.00000000000E+00 0.  1.
        -11    1    5    5    0    0 -0.69671231342E+02  0.91669692871E+02 -0.76385705076E+03  0.77248625041E+03  0.00000000000E+00 0. -1.
          2    1    6    6  503    0 -0.64639442361E+02  0.69128104671E+01 -0.46287362795E+01  0.65172614316E+02  0.00000000000E+00 0.  1.
         -2    1    6    6    0  503 -0.91795192483E+02  0.54908693845E+02  0.13009489145E+03  0.16842209714E+03  0.00000000000E+00 0. -1.
<mgrwt>
<rscale>  0 0.14181790E+04</rscale>
<asrwt>0</asrwt>
<pdfrwt beam="1">  1        1 0.23146605E+00 0.14181790E+04</pdfrwt>
<pdfrwt beam="2">  1       -2 0.51414793E-01 0.14181790E+04</pdfrwt>
<totfact> 0.19830458E+01</totfact>
</mgrwt>
</event>
<event>
12    4  0.4381187E-008  0.1952043E+04  0.7818608E-02  0.8629376E-01
          1   -1    0    0  501    0  0.00000000000E+00  0.00000000000E+00  0.62988936459E+03  0.62988936459E+03  0.00000000000E+00 0. -1.
         -2   -1    0    0    0  501 -0.00000000000E+00 -0.00000000000E+00 -0.15123574408E+04  0.15123574408E+04  0.00000000000E+00 0.  1.
        -24    2    1    2    0    0  0.73112085306E+03 -0.10486359583E+03 -0.13908246253E+03  0.75590129043E+03  0.80676849135E+02 0.  0.
        254    2    1    2    0    0 -0.73112085306E+03  0.10486359583E+03 -0.74338561371E+03  0.13863455150E+04  0.90763298791E+03 0.  0.
         23    2    4    4    0    0  0.17955830410E+03 -0.69063261512E+02 -0.26161565001E+03  0.33753338110E+03  0.92060395200E+02 0.  0.
         23    2    4    4    0    0 -0.91067915716E+03  0.17392685734E+03 -0.48176996370E+03  0.10488121339E+04  0.91200412624E+02 0.  0.
          3    1    3    3  502    0  0.72629988224E+02 -0.17674011707E+02  0.91995369273E+01  0.75313460675E+02  0.00000000000E+00 0. -1.
         -4    1    3    3    0  502  0.65849086483E+03 -0.87189584124E+02 -0.14828199946E+03  0.68058782976E+03  0.00000000000E+00 0.  1.
         11    1    5    5    0    0  0.49447927892E+02  0.21620256825E+02 -0.78859716644E+02  0.95558296276E+02  0.00000000000E+00 0.  1.
        -11    1    5    5    0    0  0.13011037621E+03 -0.90683518337E+02 -0.18275593336E+03  0.24197508482E+03  0.00000000000E+00 0. -1.
          3    1    6    6  503    0 -0.14864440175E+03  0.12992940148E+01 -0.54881033047E+02  0.15845748365E+03  0.00000000000E+00 0.  1.
         -3    1    6    6    0  503 -0.76203475541E+03  0.17262756333E+03 -0.42688893065E+03  0.89035465023E+03  0.00000000000E+00 0. -1.
<mgrwt>
<rscale>  0 0.19520429E+04</rscale>
<asrwt>0</asrwt>
<pdfrwt beam="1">  1        1 0.96906058E-01 0.19520429E+04</pdfrwt>
<pdfrwt beam="2">  1       -2 0.23267037E+00 0.19520429E+04</pdfrwt>
<totfact> 0.21401221E+00</totfact>
</mgrwt>
</event>
<event>
12    4  0.4381187E-008  0.1810237E+04  0.7818608E-02  0.8700875E-01
         -2   -1    0    0    0  501 -0.00000000000E+00  0.00000000000E+00  0.10189964395E+04  0.10189964395E+04  0.00000000000E+00 0.  1.
          1   -1    0    0  501    0  0.00000000000E+00 -0.00000000000E+00 -0.80396663344E+03  0.80396663344E+03  0.00000000000E+00 0. -1.
        -24    2    1    2    0    0 -0.76639477370E+02  0.64183130540E+03  0.29977540677E+03  0.71734390540E+03  0.83041857088E+02 0.  0.
        254    2    1    2    0    0  0.76639477370E+02 -0.64183130540E+03 -0.84745600714E+02  0.11056191675E+04  0.89296746453E+03 0.  0.
         23    2    4    4    0    0  0.37979359041E+03 -0.45235348151E+03 -0.31194653435E+03  0.67403977064E+03  0.90289138702E+02 0.  0.
         23    2    4    4    0    0 -0.30315411304E+03 -0.18947782389E+03  0.22720093364E+03  0.43157939689E+03  0.82681615730E+02 0.  0.
          1    1    3    3  502    0  0.15744784913E+01  0.10434617392E+03  0.79674855795E+02  0.13129617527E+03  0.00000000000E+00 0. -1.
         -4    1    3    3    0  502 -0.78213955861E+02  0.53748513148E+03  0.22010055098E+03  0.58604773013E+03  0.00000000000E+00 0.  1.
         11    1    5    5    0    0  0.14909279523E+02  0.10136367366E+01 -0.12881234640E+02  0.19729173352E+02  0.00000000000E+00 0. -1.
        -11    1    5    5    0    0  0.36488431088E+03 -0.45336711825E+03 -0.29906529971E+03  0.65431059729E+03  0.00000000000E+00 0.  1.
          4    1    6    6  503    0 -0.21706971271E+03 -0.93892009350E+02  0.12647179659E+03  0.26819784662E+03  0.00000000000E+00 0.  1.
         -4    1    6    6    0  503 -0.86084400324E+02 -0.95585814542E+02  0.10072913705E+03  0.16338155028E+03  0.00000000000E+00 0. -1.
<mgrwt>
<rscale>  0 0.18102366E+04</rscale>
<asrwt>0</asrwt>
<pdfrwt beam="1">  1        1 0.12368717E+00 0.18102366E+04</pdfrwt>
<pdfrwt beam="2">  1       -2 0.15676868E+00 0.18102366E+04</pdfrwt>
<totfact> 0.48213105E+00</totfact>
</mgrwt>
</event>
<event>
12    4  0.4381187E-008  0.2330222E+04  0.7818608E-02  0.8466099E-01
          1   -1    0    0  501    0  0.00000000000E+00  0.00000000000E+00  0.12389393023E+04  0.12389393023E+04  0.00000000000E+00 0. -1.
         -2   -1    0    0    0  501 -0.00000000000E+00 -0.00000000000E+00 -0.10956820517E+04  0.10956820517E+04  0.00000000000E+00 0.  1.
        -24    2    1    2    0    0 -0.13049202346E+03  0.43335454492E+03 -0.81534364105E+03  0.93565026648E+03  0.76366474178E+02 0.  0.
        254    2    1    2    0    0  0.13049202346E+03 -0.43335454492E+03  0.95860089156E+03  0.13989710875E+04  0.91289654650E+03 0.  0.
         23    2    4    4    0    0 -0.29626142188E+03 -0.23299941461E+03  0.79038958872E+02  0.39668036710E+03  0.95124125880E+02 0.  0.
         23    2    4    4    0    0  0.42675344534E+03 -0.20035513031E+03  0.87956193269E+03  0.10022907204E+04  0.93256707194E+02 0.  0.
          1    1    3    3  502    0 -0.89490674858E+00  0.11087582661E+03 -0.17812953272E+03  0.20981987564E+03  0.00000000000E+00 0. -1.
         -2    1    3    3    0  502 -0.12959711671E+03  0.32247871831E+03 -0.63721410833E+03  0.72583039084E+03  0.00000000000E+00 0.  1.
         11    1    5    5    0    0 -0.98719979889E+01  0.80036510031E+01  0.97545416303E+01  0.16020794490E+02  0.00000000000E+00 0. -1.
        -11    1    5    5    0    0 -0.28638942389E+03 -0.24100306561E+03  0.69284417241E+02  0.38065957261E+03  0.00000000000E+00 0.  1.
          3    1    6    6  503    0  0.21501378484E+03 -0.61205129947E+02  0.35113473863E+03  0.41626025546E+03  0.00000000000E+00 0. -1.
         -3    1    6    6    0  503  0.21173966050E+03 -0.13915000036E+03  0.52842719406E+03  0.58603046495E+03  0.00000000000E+00 0.  1.
<mgrwt>
<rscale>  0 0.23302219E+04</rscale>
<asrwt>0</asrwt>
<pdfrwt beam="1">  1        1 0.19060605E+00 0.23302219E+04</pdfrwt>
<pdfrwt beam="2">  1       -2 0.16856647E+00 0.23302219E+04</pdfrwt>
<totfact> 0.17278705E+00</totfact>
</mgrwt>
</event>
<event>
12    4  0.4381187E-008  0.1246152E+04  0.7818608E-02  0.9073392E-01
          1   -1    0    0  501    0  0.00000000000E+00  0.00000000000E+00  0.20335084116E+04  0.20335084116E+04  0.00000000000E+00 0. -1.
         -2   -1    0    0    0  501 -0.00000000000E+00 -0.00000000000E+00 -0.19091310460E+03  0.19091310460E+03  0.00000000000E+00 0.  1.
        -24    2    1    2    0    0  0.10752244929E+03  0.19431891798E+03  0.76863004711E+03  0.80398967166E+03  0.79286340816E+02 0.  0.
        254    2    1    2    0    0 -0.10752244929E+03 -0.19431891798E+03  0.10739652599E+04  0.14204318446E+04  0.90272051408E+03 0.  0.
         23    2    4    4    0    0  0.10212814006E+03 -0.19622047212E+03  0.11539737819E+04  0.11785387663E+04  0.91463127506E+02 0.  0.
         23    2    4    4    0    0 -0.20965058935E+03  0.19015541346E+01 -0.80008521981E+02  0.24189307826E+03  0.90299015491E+02 0.  0.
          1    1    3    3  502    0  0.24894339251E+01  0.77369374774E+02  0.29324784341E+03  0.30329278775E+03  0.00000000000E+00 0. -1.
         -2    1    3    3    0  502  0.10503301537E+03  0.11694954321E+03  0.47538220369E+03  0.50069688391E+03  0.00000000000E+00 0.  1.
         11    1    5    5    0    0  0.71489924759E+02 -0.17221156443E+03  0.75555072408E+03  0.77821881815E+03  0.00000000000E+00 0.  1.
        -11    1    5    5    0    0  0.30638215297E+02 -0.24008907685E+02  0.39842305781E+03  0.40031994814E+03  0.00000000000E+00 0. -1.
          1    1    6    6  503    0  0.32493975290E+01  0.61078667166E+01  0.87834036280E+01  0.11180912280E+02  0.00000000000E+00 0. -1.
         -1    1    6    6    0  503 -0.21289998688E+03 -0.42063125820E+01 -0.88791925609E+02  0.23071216598E+03  0.00000000000E+00 0.  1.
<mgrwt>
<rscale>  0 0.12461515E+04</rscale>
<asrwt>0</asrwt>
<pdfrwt beam="1">  1        1 0.31284743E+00 0.12461515E+04</pdfrwt>
<pdfrwt beam="2">  1       -2 0.29371248E-01 0.12461515E+04</pdfrwt>
<totfact> 0.26169610E+01</totfact>
</mgrwt>
</event>
<event>
12    4  0.4381187E-008  0.3920686E+04  0.7818608E-02  0.8020741E-01
         -2   -1    0    0    0  501 -0.00000000000E+00  0.00000000000E+00  0.14088587394E+04  0.14088587394E+04  0.00000000000E+00 0.  1.
          1   -1    0    0  501    0  0.00000000000E+00 -0.00000000000E+00 -0.27277004907E+04  0.27277004907E+04  0.00000000000E+00 0. -1.
        -24    2    1    2    0    0 -0.61744330301E+03  0.14352537396E+04 -0.17187594130E+04  0.23241870555E+04  0.80759022861E+02 0.  0.
        254    2    1    2    0    0  0.61744330301E+03 -0.14352537396E+04  0.39991766168E+03  0.18123721747E+04  0.82678245859E+03 0.  0.
         23    2    4    4    0    0 -0.76923281988E+02 -0.37297124836E+03 -0.15848248495E+03  0.42276308087E+03  0.92667044276E+02 0.  0.
         23    2    4    4    0    0  0.69436658499E+03 -0.10622824913E+04  0.55840014664E+03  0.13896090938E+04  0.92809828077E+02 0.  0.
          1    1    3    3  502    0 -0.15453346674E+03  0.37644303121E+03 -0.50036870417E+03  0.64494867099E+03  0.00000000000E+00 0. -1.
         -2    1    3    3    0  502 -0.46290983627E+03  0.10588107084E+04 -0.12183907088E+04  0.16792383845E+04  0.00000000000E+00 0.  1.
         11    1    5    5    0    0 -0.58184729051E+02 -0.36789716175E+03 -0.14914210940E+03  0.40121958216E+03  0.00000000000E+00 0. -1.
        -11    1    5    5    0    0 -0.18738552936E+02 -0.50740866173E+01 -0.93403755541E+01  0.21543498709E+02  0.00000000000E+00 0.  1.
          4    1    6    6  503    0  0.54238393935E+03 -0.84778582618E+03  0.48162910857E+03  0.11157453755E+04  0.00000000000E+00 0. -1.
         -4    1    6    6    0  503  0.15198264565E+03 -0.21449666509E+03  0.76771038063E+02  0.27386371830E+03  0.00000000000E+00 0.  1.
<mgrwt>
<rscale>  0 0.39206860E+04</rscale>
<asrwt>0</asrwt>
<pdfrwt beam="1">  1        1 0.41964623E+00 0.39206860E+04</pdfrwt>
<pdfrwt beam="2">  1       -2 0.21674750E+00 0.39206860E+04</pdfrwt>
<totfact> 0.67407731E-02</totfact>
</mgrwt>
</event>
<event>
12    4  0.4381187E-008  0.1793790E+04  0.7818608E-02  0.8709609E-01
          1   -1    0    0  501    0  0.00000000000E+00  0.00000000000E+00  0.12074648525E+04  0.12074648525E+04  0.00000000000E+00 0. -1.
         -2   -1    0    0    0  501 -0.00000000000E+00 -0.00000000000E+00 -0.66620652868E+03  0.66620652868E+03  0.00000000000E+00 0.  1.
        -24    2    1    2    0    0  0.65658883501E+03 -0.12191446424E+03  0.32467816252E+03  0.74778737234E+03  0.88306342685E+02 0.  0.
        254    2    1    2    0    0 -0.65658883501E+03  0.12191446424E+03  0.21658016134E+03  0.11258840089E+04  0.88019077496E+03 0.  0.
         23    2    4    4    0    0 -0.34637557630E+03 -0.33008462763E+03  0.28674433593E+03  0.56544532926E+03  0.92597002881E+02 0.  0.
         23    2    4    4    0    0 -0.31021325871E+03  0.45199909187E+03 -0.70164174595E+02  0.56043867962E+03  0.92914246919E+02 0.  0.
          3    1    3    3  502    0  0.12452755171E+03 -0.25843624806E+01  0.30580783369E+02  0.12825355502E+03  0.00000000000E+00 0. -1.
         -4    1    3    3    0  502  0.53206128330E+03 -0.11933010176E+03  0.29409737915E+03  0.61953381731E+03  0.00000000000E+00 0.  1.
         11    1    5    5    0    0 -0.30416290263E+03 -0.28468595421E+03  0.28240352393E+03  0.50330201092E+03  0.00000000000E+00 0.  1.
        -11    1    5    5    0    0 -0.42212673663E+02 -0.45398673417E+02  0.43408119969E+01  0.62143318343E+02  0.00000000000E+00 0. -1.
          1    1    6    6  503    0 -0.19459469515E+03  0.29742237942E+03 -0.89264727578E+02  0.36646331161E+03  0.00000000000E+00 0.  1.
         -1    1    6    6    0  503 -0.11561856356E+03  0.15457671245E+03  0.19100552983E+02  0.19397536801E+03  0.00000000000E+00 0. -1.
<mgrwt>
<rscale>  0 0.17937904E+04</rscale>
<asrwt>0</asrwt>
<pdfrwt beam="1">  1        1 0.18576382E+00 0.17937904E+04</pdfrwt>
<pdfrwt beam="2">  1       -2 0.10249331E+00 0.17937904E+04</pdfrwt>
<totfact> 0.68066005E+00</totfact>
</mgrwt>
</event>
<event>
12    4  0.4381187E-008  0.1384547E+04  0.7818608E-02  0.8965081E-01
         -2   -1    0    0    0  501 -0.00000000000E+00  0.00000000000E+00  0.33795983008E+03  0.33795983008E+03  0.00000000000E+00 0.  1.
          1   -1    0    0  501    0  0.00000000000E+00 -0.00000000000E+00 -0.14180453687E+04  0.14180453687E+04  0.00000000000E+00 0. -1.
        -24    2    1    2    0    0 -0.53379054412E+02 -0.99390486419E+02  0.16787206079E+03  0.21748999341E+03  0.79956714528E+02 0.  0.
        254    2    1    2    0    0  0.53379054412E+02  0.99390486419E+02 -0.12479575994E+04  0.15385152054E+04  0.89269427857E+03 0.  0.
         23    2    4    4    0    0 -0.27452525959E+03  0.51473621580E+02 -0.59479372397E+02  0.30148046929E+03  0.96638634875E+02 0.  0.
         23    2    4    4    0    0  0.32790431401E+03  0.47916864839E+02 -0.11884782270E+04  0.12370347361E+04  0.89203010636E+02 0.  0.
          1    1    3    3  502    0 -0.30947224947E+02  0.38094644135E+01  0.25835653822E+02  0.40493502682E+02  0.00000000000E+00 0. -1.
         -2    1    3    3    0  502 -0.22431829465E+02 -0.10319995083E+03  0.14203640697E+03  0.17699649073E+03  0.00000000000E+00 0.  1.
         11    1    5    5    0    0 -0.40555856891E+02  0.91314526922E+01  0.25745961452E+02  0.48898011080E+02  0.00000000000E+00 0.  1.
        -11    1    5    5    0    0 -0.23396940270E+03  0.42342168888E+02 -0.85225333849E+02  0.25258245821E+03  0.00000000000E+00 0. -1.
          2    1    6    6  503    0  0.29672610583E+03  0.70126074118E+02 -0.10575640569E+04  0.11006388066E+04  0.00000000000E+00 0. -1.
         -2    1    6    6    0  503  0.31178208174E+02 -0.22209209279E+02 -0.13091417011E+03  0.13639592947E+03  0.00000000000E+00 0.  1.
<mgrwt>
<rscale>  0 0.13845467E+04</rscale>
<asrwt>0</asrwt>
<pdfrwt beam="1">  1        1 0.21816083E+00 0.13845467E+04</pdfrwt>
<pdfrwt beam="2">  1       -2 0.51993820E-01 0.13845467E+04</pdfrwt>
<totfact> 0.22320660E+01</totfact>
</mgrwt>
</event>
<event>
12    4  0.4381187E-008  0.2082377E+04  0.7818608E-02  0.8569046E-01
         -2   -1    0    0    0  501 -0.00000000000E+00  0.00000000000E+00  0.17089345829E+04  0.17089345829E+04  0.00000000000E+00 0.  1.
          1   -1    0    0  501    0  0.00000000000E+00 -0.00000000000E+00 -0.63435656561E+03  0.63435656561E+03  0.00000000000E+00 0. -1.
        -24    2    1    2    0    0  0.58527127925E+03  0.46221497843E+03  0.14820197009E+02  0.75002967034E+03  0.78356311469E+02 0.  0.
        254    2    1    2    0    0 -0.58527127925E+03 -0.46221497843E+03  0.10597578203E+04  0.15932614782E+04  0.92693599755E+03 0.  0.
         23    2    4    4    0    0  0.14688641065E+02  0.14564473215E+03 -0.59967416800E+02  0.18211320331E+03  0.90227399188E+02 0.  0.
         23    2    4    4    0    0 -0.59995992032E+03 -0.60785971057E+03  0.11197252371E+04  0.14111482748E+04  0.90052836405E+02 0.  0.
          3    1    3    3  502    0  0.47963692297E+03  0.33779621511E+03  0.13857355988E+02  0.58681333244E+03  0.00000000000E+00 0. -1.
         -4    1    3    3    0  502  0.10563435628E+03  0.12441876332E+03  0.96284102110E+00  0.16321633789E+03  0.00000000000E+00 0.  1.
         11    1    5    5    0    0  0.32413001840E+02  0.50777941093E+02  0.12377427854E+02  0.61499615529E+02  0.00000000000E+00 0.  1.
        -11    1    5    5    0    0 -0.17724360775E+02  0.94866791055E+02 -0.72344844654E+02  0.12061358778E+03  0.00000000000E+00 0. -1.
          3    1    6    6  503    0 -0.59109608504E+03 -0.57507118328E+03  0.10805857161E+04  0.13593259129E+04  0.00000000000E+00 0. -1.
         -3    1    6    6    0  503 -0.88638352804E+01 -0.32788527297E+02  0.39139520950E+02  0.51822361953E+02  0.00000000000E+00 0.  1.
<mgrwt>
<rscale>  0 0.20823774E+04</rscale>
<asrwt>0</asrwt>
<pdfrwt beam="1">  1        1 0.97593319E-01 0.20823774E+04</pdfrwt>
<pdfrwt beam="2">  1       -2 0.26291301E+00 0.20823774E+04</pdfrwt>
<totfact> 0.13640849E+00</totfact>
</mgrwt>
</event>
<event>
12    4  0.4381187E-008  0.1812765E+04  0.7818608E-02  0.8699541E-01
         -2   -1    0    0    0  501 -0.00000000000E+00  0.00000000000E+00  0.28684147625E+03  0.28684147625E+03  0.00000000000E+00 0.  1.
          1   -1    0    0  501    0  0.00000000000E+00 -0.00000000000E+00 -0.28640521937E+04  0.28640521937E+04  0.00000000000E+00 0. -1.
        -24    2    1    2    0    0 -0.19399831696E+02  0.38436904308E+03  0.27732539565E+01  0.39323206192E+03  0.80671239216E+02 0.  0.
        254    2    1    2    0    0  0.19399831696E+02 -0.38436904308E+03 -0.25799839714E+04  0.27576616080E+04  0.89457494767E+03 0.  0.
         23    2    4    4    0    0 -0.24752940308E+03  0.16078064786E+03 -0.13196616430E+04  0.13557547778E+04  0.97174807435E+02 0.  0.
         23    2    4    4    0    0  0.26692923478E+03 -0.54514969093E+03 -0.12603223284E+04  0.14019068303E+04  0.92146554471E+02 0.  0.
          3    1    3    3  502    0  0.17730890732E+02  0.37922353396E+02  0.15313517114E+02  0.44575701673E+02  0.00000000000E+00 0. -1.
         -4    1    3    3    0  502 -0.37130722428E+02  0.34644668968E+03 -0.12540263158E+02  0.34865636024E+03  0.00000000000E+00 0.  1.
         11    1    5    5    0    0 -0.25196873839E+03  0.16378347171E+03 -0.13141225546E+04  0.13480472393E+04  0.00000000000E+00 0. -1.
        -11    1    5    5    0    0  0.44393353064E+01 -0.30028238560E+01 -0.55390883990E+01  0.77075384764E+01  0.00000000000E+00 0.  1.
          3    1    6    6  503    0  0.75097618426E+02 -0.22503707013E+03 -0.56449545296E+03  0.61232054648E+03  0.00000000000E+00 0. -1.
         -3    1    6    6    0  503  0.19183161635E+03 -0.32011262080E+03 -0.69582687540E+03  0.78958628379E+03  0.00000000000E+00 0.  1.
<mgrwt>
<rscale>  0 0.18127647E+04</rscale>
<asrwt>0</asrwt>
<pdfrwt beam="1">  1        1 0.44062343E+00 0.18127647E+04</pdfrwt>
<pdfrwt beam="2">  1       -2 0.44129457E-01 0.18127647E+04</pdfrwt>
<totfact> 0.30304957E+00</totfact>
</mgrwt>
</event>
<event>
12    4  0.4381187E-008  0.2404015E+04  0.7818608E-02  0.8438002E-01
          1   -1    0    0  501    0  0.00000000000E+00  0.00000000000E+00  0.12600617569E+04  0.12600617569E+04  0.00000000000E+00 0. -1.
         -2   -1    0    0    0  501 -0.00000000000E+00 -0.00000000000E+00 -0.11466284068E+04  0.11466284068E+04  0.00000000000E+00 0.  1.
        -24    2    1    2    0    0  0.12893883855E+03  0.57208578023E+03 -0.79714381155E+03  0.99285836869E+03  0.80138130379E+02 0.  0.
        254    2    1    2    0    0 -0.12893883855E+03 -0.57208578023E+03  0.91057716166E+03  0.14138317950E+04  0.90876961507E+03 0.  0.
         23    2    4    4    0    0  0.83653046619E+02 -0.70339901610E+03  0.35345603706E+03  0.79689276937E+03  0.91317619798E+02 0.  0.
         23    2    4    4    0    0 -0.21259188517E+03  0.13131323587E+03  0.55712112460E+03  0.61693902566E+03  0.88268558127E+02 0.  0.
          3    1    3    3  502    0  0.31995366732E+02  0.32271126791E+03 -0.43118636825E+03  0.53952567139E+03  0.00000000000E+00 0. -1.
         -4    1    3    3    0  502  0.96943471823E+02  0.24937451232E+03 -0.36595744330E+03  0.45333269729E+03  0.00000000000E+00 0.  1.
         11    1    5    5    0    0  0.31553648969E+02 -0.41012445432E+03  0.15807241979E+03  0.44066380688E+03  0.00000000000E+00 0. -1.
        -11    1    5    5    0    0  0.52099397651E+02 -0.29327456178E+03  0.19538361727E+03  0.35622896249E+03  0.00000000000E+00 0.  1.
          3    1    6    6  503    0 -0.71960270514E+02  0.42726277396E+02  0.29434475223E+03  0.30601086334E+03  0.00000000000E+00 0. -1.
         -3    1    6    6    0  503 -0.14063161466E+03  0.88586958470E+02  0.26277637236E+03  0.31092816232E+03  0.00000000000E+00 0.  1.
<mgrwt>
<rscale>  0 0.24040155E+04</rscale>
<asrwt>0</asrwt>
<pdfrwt beam="1">  1        1 0.19385566E+00 0.24040155E+04</pdfrwt>
<pdfrwt beam="2">  1       -2 0.17640437E+00 0.24040155E+04</pdfrwt>
<totfact> 0.14591160E+00</totfact>
</mgrwt>
</event>
<event>
12    4  0.4381187E-008  0.1900778E+04  0.7818608E-02  0.8654469E-01
         -2   -1    0    0    0  501 -0.00000000000E+00  0.00000000000E+00  0.38935805891E+03  0.38935805891E+03  0.00000000000E+00 0.  1.
          1   -1    0    0  501    0  0.00000000000E+00 -0.00000000000E+00 -0.23198163382E+04  0.23198163382E+04  0.00000000000E+00 0. -1.
        -24    2    1    2    0    0  0.22402604868E+03  0.69546885104E+03 -0.67754733945E+03  0.99949899338E+03  0.77866856317E+02 0.  0.
        254    2    1    2    0    0 -0.22402604868E+03 -0.69546885104E+03 -0.12529109398E+04  0.17096754037E+04  0.90517377871E+03 0.  0.
         23    2    4    4    0    0 -0.34306130174E+03 -0.50712370255E+03 -0.23186704879E+03  0.66059317834E+03  0.88065387749E+02 0.  0.
         23    2    4    4    0    0  0.11903525306E+03 -0.18834514850E+03 -0.10210438910E+04  0.10490822254E+04  0.91649341134E+02 0.  0.
          3    1    3    3  502    0  0.18024328136E+03  0.49996267074E+03 -0.45061318289E+03  0.69678013261E+03  0.00000000000E+00 0. -1.
         -4    1    3    3    0  502  0.43782767321E+02  0.19550618030E+03 -0.22693415656E+03  0.30271886077E+03  0.00000000000E+00 0.  1.
         11    1    5    5    0    0 -0.29371711377E+03 -0.38553573144E+03 -0.15672611681E+03  0.50938258592E+03  0.00000000000E+00 0. -1.
        -11    1    5    5    0    0 -0.49344187965E+02 -0.12158797110E+03 -0.75140931976E+02  0.15121059242E+03  0.00000000000E+00 0.  1.
          1    1    6    6  503    0  0.10929973332E+03 -0.18520952334E+03 -0.10142604759E+04  0.10368091976E+04  0.00000000000E+00 0. -1.
         -1    1    6    6    0  503  0.97355197418E+01 -0.31356251614E+01 -0.67834151237E+01  0.12273027766E+02  0.00000000000E+00 0.  1.
<mgrwt>
<rscale>  0 0.19007779E+04</rscale>
<asrwt>0</asrwt>
<pdfrwt beam="1">  1        1 0.35689482E+00 0.19007779E+04</pdfrwt>
<pdfrwt beam="2">  1       -2 0.59901240E-01 0.19007779E+04</pdfrwt>
<totfact> 0.38537620E+00</totfact>
</mgrwt>
</event>
<event>
12    4  0.4381187E-008  0.1689739E+04  0.7818608E-02  0.8767238E-01
         -2   -1    0    0    0  501 -0.00000000000E+00  0.00000000000E+00  0.84246293742E+03  0.84246293742E+03  0.00000000000E+00 0.  1.
          1   -1    0    0  501    0  0.00000000000E+00 -0.00000000000E+00 -0.84728302379E+03  0.84728302379E+03  0.00000000000E+00 0. -1.
        -24    2    1    2    0    0  0.10365319302E+03  0.24300265706E+03  0.55453993102E+03  0.61948532180E+03  0.80332142196E+02 0.  0.
        254    2    1    2    0    0 -0.10365319302E+03 -0.24300265706E+03 -0.55936001739E+03  0.10702606394E+04  0.87337273340E+03 0.  0.
         23    2    4    4    0    0 -0.46841217098E+03 -0.10411497966E+03 -0.42875603076E+03  0.64982926485E+03  0.90534240082E+02 0.  0.
         23    2    4    4    0    0  0.36475897796E+03 -0.13888767741E+03 -0.13060398663E+03  0.42043137456E+03  0.85826804968E+02 0.  0.
          1    1    3    3  502    0 -0.78723599789E+01  0.13600483751E+02  0.71792996354E+02  0.73492731174E+02  0.00000000000E+00 0. -1.
         -2    1    3    3    0  502  0.11152555299E+03  0.22940217331E+03  0.48274693466E+03  0.54599259062E+03  0.00000000000E+00 0.  1.
         11    1    5    5    0    0 -0.28554846914E+03 -0.34387896878E+02 -0.20880318959E+03  0.35541416356E+03  0.00000000000E+00 0.  1.
        -11    1    5    5    0    0 -0.18286370184E+03 -0.69727082778E+02 -0.21995284117E+03  0.29441510128E+03  0.00000000000E+00 0. -1.
          1    1    6    6  503    0  0.13784407306E+03 -0.90350522384E+01 -0.48290278781E+02  0.14633718485E+03  0.00000000000E+00 0. -1.
         -1    1    6    6    0  503  0.22691490491E+03 -0.12985262517E+03 -0.82313707849E+02  0.27409418971E+03  0.00000000000E+00 0.  1.
<mgrwt>
<rscale>  0 0.16897391E+04</rscale>
<asrwt>0</asrwt>
<pdfrwt beam="1">  1        1 0.13035123E+00 0.16897391E+04</pdfrwt>
<pdfrwt beam="2">  1       -2 0.12960968E+00 0.16897391E+04</pdfrwt>
<totfact> 0.73513213E+00</totfact>
</mgrwt>
</event>
<event>
12    4  0.4381187E-008  0.1856796E+04  0.7818608E-02  0.8676666E-01
          1   -1    0    0  501    0  0.00000000000E+00  0.00000000000E+00  0.13013872580E+04  0.13013872580E+04  0.00000000000E+00 0. -1.
         -2   -1    0    0    0  501 -0.00000000000E+00 -0.00000000000E+00 -0.66231112037E+03  0.66231112037E+03  0.00000000000E+00 0.  1.
        -24    2    1    2    0    0 -0.18890331010E+02 -0.64483868183E+03  0.49152517591E+03  0.81495133801E+03  0.79843062173E+02 0.  0.
        254    2    1    2    0    0  0.18890331010E+02  0.64483868183E+03  0.14755096175E+03  0.11487470404E+04  0.93897534914E+03 0.  0.
         23    2    4    4    0    0 -0.31425622258E+03  0.25740669215E+02 -0.17303423905E+03  0.37082006343E+03  0.90261376431E+02 0.  0.
         23    2    4    4    0    0  0.33314655359E+03  0.61909801262E+03  0.32058520079E+03  0.77792697696E+03  0.90147296759E+02 0.  0.
          3    1    3    3  502    0  0.20440222106E+02 -0.24687839452E+03  0.15432442891E+03  0.29186088076E+03  0.00000000000E+00 0. -1.
         -4    1    3    3    0  502 -0.39330553117E+02 -0.39796028731E+03  0.33720074700E+03  0.52309045725E+03  0.00000000000E+00 0.  1.
         11    1    5    5    0    0 -0.23973739969E+03  0.38135484288E+02 -0.90859119769E+02  0.25919821684E+03  0.00000000000E+00 0.  1.
        -11    1    5    5    0    0 -0.74518822896E+02 -0.12394815073E+02 -0.82175119277E+02  0.11162184658E+03  0.00000000000E+00 0. -1.
          3    1    6    6  503    0  0.29056203015E+03  0.53418255572E+03  0.30938767993E+03  0.68227416241E+03  0.00000000000E+00 0. -1.
         -3    1    6    6    0  503  0.42584523441E+02  0.84915456902E+02  0.11197520859E+02  0.95652814548E+02  0.00000000000E+00 0.  1.
<mgrwt>
<rscale>  0 0.18567964E+04</rscale>
<asrwt>0</asrwt>
<pdfrwt beam="1">  1        1 0.20021342E+00 0.18567964E+04</pdfrwt>
<pdfrwt beam="2">  1       -2 0.10189402E+00 0.18567964E+04</pdfrwt>
<totfact> 0.58733750E+00</totfact>
</mgrwt>
</event>
<event>
12    4  0.4381187E-008  0.1369692E+04  0.7818608E-02  0.8976054E-01
          1   -1    0    0  501    0  0.00000000000E+00  0.00000000000E+00  0.89388649042E+03  0.89388649042E+03  0.00000000000E+00 0. -1.
         -2   -1    0    0    0  501 -0.00000000000E+00 -0.00000000000E+00 -0.52469116174E+03  0.52469116174E+03  0.00000000000E+00 0.  1.
        -24    2    1    2    0    0 -0.45370472490E+02 -0.34999642273E+03  0.25352157316E+03  0.44129730115E+03  0.76903473567E+02 0.  0.
        254    2    1    2    0    0  0.45370472490E+02  0.34999642273E+03  0.11567375552E+03  0.97728035101E+03  0.90395823523E+03 0.  0.
         23    2    4    4    0    0  0.44667760206E+03  0.20423531786E+03  0.19022097566E+03  0.53445214266E+03  0.90675950354E+02 0.  0.
         23    2    4    4    0    0 -0.40130712957E+03  0.14576110487E+03 -0.74547220140E+02  0.44282820834E+03  0.90806509337E+02 0.  0.
          3    1    3    3  502    0 -0.38218727727E+02 -0.32079498499E+03  0.25442334826E+03  0.41121932553E+03  0.00000000000E+00 0. -1.
         -4    1    3    3    0  502 -0.71517447624E+01 -0.29201437743E+02 -0.90177510515E+00  0.30077975626E+02  0.00000000000E+00 0.  1.
         11    1    5    5    0    0  0.32775278937E+03  0.17037795169E+03  0.17846477270E+03  0.41024408888E+03  0.00000000000E+00 0.  1.
        -11    1    5    5    0    0  0.11892481269E+03  0.33857366167E+02  0.11756202956E+02  0.12420805379E+03  0.00000000000E+00 0. -1.
          1    1    6    6  503    0 -0.12164277286E+03  0.86073491068E+02 -0.43207509226E+02  0.15515314662E+03  0.00000000000E+00 0. -1.
         -1    1    6    6    0  503 -0.27966435671E+03  0.59687613806E+02 -0.31339710913E+02  0.28767506173E+03  0.00000000000E+00 0.  1.
<mgrwt>
<rscale>  0 0.13696924E+04</rscale>
<asrwt>0</asrwt>
<pdfrwt beam="1">  1        1 0.13752100E+00 0.13696924E+04</pdfrwt>
<pdfrwt beam="2">  1       -2 0.80721717E-01 0.13696924E+04</pdfrwt>
<totfact> 0.21361342E+01</totfact>
</mgrwt>
</event>
<event>
12    4  0.4381187E-008  0.1593790E+04  0.7818608E-02  0.8824372E-01
          1   -1    0    0  501    0  0.00000000000E+00  0.00000000000E+00  0.92241568961E+03  0.92241568961E+03  0.00000000000E+00 0. -1.
         -2   -1    0    0    0  501 -0.00000000000E+00 -0.00000000000E+00 -0.68845516476E+03  0.68845516476E+03  0.00000000000E+00 0.  1.
        -24    2    1    2    0    0  0.32496994155E+03 -0.30170295298E+03  0.40102548840E+03  0.60323240206E+03  0.80235614267E+02 0.  0.
        254    2    1    2    0    0 -0.32496994155E+03  0.30170295298E+03 -0.16706496355E+03  0.10076384523E+04  0.88926622211E+03 0.  0.
         23    2    4    4    0    0  0.20732308997E+03  0.36751034700E+03 -0.17137940526E+03  0.46428951399E+03  0.90261472803E+02 0.  0.
         23    2    4    4    0    0 -0.53229303152E+03 -0.65807394016E+02  0.43144417158E+01  0.54334893831E+03  0.86850272577E+02 0.  0.
          3    1    3    3  502    0  0.64739622865E+02 -0.10018035964E+03  0.13402590564E+03  0.17941646137E+03  0.00000000000E+00 0. -1.
         -4    1    3    3    0  502  0.26023031869E+03 -0.20152259334E+03  0.26699958276E+03  0.42381594069E+03  0.00000000000E+00 0.  1.
         11    1    5    5    0    0  0.14526696644E+03  0.26498046121E+03 -0.77273327631E+02  0.31191073006E+03  0.00000000000E+00 0.  1.
        -11    1    5    5    0    0  0.62056123534E+02  0.10252988579E+03 -0.94106077631E+02  0.15237878394E+03  0.00000000000E+00 0. -1.
          3    1    6    6  503    0 -0.13913962587E+03 -0.53917335630E+02 -0.11791372278E+02  0.14968617514E+03  0.00000000000E+00 0. -1.
         -3    1    6    6    0  503 -0.39315340565E+03 -0.11890058386E+02  0.16105813993E+02  0.39366276317E+03  0.00000000000E+00 0.  1.
<mgrwt>
<rscale>  0 0.15937903E+04</rscale>
<asrwt>0</asrwt>
<pdfrwt beam="1">  1        1 0.14191011E+00 0.15937903E+04</pdfrwt>
<pdfrwt beam="2">  1       -2 0.10591618E+00 0.15937903E+04</pdfrwt>
<totfact> 0.10566740E+01</totfact>
</mgrwt>
</event>
<event>
12    4  0.4381187E-008  0.2353359E+04  0.7818608E-02  0.8457175E-01
         -2   -1    0    0    0  501 -0.00000000000E+00  0.00000000000E+00  0.92103367785E+03  0.92103367785E+03  0.00000000000E+00 0.  1.
          1   -1    0    0  501    0  0.00000000000E+00 -0.00000000000E+00 -0.15032832859E+04  0.15032832859E+04  0.00000000000E+00 0. -1.
        -24    2    1    2    0    0  0.47041116758E+02 -0.98215244806E+03 -0.45831491389E+03  0.10877247896E+04  0.79097153045E+02 0.  0.
        254    2    1    2    0    0 -0.47041116758E+02  0.98215244806E+03 -0.12393469420E+03  0.13365921742E+04  0.89681800488E+03 0.  0.
         23    2    4    4    0    0  0.50282900507E+02 -0.27101776436E+02  0.23310969774E+03  0.25802737505E+03  0.94737103209E+02 0.  0.
         23    2    4    4    0    0 -0.97324017265E+02  0.10092542245E+04 -0.35704439194E+03  0.10785647992E+04  0.88064034626E+02 0.  0.
          1    1    3    3  502    0  0.30719236585E+02 -0.85051548666E+03 -0.42334344860E+03  0.95054717927E+03  0.00000000000E+00 0. -1.
         -2    1    3    3    0  502  0.16321880172E+02 -0.13163696140E+03 -0.34971465296E+02  0.13717761029E+03  0.00000000000E+00 0.  1.
         11    1    5    5    0    0 -0.19252394831E+02 -0.12293403920E+01  0.12756146787E+03  0.12901199196E+03  0.00000000000E+00 0. -1.
        -11    1    5    5    0    0  0.69535295337E+02 -0.25872436044E+02  0.10554822987E+03  0.12901538309E+03  0.00000000000E+00 0.  1.
          3    1    6    6  503    0 -0.39645741452E+01  0.49744668716E+03 -0.16987643727E+03  0.52566807812E+03  0.00000000000E+00 0. -1.
         -3    1    6    6    0  503 -0.93359443119E+02  0.51180753734E+03 -0.18716795467E+03  0.55289672105E+03  0.00000000000E+00 0.  1.
<mgrwt>
<rscale>  0 0.23533589E+04</rscale>
<asrwt>0</asrwt>
<pdfrwt beam="1">  1        1 0.23127435E+00 0.23533589E+04</pdfrwt>
<pdfrwt beam="2">  1       -2 0.14169749E+00 0.23533589E+04</pdfrwt>
<totfact> 0.17893082E+00</totfact>
</mgrwt>
</event>
<event>
12    4  0.4381187E-008  0.1540056E+04  0.7818608E-02  0.8858245E-01
         -2   -1    0    0    0  501 -0.00000000000E+00  0.00000000000E+00  0.12462638524E+04  0.12462638524E+04  0.00000000000E+00 0.  1.
          1   -1    0    0  501    0  0.00000000000E+00 -0.00000000000E+00 -0.47577629612E+03  0.47577629612E+03  0.00000000000E+00 0. -1.
        -24    2    1    2    0    0  0.87885268094E+02  0.13758512785E+02  0.80590911169E+03  0.81603362286E+03  0.92240231538E+02 0.  0.
        254    2    1    2    0    0 -0.87885268094E+02 -0.13758512785E+02 -0.35421555403E+02  0.90600652566E+03  0.90093286150E+03 0.  0.
         23    2    4    4    0    0  0.22754335444E+02 -0.42913388636E+03  0.87853891526E+02  0.44877149977E+03  0.94888885259E+02 0.  0.
         23    2    4    4    0    0 -0.11063960354E+03  0.41537537358E+03 -0.12327544693E+03  0.45723502589E+03  0.95337349663E+02 0.  0.
          1    1    3    3  502    0  0.18823591938E+02 -0.33322544937E+02  0.14935257828E+03  0.15417818345E+03  0.00000000000E+00 0. -1.
         -2    1    3    3    0  502  0.69061676156E+02  0.47081057722E+02  0.65655653341E+03  0.66185543940E+03  0.00000000000E+00 0.  1.
         11    1    5    5    0    0  0.27945108132E+02 -0.28797572019E+03  0.14706456993E+02  0.28970195782E+03  0.00000000000E+00 0. -1.
        -11    1    5    5    0    0 -0.51907726881E+01 -0.14115816617E+03  0.73147434533E+02  0.15906954195E+03  0.00000000000E+00 0.  1.
          3    1    6    6  503    0 -0.10802402395E+03  0.41253634971E+03 -0.10584784175E+03  0.43938501930E+03  0.00000000000E+00 0. -1.
         -3    1    6    6    0  503 -0.26155795903E+01  0.28390238689E+01 -0.17427605178E+02  0.17850006593E+02  0.00000000000E+00 0.  1.
<mgrwt>
<rscale>  0 0.15400556E+04</rscale>
<asrwt>0</asrwt>
<pdfrwt beam="1">  1        1 0.73196354E-01 0.15400556E+04</pdfrwt>
<pdfrwt beam="2">  1       -2 0.19173290E+00 0.15400556E+04</pdfrwt>
<totfact> 0.60333252E+00</totfact>
</mgrwt>
</event>
<event>
12    4  0.4381187E-008  0.1899457E+04  0.7818608E-02  0.8655127E-01
         -2   -1    0    0    0  501 -0.00000000000E+00  0.00000000000E+00  0.55886133521E+03  0.55886133521E+03  0.00000000000E+00 0.  1.
          1   -1    0    0  501    0  0.00000000000E+00 -0.00000000000E+00 -0.16139674906E+04  0.16139674906E+04  0.00000000000E+00 0. -1.
        -24    2    1    2    0    0  0.72755243949E+03 -0.72531752726E+01 -0.36422781667E+03  0.81802192987E+03  0.84337503828E+02 0.  0.
        254    2    1    2    0    0 -0.72755243949E+03  0.72531752726E+01 -0.69087833869E+03  0.13548068959E+04  0.91038655832E+03 0.  0.
         23    2    4    4    0    0 -0.74946350203E+03  0.18713536634E+03 -0.80594686181E+03  0.11207966537E+04  0.99597232747E+02 0.  0.
         23    2    4    4    0    0  0.21911062535E+02 -0.17988219107E+03  0.11506852312E+03  0.23401024217E+03  0.93179027155E+02 0.  0.
          1    1    3    3  502    0  0.48979747546E+03 -0.15285485908E+02 -0.28707753222E+03  0.56793373077E+03  0.00000000000E+00 0. -1.
         -4    1    3    3    0  502  0.23775496404E+03  0.80323106352E+01 -0.77150284446E+02  0.25008819910E+03  0.00000000000E+00 0.  1.
         11    1    5    5    0    0 -0.39514437807E+03  0.88420584458E+02 -0.49215447300E+03  0.63731727152E+03  0.00000000000E+00 0.  1.
        -11    1    5    5    0    0 -0.35431912395E+03  0.98714781884E+02 -0.31379238881E+03  0.48347938222E+03  0.00000000000E+00 0. -1.
          1    1    6    6  503    0  0.17586096592E+02 -0.15504038973E+03  0.49401328978E+02  0.16366821483E+03  0.00000000000E+00 0. -1.
         -1    1    6    6    0  503  0.43249659430E+01 -0.24841801344E+02  0.65667194138E+02  0.70342027341E+02  0.00000000000E+00 0.  1.
<mgrwt>
<rscale>  0 0.18994568E+04</rscale>
<asrwt>0</asrwt>
<pdfrwt beam="1">  1        1 0.24830269E+00 0.18994568E+04</pdfrwt>
<pdfrwt beam="2">  1       -2 0.85978668E-01 0.18994568E+04</pdfrwt>
<totfact> 0.52620002E+00</totfact>
</mgrwt>
</event>
<event>
12    4  0.4381187E-008  0.1902069E+04  0.7818608E-02  0.8653827E-01
          1   -1    0    0  501    0  0.00000000000E+00  0.00000000000E+00  0.76095788315E+03  0.76095788315E+03  0.00000000000E+00 0. -1.
         -2   -1    0    0    0  501 -0.00000000000E+00 -0.00000000000E+00 -0.11885892938E+04  0.11885892938E+04  0.00000000000E+00 0.  1.
        -24    2    1    2    0    0  0.34584945537E+03  0.62324276316E+03  0.45755639172E+02  0.71865101805E+03  0.79513015378E+02 0.  0.
        254    2    1    2    0    0 -0.34584945537E+03 -0.62324276316E+03 -0.47338704980E+03  0.12308961589E+04  0.88485403734E+03 0.  0.
         23    2    4    4    0    0 -0.18405051879E+03 -0.32791236338E+03 -0.70865129038E+03  0.80745366299E+03  0.91616892535E+02 0.  0.
         23    2    4    4    0    0 -0.16179893659E+03 -0.29533039979E+03  0.23526424058E+03  0.42344249589E+03  0.10273920141E+03 0.  0.
          3    1    3    3  502    0  0.46682045621E+02  0.94691815995E+02  0.34957815334E+02  0.11121062113E+03  0.00000000000E+00 0. -1.
         -4    1    3    3    0  502  0.29916740975E+03  0.52855094717E+03  0.10797823838E+02  0.60744039692E+03  0.00000000000E+00 0.  1.
         11    1    5    5    0    0 -0.16998794060E+03 -0.22915866156E+03 -0.55896442101E+03  0.62757534693E+03  0.00000000000E+00 0.  1.
        -11    1    5    5    0    0 -0.14062578190E+02 -0.98753701812E+02 -0.14968686936E+03  0.17987831606E+03  0.00000000000E+00 0. -1.
          3    1    6    6  503    0 -0.34734291731E+02 -0.87904734190E+02  0.15816064204E+02  0.95832464238E+02  0.00000000000E+00 0. -1.
         -3    1    6    6    0  503 -0.12706464486E+03 -0.20742566560E+03  0.21944817638E+03  0.32761003165E+03  0.00000000000E+00 0.  1.
<mgrwt>
<rscale>  0 0.19020688E+04</rscale>
<asrwt>0</asrwt>
<pdfrwt beam="1">  1        1 0.11707044E+00 0.19020688E+04</pdfrwt>
<pdfrwt beam="2">  1       -2 0.18285989E+00 0.19020688E+04</pdfrwt>
<totfact> 0.33979069E+00</totfact>
</mgrwt>
</event>
<event>
12    4  0.4381187E-008  0.1601939E+04  0.7818608E-02  0.8819358E-01
          1   -1    0    0  501    0  0.00000000000E+00  0.00000000000E+00  0.11475906153E+04  0.11475906153E+04  0.00000000000E+00 0. -1.
         -2   -1    0    0    0  501 -0.00000000000E+00 -0.00000000000E+00 -0.55904283127E+03  0.55904283127E+03  0.00000000000E+00 0.  1.
        -24    2    1    2    0    0 -0.21613419594E+03 -0.32353004790E+02  0.73696815228E+03  0.77280923427E+03  0.79695341873E+02 0.  0.
        254    2    1    2    0    0  0.21613419594E+03  0.32353004790E+02 -0.14842036829E+03  0.93382421226E+03  0.89567759049E+03 0.  0.
         23    2    4    4    0    0 -0.29713982585E+03 -0.16469169984E+03 -0.13615749031E+03  0.37616741343E+03  0.86877089363E+02 0.  0.
         23    2    4    4    0    0  0.51327402179E+03  0.19704470463E+03 -0.12262877983E+02  0.55765679883E+03  0.92487242567E+02 0.  0.
          1    1    3    3  502    0 -0.19511096587E+03 -0.22140665291E+02  0.71211623945E+03  0.73869346589E+03  0.00000000000E+00 0. -1.
         -2    1    3    3    0  502 -0.21023230063E+02 -0.10212339499E+02  0.24851912833E+02  0.34115768375E+02  0.00000000000E+00 0.  1.
         11    1    5    5    0    0 -0.12143337305E+03 -0.10019308315E+03 -0.27718416434E+02  0.15985314702E+03  0.00000000000E+00 0. -1.
        -11    1    5    5    0    0 -0.17570645280E+03 -0.64498616690E+02 -0.10843907388E+03  0.21631426641E+03  0.00000000000E+00 0.  1.
          2    1    6    6  503    0  0.41643943184E+03  0.14087280342E+03 -0.42575056459E+02  0.44167814364E+03  0.00000000000E+00 0. -1.
         -2    1    6    6    0  503  0.96834589949E+02  0.56171901209E+02  0.30312178476E+02  0.11597865519E+03  0.00000000000E+00 0.  1.
<mgrwt>
<rscale>  0 0.16019392E+04</rscale>
<asrwt>0</asrwt>
<pdfrwt beam="1">  1        1 0.17655240E+00 0.16019392E+04</pdfrwt>
<pdfrwt beam="2">  1       -2 0.86006590E-01 0.16019392E+04</pdfrwt>
<totfact> 0.11527331E+01</totfact>
</mgrwt>
</event>
<event>
12    4  0.4381187E-008  0.2377277E+04  0.7818608E-02  0.8448060E-01
         -2   -1    0    0    0  501 -0.00000000000E+00  0.00000000000E+00  0.20275235464E+04  0.20275235464E+04  0.00000000000E+00 0.  1.
          1   -1    0    0  501    0  0.00000000000E+00 -0.00000000000E+00 -0.69684087297E+03  0.69684087297E+03  0.00000000000E+00 0. -1.
        -24    2    1    2    0    0  0.43965894720E+03  0.82359225566E+03  0.26185875551E+03  0.97275378143E+03  0.77946892236E+02 0.  0.
        254    2    1    2    0    0 -0.43965894720E+03 -0.82359225566E+03  0.10688239179E+04  0.17516106379E+04  0.10267185914E+04 0.  0.
         23    2    4    4    0    0  0.27356092808E+03 -0.11511087512E+03  0.45250520597E+02  0.31387631201E+03  0.91567650862E+02 0.  0.
         23    2    4    4    0    0 -0.71321987528E+03 -0.70848138054E+03  0.10235733973E+04  0.14377343259E+04  0.93536277384E+02 0.  0.
          1    1    3    3  502    0  0.33157324464E+03  0.65054881158E+03  0.23447543301E+03  0.76689849490E+03  0.00000000000E+00 0. -1.
         -2    1    3    3    0  502  0.10808570256E+03  0.17304344408E+03  0.27383322507E+02  0.20585528652E+03  0.00000000000E+00 0.  1.
         11    1    5    5    0    0  0.12568236398E+03 -0.21405989365E+02 -0.15803370779E+02  0.12846797081E+03  0.00000000000E+00 0. -1.
        -11    1    5    5    0    0  0.14787856410E+03 -0.93704885751E+02  0.61053891376E+02  0.18540834120E+03  0.00000000000E+00 0.  1.
          1    1    6    6  503    0 -0.45624665758E+03 -0.49116098458E+03  0.73033898637E+03  0.99136025760E+03  0.00000000000E+00 0. -1.
         -1    1    6    6    0  503 -0.25697321770E+03 -0.21732039596E+03  0.29323441094E+03  0.44637406833E+03  0.00000000000E+00 0.  1.
<mgrwt>
<rscale>  0 0.23772768E+04</rscale>
<asrwt>0</asrwt>
<pdfrwt beam="1">  1        1 0.10720629E+00 0.23772768E+04</pdfrwt>
<pdfrwt beam="2">  1       -2 0.31192670E+00 0.23772768E+04</pdfrwt>
<totfact> 0.57992856E-01</totfact>
</mgrwt>
</event>
<event>
12    4  0.4381187E-008  0.2219644E+04  0.7818608E-02  0.8510296E-01
          1   -1    0    0  501    0  0.00000000000E+00  0.00000000000E+00  0.12161976502E+04  0.12161976502E+04  0.00000000000E+00 0. -1.
         -2   -1    0    0    0  501 -0.00000000000E+00 -0.00000000000E+00 -0.10127503518E+04  0.10127503518E+04  0.00000000000E+00 0.  1.
        -24    2    1    2    0    0  0.60324213002E+03  0.57918332590E+03  0.48905021846E+03  0.97201113940E+03  0.79253684498E+02 0.  0.
        254    2    1    2    0    0 -0.60324213002E+03 -0.57918332590E+03 -0.28560292009E+03  0.12569368626E+04  0.89384945947E+03 0.  0.
         23    2    4    4    0    0 -0.60932832541E+03 -0.34265584738E+03  0.17955383360E+03  0.72738344517E+03  0.90294292537E+02 0.  0.
         23    2    4    4    0    0  0.60861953842E+01 -0.23652747852E+03 -0.46515675370E+03  0.52955341744E+03  0.89853917796E+02 0.  0.
          1    1    3    3  502    0  0.54021222538E+03  0.49623100861E+03  0.45104714592E+03  0.86111438857E+03  0.00000000000E+00 0. -1.
         -2    1    3    3    0  502  0.63029904640E+02  0.82952317283E+02  0.38003072546E+02  0.11089675083E+03  0.00000000000E+00 0.  1.
         11    1    5    5    0    0 -0.44123739669E+03 -0.20490635289E+03  0.14239849519E+03  0.50690668285E+03  0.00000000000E+00 0.  1.
        -11    1    5    5    0    0 -0.16809092872E+03 -0.13774949449E+03  0.37155338412E+02  0.22047676232E+03  0.00000000000E+00 0. -1.
          3    1    6    6  503    0  0.34210964756E+02 -0.21485750234E+03 -0.39733159910E+03  0.45299728042E+03  0.00000000000E+00 0. -1.
         -3    1    6    6    0  503 -0.28124769372E+02 -0.21669976179E+02 -0.67825154595E+02  0.76556137022E+02  0.00000000000E+00 0.  1.
<mgrwt>
<rscale>  0 0.22196438E+04</rscale>
<asrwt>0</asrwt>
<pdfrwt beam="1">  1        1 0.18710733E+00 0.22196438E+04</pdfrwt>
<pdfrwt beam="2">  1       -2 0.15580775E+00 0.22196438E+04</pdfrwt>
<totfact> 0.22477446E+00</totfact>
</mgrwt>
</event>
<event>
12    4  0.4381187E-008  0.1535916E+04  0.7818608E-02  0.8860914E-01
         -2   -1    0    0    0  501 -0.00000000000E+00  0.00000000000E+00  0.10889867076E+04  0.10889867076E+04  0.00000000000E+00 0.  1.
          1   -1    0    0  501    0  0.00000000000E+00 -0.00000000000E+00 -0.54156715868E+03  0.54156715868E+03  0.00000000000E+00 0. -1.
        -24    2    1    2    0    0  0.10505763332E+03  0.46799245413E+03  0.72893242242E+02  0.49370307873E+03  0.91516456108E+02 0.  0.
        254    2    1    2    0    0 -0.10505763332E+03 -0.46799245413E+03  0.47452630663E+03  0.11368507875E+04  0.91498658675E+03 0.  0.
         23    2    4    4    0    0 -0.34452923722E+03 -0.11288309502E+03 -0.12507934024E+03  0.39435998325E+03  0.91825740359E+02 0.  0.
         23    2    4    4    0    0  0.23947160390E+03 -0.35510935911E+03  0.59960564687E+03  0.74249080426E+03  0.91194060343E+02 0.  0.
          1    1    3    3  502    0  0.79172708206E+02  0.42276213805E+03  0.88867094990E+02  0.43919642948E+03  0.00000000000E+00 0. -1.
         -2    1    3    3    0  502  0.25884925116E+02  0.45230316080E+02 -0.15973852747E+02  0.54506649251E+02  0.00000000000E+00 0.  1.
         11    1    5    5    0    0 -0.16783175973E+02  0.45893466618E+01 -0.27914600435E+02  0.32893191027E+02  0.00000000000E+00 0.  1.
        -11    1    5    5    0    0 -0.32774606125E+03 -0.11747244168E+03 -0.97164739805E+02  0.36146679222E+03  0.00000000000E+00 0. -1.
          3    1    6    6  503    0  0.22602799146E+03 -0.29483442681E+03  0.47147212807E+03  0.60025158034E+03  0.00000000000E+00 0. -1.
         -3    1    6    6    0  503  0.13443612442E+02 -0.60274932299E+02  0.12813351881E+03  0.14223922392E+03  0.00000000000E+00 0.  1.
<mgrwt>
<rscale>  0 0.15359159E+04</rscale>
<asrwt>0</asrwt>
<pdfrwt beam="1">  1        1 0.83318024E-01 0.15359159E+04</pdfrwt>
<pdfrwt beam="2">  1       -2 0.16753642E+00 0.15359159E+04</pdfrwt>
<totfact> 0.74189455E+00</totfact>
</mgrwt>
</event>
<event>
12    4  0.4381187E-008  0.1768461E+04  0.7818608E-02  0.8723254E-01
         -2   -1    0    0    0  501 -0.00000000000E+00  0.00000000000E+00  0.12209602990E+04  0.12209602990E+04  0.00000000000E+00 0.  1.
          1   -1    0    0  501    0  0.00000000000E+00 -0.00000000000E+00 -0.64036746044E+03  0.64036746044E+03  0.00000000000E+00 0. -1.
        -24    2    1    2    0    0  0.15489602920E+03 -0.42234670863E+03 -0.29335639448E+03  0.54310354869E+03  0.80832965197E+02 0.  0.
        254    2    1    2    0    0 -0.15489602920E+03  0.42234670863E+03  0.87394923305E+03  0.13182242108E+04  0.87838390567E+03 0.  0.
         23    2    4    4    0    0 -0.39402931774E+03 -0.89963217989E+02  0.36497521920E+03  0.55203706210E+03  0.90473882829E+02 0.  0.
         23    2    4    4    0    0  0.23913328854E+03  0.51230992662E+03  0.50897401385E+03  0.76618714866E+03  0.91334601290E+02 0.  0.
          1    1    3    3  502    0  0.13240506953E+03 -0.40852189299E+03 -0.28501439998E+03  0.51541677087E+03  0.00000000000E+00 0. -1.
         -2    1    3    3    0  502  0.22490959664E+02 -0.13824815640E+02 -0.83419945005E+01  0.27686777825E+02  0.00000000000E+00 0.  1.
         11    1    5    5    0    0 -0.78343620369E+02  0.12351060304E+02  0.98344378251E+02  0.12634036677E+03  0.00000000000E+00 0.  1.
        -11    1    5    5    0    0 -0.31568569737E+03 -0.10231427829E+03  0.26663084095E+03  0.42569669533E+03  0.00000000000E+00 0. -1.
          3    1    6    6  503    0  0.20093960988E+03  0.48476797233E+03  0.47794661041E+03  0.70979551719E+03  0.00000000000E+00 0. -1.
         -3    1    6    6    0  503  0.38193678662E+02  0.27541954293E+02  0.31027403436E+02  0.56391631472E+02  0.00000000000E+00 0.  1.
<mgrwt>
<rscale>  0 0.17684606E+04</rscale>
<asrwt>0</asrwt>
<pdfrwt beam="1">  1        1 0.98518071E-01 0.17684606E+04</pdfrwt>
<pdfrwt beam="2">  1       -2 0.18784005E+00 0.17684606E+04</pdfrwt>
<totfact> 0.41308672E+00</totfact>
</mgrwt>
</event>
<event>
12    4  0.4381187E-008  0.2183519E+04  0.7818608E-02  0.8525319E-01
          1   -1    0    0  501    0  0.00000000000E+00  0.00000000000E+00  0.26581806035E+04  0.26581806035E+04  0.00000000000E+00 0. -1.
         -2   -1    0    0    0  501 -0.00000000000E+00 -0.00000000000E+00 -0.44840393857E+03  0.44840393857E+03  0.00000000000E+00 0.  1.
        -24    2    1    2    0    0 -0.68660290435E+03  0.56184208140E+03  0.10397022558E+04  0.13692181369E+04  0.81776848033E+02 0.  0.
        254    2    1    2    0    0  0.68660290435E+03 -0.56184208140E+03  0.11700744091E+04  0.17373664051E+04  0.92858916121E+03 0.  0.
         23    2    4    4    0    0  0.75869060311E+03 -0.66462351847E+02  0.79938541251E+03  0.11077792252E+04  0.90161514051E+02 0.  0.
         23    2    4    4    0    0 -0.72087698761E+02 -0.49537972955E+03  0.37068899655E+03  0.62958717994E+03  0.91498482041E+02 0.  0.
          3    1    3    3  502    0 -0.17773140584E+03  0.16227096652E+03  0.33584089508E+03  0.41316997229E+03  0.00000000000E+00 0. -1.
         -4    1    3    3    0  502 -0.50887149851E+03  0.39957111488E+03  0.70386136077E+03  0.95604816460E+03  0.00000000000E+00 0.  1.
         11    1    5    5    0    0  0.17265824058E+03 -0.26091994072E+02  0.23846783437E+03  0.29556482914E+03  0.00000000000E+00 0.  1.
        -11    1    5    5    0    0  0.58603236253E+03 -0.40370357775E+02  0.56091757813E+03  0.81221439607E+03  0.00000000000E+00 0. -1.
          3    1    6    6  503    0 -0.79096345240E+02 -0.47434618326E+03  0.37106680770E+03  0.60741345819E+03  0.00000000000E+00 0. -1.
         -3    1    6    6    0  503  0.70086464799E+01 -0.21033546292E+02 -0.37781115628E+00  0.22173721753E+02  0.00000000000E+00 0.  1.
<mgrwt>
<rscale>  0 0.21835189E+04</rscale>
<asrwt>0</asrwt>
<pdfrwt beam="1">  1        1 0.40895085E+00 0.21835189E+04</pdfrwt>
<pdfrwt beam="2">  1       -2 0.68985223E-01 0.21835189E+04</pdfrwt>
<totfact> 0.16177215E+00</totfact>
</mgrwt>
</event>
<event>
12    4  0.4381187E-008  0.2300808E+04  0.7818608E-02  0.8477602E-01
         -2   -1    0    0    0  501 -0.00000000000E+00  0.00000000000E+00  0.40540073763E+03  0.40540073763E+03  0.00000000000E+00 0.  1.
          1   -1    0    0  501    0  0.00000000000E+00 -0.00000000000E+00 -0.32644979927E+04  0.32644979927E+04  0.00000000000E+00 0. -1.
        -24    2    1    2    0    0  0.88425941730E+03  0.10636064826E+03 -0.13379350722E+04  0.16090473584E+04  0.75735325196E+02 0.  0.
        254    2    1    2    0    0 -0.88425941730E+03 -0.10636064826E+03 -0.15211621828E+04  0.20608513719E+04  0.10676828584E+04 0.  0.
         23    2    4    4    0    0 -0.44164426952E+03 -0.56317427033E+03 -0.60403356258E+03  0.94101657945E+03  0.91873491987E+02 0.  0.
         23    2    4    4    0    0 -0.44261514778E+03  0.45681362206E+03 -0.91712862024E+03  0.11198347925E+04  0.91204177504E+02 0.  0.
          1    1    3    3  502    0  0.24670824165E+03  0.35974142617E+02 -0.43674106444E+03  0.50289348057E+03  0.00000000000E+00 0. -1.
         -2    1    3    3    0  502  0.63755117565E+03  0.70386505645E+02 -0.90119400780E+03  0.11061538778E+04  0.00000000000E+00 0.  1.
         11    1    5    5    0    0 -0.36127227306E+03 -0.43474016723E+03 -0.51842107315E+03  0.76699222771E+03  0.00000000000E+00 0. -1.
        -11    1    5    5    0    0 -0.80371996459E+02 -0.12843410310E+03 -0.85612489432E+02  0.17402435175E+03  0.00000000000E+00 0.  1.
          4    1    6    6  503    0 -0.24787464951E+03  0.30712142652E+03 -0.61039843874E+03  0.72687802726E+03  0.00000000000E+00 0. -1.
         -4    1    6    6    0  503 -0.19474049827E+03  0.14969219554E+03 -0.30673018150E+03  0.39295676520E+03  0.00000000000E+00 0.  1.
<mgrwt>
<rscale>  0 0.23008085E+04</rscale>
<asrwt>0</asrwt>
<pdfrwt beam="1">  1        1 0.50223043E+00 0.23008085E+04</pdfrwt>
<pdfrwt beam="2">  1       -2 0.62369348E-01 0.23008085E+04</pdfrwt>
<totfact> 0.72103713E-01</totfact>
</mgrwt>
</event>
<event>
12    4  0.4381187E-008  0.1663882E+04  0.7818608E-02  0.8782236E-01
         -2   -1    0    0    0  501 -0.00000000000E+00  0.00000000000E+00  0.38214189367E+03  0.38214189367E+03  0.00000000000E+00 0.  1.
          1   -1    0    0  501    0  0.00000000000E+00 -0.00000000000E+00 -0.18111752195E+04  0.18111752195E+04  0.00000000000E+00 0. -1.
        -24    2    1    2    0    0 -0.35550189277E+02  0.28771917388E+03  0.14568588107E+03  0.33465356981E+03  0.81990834054E+02 0.  0.
        254    2    1    2    0    0  0.35550189277E+02 -0.28771917388E+03 -0.15747192069E+04  0.18586635434E+04  0.94384503385E+03 0.  0.
         23    2    4    4    0    0  0.23006078655E+03  0.13815206687E+03 -0.87015533477E+02  0.29635035592E+03  0.90762719768E+02 0.  0.
         23    2    4    4    0    0 -0.19451059728E+03 -0.42587124074E+03 -0.14877036734E+04  0.15623131874E+04  0.91430791443E+02 0.  0.
          3    1    3    3  502    0 -0.39765139929E+01  0.25893975354E+02  0.45577653994E+02  0.52570268848E+02  0.00000000000E+00 0. -1.
         -4    1    3    3    0  502 -0.31573675284E+02  0.26182519852E+03  0.10010822707E+03  0.28208330096E+03  0.00000000000E+00 0.  1.
         11    1    5    5    0    0  0.92362234398E+02  0.11530091914E+02 -0.49992541952E+02  0.10565500278E+03  0.00000000000E+00 0.  1.
        -11    1    5    5    0    0  0.13769855216E+03  0.12662197496E+03 -0.37022991525E+02  0.19069535314E+03  0.00000000000E+00 0. -1.
          4    1    6    6  503    0 -0.20083966187E+03 -0.37279349055E+03 -0.13092679366E+04  0.13760429085E+04  0.00000000000E+00 0. -1.
         -4    1    6    6    0  503  0.63290645975E+01 -0.53077750191E+02 -0.17843573685E+03  0.18627027892E+03  0.00000000000E+00 0.  1.
<mgrwt>
<rscale>  0 0.16638821E+04</rscale>
<asrwt>0</asrwt>
<pdfrwt beam="1">  1        1 0.27864235E+00 0.16638821E+04</pdfrwt>
<pdfrwt beam="2">  1       -2 0.58791058E-01 0.16638821E+04</pdfrwt>
<totfact> 0.90701062E+00</totfact>
</mgrwt>
</event>
<event>
12    4  0.4381187E-008  0.1694580E+04  0.7818608E-02  0.8764461E-01
         -4   -1    0    0    0  501 -0.00000000000E+00  0.00000000000E+00  0.60840268677E+03  0.60840268677E+03  0.00000000000E+00 0.  1.
          3   -1    0    0  501    0  0.00000000000E+00 -0.00000000000E+00 -0.11799762371E+04  0.11799762371E+04  0.00000000000E+00 0. -1.
        -24    2    1    2    0    0  0.37489443709E+03 -0.12649665542E+02  0.34275588279E+03  0.51431805887E+03  0.79596592231E+02 0.  0.
        254    2    1    2    0    0 -0.37489443709E+03  0.12649665542E+02 -0.91432943315E+03  0.12740608650E+04  0.80406897867E+03 0.  0.
         23    2    4    4    0    0 -0.15578302725E+02  0.20312926257E+03  0.45993166386E+02  0.22742518907E+03  0.90014801255E+02 0.  0.
         23    2    4    4    0    0 -0.35931613437E+03 -0.19047959702E+03 -0.96032259954E+03  0.10466356759E+04  0.88522210139E+02 0.  0.
          1    1    3    3  502    0  0.28675949383E+02  0.12091114707E+02  0.56085426364E+02  0.64141095861E+02  0.00000000000E+00 0. -1.
         -2    1    3    3    0  502  0.34621848771E+03 -0.24740780249E+02  0.28667045642E+03  0.45017696301E+03  0.00000000000E+00 0.  1.
         11    1    5    5    0    0 -0.46968658744E+02  0.61625095291E+02  0.10433870127E+02  0.78182945197E+02  0.00000000000E+00 0.  1.
        -11    1    5    5    0    0  0.31390356019E+02  0.14150416728E+03  0.35559296259E+02  0.14924224388E+03  0.00000000000E+00 0. -1.
          2    1    6    6  503    0 -0.14924638391E+03 -0.91724215619E+02 -0.30923334900E+03  0.35540551343E+03  0.00000000000E+00 0. -1.
         -2    1    6    6    0  503 -0.21006975046E+03 -0.98755381406E+02 -0.65108925054E+03  0.69123016252E+03  0.00000000000E+00 0.  1.
<mgrwt>
<rscale>  0 0.16945804E+04</rscale>
<asrwt>0</asrwt>
<pdfrwt beam="1">  1        3 0.18153480E+00 0.16945804E+04</pdfrwt>
<pdfrwt beam="2">  1       -4 0.93600414E-01 0.16945804E+04</pdfrwt>
<totfact> 0.40846636E-01</totfact>
</mgrwt>
</event>
<event>
12    4  0.4381187E-008  0.1929887E+04  0.7818608E-02  0.8640121E-01
         -2   -1    0    0    0  501 -0.00000000000E+00  0.00000000000E+00  0.58710685025E+03  0.58710685025E+03  0.00000000000E+00 0.  1.
          1   -1    0    0  501    0  0.00000000000E+00 -0.00000000000E+00 -0.15859398482E+04  0.15859398482E+04  0.00000000000E+00 0. -1.
        -24    2    1    2    0    0  0.27204411583E+03  0.89066385662E+02 -0.11965979738E+04  0.12328041870E+04  0.77579833878E+02 0.  0.
        254    2    1    2    0    0 -0.27204411583E+03 -0.89066385662E+02  0.19776497585E+03  0.94024251143E+03  0.87350110053E+03 0.  0.
         23    2    4    4    0    0  0.38556348671E+02  0.15928432467E+03  0.43166121569E+03  0.47000194788E+03  0.87819916714E+02 0.  0.
         23    2    4    4    0    0 -0.31060046450E+03 -0.24835071033E+03 -0.23389623984E+03  0.47024056356E+03  0.90928613404E+02 0.  0.
          3    1    3    3  502    0  0.22676667751E+03  0.56910025817E+02 -0.10573617063E+04  0.10829014983E+04  0.00000000000E+00 0. -1.
         -4    1    3    3    0  502  0.45277438318E+02  0.32156359845E+02 -0.13923626750E+03  0.14990268873E+03  0.00000000000E+00 0.  1.
         11    1    5    5    0    0  0.38819485250E+02  0.19536217756E+02  0.13998392849E+03  0.14657461061E+03  0.00000000000E+00 0. -1.
        -11    1    5    5    0    0 -0.26313657902E+00  0.13974810691E+03  0.29167728720E+03  0.32342733727E+03  0.00000000000E+00 0.  1.
          4    1    6    6  503    0 -0.27875991385E+03 -0.22926172649E+03 -0.17621795833E+03  0.40164760380E+03  0.00000000000E+00 0.  1.
         -4    1    6    6    0  503 -0.31840550647E+02 -0.19088983839E+02 -0.57678281513E+02  0.68592959754E+02  0.00000000000E+00 0. -1.
<mgrwt>
<rscale>  0 0.19298872E+04</rscale>
<asrwt>0</asrwt>
<pdfrwt beam="1">  1        1 0.24399075E+00 0.19298872E+04</pdfrwt>
<pdfrwt beam="2">  1       -2 0.90324130E-01 0.19298872E+04</pdfrwt>
<totfact> 0.48986005E+00</totfact>
</mgrwt>
</event>
<event>
12    4  0.4381187E-008  0.1242243E+04  0.7818608E-02  0.9076664E-01
         -2   -1    0    0    0  501 -0.00000000000E+00  0.00000000000E+00  0.53734596283E+03  0.53734596283E+03  0.00000000000E+00 0.  1.
          1   -1    0    0  501    0  0.00000000000E+00 -0.00000000000E+00 -0.71795813660E+03  0.71795813660E+03  0.00000000000E+00 0. -1.
        -24    2    1    2    0    0  0.84539994757E+02  0.18996129964E+01 -0.32772887354E+03  0.34823641838E+03  0.81925388563E+02 0.  0.
        254    2    1    2    0    0 -0.84539994757E+02 -0.18996129964E+01  0.14711669976E+03  0.90706768105E+03  0.89105433921E+03 0.  0.
         23    2    4    4    0    0 -0.44273669364E+03 -0.14318427057E+03 -0.23473057956E+02  0.47590671357E+03  0.97049988879E+02 0.  0.
         23    2    4    4    0    0  0.35819669888E+03  0.14128465757E+03  0.17058975771E+03  0.43116096748E+03  0.92372533176E+02 0.  0.
          1    1    3    3  502    0  0.98548725056E+02  0.20021227770E+01 -0.31187015905E+03  0.32707622325E+03  0.00000000000E+00 0. -1.
         -2    1    3    3    0  502 -0.14008730299E+02 -0.10250978060E+00 -0.15858714482E+02  0.21160195129E+02  0.00000000000E+00 0.  1.
         11    1    5    5    0    0 -0.62457949728E+02 -0.27919448927E+02  0.30480380077E+02  0.74896893675E+02  0.00000000000E+00 0.  1.
        -11    1    5    5    0    0 -0.38027874391E+03 -0.11526482164E+03 -0.53953438033E+02  0.40100981990E+03  0.00000000000E+00 0. -1.
          4    1    6    6  503    0  0.34166680487E+03  0.14218042901E+03  0.18063073575E+03  0.41179963895E+03  0.00000000000E+00 0. -1.
         -4    1    6    6    0  503  0.16529894012E+02 -0.89577143775E+00 -0.10040978033E+02  0.19361328528E+02  0.00000000000E+00 0.  1.
<mgrwt>
<rscale>  0 0.12422430E+04</rscale>
<asrwt>0</asrwt>
<pdfrwt beam="1">  1        1 0.11045510E+00 0.12422430E+04</pdfrwt>
<pdfrwt beam="2">  1       -2 0.82668610E-01 0.12422430E+04</pdfrwt>
<totfact> 0.29075782E+01</totfact>
</mgrwt>
</event>
<event>
12    4  0.4381187E-008  0.3178578E+04  0.7818608E-02  0.8194498E-01
          1   -1    0    0  501    0  0.00000000000E+00  0.00000000000E+00  0.16283837491E+04  0.16283837491E+04  0.00000000000E+00 0. -1.
         -2   -1    0    0    0  501 -0.00000000000E+00 -0.00000000000E+00 -0.15511328932E+04  0.15511328932E+04  0.00000000000E+00 0.  1.
        -24    2    1    2    0    0  0.15315664257E+03 -0.11202892579E+04  0.95891666473E+03  0.14846711142E+04  0.78880726188E+02 0.  0.
        254    2    1    2    0    0 -0.15315664257E+03  0.11202892579E+04 -0.88166580878E+03  0.16948455282E+04  0.90369341456E+03 0.  0.
         23    2    4    4    0    0  0.19977032722E+03  0.10099980326E+04 -0.47626615595E+03  0.11380101888E+04  0.90738795630E+02 0.  0.
         23    2    4    4    0    0 -0.35292696979E+03  0.11029122528E+03 -0.40539965283E+03  0.55683533938E+03  0.94842586858E+02 0.  0.
          1    1    3    3  502    0  0.57289992102E+02 -0.67598755381E+03  0.59617194417E+03  0.90314024554E+03  0.00000000000E+00 0. -1.
         -4    1    3    3    0  502  0.95866650464E+02 -0.44430170404E+03  0.36274472056E+03  0.58153086864E+03  0.00000000000E+00 0.  1.
         11    1    5    5    0    0  0.11671406123E+03  0.46367280182E+03 -0.17915248137E+03  0.51059793460E+03  0.00000000000E+00 0. -1.
        -11    1    5    5    0    0  0.83056265990E+02  0.54632523075E+03 -0.29711367458E+03  0.62741225418E+03  0.00000000000E+00 0.  1.
          4    1    6    6  503    0 -0.75259337260E+02 -0.15330584303E+02 -0.75214425395E+02  0.10749978813E+03  0.00000000000E+00 0.  1.
         -4    1    6    6    0  503 -0.27766763253E+03  0.12562180958E+03 -0.33018522744E+03  0.44933555125E+03  0.00000000000E+00 0. -1.
<mgrwt>
<rscale>  0 0.31785780E+04</rscale>
<asrwt>0</asrwt>
<pdfrwt beam="1">  1        1 0.25052058E+00 0.31785780E+04</pdfrwt>
<pdfrwt beam="2">  1       -2 0.23863583E+00 0.31785780E+04</pdfrwt>
<totfact> 0.29676368E-01</totfact>
</mgrwt>
</event>
<event>
12    4  0.4381187E-008  0.1210748E+04  0.7818608E-02  0.9103501E-01
         -4   -1    0    0    0  501 -0.00000000000E+00  0.00000000000E+00  0.24722159077E+03  0.24722159077E+03  0.00000000000E+00 0.  1.
          1   -1    0    0  501    0  0.00000000000E+00 -0.00000000000E+00 -0.14823846254E+04  0.14823846254E+04  0.00000000000E+00 0. -1.
        -24    2    1    2    0    0  0.25530135057E+03  0.65553108360E+02 -0.37143989413E+03  0.46224849086E+03  0.78930873117E+02 0.  0.
        254    2    1    2    0    0 -0.25530135057E+03 -0.65553108360E+02 -0.86372314047E+03  0.12673577253E+04  0.88921423224E+03 0.  0.
         23    2    4    4    0    0 -0.24326337910E+03  0.31655093823E+03 -0.12113743171E+03  0.42709454711E+03  0.91399708442E+02 0.  0.
         23    2    4    4    0    0 -0.12037971466E+02 -0.38210404659E+03 -0.74258570876E+03  0.84026317816E+03  0.91979663737E+02 0.  0.
          3    1    3    3  502    0  0.58122268865E+02  0.20300807899E+02 -0.15089029035E+03  0.16296686983E+03  0.00000000000E+00 0. -1.
         -4    1    3    3    0  502  0.19717908170E+03  0.45252300461E+02 -0.22054960377E+03  0.29928162103E+03  0.00000000000E+00 0.  1.
         11    1    5    5    0    0 -0.14603840101E+02  0.65808893207E+02 -0.39259630672E+02  0.78008981350E+02  0.00000000000E+00 0. -1.
        -11    1    5    5    0    0 -0.22865953900E+03  0.25074204502E+03 -0.81877801033E+02  0.34908556576E+03  0.00000000000E+00 0.  1.
          3    1    6    6  503    0  0.61725834471E+01 -0.59552308301E+02 -0.58393816841E+02  0.83632625546E+02  0.00000000000E+00 0. -1.
         -3    1    6    6    0  503 -0.18210554913E+02 -0.32255173829E+03 -0.68419189192E+03  0.75663055262E+03  0.00000000000E+00 0.  1.
<mgrwt>
<rscale>  0 0.12107477E+04</rscale>
<asrwt>0</asrwt>
<pdfrwt beam="1">  1        1 0.22805917E+00 0.12107477E+04</pdfrwt>
<pdfrwt beam="2">  1       -4 0.38034091E-01 0.12107477E+04</pdfrwt>
<totfact> 0.22112575E+01</totfact>
</mgrwt>
</event>
<event>
12    4  0.4381187E-008  0.1665198E+04  0.7818608E-02  0.8781466E-01
         -2   -1    0    0    0  501 -0.00000000000E+00  0.00000000000E+00  0.16217990272E+04  0.16217990272E+04  0.00000000000E+00 0.  1.
          1   -1    0    0  501    0  0.00000000000E+00 -0.00000000000E+00 -0.42743941824E+03  0.42743941824E+03  0.00000000000E+00 0. -1.
        -24    2    1    2    0    0 -0.42365425612E+03  0.18243544473E+03  0.85467473294E+03  0.97462465477E+03  0.81600847685E+02 0.  0.
        254    2    1    2    0    0  0.42365425612E+03 -0.18243544473E+03  0.33968487598E+03  0.10746137906E+04  0.90919929819E+03 0.  0.
         23    2    4    4    0    0  0.60155525305E+03 -0.35383515155E+03  0.39456420843E+03  0.80637497133E+03  0.86554276980E+02 0.  0.
         23    2    4    4    0    0 -0.17790099693E+03  0.17139970683E+03 -0.54879332446E+02  0.26823881930E+03  0.88958972805E+02 0.  0.
          1    1    3    3  502    0 -0.32237143290E+02 -0.68223030522E+01  0.47577182611E+02  0.57873703282E+02  0.00000000000E+00 0. -1.
         -2    1    3    3    0  502 -0.39141711283E+03  0.18925774778E+03  0.80709755033E+03  0.91675095149E+03  0.00000000000E+00 0.  1.
         11    1    5    5    0    0  0.34633184926E+02 -0.25886244973E+02  0.30810535442E+01  0.43347988049E+02  0.00000000000E+00 0.  1.
        -11    1    5    5    0    0  0.56692206812E+03 -0.32794890658E+03  0.39148315488E+03  0.76302698328E+03  0.00000000000E+00 0. -1.
          1    1    6    6  503    0 -0.14411391862E+03  0.17574167009E+03 -0.38775038260E+02  0.23055901574E+03  0.00000000000E+00 0. -1.
         -1    1    6    6    0  503 -0.33787078311E+02 -0.43419632601E+01 -0.16104294185E+02  0.37679803568E+02  0.00000000000E+00 0.  1.
<mgrwt>
<rscale>  0 0.16651977E+04</rscale>
<asrwt>0</asrwt>
<pdfrwt beam="1">  1        1 0.65759911E-01 0.16651977E+04</pdfrwt>
<pdfrwt beam="2">  1       -2 0.24950754E+00 0.16651977E+04</pdfrwt>
<totfact> 0.29649834E+00</totfact>
</mgrwt>
</event>
<event>
12    4  0.4381187E-008  0.1278807E+04  0.7818608E-02  0.9046543E-01
         -2   -1    0    0    0  501 -0.00000000000E+00  0.00000000000E+00  0.28856825957E+04  0.28856825957E+04  0.00000000000E+00 0.  1.
          1   -1    0    0  501    0  0.00000000000E+00 -0.00000000000E+00 -0.14167762708E+03  0.14167762708E+03  0.00000000000E+00 0. -1.
        -24    2    1    2    0    0  0.25064232484E+03 -0.80073175628E+02  0.11320006690E+04  0.11651480486E+04  0.83133460503E+02 0.  0.
        254    2    1    2    0    0 -0.25064232484E+03  0.80073175628E+02  0.16120042997E+04  0.18622121742E+04  0.89445124572E+03 0.  0.
         23    2    4    4    0    0 -0.66037368761E+02 -0.32371819879E+03  0.24105397906E+03  0.41824087924E+03  0.87544308459E+02 0.  0.
         23    2    4    4    0    0 -0.18460495608E+03  0.40379137442E+03  0.13709503206E+04  0.14439712949E+04  0.91770665747E+02 0.  0.
          3    1    3    3  502    0  0.57335139399E+01 -0.23782644072E+02  0.11317077367E+03  0.11578476305E+03  0.00000000000E+00 0. -1.
         -4    1    3    3    0  502  0.24490881090E+03 -0.56290531556E+02  0.10188298953E+04  0.10493632856E+04  0.00000000000E+00 0.  1.
         11    1    5    5    0    0 -0.17037719880E+02 -0.52502640679E+02  0.51088665492E+01  0.55433849717E+02  0.00000000000E+00 0. -1.
        -11    1    5    5    0    0 -0.48999648882E+02 -0.27121555812E+03  0.23594511251E+03  0.36280702952E+03  0.00000000000E+00 0.  1.
          2    1    6    6  503    0 -0.38222274827E+02  0.97755193095E+02  0.46210331474E+03  0.47387392159E+03  0.00000000000E+00 0. -1.
         -2    1    6    6    0  503 -0.14638268125E+03  0.30603618133E+03  0.90884700586E+03  0.97009737332E+03  0.00000000000E+00 0.  1.
<mgrwt>
<rscale>  0 0.12788067E+04</rscale>
<asrwt>0</asrwt>
<pdfrwt beam="1">  1        1 0.21796560E-01 0.12788067E+04</pdfrwt>
<pdfrwt beam="2">  1       -2 0.44395112E+00 0.12788067E+04</pdfrwt>
<totfact> 0.77615239E-01</totfact>
</mgrwt>
</event>
<event>
12    4  0.4381187E-008  0.1439081E+04  0.7818608E-02  0.8926005E-01
          1   -1    0    0  501    0  0.00000000000E+00  0.00000000000E+00  0.11906937990E+04  0.11906937990E+04  0.00000000000E+00 0. -1.
         -2   -1    0    0    0  501 -0.00000000000E+00 -0.00000000000E+00 -0.43482100723E+03  0.43482100723E+03  0.00000000000E+00 0.  1.
        -24    2    1    2    0    0  0.14205920155E+03  0.38840462334E+03  0.78354242353E+02  0.43004191831E+03  0.88077784012E+02 0.  0.
        254    2    1    2    0    0 -0.14205920155E+03 -0.38840462334E+03  0.67751854945E+03  0.11954728880E+04  0.89391558483E+03 0.  0.
         23    2    4    4    0    0  0.27881347004E+03 -0.21111050630E+03 -0.16266841518E+02  0.35998569590E+03  0.83788389249E+02 0.  0.
         23    2    4    4    0    0 -0.42087267159E+03 -0.17729411704E+03  0.69378539097E+03  0.83548719206E+03  0.90186860145E+02 0.  0.
          1    1    3    3  502    0  0.63452207838E+02  0.70431190938E+02  0.26361139285E+02  0.98395350505E+02  0.00000000000E+00 0. -1.
         -2    1    3    3    0  502  0.78606993712E+02  0.31797343240E+03  0.51993103068E+02  0.33164656781E+03  0.00000000000E+00 0.  1.
         11    1    5    5    0    0  0.17654393622E+03 -0.13953208010E+03  0.29664829682E+02  0.22697348945E+03  0.00000000000E+00 0.  1.
        -11    1    5    5    0    0  0.10226953382E+03 -0.71578426195E+02 -0.45931671201E+02  0.13301220644E+03  0.00000000000E+00 0. -1.
          2    1    6    6  503    0 -0.32029334354E+02 -0.44065401244E+02  0.80614689369E+02  0.97295251621E+02  0.00000000000E+00 0. -1.
         -2    1    6    6    0  503 -0.38884333723E+03 -0.13322871580E+03  0.61317070160E+03  0.73819194044E+03  0.00000000000E+00 0.  1.
<mgrwt>
<rscale>  0 0.14390812E+04</rscale>
<asrwt>0</asrwt>
<pdfrwt beam="1">  1        1 0.18318366E+00 0.14390812E+04</pdfrwt>
<pdfrwt beam="2">  1       -2 0.66895540E-01 0.14390812E+04</pdfrwt>
<totfact> 0.18987772E+01</totfact>
</mgrwt>
</event>
<event>
12    4  0.4381187E-008  0.1396713E+04  0.7818608E-02  0.8956201E-01
         -2   -1    0    0    0  501 -0.00000000000E+00  0.00000000000E+00  0.30665910155E+03  0.30665910155E+03  0.00000000000E+00 0.  1.
          1   -1    0    0  501    0  0.00000000000E+00 -0.00000000000E+00 -0.15903715413E+04  0.15903715413E+04  0.00000000000E+00 0. -1.
        -24    2    1    2    0    0 -0.14261990217E+03 -0.31140184440E+03 -0.15390382683E+03  0.38370154695E+03  0.78923659499E+02 0.  0.
        254    2    1    2    0    0  0.14261990217E+03  0.31140184440E+03 -0.11298086129E+04  0.15133290959E+04  0.94677658686E+03 0.  0.
         23    2    4    4    0    0  0.43134180998E+02  0.56812573930E+03 -0.33431281755E+03  0.66666173592E+03  0.89696136668E+02 0.  0.
         23    2    4    4    0    0  0.99485721170E+02 -0.25672389489E+03 -0.79549579533E+03  0.84666735994E+03  0.90705518397E+02 0.  0.
          3    1    3    3  502    0 -0.84538659443E+02 -0.19238601249E+03 -0.51671126063E+02  0.21640024956E+03  0.00000000000E+00 0. -1.
         -4    1    3    3    0  502 -0.58081242725E+02 -0.11901583192E+03 -0.10223270077E+03  0.16730129739E+03  0.00000000000E+00 0.  1.
         11    1    5    5    0    0 -0.17238095432E+02  0.35036147587E+02 -0.12270970412E+02  0.40929943644E+02  0.00000000000E+00 0. -1.
        -11    1    5    5    0    0  0.60372276430E+02  0.53308959171E+03 -0.32204184714E+03  0.62573179227E+03  0.00000000000E+00 0.  1.
          2    1    6    6  503    0  0.56237424655E+02 -0.10320214017E+03 -0.46607546048E+03  0.48066585538E+03  0.00000000000E+00 0. -1.
         -2    1    6    6    0  503  0.43248296515E+02 -0.15352175472E+03 -0.32942033486E+03  0.36600150456E+03  0.00000000000E+00 0.  1.
<mgrwt>
<rscale>  0 0.13967132E+04</rscale>
<asrwt>0</asrwt>
<pdfrwt beam="1">  1        1 0.24467254E+00 0.13967132E+04</pdfrwt>
<pdfrwt beam="2">  1       -2 0.47178324E-01 0.13967132E+04</pdfrwt>
<totfact> 0.20650729E+01</totfact>
</mgrwt>
</event>
<event>
12    4  0.4381187E-008  0.1140117E+04  0.7818608E-02  0.9166950E-01
          1   -1    0    0  501    0  0.00000000000E+00  0.00000000000E+00  0.31384591886E+03  0.31384591886E+03  0.00000000000E+00 0. -1.
         -2   -1    0    0    0  501 -0.00000000000E+00 -0.00000000000E+00 -0.10354340433E+04  0.10354340433E+04  0.00000000000E+00 0.  1.
        -24    2    1    2    0    0  0.12428397296E+03 -0.15630189392E+03 -0.18928237075E+03  0.28640126656E+03  0.79505230197E+02 0.  0.
        254    2    1    2    0    0 -0.12428397296E+03  0.15630189392E+03 -0.53230575371E+03  0.10628786956E+04  0.89804505354E+03 0.  0.
         23    2    4    4    0    0  0.17494241326E+03  0.44858877251E+03 -0.31117332076E+03  0.58096062597E+03  0.94072730338E+02 0.  0.
         23    2    4    4    0    0 -0.29922638622E+03 -0.29228687859E+03 -0.22113243295E+03  0.48191806965E+03  0.91528265307E+02 0.  0.
          3    1    3    3  502    0  0.30870059869E+02  0.18807429447E+01 -0.32816010944E+02  0.45093107728E+02  0.00000000000E+00 0. -1.
         -4    1    3    3    0  502  0.93413913095E+02 -0.15818263687E+03 -0.15646635981E+03  0.24130815883E+03  0.00000000000E+00 0.  1.
         11    1    5    5    0    0 -0.44311914192E+01  0.83043525189E+02 -0.45875668058E+02  0.94975994088E+02  0.00000000000E+00 0. -1.
        -11    1    5    5    0    0  0.17937360468E+03  0.36554524732E+03 -0.26529765270E+03  0.48598463188E+03  0.00000000000E+00 0.  1.
          1    1    6    6  503    0 -0.60447066365E+02 -0.46434090271E+02 -0.42624791216E+01  0.76342264177E+02  0.00000000000E+00 0. -1.
         -1    1    6    6    0  503 -0.23877931986E+03 -0.24585278832E+03 -0.21686995383E+03  0.40557580548E+03  0.00000000000E+00 0.  1.
<mgrwt>
<rscale>  0 0.11401171E+04</rscale>
<asrwt>0</asrwt>
<pdfrwt beam="1">  1        1 0.48283986E-01 0.11401171E+04</pdfrwt>
<pdfrwt beam="2">  1       -2 0.15929755E+00 0.11401171E+04</pdfrwt>
<totfact> 0.18255324E+01</totfact>
</mgrwt>
</event>
<event>
12    4  0.4381187E-008  0.1688529E+04  0.7818608E-02  0.8767934E-01
         -2   -1    0    0    0  501 -0.00000000000E+00  0.00000000000E+00  0.41447874092E+03  0.41447874092E+03  0.00000000000E+00 0.  1.
          1   -1    0    0  501    0  0.00000000000E+00 -0.00000000000E+00 -0.17197088103E+04  0.17197088103E+04  0.00000000000E+00 0. -1.
        -24    2    1    2    0    0  0.36126198620E+03 -0.21726061582E+03  0.74079572734E+02  0.43551859155E+03  0.80475229932E+02 0.  0.
        254    2    1    2    0    0 -0.36126198620E+03  0.21726061582E+03 -0.13793096421E+04  0.16986689597E+04  0.89736767708E+03 0.  0.
         23    2    4    4    0    0 -0.42280508036E+03  0.22877343158E+03 -0.22353363398E+03  0.53758578734E+03  0.89049279926E+02 0.  0.
         23    2    4    4    0    0  0.61543094165E+02 -0.11512815765E+02 -0.11557760082E+04  0.11610831724E+04  0.91519695687E+02 0.  0.
          3    1    3    3  502    0  0.57912249840E+02 -0.71940571794E+02  0.77418061011E+01  0.92677991525E+02  0.00000000000E+00 0. -1.
         -4    1    3    3    0  502  0.30334973636E+03 -0.14532004402E+03  0.66337766633E+02  0.34284060002E+03  0.00000000000E+00 0.  1.
         11    1    5    5    0    0 -0.11685067134E+03  0.99669851798E+02 -0.42446507034E+02  0.15934197410E+03  0.00000000000E+00 0.  1.
        -11    1    5    5    0    0 -0.30595440902E+03  0.12910357979E+03 -0.18108712694E+03  0.37824381324E+03  0.00000000000E+00 0. -1.
          4    1    6    6  503    0  0.66338095437E+02 -0.32372542102E+01 -0.41787977453E+03  0.42312495635E+03  0.00000000000E+00 0. -1.
         -4    1    6    6    0  503 -0.47950012718E+01 -0.82755615552E+01 -0.73789623364E+03  0.73795821601E+03  0.00000000000E+00 0.  1.
<mgrwt>
<rscale>  0 0.16885292E+04</rscale>
<asrwt>0</asrwt>
<pdfrwt beam="1">  1        1 0.26457058E+00 0.16885292E+04</pdfrwt>
<pdfrwt beam="2">  1       -2 0.63765961E-01 0.16885292E+04</pdfrwt>
<totfact> 0.87887926E+00</totfact>
</mgrwt>
</event>
<event>
12    4  0.4381187E-008  0.1087212E+04  0.7818608E-02  0.9217747E-01
         -2   -1    0    0    0  501 -0.00000000000E+00  0.00000000000E+00  0.17642579691E+03  0.17642579691E+03  0.00000000000E+00 0.  1.
          1   -1    0    0  501    0  0.00000000000E+00 -0.00000000000E+00 -0.16749663353E+04  0.16749663353E+04  0.00000000000E+00 0. -1.
        -24    2    1    2    0    0 -0.62668921873E+00  0.32861833825E+02 -0.50509281382E+03  0.51251127415E+03  0.80428618621E+02 0.  0.
        254    2    1    2    0    0  0.62668921873E+00 -0.32861833825E+02 -0.99344772455E+03  0.13388808580E+04  0.89698566197E+03 0.  0.
         23    2    4    4    0    0 -0.21013695379E+03  0.27191080279E+03 -0.86661894690E+03  0.93673069205E+03  0.91339839578E+02 0.  0.
         23    2    4    4    0    0  0.21076364301E+03 -0.30477263662E+03 -0.12682877765E+03  0.40215016599E+03  0.91277291390E+02 0.  0.
          1    1    3    3  502    0 -0.17534047235E+02 -0.22793083885E+01 -0.40041811613E+03  0.40080831551E+03  0.00000000000E+00 0. -1.
         -2    1    3    3    0  502  0.16907358016E+02  0.35141142213E+02 -0.10467469769E+03  0.11170295864E+03  0.00000000000E+00 0.  1.
         11    1    5    5    0    0 -0.15703504228E+03  0.13194288473E+03 -0.53108630690E+03  0.56931677888E+03  0.00000000000E+00 0. -1.
        -11    1    5    5    0    0 -0.53101911504E+02  0.13996791806E+03 -0.33553264000E+03  0.36741391318E+03  0.00000000000E+00 0.  1.
          4    1    6    6  503    0  0.14710451831E+02  0.26475277124E+01 -0.13993959095E+02  0.20475294557E+02  0.00000000000E+00 0. -1.
         -4    1    6    6    0  503  0.19605319118E+03 -0.30742016433E+03 -0.11283481855E+03  0.38167487143E+03  0.00000000000E+00 0.  1.
<mgrwt>
<rscale>  0 0.10872116E+04</rscale>
<asrwt>0</asrwt>
<pdfrwt beam="1">  1        1 0.25768714E+00 0.10872116E+04</pdfrwt>
<pdfrwt beam="2">  1       -2 0.27142429E-01 0.10872116E+04</pdfrwt>
<totfact> 0.53603490E+01</totfact>
</mgrwt>
</event>
<event>
12    4  0.4381187E-008  0.1391534E+04  0.7818608E-02  0.8959969E-01
         -2   -1    0    0    0  501 -0.00000000000E+00  0.00000000000E+00  0.49783326653E+03  0.49783326653E+03  0.00000000000E+00 0.  1.
          1   -1    0    0  501    0  0.00000000000E+00 -0.00000000000E+00 -0.97239756991E+03  0.97239756991E+03  0.00000000000E+00 0. -1.
        -24    2    1    2    0    0  0.83924380331E+02 -0.20161894624E+03 -0.48703593662E+03  0.53944575089E+03  0.78129466246E+02 0.  0.
        254    2    1    2    0    0 -0.83924380331E+02  0.20161894624E+03  0.12471633242E+02  0.93078508555E+03  0.90471643776E+03 0.  0.
         23    2    4    4    0    0 -0.29888818843E+03 -0.59614278292E+02  0.32903238677E+03  0.45840658498E+03  0.94795961158E+02 0.  0.
         23    2    4    4    0    0  0.21496380810E+03  0.26123322453E+03 -0.31656075353E+03  0.47237850057E+03  0.92078774634E+02 0.  0.
          1    1    3    3  502    0  0.97739984312E+02 -0.16138996784E+03 -0.41306551679E+03  0.45411776822E+03  0.00000000000E+00 0. -1.
         -2    1    3    3    0  502 -0.13815603981E+02 -0.40228978399E+02 -0.73970419836E+02  0.85327982673E+02  0.00000000000E+00 0.  1.
         11    1    5    5    0    0 -0.15206706833E+03 -0.42179414963E+01  0.21939497905E+03  0.26697629321E+03  0.00000000000E+00 0. -1.
        -11    1    5    5    0    0 -0.14682112010E+03 -0.55396336795E+02  0.10963740772E+03  0.19143029178E+03  0.00000000000E+00 0.  1.
          4    1    6    6  503    0  0.46270730099E+02  0.10999927421E+02 -0.30099439224E+02  0.56284590331E+02  0.00000000000E+00 0. -1.
         -4    1    6    6    0  503  0.16869307800E+03  0.25023329711E+03 -0.28646131430E+03  0.41609391024E+03  0.00000000000E+00 0.  1.
<mgrwt>
<rscale>  0 0.13915342E+04</rscale>
<asrwt>0</asrwt>
<pdfrwt beam="1">  1        1 0.14959963E+00 0.13915342E+04</pdfrwt>
<pdfrwt beam="2">  1       -2 0.76589733E-01 0.13915342E+04</pdfrwt>
<totfact> 0.20737145E+01</totfact>
</mgrwt>
</event>
<event>
12    4  0.4381187E-008  0.1684535E+04  0.7818608E-02  0.8770234E-01
         -2   -1    0    0    0  501 -0.00000000000E+00  0.00000000000E+00  0.29027120805E+03  0.29027120805E+03  0.00000000000E+00 0.  1.
          1   -1    0    0  501    0  0.00000000000E+00 -0.00000000000E+00 -0.24439702448E+04  0.24439702448E+04  0.00000000000E+00 0. -1.
        -24    2    1    2    0    0  0.51039051532E+02  0.52692318088E+03 -0.12252008623E+04  0.13371125117E+04  0.80620670019E+02 0.  0.
        254    2    1    2    0    0 -0.51039051532E+02 -0.52692318088E+03 -0.92849817444E+03  0.13971289412E+04  0.89978185972E+03 0.  0.
         23    2    4    4    0    0  0.30980157451E+03 -0.39016665759E+03 -0.15785819937E+03  0.53041407702E+03  0.90624752296E+02 0.  0.
         23    2    4    4    0    0 -0.36084062604E+03 -0.13675652329E+03 -0.77063997507E+03  0.86671486418E+03  0.91653590019E+02 0.  0.
          1    1    3    3  502    0  0.20887181293E+02  0.47493235069E+03 -0.10874233601E+04  0.11867967712E+04  0.00000000000E+00 0. -1.
         -2    1    3    3    0  502  0.30151870239E+02  0.51990830192E+02 -0.13777750219E+03  0.15031574040E+03  0.00000000000E+00 0.  1.
         11    1    5    5    0    0  0.22293576002E+03 -0.30852908701E+03 -0.15550370914E+03  0.41118360155E+03  0.00000000000E+00 0. -1.
        -11    1    5    5    0    0  0.86865814487E+02 -0.81637570584E+02 -0.23544902353E+01  0.11923047547E+03  0.00000000000E+00 0.  1.
          3    1    6    6  503    0 -0.31007468652E+03 -0.14924630120E+03 -0.65894888158E+03  0.74339383787E+03  0.00000000000E+00 0. -1.
         -3    1    6    6    0  503 -0.50765939516E+02  0.12489777913E+02 -0.11169109349E+03  0.12332102632E+03  0.00000000000E+00 0.  1.
<mgrwt>
<rscale>  0 0.16845346E+04</rscale>
<asrwt>0</asrwt>
<pdfrwt beam="1">  1        1 0.37599542E+00 0.16845346E+04</pdfrwt>
<pdfrwt beam="2">  1       -2 0.44657109E-01 0.16845346E+04</pdfrwt>
<totfact> 0.59030180E+00</totfact>
</mgrwt>
</event>
<event>
12    4  0.4381187E-008  0.2324130E+04  0.7818608E-02  0.8468467E-01
          1   -1    0    0  501    0  0.00000000000E+00  0.00000000000E+00  0.72239248495E+03  0.72239248495E+03  0.00000000000E+00 0. -1.
         -2   -1    0    0    0  501 -0.00000000000E+00 -0.00000000000E+00 -0.18693366239E+04  0.18693366239E+04  0.00000000000E+00 0.  1.
        -24    2    1    2    0    0  0.34856048065E+03 -0.86023591862E+03 -0.85357043449E+03  0.12634976620E+04  0.79646788597E+02 0.  0.
        254    2    1    2    0    0 -0.34856048065E+03  0.86023591862E+03 -0.29337370450E+03  0.13282314469E+04  0.90367604903E+03 0.  0.
         23    2    4    4    0    0  0.13912938417E+03  0.29349868582E+02 -0.31772874139E+03  0.36019341587E+03  0.92570748107E+02 0.  0.
         23    2    4    4    0    0 -0.48768986482E+03  0.83088605004E+03  0.24355036891E+02  0.96803803100E+03  0.91057285444E+02 0.  0.
          3    1    3    3  502    0  0.24790156513E+01 -0.55713490157E+02 -0.52564736036E+02  0.76636740397E+02  0.00000000000E+00 0. -1.
         -4    1    3    3    0  502  0.34608146500E+03 -0.80452242847E+03 -0.80100569845E+03  0.11868609216E+04  0.00000000000E+00 0.  1.
         11    1    5    5    0    0  0.98350978772E+02  0.53463530691E+02 -0.27291580610E+03  0.29498186616E+03  0.00000000000E+00 0.  1.
        -11    1    5    5    0    0  0.40778405399E+02 -0.24113662109E+02 -0.44812935287E+02  0.65211549715E+02  0.00000000000E+00 0. -1.
          4    1    6    6  503    0 -0.12100328528E+03  0.28470774834E+03 -0.70708125267E+01  0.30943544303E+03  0.00000000000E+00 0. -1.
         -4    1    6    6    0  503 -0.36668657954E+03  0.54617830170E+03  0.31425849417E+02  0.65860258797E+03  0.00000000000E+00 0.  1.
<mgrwt>
<rscale>  0 0.23241297E+04</rscale>
<asrwt>0</asrwt>
<pdfrwt beam="1">  1        1 0.11113730E+00 0.23241297E+04</pdfrwt>
<pdfrwt beam="2">  1       -2 0.28759025E+00 0.23241297E+04</pdfrwt>
<totfact> 0.77698693E-01</totfact>
</mgrwt>
</event>
<event>
12    4  0.4381187E-008  0.1155800E+04  0.7818608E-02  0.9152450E-01
          1   -1    0    0  501    0  0.00000000000E+00  0.00000000000E+00  0.61707812619E+03  0.61707812619E+03  0.00000000000E+00 0. -1.
         -2   -1    0    0    0  501 -0.00000000000E+00 -0.00000000000E+00 -0.54120909919E+03  0.54120909919E+03  0.00000000000E+00 0.  1.
        -24    2    1    2    0    0  0.14098608764E+03 -0.12063378824E+03 -0.95806238495E+02  0.22328212958E+03  0.79034715679E+02 0.  0.
        254    2    1    2    0    0 -0.14098608764E+03  0.12063378824E+03  0.17167526550E+03  0.93500509581E+03  0.90018472806E+03 0.  0.
         23    2    4    4    0    0  0.36726974604E+03  0.11334751774E+03  0.13326177830E+03  0.41689891470E+03  0.91166207495E+02 0.  0.
         23    2    4    4    0    0 -0.50825583367E+03  0.72862705003E+01  0.38413487196E+02  0.51810618111E+03  0.92635504544E+02 0.  0.
          1    1    3    3  502    0  0.14233495626E+03 -0.12806986232E+03 -0.83600738288E+02  0.20892633355E+03  0.00000000000E+00 0. -1.
         -2    1    3    3    0  502 -0.13488686243E+01  0.74360740806E+01 -0.12205500207E+02  0.14355796028E+02  0.00000000000E+00 0.  1.
         11    1    5    5    0    0  0.58186005323E+02 -0.15383936558E+02  0.18762247629E+02  0.63042038796E+02  0.00000000000E+00 0. -1.
        -11    1    5    5    0    0  0.30908374071E+03  0.12873145430E+03  0.11449953067E+03  0.35385687590E+03  0.00000000000E+00 0.  1.
          1    1    6    6  503    0 -0.23978574929E+02  0.65098883059E+01 -0.17817393484E+02  0.30574666179E+02  0.00000000000E+00 0. -1.
         -1    1    6    6    0  503 -0.48427725875E+03  0.77638219437E+00  0.56230880680E+02  0.48753151493E+03  0.00000000000E+00 0.  1.
<mgrwt>
<rscale>  0 0.11557998E+04</rscale>
<asrwt>0</asrwt>
<pdfrwt beam="1">  1        1 0.94935097E-01 0.11557998E+04</pdfrwt>
<pdfrwt beam="2">  1       -2 0.83262938E-01 0.11557998E+04</pdfrwt>
<totfact> 0.36092161E+01</totfact>
</mgrwt>
</event>
<event>
12    4  0.4381187E-008  0.1933641E+04  0.7818608E-02  0.8638290E-01
          1   -1    0    0  501    0  0.00000000000E+00  0.00000000000E+00  0.16159232986E+04  0.16159232986E+04  0.00000000000E+00 0. -1.
         -2   -1    0    0    0  501 -0.00000000000E+00 -0.00000000000E+00 -0.57845704406E+03  0.57845704406E+03  0.00000000000E+00 0.  1.
        -24    2    1    2    0    0  0.38291382306E+03 -0.43174310097E+03 -0.14687560789E+03  0.60058451231E+03  0.78129451014E+02 0.  0.
        254    2    1    2    0    0 -0.38291382306E+03  0.43174310097E+03  0.11843418624E+04  0.15937958303E+04  0.89693611845E+03 0.  0.
         23    2    4    4    0    0  0.36132880835E+02  0.58765678437E+03  0.80031751646E+03  0.99764956847E+03  0.90279859419E+02 0.  0.
         23    2    4    4    0    0 -0.41904670389E+03 -0.15591368340E+03  0.38402434597E+03  0.59614626187E+03  0.89478771375E+02 0.  0.
          3    1    3    3  502    0  0.17946327018E+03 -0.15605523897E+03 -0.36465272590E+02  0.24060344773E+03  0.00000000000E+00 0. -1.
         -2    1    3    3    0  502  0.20345055288E+03 -0.27568786199E+03 -0.11041033530E+03  0.35998106458E+03  0.00000000000E+00 0.  1.
         11    1    5    5    0    0 -0.10281800150E+01 -0.93559634879E+00 -0.16597617511E+01  0.21650181851E+01  0.00000000000E+00 0. -1.
        -11    1    5    5    0    0  0.37161060850E+02  0.58859238072E+03  0.80197727821E+03  0.99548455028E+03  0.00000000000E+00 0.  1.
          1    1    6    6  503    0 -0.15592094061E+03 -0.43669697515E+02  0.87191831096E+02  0.18390431645E+03  0.00000000000E+00 0. -1.
         -1    1    6    6    0  503 -0.26312576329E+03 -0.11224398589E+03  0.29683251487E+03  0.41224194541E+03  0.00000000000E+00 0.  1.
<mgrwt>
<rscale>  0 0.19336413E+04</rscale>
<asrwt>0</asrwt>
<pdfrwt beam="1">  1        1 0.24860358E+00 0.19336413E+04</pdfrwt>
<pdfrwt beam="2">  1       -2 0.88993392E-01 0.19336413E+04</pdfrwt>
<totfact> 0.48329978E+00</totfact>
</mgrwt>
</event>
<event>
12    4  0.4381187E-008  0.2052256E+04  0.7818608E-02  0.8582572E-01
         -2   -1    0    0    0  501 -0.00000000000E+00  0.00000000000E+00  0.53004379192E+03  0.53004379192E+03  0.00000000000E+00 0.  1.
          1   -1    0    0  501    0  0.00000000000E+00 -0.00000000000E+00 -0.19865121806E+04  0.19865121806E+04  0.00000000000E+00 0. -1.
        -24    2    1    2    0    0 -0.63610500192E+03 -0.35309333126E+03 -0.10537587218E+04  0.12830393583E+04  0.80486502007E+02 0.  0.
        254    2    1    2    0    0  0.63610500192E+03  0.35309333126E+03 -0.40270966685E+03  0.12335166142E+04  0.91108928639E+03 0.  0.
         23    2    4    4    0    0  0.13848902998E+02 -0.24480769739E+03 -0.23182103580E+03  0.34910421650E+03  0.89499500123E+02 0.  0.
         23    2    4    4    0    0  0.62225609892E+03  0.59790102865E+03 -0.17088863104E+03  0.88441239774E+03  0.91071797744E+02 0.  0.
          3    1    3    3  502    0 -0.41724797787E+03 -0.27006876897E+03 -0.74513687689E+03  0.89569078387E+03  0.00000000000E+00 0. -1.
         -4    1    3    3    0  502 -0.21885702405E+03 -0.83024562290E+02 -0.30862184493E+03  0.38734857440E+03  0.00000000000E+00 0.  1.
         11    1    5    5    0    0 -0.37006931346E+02 -0.78201160870E+02 -0.85052178449E+02  0.12132109292E+03  0.00000000000E+00 0. -1.
        -11    1    5    5    0    0  0.50855834344E+02 -0.16660653652E+03 -0.14676885735E+03  0.22778312358E+03  0.00000000000E+00 0.  1.
          3    1    6    6  503    0  0.27530735796E+03  0.22080306999E+03 -0.10215347508E+03  0.36740096562E+03  0.00000000000E+00 0. -1.
         -3    1    6    6    0  503  0.34694874096E+03  0.37709795865E+03 -0.68735155970E+02  0.51701143212E+03  0.00000000000E+00 0.  1.
<mgrwt>
<rscale>  0 0.20522558E+04</rscale>
<asrwt>0</asrwt>
<pdfrwt beam="1">  1        1 0.30561726E+00 0.20522558E+04</pdfrwt>
<pdfrwt beam="2">  1       -2 0.81545199E-01 0.20522558E+04</pdfrwt>
<totfact> 0.32679105E+00</totfact>
</mgrwt>
</event>
<event>
12    4  0.4381187E-008  0.1293698E+04  0.7818608E-02  0.9034578E-01
          1   -1    0    0  501    0  0.00000000000E+00  0.00000000000E+00  0.14531765392E+03  0.14531765392E+03  0.00000000000E+00 0. -1.
         -2   -1    0    0    0  501 -0.00000000000E+00 -0.00000000000E+00 -0.28793041253E+04  0.28793041253E+04  0.00000000000E+00 0.  1.
        -24    2    1    2    0    0  0.31324166885E+03 -0.77540539085E+02 -0.81774994616E+03  0.88263964443E+03  0.78771118906E+02 0.  0.
        254    2    1    2    0    0 -0.31324166885E+03  0.77540539085E+02 -0.19162365252E+04  0.21419821348E+04  0.90110607968E+03 0.  0.
         23    2    4    4    0    0 -0.15558307479E+03 -0.33547062034E+03 -0.36798938485E+03  0.52926783731E+03  0.89227943919E+02 0.  0.
         23    2    4    4    0    0 -0.15765859406E+03  0.41301115942E+03 -0.15482471404E+04  0.16127142975E+04  0.91344116037E+02 0.  0.
          3    1    3    3  502    0  0.69035849281E+02 -0.40685131501E+02 -0.27304712985E+03  0.28456275851E+03  0.00000000000E+00 0. -1.
         -4    1    3    3    0  502  0.24420581957E+03 -0.36855407584E+02 -0.54470281631E+03  0.59807688593E+03  0.00000000000E+00 0.  1.
         11    1    5    5    0    0 -0.16940021022E+02  0.14157550660E+00 -0.12047273352E+02  0.20787523928E+02  0.00000000000E+00 0. -1.
        -11    1    5    5    0    0 -0.13864305377E+03 -0.33561219584E+03 -0.35594211150E+03  0.50848031338E+03  0.00000000000E+00 0.  1.
          1    1    6    6  503    0  0.85479494090E+01  0.61903412705E+02 -0.19033766381E+03  0.20033353740E+03  0.00000000000E+00 0. -1.
         -1    1    6    6    0  503 -0.16620654347E+03  0.35110774672E+03 -0.13579094765E+04  0.14123807601E+04  0.00000000000E+00 0.  1.
<mgrwt>
<rscale>  0 0.12936981E+04</rscale>
<asrwt>0</asrwt>
<pdfrwt beam="1">  1        1 0.22356563E-01 0.12936981E+04</pdfrwt>
<pdfrwt beam="2">  1       -2 0.44296985E+00 0.12936981E+04</pdfrwt>
<totfact> 0.76066501E-01</totfact>
</mgrwt>
</event>
<event>
12    4  0.4381187E-008  0.2537107E+04  0.7818608E-02  0.8389884E-01
         -2   -1    0    0    0  501 -0.00000000000E+00  0.00000000000E+00  0.80939165235E+03  0.80939165235E+03  0.00000000000E+00 0.  1.
          1   -1    0    0  501    0  0.00000000000E+00 -0.00000000000E+00 -0.19881947984E+04  0.19881947984E+04  0.00000000000E+00 0. -1.
        -24    2    1    2    0    0 -0.59815717006E+03 -0.57679319740E+03  0.33309528704E+03  0.89937958523E+03  0.86306288502E+02 0.  0.
        254    2    1    2    0    0  0.59815717006E+03  0.57679319740E+03 -0.15118984331E+04  0.18982068655E+04  0.79175124861E+03 0.  0.
         23    2    4    4    0    0 -0.61779215441E+02 -0.92587790348E+02 -0.28216558838E+02  0.13948753563E+03  0.79192348248E+02 0.  0.
         23    2    4    4    0    0  0.65993638550E+03  0.66938098775E+03 -0.14836818743E+04  0.17587193299E+04  0.90525342804E+02 0.  0.
          3    1    3    3  502    0 -0.25121859447E+03 -0.23144486523E+03  0.92257409617E+02  0.35382048765E+03  0.00000000000E+00 0. -1.
         -4    1    3    3    0  502 -0.34693857559E+03 -0.34534833217E+03  0.24083787742E+03  0.54555909759E+03  0.00000000000E+00 0.  1.
         11    1    5    5    0    0  0.36226613381E+01 -0.11879131004E+02 -0.33240714496E+02  0.35484962009E+02  0.00000000000E+00 0. -1.
        -11    1    5    5    0    0 -0.65401876779E+02 -0.80708659345E+02  0.50241556587E+01  0.10400257362E+03  0.00000000000E+00 0.  1.
          1    1    6    6  503    0  0.24382203986E+03  0.30859709547E+03 -0.64023212876E+03  0.75138441104E+03  0.00000000000E+00 0. -1.
         -1    1    6    6    0  503  0.41611434564E+03  0.36078389227E+03 -0.84344974550E+03  0.10073349189E+04  0.00000000000E+00 0.  1.
<mgrwt>
<rscale>  0 0.25371072E+04</rscale>
<asrwt>0</asrwt>
<pdfrwt beam="1">  1        1 0.30587612E+00 0.25371072E+04</pdfrwt>
<pdfrwt beam="2">  1       -2 0.12452179E+00 0.25371072E+04</pdfrwt>
<totfact> 0.11435685E+00</totfact>
</mgrwt>
</event>
<event>
12    4  0.4381187E-008  0.1193292E+04  0.7818608E-02  0.9118749E-01
         -2   -1    0    0    0  501 -0.00000000000E+00  0.00000000000E+00  0.12203837665E+03  0.12203837665E+03  0.00000000000E+00 0.  1.
          1   -1    0    0  501    0  0.00000000000E+00 -0.00000000000E+00 -0.29170025797E+04  0.29170025797E+04  0.00000000000E+00 0. -1.
        -24    2    1    2    0    0  0.17546935906E+03  0.15437055090E+03 -0.40440915730E+03  0.47393034893E+03  0.80271079334E+02 0.  0.
        254    2    1    2    0    0 -0.17546935906E+03 -0.15437055090E+03 -0.23905550458E+04  0.25651106075E+04  0.90023288018E+03 0.  0.
         23    2    4    4    0    0 -0.42253899204E+03 -0.37447465831E+03 -0.17051673160E+04  0.17985886500E+04  0.92493712884E+02 0.  0.
         23    2    4    4    0    0  0.24706963299E+03  0.22010410741E+03 -0.68538772979E+03  0.76652195743E+03  0.91161117967E+02 0.  0.
          3    1    3    3  502    0  0.28454707786E+02  0.68222000392E+02 -0.15687190745E+03  0.17341484100E+03  0.00000000000E+00 0. -1.
         -4    1    3    3    0  502  0.14701465127E+03  0.86148550511E+02 -0.24753724984E+03  0.30051550792E+03  0.00000000000E+00 0.  1.
         11    1    5    5    0    0 -0.93595941702E+02 -0.36484961792E+02 -0.29224645210E+03  0.30902967739E+03  0.00000000000E+00 0.  1.
        -11    1    5    5    0    0 -0.32894305034E+03 -0.33798969652E+03 -0.14129208639E+04  0.14895589726E+04  0.00000000000E+00 0. -1.
          4    1    6    6  503    0  0.17070255807E+03  0.92792901982E+02 -0.40820577260E+03  0.45208609664E+03  0.00000000000E+00 0. -1.
         -4    1    6    6    0  503  0.76367074922E+02  0.12731120543E+03 -0.27718195719E+03  0.31443586079E+03  0.00000000000E+00 0.  1.
<mgrwt>
<rscale>  0 0.11932917E+04</rscale>
<asrwt>0</asrwt>
<pdfrwt beam="1">  1        1 0.44876965E+00 0.11932917E+04</pdfrwt>
<pdfrwt beam="2">  1       -2 0.18775134E-01 0.11932917E+04</pdfrwt>
<totfact> 0.14429740E+01</totfact>
</mgrwt>
</event>
<event>
12    4  0.4381187E-008  0.3339240E+04  0.7818608E-02  0.8152982E-01
          1   -1    0    0  501    0  0.00000000000E+00  0.00000000000E+00  0.39208067364E+04  0.39208067364E+04  0.00000000000E+00 0. -1.
         -2   -1    0    0    0  501 -0.00000000000E+00 -0.00000000000E+00 -0.71098390438E+03  0.71098390438E+03  0.00000000000E+00 0.  1.
        -24    2    1    2    0    0  0.23240591756E+03 -0.85742431082E+03  0.32461482906E+04  0.33664817575E+04  0.80819179717E+02 0.  0.
        254    2    1    2    0    0 -0.23240591756E+03  0.85742431082E+03 -0.36325458620E+02  0.12653088832E+04  0.90027666399E+03 0.  0.
         23    2    4    4    0    0 -0.34328824290E+03  0.30600081445E+03 -0.37712508238E+03  0.60124222607E+03  0.88235879826E+02 0.  0.
         23    2    4    4    0    0  0.11088232534E+03  0.55142349637E+03  0.34079962376E+03  0.66406665715E+03  0.92072684138E+02 0.  0.
          1    1    3    3  502    0  0.16273385907E+03 -0.61365280140E+03  0.21768468892E+04  0.22675348837E+04  0.00000000000E+00 0. -1.
         -2    1    3    3    0  502  0.69672058493E+02 -0.24377150942E+03  0.10693014014E+04  0.10989468738E+04  0.00000000000E+00 0.  1.
         11    1    5    5    0    0 -0.17156826363E+03  0.94714408842E+02 -0.16045210325E+03  0.25328119900E+03  0.00000000000E+00 0. -1.
        -11    1    5    5    0    0 -0.17171997927E+03  0.21128640561E+03 -0.21667297913E+03  0.34796102707E+03  0.00000000000E+00 0.  1.
          3    1    6    6  503    0  0.12556710005E+03  0.50873752380E+03  0.32291216377E+03  0.61551054438E+03  0.00000000000E+00 0. -1.
         -3    1    6    6    0  503 -0.14684774706E+02  0.42685972569E+02  0.17887459997E+02  0.48556112772E+02  0.00000000000E+00 0.  1.
<mgrwt>
<rscale>  0 0.33392397E+04</rscale>
<asrwt>0</asrwt>
<pdfrwt beam="1">  1        1 0.60320102E+00 0.33392397E+04</pdfrwt>
<pdfrwt beam="2">  1       -2 0.10938214E+00 0.33392397E+04</pdfrwt>
<totfact> 0.54461819E-02</totfact>
</mgrwt>
</event>
<event>
12    4  0.4381187E-008  0.2425031E+04  0.7818608E-02  0.8430191E-01
          1   -1    0    0  501    0  0.00000000000E+00  0.00000000000E+00  0.64524509548E+03  0.64524509548E+03  0.00000000000E+00 0. -1.
         -4   -1    0    0    0  501 -0.00000000000E+00 -0.00000000000E+00 -0.22785041639E+04  0.22785041639E+04  0.00000000000E+00 0.  1.
        -24    2    1    2    0    0  0.22367103561E+03  0.91400074320E+03 -0.11531737096E+03  0.95142326395E+03  0.80511119677E+02 0.  0.
        254    2    1    2    0    0 -0.22367103561E+03 -0.91400074320E+03 -0.15179416975E+04  0.19723259954E+04  0.83695683558E+03 0.  0.
         23    2    4    4    0    0  0.98471581733E+02 -0.53555385360E+02  0.49938972781E+02  0.15282192347E+03  0.91081323991E+02 0.  0.
         23    2    4    4    0    0 -0.32214261734E+03 -0.86044535784E+03 -0.15678806702E+04  0.18195040720E+04  0.90571474744E+02 0.  0.
          3    1    3    3  502    0  0.58959921323E+01  0.89678739249E+01  0.66129409521E+01  0.12606207756E+02  0.00000000000E+00 0. -1.
         -4    1    3    3    0  502  0.21777504348E+03  0.90503286928E+03 -0.12193031191E+03  0.93881705619E+03  0.00000000000E+00 0.  1.
         11    1    5    5    0    0  0.52711004199E+02 -0.85316170346E+01  0.67690703289E+02  0.86216412385E+02  0.00000000000E+00 0.  1.
        -11    1    5    5    0    0  0.45760577534E+02 -0.45023768325E+02 -0.17751730508E+02  0.66605511082E+02  0.00000000000E+00 0. -1.
          3    1    6    6  503    0 -0.62956928311E+01 -0.87376657867E+02 -0.16750553612E+03  0.18903021113E+03  0.00000000000E+00 0. -1.
         -3    1    6    6    0  503 -0.31584692451E+03 -0.77306869998E+03 -0.14003751341E+04  0.16304738608E+04  0.00000000000E+00 0.  1.
<mgrwt>
<rscale>  0 0.24250308E+04</rscale>
<asrwt>0</asrwt>
<pdfrwt beam="1">  1        1 0.99268474E-01 0.24250308E+04</pdfrwt>
<pdfrwt beam="2">  1       -4 0.35053911E+00 0.24250308E+04</pdfrwt>
<totfact> 0.19314243E-01</totfact>
</mgrwt>
</event>
<event>
12    4  0.4381187E-008  0.1463546E+04  0.7818608E-02  0.8909063E-01
         -2   -1    0    0    0  501 -0.00000000000E+00  0.00000000000E+00  0.86787170499E+03  0.86787170499E+03  0.00000000000E+00 0.  1.
          1   -1    0    0  501    0  0.00000000000E+00 -0.00000000000E+00 -0.61701734594E+03  0.61701734594E+03  0.00000000000E+00 0. -1.
        -24    2    1    2    0    0 -0.20223815672E+03  0.17417050904E+03 -0.28974990400E+03  0.40148491304E+03  0.77456376629E+02 0.  0.
        254    2    1    2    0    0  0.20223815672E+03 -0.17417050904E+03  0.54060426305E+03  0.10834041379E+04  0.90015327501E+03 0.  0.
         23    2    4    4    0    0  0.38480993414E+03 -0.36541972683E+03  0.59113337194E+03  0.79979225204E+03  0.92837065976E+02 0.  0.
         23    2    4    4    0    0 -0.18257177743E+03  0.19124921779E+03 -0.50529108889E+02  0.28361188586E+03  0.89296101448E+02 0.  0.
          3    1    3    3  502    0 -0.81946719617E+02  0.65358692051E+02 -0.61689302551E+02  0.12162480640E+03  0.00000000000E+00 0. -1.
         -4    1    3    3    0  502 -0.12029143710E+03  0.10881181699E+03 -0.22806060145E+03  0.27986010664E+03  0.00000000000E+00 0.  1.
         11    1    5    5    0    0  0.11818156770E+03 -0.13981466670E+03  0.14705343477E+03  0.23481851853E+03  0.00000000000E+00 0.  1.
        -11    1    5    5    0    0  0.26662836644E+03 -0.22560506013E+03  0.44407993717E+03  0.56497373350E+03  0.00000000000E+00 0. -1.
          4    1    6    6  503    0 -0.19191017655E+03  0.17998366016E+03 -0.41336693016E+02  0.26633128990E+03  0.00000000000E+00 0. -1.
         -4    1    6    6    0  503  0.93383991267E+01  0.11265557628E+02 -0.91924158729E+01  0.17280595953E+02  0.00000000000E+00 0.  1.
<mgrwt>
<rscale>  0 0.14635462E+04</rscale>
<asrwt>0</asrwt>
<pdfrwt beam="1">  1        1 0.94925746E-01 0.14635462E+04</pdfrwt>
<pdfrwt beam="2">  1       -2 0.13351872E+00 0.14635462E+04</pdfrwt>
<totfact> 0.11324898E+01</totfact>
</mgrwt>
</event>
<event>
12    4  0.4381187E-008  0.1784325E+04  0.7818608E-02  0.8714680E-01
         -2   -1    0    0    0  501 -0.00000000000E+00  0.00000000000E+00  0.11603939200E+04  0.11603939200E+04  0.00000000000E+00 0.  1.
          1   -1    0    0  501    0  0.00000000000E+00 -0.00000000000E+00 -0.68593429203E+03  0.68593429203E+03  0.00000000000E+00 0. -1.
        -24    2    1    2    0    0 -0.56424930549E+03 -0.15109601151E+03  0.49653228870E+03  0.77079417731E+03  0.79825225347E+02 0.  0.
        254    2    1    2    0    0  0.56424930549E+03  0.15109601151E+03 -0.22072660770E+02  0.10755340347E+04  0.90281724285E+03 0.  0.
         23    2    4    4    0    0 -0.31494457072E+02 -0.31008362914E+02 -0.35026094896E+03  0.36546261788E+03  0.94481603021E+02 0.  0.
         23    2    4    4    0    0  0.59574376257E+03  0.18210437442E+03  0.32818828819E+03  0.71007141681E+03  0.91767263465E+02 0.  0.
          3    1    3    3  502    0 -0.12369231098E+03 -0.29639728482E+01  0.12352798808E+03  0.17483631422E+03  0.00000000000E+00 0. -1.
         -4    1    3    3    0  502 -0.44055699451E+03 -0.14813203866E+03  0.37300430062E+03  0.59595786308E+03  0.00000000000E+00 0.  1.
         11    1    5    5    0    0  0.22457992260E+02  0.17390192405E+01 -0.21528336747E+03  0.21645857320E+03  0.00000000000E+00 0.  1.
        -11    1    5    5    0    0 -0.53952449332E+02 -0.32747382154E+02 -0.13497758149E+03  0.14900404468E+03  0.00000000000E+00 0. -1.
          3    1    6    6  503    0  0.41644727846E+03  0.16732924973E+03  0.25184478784E+03  0.51463891294E+03  0.00000000000E+00 0. -1.
         -3    1    6    6    0  503  0.17929648410E+03  0.14775124697E+02  0.76343500348E+02  0.19543250387E+03  0.00000000000E+00 0.  1.
<mgrwt>
<rscale>  0 0.17843251E+04</rscale>
<asrwt>0</asrwt>
<pdfrwt beam="1">  1        1 0.10552835E+00 0.17843251E+04</pdfrwt>
<pdfrwt beam="2">  1       -2 0.17852214E+00 0.17843251E+04</pdfrwt>
<totfact> 0.43129212E+00</totfact>
</mgrwt>
</event>
<event>
12    4  0.4381187E-008  0.1629045E+04  0.7818608E-02  0.8802900E-01
         -2   -1    0    0    0  501 -0.00000000000E+00  0.00000000000E+00  0.85609249161E+03  0.85609249161E+03  0.00000000000E+00 0.  1.
          1   -1    0    0  501    0  0.00000000000E+00 -0.00000000000E+00 -0.77497141244E+03  0.77497141244E+03  0.00000000000E+00 0. -1.
        -24    2    1    2    0    0 -0.52728997865E+03 -0.17831357911E+03  0.95115925664E+02  0.57017138044E+03  0.78853723321E+02 0.  0.
        254    2    1    2    0    0  0.52728997865E+03  0.17831357911E+03 -0.13994846494E+02  0.10608925236E+04  0.90303191351E+03 0.  0.
         23    2    4    4    0    0  0.99347397685E+02  0.49965082209E+03  0.10831325916E+02  0.51736440594E+03  0.89597776036E+02 0.  0.
         23    2    4    4    0    0  0.42794258096E+03 -0.32133724297E+03 -0.24826172410E+02  0.54352811766E+03  0.91727855812E+02 0.  0.
          3    1    3    3  502    0 -0.39463919043E+03 -0.11347071198E+03  0.99287295392E+02  0.42246143034E+03  0.00000000000E+00 0. -1.
         -4    1    3    3    0  502 -0.13265078822E+03 -0.64842867137E+02 -0.41713697286E+01  0.14770995010E+03  0.00000000000E+00 0.  1.
         11    1    5    5    0    0  0.49046225060E+02  0.27121903597E+03 -0.38559379593E+02  0.27830221598E+03  0.00000000000E+00 0. -1.
        -11    1    5    5    0    0  0.50301172625E+02  0.22843178611E+03  0.49390705510E+02  0.23906218995E+03  0.00000000000E+00 0.  1.
          2    1    6    6  503    0  0.31770003868E+00 -0.13158986414E+02  0.80023609853E+01  0.15404468121E+02  0.00000000000E+00 0. -1.
         -2    1    6    6    0  503  0.42762488093E+03 -0.30817825656E+03 -0.32828533396E+02  0.52812364954E+03  0.00000000000E+00 0.  1.
<mgrwt>
<rscale>  0 0.16290454E+04</rscale>
<asrwt>0</asrwt>
<pdfrwt beam="1">  1        1 0.11922637E+00 0.16290454E+04</pdfrwt>
<pdfrwt beam="2">  1       -2 0.13170654E+00 0.16290454E+04</pdfrwt>
<totfact> 0.81922832E+00</totfact>
</mgrwt>
</event>
<event>
12    4  0.4381187E-008  0.1353435E+04  0.7818608E-02  0.8988232E-01
         -2   -1    0    0    0  501 -0.00000000000E+00  0.00000000000E+00  0.61305935548E+03  0.61305935548E+03  0.00000000000E+00 0.  1.
          1   -1    0    0  501    0  0.00000000000E+00 -0.00000000000E+00 -0.74698599068E+03  0.74698599068E+03  0.00000000000E+00 0. -1.
        -24    2    1    2    0    0  0.28203976066E+03 -0.37788290635E+02  0.20900375589E+03  0.36195217578E+03  0.79702108335E+02 0.  0.
        254    2    1    2    0    0 -0.28203976066E+03  0.37788290635E+02 -0.34293039109E+03  0.99809317038E+03  0.89309257197E+03 0.  0.
         23    2    4    4    0    0 -0.40456725838E+03 -0.12645478939E+02  0.17791772320E+03  0.45272915332E+03  0.97336505713E+02 0.  0.
         23    2    4    4    0    0  0.12252749772E+03  0.50433769574E+02 -0.52084811430E+03  0.54536401706E+03  0.92642323586E+02 0.  0.
          1    1    3    3  502    0  0.87925508226E+02  0.24895076286E+02  0.69942162494E+02  0.11507634820E+03  0.00000000000E+00 0. -1.
         -2    1    3    3    0  502  0.19411425243E+03 -0.62683366921E+02  0.13906159339E+03  0.24687582758E+03  0.00000000000E+00 0.  1.
         11    1    5    5    0    0 -0.34697463726E+03 -0.18162654448E+02  0.11207400446E+03  0.36507788676E+03  0.00000000000E+00 0. -1.
        -11    1    5    5    0    0 -0.57592621117E+02  0.55171755089E+01  0.65843718743E+02  0.87651266566E+02  0.00000000000E+00 0.  1.
          3    1    6    6  503    0  0.48525091095E+02 -0.40364238273E+01 -0.32970685422E+03  0.33328304323E+03  0.00000000000E+00 0. -1.
         -3    1    6    6    0  503  0.74002406626E+02  0.54470193401E+02 -0.19114126008E+03  0.21208097383E+03  0.00000000000E+00 0.  1.
<mgrwt>
<rscale>  0 0.13534353E+04</rscale>
<asrwt>0</asrwt>
<pdfrwt beam="1">  1        1 0.11492092E+00 0.13534353E+04</pdfrwt>
<pdfrwt beam="2">  1       -2 0.94316824E-01 0.13534353E+04</pdfrwt>
<totfact> 0.20025425E+01</totfact>
</mgrwt>
</event>
<event>
12    4  0.4381187E-008  0.1892374E+04  0.7818608E-02  0.8658661E-01
         -2   -1    0    0    0  501 -0.00000000000E+00  0.00000000000E+00  0.53869408078E+03  0.53869408078E+03  0.00000000000E+00 0.  1.
          1   -1    0    0  501    0  0.00000000000E+00 -0.00000000000E+00 -0.16619269944E+04  0.16619269944E+04  0.00000000000E+00 0. -1.
        -24    2    1    2    0    0  0.70606846989E+03  0.66048845717E+02 -0.56292637911E+03  0.90892415288E+03  0.79761351535E+02 0.  0.
        254    2    1    2    0    0 -0.70606846989E+03 -0.66048845717E+02 -0.56030653451E+03  0.12916969223E+04  0.92284472816E+03 0.  0.
         23    2    4    4    0    0  0.20414809044E+03  0.77629608402E+02 -0.87982761883E+02  0.25201792274E+03  0.89829104761E+02 0.  0.
         23    2    4    4    0    0 -0.91021656033E+03 -0.14367845412E+03 -0.47232377262E+03  0.10396789996E+04  0.93300541629E+02 0.  0.
          1    1    3    3  502    0  0.25088092613E+03  0.47013348908E+02 -0.24128288607E+03  0.35123912820E+03  0.00000000000E+00 0. -1.
         -2    1    3    3    0  502  0.45518754376E+03  0.19035496809E+02 -0.32164349304E+03  0.55768502468E+03  0.00000000000E+00 0.  1.
         11    1    5    5    0    0  0.33162469789E+02  0.51605471883E+02 -0.37289750999E+02  0.71787183120E+02  0.00000000000E+00 0. -1.
        -11    1    5    5    0    0  0.17098562065E+03  0.26024136520E+02 -0.50693010883E+02  0.18023073962E+03  0.00000000000E+00 0.  1.
          3    1    6    6  503    0 -0.21521957781E+02  0.10926944767E+02 -0.11274655731E+02  0.26640395090E+02  0.00000000000E+00 0. -1.
         -3    1    6    6    0  503 -0.88869460255E+03 -0.15460539889E+03 -0.46104911689E+03  0.10130386045E+04  0.00000000000E+00 0.  1.
<mgrwt>
<rscale>  0 0.18923744E+04</rscale>
<asrwt>0</asrwt>
<pdfrwt beam="1">  1        1 0.25568108E+00 0.18923744E+04</pdfrwt>
<pdfrwt beam="2">  1       -2 0.82876012E-01 0.18923744E+04</pdfrwt>
<totfact> 0.53075269E+00</totfact>
</mgrwt>
</event>
<event>
12    4  0.4381187E-008  0.1775641E+04  0.7818608E-02  0.8719361E-01
         -2   -1    0    0    0  501 -0.00000000000E+00  0.00000000000E+00  0.54567075558E+03  0.54567075558E+03  0.00000000000E+00 0.  1.
          1   -1    0    0  501    0  0.00000000000E+00 -0.00000000000E+00 -0.14445074317E+04  0.14445074317E+04  0.00000000000E+00 0. -1.
        -24    2    1    2    0    0  0.84299235182E+02 -0.56118411435E+03  0.30895106285E+02  0.57369981429E+03  0.78377280366E+02 0.  0.
        254    2    1    2    0    0 -0.84299235182E+02  0.56118411435E+03 -0.92973178239E+03  0.14164783730E+04  0.90552516400E+03 0.  0.
         23    2    4    4    0    0  0.14761608369E+03  0.84772788982E+02  0.12731832623E+03  0.22980771261E+03  0.87319497629E+02 0.  0.
         23    2    4    4    0    0 -0.23191531887E+03  0.47641132537E+03 -0.10570501086E+04  0.11866706604E+04  0.10039849571E+03 0.  0.
          1    1    3    3  502    0 -0.80778019576E+01 -0.14471273944E+03  0.24919033392E+02  0.14706456428E+03  0.00000000000E+00 0. -1.
         -2    1    3    3    0  502  0.92377037140E+02 -0.41647137491E+03  0.59760728933E+01  0.42663525002E+03  0.00000000000E+00 0.  1.
         11    1    5    5    0    0  0.35418489879E+02  0.23108800996E+02 -0.85256838689E+01  0.43141318874E+02  0.00000000000E+00 0.  1.
        -11    1    5    5    0    0  0.11219759381E+03  0.61663987986E+02  0.13584401010E+03  0.18666639374E+03  0.00000000000E+00 0. -1.
          1    1    6    6  503    0 -0.13166771293E+03  0.26395450069E+03 -0.69594591476E+03  0.75587636643E+03  0.00000000000E+00 0. -1.
         -1    1    6    6    0  503 -0.10024760594E+03  0.21245682467E+03 -0.36110419386E+03  0.43079429392E+03  0.00000000000E+00 0.  1.
<mgrwt>
<rscale>  0 0.17756412E+04</rscale>
<asrwt>0</asrwt>
<pdfrwt beam="1">  1        1 0.22223191E+00 0.17756412E+04</pdfrwt>
<pdfrwt beam="2">  1       -2 0.83949348E-01 0.17756412E+04</pdfrwt>
<totfact> 0.73537965E+00</totfact>
</mgrwt>
</event>
<event>
12    4  0.4381187E-008  0.1311019E+04  0.7818608E-02  0.9020872E-01
          1   -1    0    0  501    0  0.00000000000E+00  0.00000000000E+00  0.12502982632E+04  0.12502982632E+04  0.00000000000E+00 0. -1.
         -2   -1    0    0    0  501 -0.00000000000E+00 -0.00000000000E+00 -0.34367221335E+03  0.34367221335E+03  0.00000000000E+00 0.  1.
        -24    2    1    2    0    0 -0.64268552309E+02 -0.28258435013E+03  0.34511030572E+03  0.45752107377E+03  0.78993974990E+02 0.  0.
        254    2    1    2    0    0  0.64268552309E+02  0.28258435013E+03  0.56151574418E+03  0.11364494028E+04  0.94458083426E+03 0.  0.
         23    2    4    4    0    0 -0.22237107312E+03  0.32956527779E+03  0.69226392692E+03  0.80325433454E+03  0.89028169521E+02 0.  0.
         23    2    4    4    0    0  0.28663962543E+03 -0.46980927661E+02 -0.13074818274E+03  0.33319506827E+03  0.97746528348E+02 0.  0.
          1    1    3    3  502    0 -0.73636320468E+02 -0.25605134959E+03  0.33405103957E+03  0.42728760614E+03  0.00000000000E+00 0. -1.
         -2    1    3    3    0  502  0.93677681592E+01 -0.26533000538E+02  0.11059266143E+02  0.30233467639E+02  0.00000000000E+00 0.  1.
         11    1    5    5    0    0 -0.93808031334E+02  0.20851071917E+03  0.34887821246E+03  0.41712429068E+03  0.00000000000E+00 0. -1.
        -11    1    5    5    0    0 -0.12856304179E+03  0.12105455862E+03  0.34338571446E+03  0.38613004386E+03  0.00000000000E+00 0.  1.
          1    1    6    6  503    0  0.36777685791E+02 -0.42392438499E+02 -0.17155890496E+02  0.58685957373E+02  0.00000000000E+00 0. -1.
         -1    1    6    6    0  503  0.24986193964E+03 -0.45884891621E+01 -0.11359229224E+03  0.27450911090E+03  0.00000000000E+00 0.  1.
<mgrwt>
<rscale>  0 0.13110191E+04</rscale>
<asrwt>0</asrwt>
<pdfrwt beam="1">  1        1 0.19235358E+00 0.13110191E+04</pdfrwt>
<pdfrwt beam="2">  1       -2 0.52872649E-01 0.13110191E+04</pdfrwt>
<totfact> 0.28533136E+01</totfact>
</mgrwt>
</event>
<event>
12    4  0.4381187E-008  0.1510812E+04  0.7818608E-02  0.8877295E-01
         -2   -1    0    0    0  501 -0.00000000000E+00  0.00000000000E+00  0.39248012222E+03  0.39248012222E+03  0.00000000000E+00 0.  1.
          1   -1    0    0  501    0  0.00000000000E+00 -0.00000000000E+00 -0.14539295706E+04  0.14539295706E+04  0.00000000000E+00 0. -1.
        -24    2    1    2    0    0 -0.70190997712E+02  0.37094371081E+02 -0.91102890879E+03  0.91808226032E+03  0.81231739678E+02 0.  0.
        254    2    1    2    0    0  0.70190997712E+02 -0.37094371081E+02 -0.15042053961E+03  0.92832743252E+03  0.91261312434E+03 0.  0.
         23    2    4    4    0    0  0.37926044378E+03 -0.28984587809E+03 -0.17870871076E+03  0.51804283430E+03  0.92641554414E+02 0.  0.
         23    2    4    4    0    0 -0.30906944606E+03  0.25275150701E+03  0.28288171160E+02  0.41028459823E+03  0.90144240680E+02 0.  0.
          1    1    3    3  502    0 -0.66036099921E+02 -0.86398895763E+01 -0.59925664498E+03  0.60294605127E+03  0.00000000000E+00 0. -1.
         -2    1    3    3    0  502 -0.41548977915E+01  0.45734260657E+02 -0.31177226381E+03  0.31513620905E+03  0.00000000000E+00 0.  1.
         11    1    5    5    0    0  0.24684579403E+03 -0.21373162896E+03 -0.79952658809E+02  0.33616436887E+03  0.00000000000E+00 0. -1.
        -11    1    5    5    0    0  0.13241464974E+03 -0.76114249136E+02 -0.98756051956E+02  0.18187846543E+03  0.00000000000E+00 0.  1.
          3    1    6    6  503    0 -0.22121687787E+03  0.18164688820E+03 -0.20947617559E+02  0.28700400995E+03  0.00000000000E+00 0. -1.
         -3    1    6    6    0  503 -0.87852568194E+02  0.71104618808E+02  0.49235788718E+02  0.12328058827E+03  0.00000000000E+00 0.  1.
<mgrwt>
<rscale>  0 0.15108123E+04</rscale>
<asrwt>0</asrwt>
<pdfrwt beam="1">  1        1 0.22368147E+00 0.15108123E+04</pdfrwt>
<pdfrwt beam="2">  1       -2 0.60381557E-01 0.15108123E+04</pdfrwt>
<totfact> 0.15261643E+01</totfact>
</mgrwt>
</event>
<event>
12    4  0.4381187E-008  0.2410296E+04  0.7818608E-02  0.8435659E-01
          1   -1    0    0  501    0  0.00000000000E+00  0.00000000000E+00  0.15111390899E+04  0.15111390899E+04  0.00000000000E+00 0. -1.
         -2   -1    0    0    0  501 -0.00000000000E+00 -0.00000000000E+00 -0.96111715993E+03  0.96111715993E+03  0.00000000000E+00 0.  1.
        -24    2    1    2    0    0  0.99926820585E+03 -0.24772622302E+03  0.60740359637E+02  0.10345128678E+04  0.81377230514E+02 0.  0.
        254    2    1    2    0    0 -0.99926820585E+03  0.24772622302E+03  0.48928157037E+03  0.14377433820E+04  0.87624445714E+03 0.  0.
         23    2    4    4    0    0 -0.74868879305E+03  0.37180831885E+03 -0.29311618369E+02  0.84146336302E+03  0.91788264739E+02 0.  0.
         23    2    4    4    0    0 -0.25057941280E+03 -0.12408209583E+03  0.51859318874E+03  0.59628001900E+03  0.91785385707E+02 0.  0.
          1    1    3    3  502    0  0.61071663135E+02 -0.19979961946E+02 -0.15384236049E+02  0.66072850977E+02  0.00000000000E+00 0. -1.
         -2    1    3    3    0  502  0.93819654271E+03 -0.22774626107E+03  0.76124595686E+02  0.96844001686E+03  0.00000000000E+00 0.  1.
         11    1    5    5    0    0 -0.61919032182E+02  0.50124384185E+02 -0.23527058650E+02  0.83065895077E+02  0.00000000000E+00 0.  1.
        -11    1    5    5    0    0 -0.68676976086E+03  0.32168393466E+03 -0.57845597190E+01  0.75839746795E+03  0.00000000000E+00 0. -1.
          1    1    6    6  503    0 -0.25847317386E+03 -0.12010700384E+03  0.50791335677E+03  0.58241742073E+03  0.00000000000E+00 0. -1.
         -1    1    6    6    0  503  0.78937610650E+01 -0.39750919850E+01  0.10679831966E+02  0.13862598273E+02  0.00000000000E+00 0.  1.
<mgrwt>
<rscale>  0 0.24102960E+04</rscale>
<asrwt>0</asrwt>
<pdfrwt beam="1">  1        1 0.23248294E+00 0.24102960E+04</pdfrwt>
<pdfrwt beam="2">  1       -2 0.14786418E+00 0.24102960E+04</pdfrwt>
<totfact> 0.15723098E+00</totfact>
</mgrwt>
</event>
<event>
12    4  0.4381187E-008  0.1358459E+04  0.7818608E-02  0.8984449E-01
          1   -1    0    0  501    0  0.00000000000E+00  0.00000000000E+00  0.40524739593E+03  0.40524739593E+03  0.00000000000E+00 0. -1.
         -2   -1    0    0    0  501 -0.00000000000E+00 -0.00000000000E+00 -0.11384477643E+04  0.11384477643E+04  0.00000000000E+00 0.  1.
        -24    2    1    2    0    0 -0.85614878239E+02 -0.17698350564E+03 -0.56261438710E+03  0.60117291226E+03  0.78872385648E+02 0.  0.
        254    2    1    2    0    0  0.85614878239E+02  0.17698350564E+03 -0.17058598130E+03  0.94252224799E+03  0.90586728736E+03 0.  0.
         23    2    4    4    0    0 -0.12005670192E+03 -0.30947092674E+03 -0.21338056594E+03  0.40501042106E+03  0.91193799502E+02 0.  0.
         23    2    4    4    0    0  0.20567158015E+03  0.48645443239E+03  0.42794584642E+02  0.53751182694E+03  0.90271113608E+02 0.  0.
          1    1    3    3  502    0 -0.57003766637E+02 -0.45644159542E+02 -0.14321082677E+03  0.16075496762E+03  0.00000000000E+00 0. -1.
         -2    1    3    3    0  502 -0.28611111602E+02 -0.13133934610E+03 -0.41940356033E+03  0.44041794464E+03  0.00000000000E+00 0.  1.
         11    1    5    5    0    0 -0.10075238171E+03 -0.29044379887E+03 -0.16339145764E+03  0.34814567519E+03  0.00000000000E+00 0. -1.
        -11    1    5    5    0    0 -0.19304320207E+02 -0.19027127872E+02 -0.49989108301E+02  0.56864745866E+02  0.00000000000E+00 0.  1.
          4    1    6    6  503    0  0.12903032287E+03  0.38524612074E+03  0.54947023373E+02  0.40997874719E+03  0.00000000000E+00 0. -1.
         -4    1    6    6    0  503  0.76641257282E+02  0.10120831164E+03 -0.12152438730E+02  0.12753307975E+03  0.00000000000E+00 0.  1.
<mgrwt>
<rscale>  0 0.13584594E+04</rscale>
<asrwt>0</asrwt>
<pdfrwt beam="1">  1        1 0.62345754E-01 0.13584594E+04</pdfrwt>
<pdfrwt beam="2">  1       -2 0.17514581E+00 0.13584594E+04</pdfrwt>
<totfact> 0.98680833E+00</totfact>
</mgrwt>
</event>
<event>
12    4  0.4381187E-008  0.2508233E+04  0.7818608E-02  0.8400058E-01
          1   -1    0    0  501    0  0.00000000000E+00  0.00000000000E+00  0.10935000877E+04  0.10935000877E+04  0.00000000000E+00 0. -1.
         -2   -1    0    0    0  501 -0.00000000000E+00 -0.00000000000E+00 -0.14383243501E+04  0.14383243501E+04  0.00000000000E+00 0.  1.
        -24    2    1    2    0    0 -0.11613654816E+03 -0.14544649333E+03 -0.12339361504E+04  0.12504082117E+04  0.79245771378E+02 0.  0.
        254    2    1    2    0    0  0.11613654816E+03  0.14544649333E+03  0.88911188802E+03  0.12814162261E+04  0.90380596081E+03 0.  0.
         23    2    4    4    0    0  0.20393706824E+03 -0.20500201132E+03 -0.17294532489E+02  0.30186716729E+03  0.84903082327E+02 0.  0.
         23    2    4    4    0    0 -0.87800520074E+02  0.35044850464E+03  0.90640642051E+03  0.97954905879E+03  0.86143332327E+02 0.  0.
          3    1    3    3  502    0 -0.79819888234E+01  0.56645313342E+01 -0.17627044361E+03  0.17654197334E+03  0.00000000000E+00 0. -1.
         -4    1    3    3    0  502 -0.10815455934E+03 -0.15111102466E+03 -0.10576657068E+04  0.10738662383E+04  0.00000000000E+00 0.  1.
         11    1    5    5    0    0  0.21228006549E+02 -0.59609756280E+02  0.17831980660E+02  0.65741393658E+02  0.00000000000E+00 0.  1.
        -11    1    5    5    0    0  0.18270906169E+03 -0.14539225504E+03 -0.35126513148E+02  0.23612577363E+03  0.00000000000E+00 0. -1.
          2    1    6    6  503    0 -0.44134603072E+02  0.24069984668E+03  0.70250319079E+03  0.74390524426E+03  0.00000000000E+00 0. -1.
         -2    1    6    6    0  503 -0.43665917003E+02  0.10974865796E+03  0.20390322972E+03  0.23564381452E+03  0.00000000000E+00 0.  1.
<mgrwt>
<rscale>  0 0.25082327E+04</rscale>
<asrwt>0</asrwt>
<pdfrwt beam="1">  1        1 0.16823078E+00 0.25082327E+04</pdfrwt>
<pdfrwt beam="2">  1       -2 0.22128067E+00 0.25082327E+04</pdfrwt>
<totfact> 0.96865741E-01</totfact>
</mgrwt>
</event>
<event>
12    4  0.4381187E-008  0.3051181E+04  0.7818608E-02  0.8229265E-01
          1   -1    0    0  501    0  0.00000000000E+00  0.00000000000E+00  0.22853106544E+04  0.22853106544E+04  0.00000000000E+00 0. -1.
         -2   -1    0    0    0  501 -0.00000000000E+00 -0.00000000000E+00 -0.10184287961E+04  0.10184287961E+04  0.00000000000E+00 0.  1.
        -24    2    1    2    0    0  0.52227128094E+03 -0.75280191051E+02  0.19732657591E+04  0.20444243876E+04  0.86365052463E+02 0.  0.
        254    2    1    2    0    0 -0.52227128094E+03  0.75280191051E+02 -0.70638390083E+03  0.12593150629E+04  0.89914504621E+03 0.  0.
         23    2    4    4    0    0 -0.26251993341E+03 -0.70267110349E+02  0.16737504046E+03  0.33174467359E+03  0.90476196028E+02 0.  0.
         23    2    4    4    0    0 -0.25975134753E+03  0.14554730140E+03 -0.87375894130E+03  0.92757038927E+03  0.90979998212E+02 0.  0.
          1    1    3    3  502    0  0.21748960868E+03 -0.55302215924E+02  0.97417101135E+03  0.99968456241E+03  0.00000000000E+00 0. -1.
         -2    1    3    3    0  502  0.30478167226E+03 -0.19977975127E+02  0.99909474779E+03  0.10447398252E+04  0.00000000000E+00 0.  1.
         11    1    5    5    0    0 -0.24686351379E+03 -0.59674597986E+02  0.17792518968E+03  0.31009679974E+03  0.00000000000E+00 0.  1.
        -11    1    5    5    0    0 -0.15656419625E+02 -0.10592512362E+02 -0.10550149220E+02  0.21647873849E+02  0.00000000000E+00 0. -1.
          3    1    6    6  503    0 -0.63226420036E+02 -0.25415334354E+01 -0.13965481366E+03  0.15332157892E+03  0.00000000000E+00 0. -1.
         -3    1    6    6    0  503 -0.19652492749E+03  0.14808883483E+03 -0.73410412763E+03  0.77424881035E+03  0.00000000000E+00 0.  1.
<mgrwt>
<rscale>  0 0.30511809E+04</rscale>
<asrwt>0</asrwt>
<pdfrwt beam="1">  1        1 0.35158625E+00 0.30511809E+04</pdfrwt>
<pdfrwt beam="2">  1       -2 0.15668135E+00 0.30511809E+04</pdfrwt>
<totfact> 0.37848073E-01</totfact>
</mgrwt>
</event>
<event>
12    4  0.4381187E-008  0.1267779E+04  0.7818608E-02  0.9055515E-01
         -2   -1    0    0    0  501 -0.00000000000E+00  0.00000000000E+00  0.53894990088E+03  0.53894990088E+03  0.00000000000E+00 0.  1.
          1   -1    0    0  501    0  0.00000000000E+00 -0.00000000000E+00 -0.74555298425E+03  0.74555298425E+03  0.00000000000E+00 0. -1.
        -24    2    1    2    0    0 -0.67201667598E+02 -0.31983014599E+03  0.51556437332E+02  0.33933582484E+03  0.75387992242E+02 0.  0.
        254    2    1    2    0    0  0.67201667598E+02  0.31983014599E+03 -0.25815952070E+03  0.94516706029E+03  0.84846157681E+03 0.  0.
         23    2    4    4    0    0 -0.56627287815E+02  0.57459869010E+03 -0.28001552320E+03  0.64709987335E+03  0.83422110198E+02 0.  0.
         23    2    4    4    0    0  0.12382895541E+03 -0.25476854410E+03  0.21856002506E+02  0.29806718694E+03  0.90142896676E+02 0.  0.
          3    1    3    3  502    0 -0.28417410644E+02 -0.15758824014E+03 -0.12567283278E+02  0.16062234983E+03  0.00000000000E+00 0. -1.
         -4    1    3    3    0  502 -0.38784256954E+02 -0.16224190586E+03  0.64123720610E+02  0.17871347501E+03  0.00000000000E+00 0.  1.
         11    1    5    5    0    0 -0.77382492173E+02  0.47571835628E+03 -0.22262706439E+03  0.53090377132E+03  0.00000000000E+00 0.  1.
        -11    1    5    5    0    0  0.20755204359E+02  0.98880333819E+02 -0.57388458809E+02  0.11619610204E+03  0.00000000000E+00 0. -1.
          1    1    6    6  503    0 -0.13909094469E+01 -0.32361888144E+02  0.27914937408E+02  0.42760614633E+02  0.00000000000E+00 0. -1.
         -1    1    6    6    0  503  0.12521986486E+03 -0.22240665596E+03 -0.60589349012E+01  0.25530657231E+03  0.00000000000E+00 0.  1.
<mgrwt>
<rscale>  0 0.12677787E+04</rscale>
<asrwt>0</asrwt>
<pdfrwt beam="1">  1        1 0.11470046E+00 0.12677787E+04</pdfrwt>
<pdfrwt beam="2">  1       -2 0.82915369E-01 0.12677787E+04</pdfrwt>
<totfact> 0.27193048E+01</totfact>
</mgrwt>
</event>
<event>
12    4  0.4381187E-008  0.1458966E+04  0.7818608E-02  0.8912208E-01
          1   -1    0    0  501    0  0.00000000000E+00  0.00000000000E+00  0.76069171305E+03  0.76069171305E+03  0.00000000000E+00 0. -1.
         -2   -1    0    0    0  501 -0.00000000000E+00 -0.00000000000E+00 -0.69955424634E+03  0.69955424634E+03  0.00000000000E+00 0.  1.
        -24    2    1    2    0    0  0.20068722318E+03 -0.89674553657E+02 -0.39420104424E+03  0.45743502242E+03  0.74400600369E+02 0.  0.
        254    2    1    2    0    0 -0.20068722318E+03  0.89674553657E+02  0.45533851095E+03  0.10028109370E+04  0.86601370002E+03 0.  0.
         23    2    4    4    0    0  0.25670675529E+03  0.25469280809E+03  0.31748381828E+03  0.48958283007E+03  0.90158681952E+02 0.  0.
         23    2    4    4    0    0 -0.45739397847E+03 -0.16501825443E+03  0.13785469267E+03  0.51322810689E+03  0.89212653670E+02 0.  0.
          1    1    3    3  502    0  0.52091749208E+01  0.85867708535E+01 -0.56552029091E+01  0.11526033879E+02  0.00000000000E+00 0. -1.
         -2    1    3    3    0  502  0.19547804826E+03 -0.98261324510E+02 -0.38854584133E+03  0.44590898854E+03  0.00000000000E+00 0.  1.
         11    1    5    5    0    0  0.20775982139E+03  0.17530211746E+03  0.27637835814E+03  0.38765960922E+03  0.00000000000E+00 0. -1.
        -11    1    5    5    0    0  0.48946933893E+02  0.79390690631E+02  0.41105460141E+02  0.10192322086E+03  0.00000000000E+00 0.  1.
          3    1    6    6  503    0 -0.31088931909E+03 -0.67127950796E+02  0.83413693343E+02  0.32881024123E+03  0.00000000000E+00 0. -1.
         -3    1    6    6    0  503 -0.14650465938E+03 -0.97890303638E+02  0.54440999325E+02  0.18441786566E+03  0.00000000000E+00 0.  1.
<mgrwt>
<rscale>  0 0.14589655E+04</rscale>
<asrwt>0</asrwt>
<pdfrwt beam="1">  1        1 0.11702950E+00 0.14589655E+04</pdfrwt>
<pdfrwt beam="2">  1       -2 0.10762373E+00 0.14589655E+04</pdfrwt>
<totfact> 0.14104398E+01</totfact>
</mgrwt>
</event>
<event>
12    4  0.4381187E-008  0.2140954E+04  0.7818608E-02  0.8543415E-01
         -2   -1    0    0    0  501 -0.00000000000E+00  0.00000000000E+00  0.54445218140E+03  0.54445218140E+03  0.00000000000E+00 0.  1.
          1   -1    0    0  501    0  0.00000000000E+00 -0.00000000000E+00 -0.21047219965E+04  0.21047219965E+04  0.00000000000E+00 0. -1.
        -24    2    1    2    0    0  0.84440783923E+03  0.17701738130E+03 -0.45003195642E+03  0.97636479524E+03  0.79998120820E+02 0.  0.
        254    2    1    2    0    0 -0.84440783923E+03 -0.17701738130E+03 -0.11102378587E+04  0.16728093827E+04  0.90625789687E+03 0.  0.
         23    2    4    4    0    0 -0.20391067044E+03 -0.39460268954E+03 -0.80711199788E+03  0.92588652433E+03  0.92440438682E+02 0.  0.
         23    2    4    4    0    0 -0.64049716880E+03  0.21758530824E+03 -0.30312586082E+03  0.74692285835E+03  0.91806749345E+02 0.  0.
          1    1    3    3  502    0  0.30909553294E+02  0.65286648544E+01 -0.35620818037E+02  0.47611622817E+02  0.00000000000E+00 0. -1.
         -2    1    3    3    0  502  0.81349828594E+03  0.17048871645E+03 -0.41441113838E+03  0.92875317242E+03  0.00000000000E+00 0.  1.
         11    1    5    5    0    0 -0.13431566989E+03 -0.32119681520E+03 -0.56724690567E+03  0.66556528250E+03  0.00000000000E+00 0. -1.
        -11    1    5    5    0    0 -0.69595000549E+02 -0.73405874340E+02 -0.23986509220E+03  0.26032124183E+03  0.00000000000E+00 0.  1.
          1    1    6    6  503    0 -0.52898885965E+03  0.14291330552E+03 -0.23207277695E+03  0.59507243284E+03  0.00000000000E+00 0. -1.
         -1    1    6    6    0  503 -0.11150830915E+03  0.74672002713E+02 -0.71053083872E+02  0.15185042551E+03  0.00000000000E+00 0.  1.
<mgrwt>
<rscale>  0 0.21409535E+04</rscale>
<asrwt>0</asrwt>
<pdfrwt beam="1">  1        1 0.32380338E+00 0.21409535E+04</pdfrwt>
<pdfrwt beam="2">  1       -2 0.83761876E-01 0.21409535E+04</pdfrwt>
<totfact> 0.25369270E+00</totfact>
</mgrwt>
</event>
<event>
12    4  0.4381187E-008  0.1690010E+04  0.7818608E-02  0.8767083E-01
         -2   -1    0    0    0  501 -0.00000000000E+00  0.00000000000E+00  0.38909709040E+03  0.38909709040E+03  0.00000000000E+00 0.  1.
          1   -1    0    0  501    0  0.00000000000E+00 -0.00000000000E+00 -0.18351025878E+04  0.18351025878E+04  0.00000000000E+00 0. -1.
        -24    2    1    2    0    0 -0.16165174563E+03 -0.25579676894E+03  0.15395288349E+03  0.34884325817E+03  0.80167665366E+02 0.  0.
        254    2    1    2    0    0  0.16165174563E+03  0.25579676894E+03 -0.15999583809E+04  0.18753564201E+04  0.93033951206E+03 0.  0.
         23    2    4    4    0    0  0.98029701992E+02  0.41277154997E+03 -0.22834405043E+03  0.49029946740E+03  0.90897675607E+02 0.  0.
         23    2    4    4    0    0  0.63622043637E+02 -0.15697478103E+03 -0.13716143305E+04  0.13850569526E+04  0.91477014405E+02 0.  0.
          3    1    3    3  502    0 -0.12335408798E+02  0.11472367339E+01 -0.30234720202E+01  0.12752248641E+02  0.00000000000E+00 0. -1.
         -4    1    3    3    0  502 -0.14931633683E+03 -0.25694400568E+03  0.15697635551E+03  0.33609100953E+03  0.00000000000E+00 0.  1.
         11    1    5    5    0    0  0.59930438432E+02  0.85903029742E+02 -0.51748416743E+02  0.11682844947E+03  0.00000000000E+00 0.  1.
        -11    1    5    5    0    0  0.38099263559E+02  0.32686852023E+03 -0.17659563368E+03  0.37347101793E+03  0.00000000000E+00 0. -1.
          4    1    6    6  503    0  0.77913865796E+02 -0.15948315693E+03 -0.12913508670E+04  0.13034924279E+04  0.00000000000E+00 0. -1.
         -4    1    6    6    0  503 -0.14291822159E+02  0.25083759018E+01 -0.80263463458E+02  0.81564524743E+02  0.00000000000E+00 0.  1.
<mgrwt>
<rscale>  0 0.16900096E+04</rscale>
<asrwt>0</asrwt>
<pdfrwt beam="1">  1        1 0.28232348E+00 0.16900096E+04</pdfrwt>
<pdfrwt beam="2">  1       -2 0.59861090E-01 0.16900096E+04</pdfrwt>
<totfact> 0.83921653E+00</totfact>
</mgrwt>
</event>
<event>
12    4  0.4381187E-008  0.1628390E+04  0.7818608E-02  0.8803295E-01
         -2   -1    0    0    0  501 -0.00000000000E+00  0.00000000000E+00  0.37933759933E+03  0.37933759933E+03  0.00000000000E+00 0.  1.
          1   -1    0    0  501    0  0.00000000000E+00 -0.00000000000E+00 -0.17475545212E+04  0.17475545212E+04  0.00000000000E+00 0. -1.
        -24    2    1    2    0    0  0.12865270899E+02  0.33006331923E+03  0.12621111314E+03  0.36299739990E+03  0.82039974126E+02 0.  0.
        254    2    1    2    0    0 -0.12865270899E+02 -0.33006331923E+03 -0.14944280350E+04  0.17638947206E+04  0.87687064254E+03 0.  0.
         23    2    4    4    0    0  0.25315764736E+03 -0.52615554159E+03 -0.98665763605E+03  0.11502467180E+04  0.92982649413E+02 0.  0.
         23    2    4    4    0    0 -0.26602291825E+03  0.19609222236E+03 -0.50777039892E+03  0.61364800261E+03  0.97533278357E+02 0.  0.
          3    1    3    3  502    0  0.19754289928E+02  0.38081881499E+02  0.39548229656E+02  0.58348300215E+02  0.00000000000E+00 0. -1.
         -4    1    3    3    0  502 -0.68890190289E+01  0.29198143773E+03  0.86662883485E+02  0.30464909968E+03  0.00000000000E+00 0.  1.
         11    1    5    5    0    0  0.14028603047E+03 -0.27890586302E+03 -0.43702735797E+03  0.53708617780E+03  0.00000000000E+00 0. -1.
        -11    1    5    5    0    0  0.11287161689E+03 -0.24724967857E+03 -0.54963027808E+03  0.61316054019E+03  0.00000000000E+00 0.  1.
          2    1    6    6  503    0 -0.11781632306E+03  0.78030908940E+02 -0.30487293613E+03  0.33603127222E+03  0.00000000000E+00 0. -1.
         -2    1    6    6    0  503 -0.14820659519E+03  0.11806131342E+03 -0.20289746279E+03  0.27761673039E+03  0.00000000000E+00 0.  1.
<mgrwt>
<rscale>  0 0.16283896E+04</rscale>
<asrwt>0</asrwt>
<pdfrwt beam="1">  1        1 0.26885454E+00 0.16283896E+04</pdfrwt>
<pdfrwt beam="2">  1       -2 0.58359632E-01 0.16283896E+04</pdfrwt>
<totfact> 0.10206481E+01</totfact>
</mgrwt>
</event>
<event>
12    4  0.4381187E-008  0.1109046E+04  0.7818608E-02  0.9196419E-01
         -2   -1    0    0    0  501 -0.00000000000E+00  0.00000000000E+00  0.47331305635E+03  0.47331305635E+03  0.00000000000E+00 0.  1.
          1   -1    0    0  501    0  0.00000000000E+00 -0.00000000000E+00 -0.64966691276E+03  0.64966691276E+03  0.00000000000E+00 0. -1.
        -24    2    1    2    0    0  0.57236136493E+01 -0.11114442767E+03  0.13715250204E+03  0.18858508282E+03  0.66088433889E+02 0.  0.
        254    2    1    2    0    0 -0.57236136492E+01  0.11114442767E+03 -0.31350635844E+03  0.93439488629E+03  0.87316763750E+03 0.  0.
         23    2    4    4    0    0 -0.12095694174E+03 -0.34548206568E+03 -0.24611299269E+03  0.45033758456E+03  0.90795899873E+02 0.  0.
         23    2    4    4    0    0  0.11523332809E+03  0.45662649335E+03 -0.67393365750E+02  0.48405730173E+03  0.89348370342E+02 0.  0.
          1    1    3    3  502    0  0.13845390482E+02 -0.39396805246E+01  0.44122209976E+02  0.46411047536E+02  0.00000000000E+00 0. -1.
         -2    1    3    3    0  502 -0.81217768330E+01 -0.10720474715E+03  0.93030292059E+02  0.14217403529E+03  0.00000000000E+00 0.  1.
         11    1    5    5    0    0 -0.10503777247E+03 -0.31238957812E+03 -0.18209582816E+03  0.37653561956E+03  0.00000000000E+00 0. -1.
        -11    1    5    5    0    0 -0.15919169272E+02 -0.33092487557E+02 -0.64017164532E+02  0.73801964999E+02  0.00000000000E+00 0.  1.
          3    1    6    6  503    0  0.74667070299E+02  0.38934836355E+03 -0.80156162688E+02  0.40446548679E+03  0.00000000000E+00 0. -1.
         -3    1    6    6    0  503  0.40566257791E+02  0.67278129797E+02  0.12762796938E+02  0.79591814943E+02  0.00000000000E+00 0.  1.
<mgrwt>
<rscale>  0 0.11090461E+04</rscale>
<asrwt>0</asrwt>
<pdfrwt beam="1">  1        1 0.99948755E-01 0.11090461E+04</pdfrwt>
<pdfrwt beam="2">  1       -2 0.72817394E-01 0.11090461E+04</pdfrwt>
<totfact> 0.45320066E+01</totfact>
</mgrwt>
</event>
<event>
12    4  0.4381187E-008  0.1438525E+04  0.7818608E-02  0.8926395E-01
          1   -1    0    0  501    0  0.00000000000E+00  0.00000000000E+00  0.48918759885E+03  0.48918759885E+03  0.00000000000E+00 0. -1.
         -2   -1    0    0    0  501 -0.00000000000E+00 -0.00000000000E+00 -0.10575459286E+04  0.10575459286E+04  0.00000000000E+00 0.  1.
        -24    2    1    2    0    0  0.28664298375E+03  0.60559933729E+02  0.14974300700E+03  0.33932932804E+03  0.83004331283E+02 0.  0.
        254    2    1    2    0    0 -0.28664298375E+03 -0.60559933729E+02 -0.71810133679E+03  0.12074041994E+04  0.92537757982E+03 0.  0.
         23    2    4    4    0    0 -0.55034371342E+03  0.17288455608E+03 -0.56745893993E+03  0.81443736085E+03  0.92365002085E+02 0.  0.
         23    2    4    4    0    0  0.26370072967E+03 -0.23344448981E+03 -0.15064239686E+03  0.39296683859E+03  0.87723428189E+02 0.  0.
          1    1    3    3  502    0  0.18510241592E+03  0.42489597427E+02  0.13958321090E+03  0.23569417267E+03  0.00000000000E+00 0. -1.
         -2    1    3    3    0  502  0.10154056784E+03  0.18070336303E+02  0.10159796108E+02  0.10363515536E+03  0.00000000000E+00 0.  1.
         11    1    5    5    0    0 -0.34218519938E+03  0.14891558946E+03 -0.33511081750E+03  0.50156337931E+03  0.00000000000E+00 0.  1.
        -11    1    5    5    0    0 -0.20815851404E+03  0.23968966619E+02 -0.23234812243E+03  0.31287398154E+03  0.00000000000E+00 0. -1.
          1    1    6    6  503    0  0.25005654957E+03 -0.19211514504E+03 -0.11160918295E+03  0.33450428496E+03  0.00000000000E+00 0. -1.
         -1    1    6    6    0  503  0.13644180097E+02 -0.41329344770E+02 -0.39033213904E+02  0.58462553633E+02  0.00000000000E+00 0.  1.
<mgrwt>
<rscale>  0 0.14385247E+04</rscale>
<asrwt>0</asrwt>
<pdfrwt beam="1">  1        1 0.75259632E-01 0.14385247E+04</pdfrwt>
<pdfrwt beam="2">  1       -2 0.16269937E+00 0.14385247E+04</pdfrwt>
<totfact> 0.93352349E+00</totfact>
</mgrwt>
</event>
<event>
12    4  0.4381187E-008  0.1722687E+04  0.7818608E-02  0.8748530E-01
         -2   -1    0    0    0  501 -0.00000000000E+00  0.00000000000E+00  0.49512857997E+03  0.49512857997E+03  0.00000000000E+00 0.  1.
          1   -1    0    0  501    0  0.00000000000E+00 -0.00000000000E+00 -0.14984234972E+04  0.14984234972E+04  0.00000000000E+00 0. -1.
        -24    2    1    2    0    0 -0.45227716781E+03 -0.43000504338E+03 -0.40661699063E+03  0.74917830481E+03  0.80447383253E+02 0.  0.
        254    2    1    2    0    0  0.45227716781E+03  0.43000504338E+03 -0.59667792664E+03  0.12443737724E+04  0.89609294355E+03 0.  0.
         23    2    4    4    0    0  0.28461156748E+03 -0.23148615813E+03 -0.91618780441E+02  0.39039260363E+03  0.97071099163E+02 0.  0.
         23    2    4    4    0    0  0.16766560032E+03  0.66149120150E+03 -0.50505914620E+03  0.85398116878E+03  0.92286143455E+02 0.  0.
          3    1    3    3  502    0 -0.34631874561E+03 -0.31934641164E+03 -0.34563968321E+03  0.58428211918E+03  0.00000000000E+00 0. -1.
         -4    1    3    3    0  502 -0.10595842220E+03 -0.11065863174E+03 -0.60977307423E+02  0.16489618562E+03  0.00000000000E+00 0.  1.
         11    1    5    5    0    0  0.28289979412E+03 -0.21251268029E+03 -0.10260108408E+03  0.36840319658E+03  0.00000000000E+00 0.  1.
        -11    1    5    5    0    0  0.17117733621E+01 -0.18973477836E+02  0.10982303639E+02  0.21989407051E+02  0.00000000000E+00 0. -1.
          1    1    6    6  503    0  0.13772025828E+03  0.40440389889E+03 -0.34988551037E+03  0.55220399614E+03  0.00000000000E+00 0. -1.
         -1    1    6    6    0  503  0.29945342045E+02  0.25708730261E+03 -0.15517363583E+03  0.30177717265E+03  0.00000000000E+00 0.  1.
<mgrwt>
<rscale>  0 0.17226866E+04</rscale>
<asrwt>0</asrwt>
<pdfrwt beam="1">  1        1 0.23052669E+00 0.17226866E+04</pdfrwt>
<pdfrwt beam="2">  1       -2 0.76173629E-01 0.17226866E+04</pdfrwt>
<totfact> 0.84320628E+00</totfact>
</mgrwt>
</event>
<event>
12    4  0.4381187E-008  0.2861003E+04  0.7818608E-02  0.8284576E-01
         -2   -1    0    0    0  501 -0.00000000000E+00  0.00000000000E+00  0.12556956317E+04  0.12556956317E+04  0.00000000000E+00 0.  1.
          1   -1    0    0  501    0  0.00000000000E+00 -0.00000000000E+00 -0.16296418264E+04  0.16296418264E+04  0.00000000000E+00 0. -1.
        -24    2    1    2    0    0 -0.12538364163E+04 -0.29659426839E+03 -0.16466360124E+03  0.13012864791E+04  0.78475984548E+02 0.  0.
        254    2    1    2    0    0  0.12538364163E+04  0.29659426839E+03 -0.20928259353E+03  0.15840509790E+04  0.89740981777E+03 0.  0.
         23    2    4    4    0    0  0.72019606739E+03 -0.13422323302E+03 -0.43436534855E+03  0.85656675712E+03  0.91296777748E+02 0.  0.
         23    2    4    4    0    0  0.53364034895E+03  0.43081750142E+03  0.22508275502E+03  0.72748422184E+03  0.90527923148E+02 0.  0.
          3    1    3    3  502    0 -0.11359544400E+04 -0.27695160367E+03 -0.17071906126E+03  0.11816258622E+04  0.00000000000E+00 0. -1.
         -4    1    3    3    0  502 -0.11788197638E+03 -0.19642664719E+02  0.60554600194E+01  0.11966061686E+03  0.00000000000E+00 0.  1.
         11    1    5    5    0    0  0.20460380225E+03 -0.80338872527E+02 -0.12470057902E+03  0.25271977513E+03  0.00000000000E+00 0.  1.
        -11    1    5    5    0    0  0.51559226514E+03 -0.53884360495E+02 -0.30966476953E+03  0.60384698200E+03  0.00000000000E+00 0. -1.
          4    1    6    6  503    0  0.23601570466E+03  0.19195858336E+03  0.14734489125E+03  0.33802666692E+03  0.00000000000E+00 0. -1.
         -4    1    6    6    0  503  0.29762464429E+03  0.23885891806E+03  0.77737863771E+02  0.38945755492E+03  0.00000000000E+00 0.  1.
<mgrwt>
<rscale>  0 0.28610027E+04</rscale>
<asrwt>0</asrwt>
<pdfrwt beam="1">  1        1 0.25071413E+00 0.28610027E+04</pdfrwt>
<pdfrwt beam="2">  1       -2 0.19318394E+00 0.28610027E+04</pdfrwt>
<totfact> 0.59453035E-01</totfact>
</mgrwt>
</event>
<event>
12    4  0.4381187E-008  0.1135900E+04  0.7818608E-02  0.9170891E-01
          1   -1    0    0  501    0  0.00000000000E+00  0.00000000000E+00  0.41220028535E+03  0.41220028535E+03  0.00000000000E+00 0. -1.
         -2   -1    0    0    0  501 -0.00000000000E+00 -0.00000000000E+00 -0.78254990661E+03  0.78254990661E+03  0.00000000000E+00 0.  1.
        -24    2    1    2    0    0 -0.12889493213E+03  0.14793832881E+03 -0.35187856861E+02  0.21407603114E+03  0.78042995708E+02 0.  0.
        254    2    1    2    0    0  0.12889493213E+03 -0.14793832881E+03 -0.33516176440E+03  0.98067416081E+03  0.90049361392E+03 0.  0.
         23    2    4    4    0    0  0.45459559194E+03 -0.25319816542E+03 -0.33785693420E+03  0.62669344234E+03  0.88492369757E+02 0.  0.
         23    2    4    4    0    0 -0.32570065981E+03  0.10525983661E+03  0.26951698024E+01  0.35398071847E+03  0.90191640984E+02 0.  0.
          1    1    3    3  502    0 -0.10018655919E+03  0.87663448726E+02  0.99348905837E+01  0.13349505210E+03  0.00000000000E+00 0. -1.
         -2    1    3    3    0  502 -0.28708372940E+02  0.60274880089E+02 -0.45122747445E+02  0.80580979043E+02  0.00000000000E+00 0.  1.
         11    1    5    5    0    0  0.29791393071E+03 -0.11680274317E+03 -0.21073429769E+03  0.38315079949E+03  0.00000000000E+00 0.  1.
        -11    1    5    5    0    0  0.15668166122E+03 -0.13639542225E+03 -0.12712263652E+03  0.24354264286E+03  0.00000000000E+00 0. -1.
          2    1    6    6  503    0 -0.10118074688E+01 -0.13286375714E+01 -0.11818570721E+02  0.11935981151E+02  0.00000000000E+00 0. -1.
         -2    1    6    6    0  503 -0.32468885234E+03  0.10658847418E+03  0.14513740523E+02  0.34204473732E+03  0.00000000000E+00 0.  1.
<mgrwt>
<rscale>  0 0.11359002E+04</rscale>
<asrwt>0</asrwt>
<pdfrwt beam="1">  1        1 0.63415429E-01 0.11359002E+04</pdfrwt>
<pdfrwt beam="2">  1       -2 0.12039229E+00 0.11359002E+04</pdfrwt>
<totfact> 0.26357284E+01</totfact>
</mgrwt>
</event>
<event>
12    4  0.4381187E-008  0.1434866E+04  0.7818608E-02  0.8928960E-01
         -2   -1    0    0    0  501 -0.00000000000E+00  0.00000000000E+00  0.25901224998E+03  0.25901224998E+03  0.00000000000E+00 0.  1.
          1   -1    0    0  501    0  0.00000000000E+00 -0.00000000000E+00 -0.19872033469E+04  0.19872033469E+04  0.00000000000E+00 0. -1.
        -24    2    1    2    0    0  0.30780109803E+03 -0.29480070348E+03 -0.53332295609E+03  0.68811637793E+03  0.86149888942E+02 0.  0.
        254    2    1    2    0    0 -0.30780109803E+03  0.29480070348E+03 -0.11948681409E+04  0.15580992190E+04  0.90460728022E+03 0.  0.
         23    2    4    4    0    0 -0.20098731749E+03  0.51474527521E+03 -0.11656156368E+04  0.12930040685E+04  0.88550032909E+02 0.  0.
         23    2    4    4    0    0 -0.10681378055E+03 -0.21994457174E+03 -0.29252504072E+02  0.26509515046E+03  0.98157686670E+02 0.  0.
          3    1    3    3  502    0  0.43679902252E+02 -0.25033971837E+02 -0.28882758474E+02  0.58041772403E+02  0.00000000000E+00 0. -1.
         -4    1    3    3    0  502  0.26412119578E+03 -0.26976673164E+03 -0.50444019762E+03  0.63007460553E+03  0.00000000000E+00 0.  1.
         11    1    5    5    0    0 -0.79204831780E+02  0.20027320191E+03 -0.55731398675E+03  0.59747940601E+03  0.00000000000E+00 0. -1.
        -11    1    5    5    0    0 -0.12178248571E+03  0.31447207330E+03 -0.60830165005E+03  0.69552466251E+03  0.00000000000E+00 0.  1.
          3    1    6    6  503    0 -0.40773402689E+02 -0.11552807985E+02  0.85841944935E+01  0.43239173607E+02  0.00000000000E+00 0. -1.
         -3    1    6    6    0  503 -0.66040377857E+02 -0.20839176375E+03 -0.37836698566E+02  0.22185597685E+03  0.00000000000E+00 0.  1.
<mgrwt>
<rscale>  0 0.14348659E+04</rscale>
<asrwt>0</asrwt>
<pdfrwt beam="1">  1        1 0.30572359E+00 0.14348659E+04</pdfrwt>
<pdfrwt beam="2">  1       -2 0.39848039E-01 0.14348659E+04</pdfrwt>
<totfact> 0.15475794E+01</totfact>
</mgrwt>
</event>
<event>
12    4  0.4381187E-008  0.1423539E+04  0.7818608E-02  0.8936954E-01
         -2   -1    0    0    0  501 -0.00000000000E+00  0.00000000000E+00  0.56286936519E+03  0.56286936519E+03  0.00000000000E+00 0.  1.
          1   -1    0    0  501    0  0.00000000000E+00 -0.00000000000E+00 -0.90005942702E+03  0.90005942702E+03  0.00000000000E+00 0. -1.
        -24    2    1    2    0    0  0.21990021413E+03 -0.18051483021E+03  0.22218172113E+03  0.37007125919E+03  0.81524913820E+02 0.  0.
        254    2    1    2    0    0 -0.21990021413E+03  0.18051483021E+03 -0.55937178296E+03  0.10928575330E+04  0.89470614607E+03 0.  0.
         23    2    4    4    0    0  0.73779894692E+02 -0.32287958453E+03 -0.14544286429E+03  0.37208087703E+03  0.87154192762E+02 0.  0.
         23    2    4    4    0    0 -0.29368010882E+03  0.50339441474E+03 -0.41392891867E+03  0.72077665599E+03  0.92346602564E+02 0.  0.
          1    1    3    3  502    0  0.12409600259E+03 -0.71910485001E+02  0.15252754796E+03  0.20936950255E+03  0.00000000000E+00 0. -1.
         -2    1    3    3    0  502  0.95804211536E+02 -0.10860434521E+03  0.69654173177E+02  0.16070175664E+03  0.00000000000E+00 0.  1.
         11    1    5    5    0    0  0.21257516204E+02 -0.23696968369E+03 -0.12705992249E+03  0.26972344519E+03  0.00000000000E+00 0.  1.
        -11    1    5    5    0    0  0.52522378488E+02 -0.85909900842E+02 -0.18382941798E+02  0.10235743185E+03  0.00000000000E+00 0. -1.
          4    1    6    6  503    0 -0.11272554199E+02  0.29442592708E+02 -0.52438708181E+02  0.61186230961E+02  0.00000000000E+00 0. -1.
         -4    1    6    6    0  503 -0.28240755462E+03  0.47395182203E+03 -0.36149021049E+03  0.65959042503E+03  0.00000000000E+00 0.  1.
<mgrwt>
<rscale>  0 0.14235391E+04</rscale>
<asrwt>0</asrwt>
<pdfrwt beam="1">  1        1 0.13847068E+00 0.14235391E+04</pdfrwt>
<pdfrwt beam="2">  1       -2 0.86595288E-01 0.14235391E+04</pdfrwt>
<totfact> 0.17923177E+01</totfact>
</mgrwt>
</event>
<event>
12    4  0.4381187E-008  0.1821507E+04  0.7818608E-02  0.8694945E-01
         -2   -1    0    0    0  501 -0.00000000000E+00  0.00000000000E+00  0.15590383021E+04  0.15590383021E+04  0.00000000000E+00 0.  1.
          1   -1    0    0  501    0  0.00000000000E+00 -0.00000000000E+00 -0.53204059382E+03  0.53204059382E+03  0.00000000000E+00 0. -1.
        -24    2    1    2    0    0  0.65686598002E+03 -0.19386183881E+03  0.39378838164E+03  0.79407867316E+03  0.80226687581E+02 0.  0.
        254    2    1    2    0    0 -0.65686598002E+03  0.19386183881E+03  0.63320932664E+03  0.12970002228E+04  0.90122150343E+03 0.  0.
         23    2    4    4    0    0 -0.28085670937E+03 -0.11560874295E+03 -0.16522637077E+03  0.35739842564E+03  0.90487614657E+02 0.  0.
         23    2    4    4    0    0 -0.37600927065E+03  0.30947058177E+03  0.79843569741E+03  0.93960179712E+03  0.90537073472E+02 0.  0.
          1    1    3    3  502    0  0.39692817546E+03 -0.12989031927E+03  0.19661391788E+03  0.46160643867E+03  0.00000000000E+00 0. -1.
         -2    1    3    3    0  502  0.25993780456E+03 -0.63971519548E+02  0.19717446375E+03  0.33247223449E+03  0.00000000000E+00 0.  1.
         11    1    5    5    0    0 -0.60326895248E-01 -0.19203482496E+02 -0.16624271831E+02  0.25399680967E+02  0.00000000000E+00 0. -1.
        -11    1    5    5    0    0 -0.28079638248E+03 -0.96405260456E+02 -0.14860209893E+03  0.33199874467E+03  0.00000000000E+00 0.  1.
          3    1    6    6  503    0 -0.82847993751E+02  0.62273538957E+02  0.24774275249E+03  0.26854842233E+03  0.00000000000E+00 0. -1.
         -3    1    6    6    0  503 -0.29316127689E+03  0.24719704281E+03  0.55069294492E+03  0.67105337480E+03  0.00000000000E+00 0.  1.
<mgrwt>
<rscale>  0 0.18215067E+04</rscale>
<asrwt>0</asrwt>
<pdfrwt beam="1">  1        1 0.81852400E-01 0.18215067E+04</pdfrwt>
<pdfrwt beam="2">  1       -2 0.23985204E+00 0.18215067E+04</pdfrwt>
<totfact> 0.24866154E+00</totfact>
</mgrwt>
</event>
<event>
12    4  0.4381187E-008  0.1251804E+04  0.7818608E-02  0.9068683E-01
         -2   -1    0    0    0  501 -0.00000000000E+00  0.00000000000E+00  0.50093650424E+03  0.50093650424E+03  0.00000000000E+00 0.  1.
          1   -1    0    0  501    0  0.00000000000E+00 -0.00000000000E+00 -0.78204138634E+03  0.78204138634E+03  0.00000000000E+00 0. -1.
        -24    2    1    2    0    0  0.76009548832E+02 -0.23481127021E+03 -0.23810453890E+03  0.35202957586E+03  0.79481234905E+02 0.  0.
        254    2    1    2    0    0 -0.76009548832E+02  0.23481127021E+03 -0.43000343186E+02  0.93094831472E+03  0.89660579467E+03 0.  0.
         23    2    4    4    0    0  0.35453310316E+03  0.64999983020E+02 -0.21501501808E+03  0.42816902049E+03  0.84726224275E+02 0.  0.
         23    2    4    4    0    0 -0.43054265199E+03  0.16981128719E+03  0.17201467489E+03  0.50277929423E+03  0.94842616379E+02 0.  0.
          1    1    3    3  502    0  0.80274049742E+02 -0.23970983869E+03 -0.23228461200E+03  0.34330871064E+03  0.00000000000E+00 0. -1.
         -2    1    3    3    0  502 -0.42645009094E+01  0.48985684764E+01 -0.58199269022E+01  0.87208652250E+01  0.00000000000E+00 0.  1.
         11    1    5    5    0    0  0.54140798815E+02 -0.18881926624E+02 -0.22144652056E+02  0.61466567043E+02  0.00000000000E+00 0.  1.
        -11    1    5    5    0    0  0.30039230435E+03  0.83881909644E+02 -0.19287036602E+03  0.36670245345E+03  0.00000000000E+00 0. -1.
          2    1    6    6  503    0 -0.56515086377E+02 -0.20979518498E+01 -0.22698311487E+00  0.56554468537E+02  0.00000000000E+00 0.  1.
         -2    1    6    6    0  503 -0.37402756562E+03  0.17190923904E+03  0.17224165801E+03  0.44622482569E+03  0.00000000000E+00 0. -1.
<mgrwt>
<rscale>  0 0.12518036E+04</rscale>
<asrwt>0</asrwt>
<pdfrwt beam="1">  1        1 0.12031406E+00 0.12518036E+04</pdfrwt>
<pdfrwt beam="2">  1       -2 0.77067155E-01 0.12518036E+04</pdfrwt>
<totfact> 0.29774287E+01</totfact>
</mgrwt>
</event>
<event>
12    4  0.4381187E-008  0.1240618E+04  0.7818608E-02  0.9078028E-01
         -4   -1    0    0    0  501 -0.00000000000E+00  0.00000000000E+00  0.24091071693E+03  0.24091071693E+03  0.00000000000E+00 0.  1.
          1   -1    0    0  501    0  0.00000000000E+00 -0.00000000000E+00 -0.15972024385E+04  0.15972024385E+04  0.00000000000E+00 0. -1.
        -24    2    1    2    0    0  0.24408166188E+03 -0.15105084500E+03 -0.30384664989E+03  0.42548192973E+03  0.79497612787E+02 0.  0.
        254    2    1    2    0    0 -0.24408166188E+03  0.15105084500E+03 -0.10524450717E+04  0.14126312257E+04  0.89749325093E+03 0.  0.
         23    2    4    4    0    0  0.29418120137E+03  0.16511948737E+03 -0.63688657868E+03  0.72624970102E+03  0.89482343436E+02 0.  0.
         23    2    4    4    0    0 -0.53826286325E+03 -0.14068642371E+02 -0.41555849301E+03  0.68638152468E+03  0.92227434398E+02 0.  0.
          1    1    3    3  502    0  0.10678502016E+03 -0.29527995105E+02 -0.14779711449E+03  0.18471310208E+03  0.00000000000E+00 0. -1.
         -2    1    3    3    0  502  0.13729664172E+03 -0.12152284990E+03 -0.15604953539E+03  0.24076882766E+03  0.00000000000E+00 0.  1.
         11    1    5    5    0    0  0.17405201585E+03  0.54981742844E+02 -0.28479655305E+03  0.33826937919E+03  0.00000000000E+00 0.  1.
        -11    1    5    5    0    0  0.12012918552E+03  0.11013774453E+03 -0.35209002563E+03  0.38798032183E+03  0.00000000000E+00 0. -1.
          3    1    6    6  503    0 -0.12894003562E+03 -0.31017950404E+02 -0.67462351811E+02  0.14879117899E+03  0.00000000000E+00 0. -1.
         -3    1    6    6    0  503 -0.40932282763E+03  0.16949308033E+02 -0.34809614120E+03  0.53759034569E+03  0.00000000000E+00 0.  1.
<mgrwt>
<rscale>  0 0.12406179E+04</rscale>
<asrwt>0</asrwt>
<pdfrwt beam="1">  1        1 0.24572345E+00 0.12406179E+04</pdfrwt>
<pdfrwt beam="2">  1       -4 0.37063188E-01 0.12406179E+04</pdfrwt>
<totfact> 0.19389288E+01</totfact>
</mgrwt>
</event>
<event>
12    4  0.4381187E-008  0.1114384E+04  0.7818608E-02  0.9191285E-01
          1   -1    0    0  501    0  0.00000000000E+00  0.00000000000E+00  0.17828093014E+03  0.17828093014E+03  0.00000000000E+00 0. -1.
         -2   -1    0    0    0  501 -0.00000000000E+00 -0.00000000000E+00 -0.17414246656E+04  0.17414246656E+04  0.00000000000E+00 0.  1.
        -24    2    1    2    0    0  0.36273653439E+02 -0.14227941894E+02 -0.43357409042E+03  0.44238148763E+03  0.78718971389E+02 0.  0.
        254    2    1    2    0    0 -0.36273653439E+02  0.14227941894E+02 -0.11295696450E+04  0.14773241081E+04  0.95133628394E+03 0.  0.
         23    2    4    4    0    0  0.29300592152E+03 -0.71488179149E+02 -0.10749711327E+04  0.11206143986E+04  0.96180374941E+02 0.  0.
         23    2    4    4    0    0 -0.32927957496E+03  0.85716121043E+02 -0.54598512344E+02  0.35670970946E+03  0.92133204547E+02 0.  0.
          1    1    3    3  502    0  0.17600141705E+01 -0.88745205217E+01 -0.18344884679E+01  0.92314740052E+01  0.00000000000E+00 0. -1.
         -2    1    3    3    0  502  0.34513639269E+02 -0.53534213722E+01 -0.43173960195E+03  0.43315001363E+03  0.00000000000E+00 0.  1.
         11    1    5    5    0    0  0.68438593871E+02 -0.18112972303E+02 -0.42540643333E+03  0.43125694709E+03  0.00000000000E+00 0.  1.
        -11    1    5    5    0    0  0.22456732765E+03 -0.53375206846E+02 -0.64956469937E+03  0.68935745156E+03  0.00000000000E+00 0. -1.
          3    1    6    6  503    0 -0.17906747940E+03  0.80782283739E+02  0.10398962443E+01  0.19644851980E+03  0.00000000000E+00 0. -1.
         -3    1    6    6    0  503 -0.15021209556E+03  0.49338373040E+01 -0.55638408588E+02  0.16026118966E+03  0.00000000000E+00 0.  1.
<mgrwt>
<rscale>  0 0.11143838E+04</rscale>
<asrwt>0</asrwt>
<pdfrwt beam="1">  1        1 0.27427836E-01 0.11143838E+04</pdfrwt>
<pdfrwt beam="2">  1       -2 0.26791148E+00 0.11143838E+04</pdfrwt>
<totfact> 0.75320002E+00</totfact>
</mgrwt>
</event>
<event>
12    4  0.4381187E-008  0.1449481E+04  0.7818608E-02  0.8918760E-01
          1   -1    0    0  501    0  0.00000000000E+00  0.00000000000E+00  0.16020622291E+04  0.16020622291E+04  0.00000000000E+00 0. -1.
         -2   -1    0    0    0  501 -0.00000000000E+00 -0.00000000000E+00 -0.32785814334E+03  0.32785814334E+03  0.00000000000E+00 0.  1.
        -24    2    1    2    0    0 -0.16714031828E+03 -0.40317705860E+03  0.47381929975E+03  0.64928886205E+03  0.81139823658E+02 0.  0.
        254    2    1    2    0    0  0.16714031828E+03  0.40317705860E+03  0.80038478601E+03  0.12806315104E+04  0.89939626037E+03 0.  0.
         23    2    4    4    0    0 -0.32987608445E+03  0.72626001067E+01  0.17513766619E+03  0.38465689133E+03  0.91742822502E+02 0.  0.
         23    2    4    4    0    0  0.49701640272E+03  0.39591445849E+03  0.62524711982E+03  0.89597461907E+03  0.89794176573E+02 0.  0.
          3    1    3    3  502    0 -0.32883337977E+02 -0.21507219915E+02  0.44464176643E+02  0.59337487557E+02  0.00000000000E+00 0. -1.
         -4    1    3    3    0  502 -0.13425698030E+03 -0.38166983868E+03  0.42935512311E+03  0.58995137449E+03  0.00000000000E+00 0.  1.
         11    1    5    5    0    0 -0.21588107714E+03 -0.12912364798E+02  0.67432858854E+02  0.22653599953E+03  0.00000000000E+00 0.  1.
        -11    1    5    5    0    0 -0.11399500731E+03  0.20174964905E+02  0.10770480734E+03  0.15812089180E+03  0.00000000000E+00 0. -1.
          1    1    6    6  503    0  0.95905244076E+02  0.46657526860E+02  0.72874439696E+02  0.12917207367E+03  0.00000000000E+00 0. -1.
         -1    1    6    6    0  503  0.40111115865E+03  0.34925693163E+03  0.55237268013E+03  0.76680254540E+03  0.00000000000E+00 0.  1.
<mgrwt>
<rscale>  0 0.14494815E+04</rscale>
<asrwt>0</asrwt>
<pdfrwt beam="1">  1        1 0.24647111E+00 0.14494815E+04</pdfrwt>
<pdfrwt beam="2">  1       -2 0.50439715E-01 0.14494815E+04</pdfrwt>
<totfact> 0.17622529E+01</totfact>
</mgrwt>
</event>
<event>
12    4  0.4381187E-008  0.1941979E+04  0.7818608E-02  0.8634238E-01
          1   -1    0    0  501    0  0.00000000000E+00  0.00000000000E+00  0.50401270925E+03  0.50401270925E+03  0.00000000000E+00 0. -1.
         -2   -1    0    0    0  501 -0.00000000000E+00 -0.00000000000E+00 -0.18706289720E+04  0.18706289720E+04  0.00000000000E+00 0.  1.
        -24    2    1    2    0    0 -0.72925655176E+03 -0.17521187696E+03 -0.43300839733E+03  0.86996705964E+03  0.82656473361E+02 0.  0.
        254    2    1    2    0    0  0.72925655176E+03  0.17521187696E+03 -0.93360786544E+03  0.15046746216E+04  0.91099272800E+03 0.  0.
         23    2    4    4    0    0  0.88539738629E+02  0.13569567453E+03  0.15207522458E+03  0.23993324963E+03  0.90490269869E+02 0.  0.
         23    2    4    4    0    0  0.64071681314E+03  0.39516202422E+02 -0.10856830900E+04  0.12647413720E+04  0.93719801716E+02 0.  0.
          1    1    3    3  502    0 -0.72879496037E+03 -0.17669333271E+03 -0.42532304914E+03  0.86212662888E+03  0.00000000000E+00 0. -1.
         -2    1    3    3    0  502 -0.46159138960E+00  0.14814557561E+01 -0.76853481901E+01  0.78404307644E+01  0.00000000000E+00 0.  1.
         11    1    5    5    0    0  0.75891482420E+02  0.47819107701E+02  0.10926567361E+03  0.14136892019E+03  0.00000000000E+00 0. -1.
        -11    1    5    5    0    0  0.12648256209E+02  0.87876566833E+02  0.42809550971E+02  0.98564329440E+02  0.00000000000E+00 0.  1.
          4    1    6    6  503    0  0.27228157392E+03 -0.17891271889E+02 -0.39962292236E+03  0.48389651082E+03  0.00000000000E+00 0.  1.
         -4    1    6    6    0  503  0.36843523921E+03  0.57407474311E+02 -0.68606016766E+03  0.78084486119E+03  0.00000000000E+00 0. -1.
<mgrwt>
<rscale>  0 0.19419792E+04</rscale>
<asrwt>0</asrwt>
<pdfrwt beam="1">  1        1 0.77540417E-01 0.19419792E+04</pdfrwt>
<pdfrwt beam="2">  1       -2 0.28778907E+00 0.19419792E+04</pdfrwt>
<totfact> 0.13512412E+00</totfact>
</mgrwt>
</event>
<event>
12    4  0.4381187E-008  0.1527216E+04  0.7818608E-02  0.8866554E-01
          1   -1    0    0  501    0  0.00000000000E+00  0.00000000000E+00  0.86064417047E+03  0.86064417047E+03  0.00000000000E+00 0. -1.
         -2   -1    0    0    0  501 -0.00000000000E+00 -0.00000000000E+00 -0.67751265718E+03  0.67751265718E+03  0.00000000000E+00 0.  1.
        -24    2    1    2    0    0  0.17817647399E+03  0.17404742951E+03 -0.37102159928E+03  0.45393008278E+03  0.79725336727E+02 0.  0.
        254    2    1    2    0    0 -0.17817647399E+03 -0.17404742951E+03  0.55415311257E+03  0.10842267449E+04  0.89801035547E+03 0.  0.
         23    2    4    4    0    0  0.19998163939E+03 -0.23482420159E+03  0.60736883461E+03  0.68712840991E+03  0.90074906084E+02 0.  0.
         23    2    4    4    0    0 -0.37815811338E+03  0.60776772076E+02 -0.53215722043E+02  0.39709833496E+03  0.90320539280E+02 0.  0.
          3    1    3    3  502    0  0.49345029198E+02  0.22162057053E+02 -0.13296421541E+03  0.14354640803E+03  0.00000000000E+00 0. -1.
         -4    1    3    3    0  502  0.12883144479E+03  0.15188537246E+03 -0.23805738387E+03  0.31038367475E+03  0.00000000000E+00 0.  1.
         11    1    5    5    0    0  0.77384619631E+02 -0.55048385888E+02  0.26457532373E+03  0.28110283896E+03  0.00000000000E+00 0.  1.
        -11    1    5    5    0    0  0.12259701976E+03 -0.17977581570E+03  0.34279351088E+03  0.40602557095E+03  0.00000000000E+00 0. -1.
          4    1    6    6  503    0 -0.11749396797E+03  0.61969799998E+02 -0.19589454454E+02  0.13427149864E+03  0.00000000000E+00 0. -1.
         -4    1    6    6    0  503 -0.26066414541E+03 -0.11930279221E+01 -0.33626267589E+02  0.26282683632E+03  0.00000000000E+00 0.  1.
<mgrwt>
<rscale>  0 0.15272162E+04</rscale>
<asrwt>0</asrwt>
<pdfrwt beam="1">  1        1 0.13240680E+00 0.15272162E+04</pdfrwt>
<pdfrwt beam="2">  1       -2 0.10423272E+00 0.15272162E+04</pdfrwt>
<totfact> 0.12413684E+01</totfact>
</mgrwt>
</event>
<event>
12    4  0.4381187E-008  0.1732244E+04  0.7818608E-02  0.8743185E-01
          1   -1    0    0  501    0  0.00000000000E+00  0.00000000000E+00  0.14502781313E+04  0.14502781313E+04  0.00000000000E+00 0. -1.
         -2   -1    0    0    0  501 -0.00000000000E+00 -0.00000000000E+00 -0.51725741258E+03  0.51725741258E+03  0.00000000000E+00 0.  1.
        -24    2    1    2    0    0  0.10431289560E+03  0.51123709544E+03  0.75025408409E+03  0.91730630674E+03  0.79530633945E+02 0.  0.
        254    2    1    2    0    0 -0.10431289560E+03 -0.51123709544E+03  0.18276663461E+03  0.10502292371E+04  0.89293519353E+03 0.  0.
         23    2    4    4    0    0 -0.37368321274E+03 -0.19414836733E+03  0.38597133722E+03  0.57818015160E+03  0.89362646176E+02 0.  0.
         23    2    4    4    0    0  0.26937031714E+03 -0.31708872811E+03 -0.20320470261E+03  0.47204908552E+03  0.91828964533E+02 0.  0.
          1    1    3    3  502    0  0.26852431691E+02  0.22181844149E+03  0.26070193406E+03  0.34335109217E+03  0.00000000000E+00 0. -1.
         -2    1    3    3    0  502  0.77460463912E+02  0.28941865395E+03  0.48955215003E+03  0.57395521457E+03  0.00000000000E+00 0.  1.
         11    1    5    5    0    0 -0.12520547397E+03 -0.82700731070E+02  0.85663118343E+02  0.17278307636E+03  0.00000000000E+00 0.  1.
        -11    1    5    5    0    0 -0.24847773877E+03 -0.11144763626E+03  0.30030821887E+03  0.40539707524E+03  0.00000000000E+00 0. -1.
          1    1    6    6  503    0  0.11960190913E+03 -0.20394914233E+03 -0.13553068839E+03  0.27252236022E+03  0.00000000000E+00 0. -1.
         -1    1    6    6    0  503  0.14976840801E+03 -0.11313958578E+03 -0.67674014222E+02  0.19952672530E+03  0.00000000000E+00 0.  1.
<mgrwt>
<rscale>  0 0.17322438E+04</rscale>
<asrwt>0</asrwt>
<pdfrwt beam="1">  1        1 0.22311971E+00 0.17322438E+04</pdfrwt>
<pdfrwt beam="2">  1       -2 0.79578064E-01 0.17322438E+04</pdfrwt>
<totfact> 0.82524334E+00</totfact>
</mgrwt>
</event>
<event>
12    4  0.4381187E-008  0.1928174E+04  0.7818608E-02  0.8640958E-01
          1   -1    0    0  501    0  0.00000000000E+00  0.00000000000E+00  0.49417071469E+03  0.49417071469E+03  0.00000000000E+00 0. -1.
         -2   -1    0    0    0  501 -0.00000000000E+00 -0.00000000000E+00 -0.18808557753E+04  0.18808557753E+04  0.00000000000E+00 0.  1.
        -24    2    1    2    0    0  0.50692691648E+03  0.10505878654E+02  0.16409248016E+03  0.53899736324E+03  0.80663147704E+02 0.  0.
        254    2    1    2    0    0 -0.50692691648E+03 -0.10505878654E+02 -0.15507775407E+04  0.18360291267E+04  0.84202535659E+03 0.  0.
         23    2    4    4    0    0 -0.25958413052E+03 -0.36701381474E+03 -0.42167823124E+03  0.62290680361E+03  0.90096027940E+02 0.  0.
         23    2    4    4    0    0 -0.24734278596E+03  0.35650793608E+03 -0.11290993095E+04  0.12131223231E+04  0.92326365975E+02 0.  0.
          3    1    3    3  502    0  0.43494339510E+03  0.10574437796E+02  0.16924121243E+03  0.46682990870E+03  0.00000000000E+00 0. -1.
         -4    1    3    3    0  502  0.71983521379E+02 -0.68559141203E-01 -0.51487322663E+01  0.72167454537E+02  0.00000000000E+00 0.  1.
         11    1    5    5    0    0 -0.63701990177E+02 -0.95657520940E+02 -0.16527788322E+03  0.20130842890E+03  0.00000000000E+00 0.  1.
        -11    1    5    5    0    0 -0.19588214034E+03 -0.27135629380E+03 -0.25640034802E+03  0.42159837471E+03  0.00000000000E+00 0. -1.
          2    1    6    6  503    0 -0.97340873553E+02  0.18709181807E+03 -0.44232093259E+03  0.49002693952E+03  0.00000000000E+00 0. -1.
         -2    1    6    6    0  503 -0.15000191241E+03  0.16941611801E+03 -0.68677837691E+03  0.72309538359E+03  0.00000000000E+00 0.  1.
<mgrwt>
<rscale>  0 0.19281741E+04</rscale>
<asrwt>0</asrwt>
<pdfrwt beam="1">  1        1 0.76026262E-01 0.19281741E+04</pdfrwt>
<pdfrwt beam="2">  1       -2 0.28936243E+00 0.19281741E+04</pdfrwt>
<totfact> 0.13598348E+00</totfact>
</mgrwt>
</event>
<event>
12    4  0.4381187E-008  0.1537945E+04  0.7818608E-02  0.8859605E-01
         -2   -1    0    0    0  501 -0.00000000000E+00  0.00000000000E+00  0.67401953770E+03  0.67401953770E+03  0.00000000000E+00 0.  1.
          1   -1    0    0  501    0  0.00000000000E+00 -0.00000000000E+00 -0.87730162734E+03  0.87730162734E+03  0.00000000000E+00 0. -1.
        -24    2    1    2    0    0  0.17775498639E+03  0.36853833171E+03 -0.36909531717E+03  0.55673570509E+03  0.79410043701E+02 0.  0.
        254    2    1    2    0    0 -0.17775498639E+03 -0.36853833171E+03  0.16581322753E+03  0.99458545994E+03  0.89122885590E+03 0.  0.
         23    2    4    4    0    0 -0.29427541005E+03 -0.54271214810E+03  0.33620183367E+03  0.70902279426E+03  0.92450836478E+02 0.  0.
         23    2    4    4    0    0  0.11652042366E+03  0.17417381639E+03 -0.17038860613E+03  0.28556266569E+03  0.92737433043E+02 0.  0.
          1    1    3    3  502    0  0.12691915603E+03  0.27136735601E+03 -0.31407811239E+03  0.43404351713E+03  0.00000000000E+00 0. -1.
         -2    1    3    3    0  502  0.50835830359E+02  0.97170975693E+02 -0.55017204785E+02  0.12269218797E+03  0.00000000000E+00 0.  1.
         11    1    5    5    0    0 -0.16471077654E+02 -0.86830139637E+02  0.28617386150E+02  0.92896309607E+02  0.00000000000E+00 0. -1.
        -11    1    5    5    0    0 -0.27780433240E+03 -0.45588200846E+03  0.30758444752E+03  0.61612648465E+03  0.00000000000E+00 0.  1.
          3    1    6    6  503    0  0.21182479526E+02  0.10900680585E+03 -0.10513424547E+03  0.15291955640E+03  0.00000000000E+00 0. -1.
         -3    1    6    6    0  503  0.95337944133E+02  0.65167010544E+02 -0.65254360666E+02  0.13264310928E+03  0.00000000000E+00 0.  1.
<mgrwt>
<rscale>  0 0.15379447E+04</rscale>
<asrwt>0</asrwt>
<pdfrwt beam="1">  1        1 0.13496948E+00 0.15379447E+04</pdfrwt>
<pdfrwt beam="2">  1       -2 0.10369531E+00 0.15379447E+04</pdfrwt>
<totfact> 0.12162365E+01</totfact>
</mgrwt>
</event>
<event>
12    4  0.4381187E-008  0.1601085E+04  0.7818608E-02  0.8819882E-01
          1   -1    0    0  501    0  0.00000000000E+00  0.00000000000E+00  0.59340241401E+03  0.59340241401E+03  0.00000000000E+00 0. -1.
         -2   -1    0    0    0  501 -0.00000000000E+00 -0.00000000000E+00 -0.10799886931E+04  0.10799886931E+04  0.00000000000E+00 0.  1.
        -24    2    1    2    0    0  0.32332038928E+03  0.20762751161E+03 -0.58304369917E+03  0.70283954391E+03  0.79988821961E+02 0.  0.
        254    2    1    2    0    0 -0.32332038928E+03 -0.20762751161E+03  0.96457420092E+02  0.97055156318E+03  0.88601413375E+03 0.  0.
         23    2    4    4    0    0 -0.61640382694E+03 -0.18000743188E+03  0.12651123308E+03  0.66073834970E+03  0.90629582771E+02 0.  0.
         23    2    4    4    0    0  0.29308343766E+03 -0.27620079726E+02 -0.30053812988E+02  0.30981321348E+03  0.91761785826E+02 0.  0.
          3    1    3    3  502    0  0.80770309623E+01  0.12748618856E+02 -0.44672057493E+01  0.15739175299E+02  0.00000000000E+00 0. -1.
         -4    1    3    3    0  502  0.31524335832E+03  0.19487889275E+03 -0.57857649342E+03  0.68710036861E+03  0.00000000000E+00 0.  1.
         11    1    5    5    0    0 -0.87974117103E+02 -0.60228396942E+02  0.24228881402E+02  0.10933409245E+03  0.00000000000E+00 0.  1.
        -11    1    5    5    0    0 -0.52842970984E+03 -0.11977903494E+03  0.10228235168E+03  0.55140425725E+03  0.00000000000E+00 0. -1.
          4    1    6    6  503    0  0.23973741159E+01 -0.75453374594E+01  0.13050111512E+02  0.15263843896E+02  0.00000000000E+00 0.  1.
         -4    1    6    6    0  503  0.29068606354E+03 -0.20074742267E+02 -0.43103924500E+02  0.29454936958E+03  0.00000000000E+00 0. -1.
<mgrwt>
<rscale>  0 0.16010845E+04</rscale>
<asrwt>0</asrwt>
<pdfrwt beam="1">  1        1 0.91292680E-01 0.16010845E+04</pdfrwt>
<pdfrwt beam="2">  1       -2 0.16615210E+00 0.16010845E+04</pdfrwt>
<totfact> 0.66309534E+00</totfact>
</mgrwt>
</event>
<event>
12    4  0.4381187E-008  0.1476824E+04  0.7818608E-02  0.8900013E-01
          1   -1    0    0  501    0  0.00000000000E+00  0.00000000000E+00  0.15361717149E+04  0.15361717149E+04  0.00000000000E+00 0. -1.
         -2   -1    0    0    0  501 -0.00000000000E+00 -0.00000000000E+00 -0.35494234058E+03  0.35494234058E+03  0.00000000000E+00 0.  1.
        -24    2    1    2    0    0 -0.20717343346E+03 -0.35999292466E+02  0.89740123208E+03  0.92518561243E+03  0.80141534196E+02 0.  0.
        254    2    1    2    0    0  0.20717343346E+03  0.35999292466E+02  0.28382814222E+03  0.96592844304E+03  0.89902311549E+03 0.  0.
         23    2    4    4    0    0  0.29013749989E+03  0.34696816230E+03 -0.83637581096E+02  0.46874455265E+03  0.90330150959E+02 0.  0.
         23    2    4    4    0    0 -0.82964066427E+02 -0.31096886984E+03  0.36746572331E+03  0.49718389040E+03  0.92607174304E+02 0.  0.
          1    1    3    3  502    0 -0.16322431324E+03 -0.57141029643E+02  0.62654880033E+03  0.64997744030E+03  0.00000000000E+00 0. -1.
         -2    1    3    3    0  502 -0.43949120225E+02  0.21141737176E+02  0.27085243175E+03  0.27520817213E+03  0.00000000000E+00 0.  1.
         11    1    5    5    0    0  0.49603056042E+02  0.10498777006E+03 -0.48184435814E+02  0.12571648614E+03  0.00000000000E+00 0. -1.
        -11    1    5    5    0    0  0.24053444385E+03  0.24198039224E+03 -0.35453145282E+02  0.34302806651E+03  0.00000000000E+00 0.  1.
          4    1    6    6  503    0 -0.28594974375E+02 -0.70146409987E+02  0.35976253017E+02  0.83859896105E+02  0.00000000000E+00 0.  1.
         -4    1    6    6    0  503 -0.54369092052E+02 -0.24082245985E+03  0.33148947030E+03  0.41332399429E+03  0.00000000000E+00 0. -1.
<mgrwt>
<rscale>  0 0.14768241E+04</rscale>
<asrwt>0</asrwt>
<pdfrwt beam="1">  1        1 0.23633411E+00 0.14768241E+04</pdfrwt>
<pdfrwt beam="2">  1       -2 0.54606515E-01 0.14768241E+04</pdfrwt>
<totfact> 0.16572163E+01</totfact>
</mgrwt>
</event>
<event>
12    4  0.4381187E-008  0.2098977E+04  0.7818608E-02  0.8561694E-01
         -2   -1    0    0    0  501 -0.00000000000E+00  0.00000000000E+00  0.93466557760E+03  0.93466557760E+03  0.00000000000E+00 0.  1.
          1   -1    0    0  501    0  0.00000000000E+00 -0.00000000000E+00 -0.11784174278E+04  0.11784174278E+04  0.00000000000E+00 0. -1.
        -24    2    1    2    0    0 -0.19158256802E+03  0.73381127646E+03  0.29682197475E+03  0.81801471090E+03  0.76563129054E+02 0.  0.
        254    2    1    2    0    0  0.19158256802E+03 -0.73381127646E+03 -0.54057382499E+03  0.12950682945E+04  0.89988830275E+03 0.  0.
         23    2    4    4    0    0 -0.55329276124E+01  0.11699408162E+03 -0.37262771747E+03  0.40112660792E+03  0.91284781496E+02 0.  0.
         23    2    4    4    0    0  0.19711549563E+03 -0.85080535808E+03 -0.16794610751E+03  0.89394168662E+03  0.90562509288E+02 0.  0.
          1    1    3    3  502    0 -0.66022288224E+02  0.22179484330E+03  0.12801229800E+03  0.26445990905E+03  0.00000000000E+00 0. -1.
         -2    1    3    3    0  502 -0.12556027980E+03  0.51201643316E+03  0.16880967676E+03  0.55355480186E+03  0.00000000000E+00 0.  1.
         11    1    5    5    0    0  0.39230006059E+02  0.62569727646E+02 -0.23766393352E+03  0.24887368179E+03  0.00000000000E+00 0. -1.
        -11    1    5    5    0    0 -0.44762933671E+02  0.54424353973E+02 -0.13496378396E+03  0.15225292613E+03  0.00000000000E+00 0.  1.
          3    1    6    6  503    0  0.18812090118E+03 -0.83999449980E+03 -0.15464173879E+03  0.87458235778E+03  0.00000000000E+00 0. -1.
         -3    1    6    6    0  503  0.89945944515E+01 -0.10810858278E+02 -0.13304368723E+02  0.19359328841E+02  0.00000000000E+00 0.  1.
<mgrwt>
<rscale>  0 0.20989771E+04</rscale>
<asrwt>0</asrwt>
<pdfrwt beam="1">  1        1 0.18129499E+00 0.20989771E+04</pdfrwt>
<pdfrwt beam="2">  1       -2 0.14379470E+00 0.20989771E+04</pdfrwt>
<totfact> 0.29948448E+00</totfact>
</mgrwt>
</event>
<event>
12    4  0.4381187E-008  0.2057538E+04  0.7818608E-02  0.8580182E-01
         -2   -1    0    0    0  501 -0.00000000000E+00  0.00000000000E+00  0.45521696499E+03  0.45521696499E+03  0.00000000000E+00 0.  1.
          1   -1    0    0  501    0  0.00000000000E+00 -0.00000000000E+00 -0.23249696231E+04  0.23249696231E+04  0.00000000000E+00 0. -1.
        -24    2    1    2    0    0 -0.35741484435E+02  0.43468976644E+03 -0.17848139996E+04  0.18389733620E+04  0.77648992189E+02 0.  0.
        254    2    1    2    0    0  0.35741484435E+02 -0.43468976644E+03 -0.84938658489E+02  0.94121322614E+03  0.82971990129E+03 0.  0.
         23    2    4    4    0    0 -0.40558434791E+02 -0.30559665388E+03  0.34807234995E+03  0.47426234628E+03  0.93467164333E+02 0.  0.
         23    2    4    4    0    0  0.76299919226E+02 -0.12909311256E+03 -0.43301100843E+03  0.46695087986E+03  0.89765702738E+02 0.  0.
          3    1    3    3  502    0 -0.24575960724E+02  0.33394529628E+03 -0.14919533631E+04  0.15290677802E+04  0.00000000000E+00 0. -1.
         -4    1    3    3    0  502 -0.11165523711E+02  0.10074447016E+03 -0.29286063658E+03  0.30990558182E+03  0.00000000000E+00 0.  1.
         11    1    5    5    0    0  0.97249642123E-01 -0.24117633437E+01  0.40151844052E+02  0.40224328965E+02  0.00000000000E+00 0.  1.
        -11    1    5    5    0    0 -0.40655684433E+02 -0.30318489054E+03  0.30792050589E+03  0.43403801732E+03  0.00000000000E+00 0. -1.
          4    1    6    6  503    0  0.19518167355E+02 -0.56725320663E+02 -0.29538368714E+03  0.30141374137E+03  0.00000000000E+00 0. -1.
         -4    1    6    6    0  503  0.56781751872E+02 -0.72367791900E+02 -0.13762732130E+03  0.16553713848E+03  0.00000000000E+00 0.  1.
<mgrwt>
<rscale>  0 0.20575380E+04</rscale>
<asrwt>0</asrwt>
<pdfrwt beam="1">  1        1 0.35768764E+00 0.20575380E+04</pdfrwt>
<pdfrwt beam="2">  1       -2 0.70033378E-01 0.20575380E+04</pdfrwt>
<totfact> 0.26945252E+00</totfact>
</mgrwt>
</event>
<event>
12    4  0.4381187E-008  0.1615795E+04  0.7818608E-02  0.8810903E-01
          1   -1    0    0  501    0  0.00000000000E+00  0.00000000000E+00  0.84971810685E+03  0.84971810685E+03  0.00000000000E+00 0. -1.
         -2   -1    0    0    0  501 -0.00000000000E+00 -0.00000000000E+00 -0.76813517489E+03  0.76813517489E+03  0.00000000000E+00 0.  1.
        -24    2    1    2    0    0 -0.20963813840E+02  0.13839919876E+03  0.56388695982E+03  0.58683573183E+03  0.82546065864E+02 0.  0.
        254    2    1    2    0    0  0.20963813840E+02 -0.13839919876E+03 -0.48230402785E+03  0.10310175499E+04  0.90043666808E+03 0.  0.
         23    2    4    4    0    0  0.35139794895E+03 -0.29210440939E+03 -0.45944017388E+03  0.65428685960E+03  0.90556704686E+02 0.  0.
         23    2    4    4    0    0 -0.33043413511E+03  0.15370521063E+03 -0.22863853970E+02  0.37673069030E+03  0.92688984129E+02 0.  0.
          1    1    3    3  502    0 -0.75126075659E+01  0.71584231951E+02  0.13913292521E+03  0.15664837188E+03  0.00000000000E+00 0. -1.
         -2    1    3    3    0  502 -0.13451206274E+02  0.66814966810E+02  0.42475403461E+03  0.43018735995E+03  0.00000000000E+00 0.  1.
         11    1    5    5    0    0  0.56171672220E+02 -0.94599042597E+02 -0.94628375088E+02  0.14511638430E+03  0.00000000000E+00 0. -1.
        -11    1    5    5    0    0  0.29522627673E+03 -0.19750536679E+03 -0.36481179879E+03  0.50917047531E+03  0.00000000000E+00 0.  1.
          4    1    6    6  503    0 -0.96687932936E+02  0.45882402221E+02 -0.49547705733E+02  0.11793526340E+03  0.00000000000E+00 0. -1.
         -4    1    6    6    0  503 -0.23374620217E+03  0.10782280841E+03  0.26683851763E+02  0.25879542691E+03  0.00000000000E+00 0.  1.
<mgrwt>
<rscale>  0 0.16157950E+04</rscale>
<asrwt>0</asrwt>
<pdfrwt beam="1">  1        1 0.13072586E+00 0.16157950E+04</pdfrwt>
<pdfrwt beam="2">  1       -2 0.11817464E+00 0.16157950E+04</pdfrwt>
<totfact> 0.92794299E+00</totfact>
</mgrwt>
</event>
<event>
12    4  0.4381187E-008  0.2117860E+04  0.7818608E-02  0.8553417E-01
          1   -1    0    0  501    0  0.00000000000E+00  0.00000000000E+00  0.19570263875E+04  0.19570263875E+04  0.00000000000E+00 0. -1.
         -2   -1    0    0    0  501 -0.00000000000E+00 -0.00000000000E+00 -0.57297757299E+03  0.57297757299E+03  0.00000000000E+00 0.  1.
        -24    2    1    2    0    0 -0.67465573151E+03  0.12401478553E+03  0.11993350494E+04  0.13838558459E+04  0.78181956565E+02 0.  0.
        254    2    1    2    0    0  0.67465573151E+03 -0.12401478553E+03  0.18471376510E+03  0.11461481146E+04  0.89944221744E+03 0.  0.
         23    2    4    4    0    0  0.64477985225E+03 -0.18743696140E+02  0.48466974711E+03  0.81217849312E+03  0.92934153614E+02 0.  0.
         23    2    4    4    0    0  0.29875879261E+02 -0.10527108939E+03 -0.29995598202E+03  0.33396962149E+03  0.97916017618E+02 0.  0.
          1    1    3    3  502    0 -0.32460515573E+03  0.34485507825E+02  0.62997194704E+03  0.70952266450E+03  0.00000000000E+00 0. -1.
         -2    1    3    3    0  502 -0.35005057578E+03  0.89529277703E+02  0.56936310240E+03  0.67433318140E+03  0.00000000000E+00 0.  1.
         11    1    5    5    0    0  0.23834330546E+03 -0.26291371169E+02  0.23136768255E+03  0.33321130230E+03  0.00000000000E+00 0. -1.
        -11    1    5    5    0    0  0.40643654679E+03  0.75476750285E+01  0.25330206456E+03  0.47896719082E+03  0.00000000000E+00 0.  1.
          3    1    6    6  503    0  0.58403175843E+02 -0.46298315142E+02 -0.20890098945E+03  0.22179740378E+03  0.00000000000E+00 0. -1.
         -3    1    6    6    0  503 -0.28527296582E+02 -0.58972774245E+02 -0.91054992570E+02  0.11217221770E+03  0.00000000000E+00 0.  1.
<mgrwt>
<rscale>  0 0.21178595E+04</rscale>
<asrwt>0</asrwt>
<pdfrwt beam="1">  1        1 0.30108098E+00 0.21178595E+04</pdfrwt>
<pdfrwt beam="2">  1       -2 0.88150396E-01 0.21178595E+04</pdfrwt>
<totfact> 0.28493851E+00</totfact>
</mgrwt>
</event>
<event>
12    4  0.4381187E-008  0.2077604E+04  0.7818608E-02  0.8571174E-01
         -2   -1    0    0    0  501 -0.00000000000E+00  0.00000000000E+00  0.90924166721E+03  0.90924166721E+03  0.00000000000E+00 0.  1.
          1   -1    0    0  501    0  0.00000000000E+00 -0.00000000000E+00 -0.11868235513E+04  0.11868235513E+04  0.00000000000E+00 0. -1.
        -24    2    1    2    0    0  0.49269726174E+03  0.65900627985E+03  0.25624352703E+02  0.82705545250E+03  0.79525124613E+02 0.  0.
        254    2    1    2    0    0 -0.49269726174E+03 -0.65900627985E+03 -0.30320623683E+03  0.12690097661E+04  0.91728506784E+03 0.  0.
         23    2    4    4    0    0 -0.55481231664E+03 -0.14214761856E+03 -0.43569202820E+03  0.72522990396E+03  0.90045644017E+02 0.  0.
         23    2    4    4    0    0  0.62115054905E+02 -0.51685866129E+03  0.13248579136E+03  0.54377986210E+03  0.84515665464E+02 0.  0.
          3    1    3    3  502    0  0.57790310161E+02  0.11373428837E+03 -0.14708338422E+02  0.12841940476E+03  0.00000000000E+00 0. -1.
         -4    1    3    3    0  502  0.43490695158E+03  0.54527199148E+03  0.40332691125E+02  0.69863604774E+03  0.00000000000E+00 0.  1.
         11    1    5    5    0    0 -0.23865991211E+02 -0.27505294453E+02 -0.31748327766E+02  0.48312349098E+02  0.00000000000E+00 0. -1.
        -11    1    5    5    0    0 -0.53094632543E+03 -0.11464232411E+03 -0.40394370043E+03  0.67691755486E+03  0.00000000000E+00 0.  1.
          2    1    6    6  503    0 -0.83018914754E+01 -0.28093384869E+03  0.64647449107E+02  0.28839563349E+03  0.00000000000E+00 0. -1.
         -2    1    6    6    0  503  0.70416946380E+02 -0.23592481261E+03  0.67838342255E+02  0.25538422861E+03  0.00000000000E+00 0.  1.
<mgrwt>
<rscale>  0 0.20776038E+04</rscale>
<asrwt>0</asrwt>
<pdfrwt beam="1">  1        1 0.18258824E+00 0.20776038E+04</pdfrwt>
<pdfrwt beam="2">  1       -2 0.13988333E+00 0.20776038E+04</pdfrwt>
<totfact> 0.31788578E+00</totfact>
</mgrwt>
</event>
<event>
12    4  0.4381187E-008  0.1057059E+04  0.7818608E-02  0.9248086E-01
          1   -1    0    0  501    0  0.00000000000E+00  0.00000000000E+00  0.13051312937E+04  0.13051312937E+04  0.00000000000E+00 0. -1.
         -2   -1    0    0    0  501 -0.00000000000E+00 -0.00000000000E+00 -0.21403484491E+03  0.21403484491E+03  0.00000000000E+00 0.  1.
        -24    2    1    2    0    0  0.22662024937E+01  0.25707610999E+02  0.33570965602E+03  0.34608267169E+03  0.80038900287E+02 0.  0.
        254    2    1    2    0    0 -0.22662024937E+01 -0.25707610999E+02  0.75538679276E+03  0.11730834669E+04  0.89713410187E+03 0.  0.
         23    2    4    4    0    0  0.35668149941E+03 -0.14026504297E+03  0.87621810936E+02  0.40148660028E+03  0.81350686242E+02 0.  0.
         23    2    4    4    0    0 -0.35894770191E+03  0.11455743197E+03  0.66776498183E+03  0.77159686663E+03  0.86514713889E+02 0.  0.
          3    1    3    3  502    0  0.31968050580E+02  0.18770149209E+01  0.25311024061E+03  0.25512795485E+03  0.00000000000E+00 0. -1.
         -4    1    3    3    0  502 -0.29701848086E+02  0.23830596078E+02  0.82599415413E+02  0.90954716841E+02  0.00000000000E+00 0.  1.
         11    1    5    5    0    0  0.84975238897E+02 -0.57223779078E+02  0.52785074023E+02  0.11524589432E+03  0.00000000000E+00 0. -1.
        -11    1    5    5    0    0  0.27170626052E+03 -0.83041263891E+02  0.34836736913E+02  0.28624070596E+03  0.00000000000E+00 0.  1.
          4    1    6    6  503    0 -0.30957232667E+03  0.11849918203E+03  0.52918609695E+03  0.62443174710E+03  0.00000000000E+00 0. -1.
         -4    1    6    6    0  503 -0.49375375239E+02 -0.39417500588E+01  0.13857888488E+03  0.14716511954E+03  0.00000000000E+00 0.  1.
<mgrwt>
<rscale>  0 0.10570593E+04</rscale>
<asrwt>0</asrwt>
<pdfrwt beam="1">  1        1 0.20078943E+00 0.10570593E+04</pdfrwt>
<pdfrwt beam="2">  1       -2 0.32928438E-01 0.10570593E+04</pdfrwt>
<totfact> 0.67622712E+01</totfact>
</mgrwt>
</event>
<event>
12    4  0.4381187E-008  0.2134259E+04  0.7818608E-02  0.8546300E-01
         -2   -1    0    0    0  501 -0.00000000000E+00  0.00000000000E+00  0.44792220388E+03  0.44792220388E+03  0.00000000000E+00 0.  1.
          1   -1    0    0  501    0  0.00000000000E+00 -0.00000000000E+00 -0.25423293097E+04  0.25423293097E+04  0.00000000000E+00 0. -1.
        -24    2    1    2    0    0 -0.37588420560E+03 -0.78923502090E+03 -0.97789888806E+03  0.13147100905E+04  0.89417741374E+02 0.  0.
        254    2    1    2    0    0  0.37588420560E+03  0.78923502090E+03 -0.11165082177E+04  0.16755414231E+04  0.89256238210E+03 0.  0.
         23    2    4    4    0    0  0.31164798689E+02 -0.18528071868E+03 -0.23134383554E+03  0.31162030821E+03  0.91033273342E+02 0.  0.
         23    2    4    4    0    0  0.34471940691E+03  0.97451573958E+03 -0.88516438218E+03  0.13639211149E+04  0.90842874725E+02 0.  0.
          3    1    3    3  502    0 -0.30024048336E+03 -0.68212054931E+03 -0.79554761110E+03  0.10901049459E+04  0.00000000000E+00 0. -1.
         -4    1    3    3    0  502 -0.75643722236E+02 -0.10711447159E+03 -0.18235127696E+03  0.22460514452E+03  0.00000000000E+00 0.  1.
         11    1    5    5    0    0  0.39233034549E+02 -0.46712601803E+02 -0.11634580971E+03  0.13136835846E+03  0.00000000000E+00 0.  1.
        -11    1    5    5    0    0 -0.80682358603E+01 -0.13856811687E+03 -0.11499802583E+03  0.18025194975E+03  0.00000000000E+00 0. -1.
          3    1    6    6  503    0  0.34585012555E+03  0.95740841267E+03 -0.85572273168E+03  0.13298513344E+04  0.00000000000E+00 0. -1.
         -3    1    6    6    0  503 -0.11307186445E+01  0.17107326904E+02 -0.29441650502E+02  0.34069780491E+02  0.00000000000E+00 0.  1.
<mgrwt>
<rscale>  0 0.21342594E+04</rscale>
<asrwt>0</asrwt>
<pdfrwt beam="1">  1        1 0.39112759E+00 0.21342594E+04</pdfrwt>
<pdfrwt beam="2">  1       -2 0.68911108E-01 0.21342594E+04</pdfrwt>
<totfact> 0.19625038E+00</totfact>
</mgrwt>
</event>
<event>
12    4  0.4381187E-008  0.1580883E+04  0.7818608E-02  0.8832379E-01
         -2   -1    0    0    0  501 -0.00000000000E+00  0.00000000000E+00  0.85828152480E+03  0.85828152480E+03  0.00000000000E+00 0.  1.
          1   -1    0    0  501    0  0.00000000000E+00 -0.00000000000E+00 -0.72796366732E+03  0.72796366732E+03  0.00000000000E+00 0. -1.
        -24    2    1    2    0    0 -0.43600007231E+03 -0.33778809548E+02 -0.57911066164E+02  0.44956600546E+03  0.86711191047E+02 0.  0.
        254    2    1    2    0    0  0.43600007231E+03  0.33778809548E+02  0.18822892364E+03  0.11366791867E+04  0.10321687724E+04 0.  0.
         23    2    4    4    0    0  0.30238877893E+03  0.54060004561E+02  0.60715525110E+03  0.68642452905E+03  0.90441569150E+02 0.  0.
         23    2    4    4    0    0  0.13361129338E+03 -0.20281195013E+02 -0.41892632746E+03  0.45025465760E+03  0.94692577638E+02 0.  0.
          1    1    3    3  502    0 -0.75260292682E+02 -0.33534789644E+02 -0.30235623235E+02  0.87766090738E+02  0.00000000000E+00 0. -1.
         -2    1    3    3    0  502 -0.36073977963E+03 -0.24401990401E+00 -0.27675442929E+02  0.36179991472E+03  0.00000000000E+00 0.  1.
         11    1    5    5    0    0  0.29744651690E+03  0.33886723773E+02  0.56385037754E+03  0.63839641973E+03  0.00000000000E+00 0. -1.
        -11    1    5    5    0    0  0.49422620330E+01  0.20173280788E+02  0.43304873558E+02  0.48028109328E+02  0.00000000000E+00 0.  1.
          1    1    6    6  503    0  0.65281006332E+02 -0.50457964447E+02 -0.28727036237E+03  0.29888438745E+03  0.00000000000E+00 0. -1.
         -1    1    6    6    0  503  0.68330287049E+02  0.30176769434E+02 -0.13165596509E+03  0.15137027015E+03  0.00000000000E+00 0.  1.
<mgrwt>
<rscale>  0 0.15808830E+04</rscale>
<asrwt>0</asrwt>
<pdfrwt beam="1">  1        1 0.11199441E+00 0.15808830E+04</pdfrwt>
<pdfrwt beam="2">  1       -2 0.13204331E+00 0.15808830E+04</pdfrwt>
<totfact> 0.90099172E+00</totfact>
</mgrwt>
</event>
<event>
12    4  0.4381187E-008  0.1275037E+04  0.7818608E-02  0.9049598E-01
          1   -1    0    0  501    0  0.00000000000E+00  0.00000000000E+00  0.13809373996E+04  0.13809373996E+04  0.00000000000E+00 0. -1.
         -2   -1    0    0    0  501 -0.00000000000E+00 -0.00000000000E+00 -0.29431457727E+03  0.29431457727E+03  0.00000000000E+00 0.  1.
        -24    2    1    2    0    0  0.70681743567E+02 -0.22950579414E+03  0.89607860969E+01  0.25498088329E+03  0.85241637361E+02 0.  0.
        254    2    1    2    0    0 -0.70681743567E+02  0.22950579414E+03  0.10776620362E+04  0.14202710936E+04  0.89339000247E+03 0.  0.
         23    2    4    4    0    0  0.40144780682E+03  0.88865836041E+02  0.56134213663E+03  0.70090150774E+03  0.84264172560E+02 0.  0.
         23    2    4    4    0    0 -0.47212955039E+03  0.14063995810E+03  0.51631989961E+03  0.71936958585E+03  0.90666709171E+02 0.  0.
          3    1    3    3  502    0  0.29057252195E+02 -0.56136218662E+02 -0.33726714339E+02  0.71645587518E+02  0.00000000000E+00 0. -1.
         -4    1    3    3    0  502  0.41624491371E+02 -0.17336957547E+03  0.42687500436E+02  0.18333529577E+03  0.00000000000E+00 0.  1.
         11    1    5    5    0    0  0.10401979561E+03  0.29888013934E+02  0.91563603084E+02  0.14176496276E+03  0.00000000000E+00 0.  1.
        -11    1    5    5    0    0  0.29742801121E+03  0.58977822107E+02  0.46977853355E+03  0.55913654498E+03  0.00000000000E+00 0. -1.
          1    1    6    6  503    0 -0.21818151224E+03  0.51947106037E+02  0.17315919310E+03  0.28334745502E+03  0.00000000000E+00 0. -1.
         -1    1    6    6    0  503 -0.25394803814E+03  0.88692852059E+02  0.34316070650E+03  0.43602213083E+03  0.00000000000E+00 0.  1.
<mgrwt>
<rscale>  0 0.12750373E+04</rscale>
<asrwt>0</asrwt>
<pdfrwt beam="1">  1        1 0.21245190E+00 0.12750373E+04</pdfrwt>
<pdfrwt beam="2">  1       -2 0.45279167E-01 0.12750373E+04</pdfrwt>
<totfact> 0.31647715E+01</totfact>
</mgrwt>
</event>
<event>
12    4  0.4381187E-008  0.1248299E+04  0.7818608E-02  0.9071600E-01
         -2   -1    0    0    0  501 -0.00000000000E+00  0.00000000000E+00  0.40293207614E+03  0.40293207614E+03  0.00000000000E+00 0.  1.
          1   -1    0    0  501    0  0.00000000000E+00 -0.00000000000E+00 -0.96681895929E+03  0.96681895929E+03  0.00000000000E+00 0. -1.
        -24    2    1    2    0    0 -0.14730851685E+03  0.34308202460E+02 -0.42729545021E+03  0.46025342958E+03  0.79843382767E+02 0.  0.
        254    2    1    2    0    0  0.14730851685E+03 -0.34308202460E+02 -0.13659143293E+03  0.90949760585E+03  0.88637002635E+03 0.  0.
         23    2    4    4    0    0  0.12528918493E+03  0.41239977993E+03 -0.49071489406E+02  0.44441822057E+03  0.96584602051E+02 0.  0.
         23    2    4    4    0    0  0.22019331917E+02 -0.44670798239E+03 -0.87519943526E+02  0.46507938528E+03  0.92769723430E+02 0.  0.
          1    1    3    3  502    0 -0.15066708419E+03  0.37937508634E+02 -0.42793518772E+03  0.45526733872E+03  0.00000000000E+00 0. -1.
         -2    1    3    3    0  502  0.33585673474E+01 -0.36293061747E+01  0.63973750264E+00  0.49860908545E+01  0.00000000000E+00 0.  1.
         11    1    5    5    0    0  0.68170915366E+01  0.41887998440E+02  0.23803683000E+02  0.48658940337E+02  0.00000000000E+00 0. -1.
        -11    1    5    5    0    0  0.11847209339E+03  0.37051178149E+03 -0.72875172406E+02  0.39575928023E+03  0.00000000000E+00 0.  1.
          4    1    6    6  503    0  0.48375476797E+02 -0.40163664419E+03 -0.76162086056E+02  0.41164650377E+03  0.00000000000E+00 0.  1.
         -4    1    6    6    0  503 -0.26356144880E+02 -0.45071338203E+02 -0.11357857470E+02  0.53432881512E+02  0.00000000000E+00 0. -1.
<mgrwt>
<rscale>  0 0.12482986E+04</rscale>
<asrwt>0</asrwt>
<pdfrwt beam="1">  1        1 0.14874138E+00 0.12482986E+04</pdfrwt>
<pdfrwt beam="2">  1       -2 0.61989551E-01 0.12482986E+04</pdfrwt>
<totfact> 0.33578636E+01</totfact>
</mgrwt>
</event>
<event>
12    4  0.4381187E-008  0.1729832E+04  0.7818608E-02  0.8744531E-01
          1   -1    0    0  501    0  0.00000000000E+00  0.00000000000E+00  0.23378126946E+04  0.23378126946E+04  0.00000000000E+00 0. -1.
         -2   -1    0    0    0  501 -0.00000000000E+00 -0.00000000000E+00 -0.31999123821E+03  0.31999123821E+03  0.00000000000E+00 0.  1.
        -24    2    1    2    0    0  0.14557838491E+02 -0.23597427108E+03 -0.16487989919E+03  0.30070123182E+03  0.85674164061E+02 0.  0.
        254    2    1    2    0    0 -0.14557838491E+02  0.23597427108E+03  0.21827013556E+04  0.23571027010E+04  0.85781824886E+03 0.  0.
         23    2    4    4    0    0  0.33295633466E+03  0.36613108069E+03  0.13704369358E+04  0.14597473886E+04  0.88618026123E+02 0.  0.
         23    2    4    4    0    0 -0.34751417316E+03 -0.13015680961E+03  0.81226441981E+03  0.89735531239E+03  0.88125894909E+02 0.  0.
          1    1    3    3  502    0  0.49324669488E+01 -0.14671612017E+02 -0.47609221835E+02  0.50062195648E+02  0.00000000000E+00 0. -1.
         -2    1    3    3    0  502  0.96253715420E+01 -0.22130265907E+03 -0.11727067736E+03  0.25063903618E+03  0.00000000000E+00 0.  1.
         11    1    5    5    0    0  0.17427191181E+03  0.18657436551E+03  0.57804599704E+03  0.63191602908E+03  0.00000000000E+00 0.  1.
        -11    1    5    5    0    0  0.15868442285E+03  0.17955671518E+03  0.79239093872E+03  0.82783135951E+03  0.00000000000E+00 0. -1.
          3    1    6    6  503    0 -0.12322593925E+03 -0.37086836582E+02  0.19087187715E+03  0.23020021512E+03  0.00000000000E+00 0. -1.
         -3    1    6    6    0  503 -0.22428823390E+03 -0.93069973030E+02  0.62139254266E+03  0.66715509728E+03  0.00000000000E+00 0.  1.
<mgrwt>
<rscale>  0 0.17298319E+04</rscale>
<asrwt>0</asrwt>
<pdfrwt beam="1">  1        1 0.35966348E+00 0.17298319E+04</pdfrwt>
<pdfrwt beam="2">  1       -2 0.49229423E-01 0.17298319E+04</pdfrwt>
<totfact> 0.57137042E+00</totfact>
</mgrwt>
</event>
<event>
12    4  0.4381187E-008  0.1746432E+04  0.7818608E-02  0.8735316E-01
          1   -1    0    0  501    0  0.00000000000E+00  0.00000000000E+00  0.77621927977E+03  0.77621927977E+03  0.00000000000E+00 0. -1.
         -2   -1    0    0    0  501 -0.00000000000E+00 -0.00000000000E+00 -0.98233397507E+03  0.98233397507E+03  0.00000000000E+00 0.  1.
        -24    2    1    2    0    0  0.34827293624E+03 -0.44488053630E+03 -0.34846551535E+03  0.66863823362E+03  0.80225571809E+02 0.  0.
        254    2    1    2    0    0 -0.34827293624E+03  0.44488053630E+03  0.14235082005E+03  0.10899150212E+04  0.92110708813E+03 0.  0.
         23    2    4    4    0    0 -0.64608918422E+03  0.33754049579E+03  0.18517356473E+03  0.75768082018E+03  0.91794095299E+02 0.  0.
         23    2    4    4    0    0  0.29781624798E+03  0.10734004052E+03 -0.42822744683E+02  0.33223420103E+03  0.91265409757E+02 0.  0.
          1    1    3    3  502    0  0.15043171212E+03 -0.14456170959E+03 -0.15783157741E+03  0.26160771151E+03  0.00000000000E+00 0. -1.
         -2    1    3    3    0  502  0.19784122413E+03 -0.30031882671E+03 -0.19063393794E+03  0.40703052212E+03  0.00000000000E+00 0.  1.
         11    1    5    5    0    0 -0.60968646711E+03  0.34023412519E+03  0.17669190354E+03  0.72020613501E+03  0.00000000000E+00 0. -1.
        -11    1    5    5    0    0 -0.36402717105E+02 -0.26936294079E+01  0.84816611956E+01  0.37474685171E+02  0.00000000000E+00 0.  1.
          3    1    6    6  503    0  0.38032181310E+02  0.40860701767E+02 -0.30924396720E+02  0.63815061519E+02  0.00000000000E+00 0. -1.
         -3    1    6    6    0  503  0.25978406667E+03  0.66479338751E+02 -0.11898347963E+02  0.26841913952E+03  0.00000000000E+00 0.  1.
<mgrwt>
<rscale>  0 0.17464324E+04</rscale>
<asrwt>0</asrwt>
<pdfrwt beam="1">  1        1 0.11941835E+00 0.17464324E+04</pdfrwt>
<pdfrwt beam="2">  1       -2 0.15112830E+00 0.17464324E+04</pdfrwt>
<totfact> 0.56558695E+00</totfact>
</mgrwt>
</event>
<event>
12    4  0.4381187E-008  0.2372887E+04  0.7818608E-02  0.8449724E-01
          1   -1    0    0  501    0  0.00000000000E+00  0.00000000000E+00  0.70476570939E+03  0.70476570939E+03  0.00000000000E+00 0. -1.
         -2   -1    0    0    0  501 -0.00000000000E+00 -0.00000000000E+00 -0.19973283669E+04  0.19973283669E+04  0.00000000000E+00 0.  1.
        -24    2    1    2    0    0  0.32464588943E+03 -0.91865697009E+03 -0.23985494867E+03  0.10067877382E+04  0.82253092513E+02 0.  0.
        254    2    1    2    0    0 -0.32464588943E+03  0.91865697009E+03 -0.10527077089E+04  0.16953063381E+04  0.90362850632E+03 0.  0.
         23    2    4    4    0    0 -0.62095589716E+02 -0.84159437107E+02 -0.49607018237E+03  0.51521138389E+03  0.91752226847E+02 0.  0.
         23    2    4    4    0    0 -0.26255029971E+03  0.10028164072E+04 -0.55663752651E+03  0.11800949542E+04  0.90583434525E+02 0.  0.
          3    1    3    3  502    0  0.24844862168E+03 -0.59653725901E+03 -0.17501545002E+03  0.66948773457E+03  0.00000000000E+00 0. -1.
         -4    1    3    3    0  502  0.76197267748E+02 -0.32211971109E+03 -0.64839498652E+02  0.33730000366E+03  0.00000000000E+00 0.  1.
         11    1    5    5    0    0 -0.50009857011E+02 -0.10421140069E+03 -0.42047730899E+03  0.43607587552E+03  0.00000000000E+00 0.  1.
        -11    1    5    5    0    0 -0.12085732705E+02  0.20051963587E+02 -0.75592873384E+02  0.79135508371E+02  0.00000000000E+00 0. -1.
          4    1    6    6  503    0 -0.77054604970E+02  0.20963433391E+03 -0.15511979482E+03  0.27193035294E+03  0.00000000000E+00 0. -1.
         -4    1    6    6    0  503 -0.18549569474E+03  0.79318207329E+03 -0.40151773168E+03  0.90816460127E+03  0.00000000000E+00 0.  1.
<mgrwt>
<rscale>  0 0.23728873E+04</rscale>
<asrwt>0</asrwt>
<pdfrwt beam="1">  1        1 0.10842549E+00 0.23728873E+04</pdfrwt>
<pdfrwt beam="2">  1       -2 0.30728129E+00 0.23728873E+04</pdfrwt>
<totfact> 0.60897797E-01</totfact>
</mgrwt>
</event>
<event>
12    4  0.4381187E-008  0.1673585E+04  0.7818608E-02  0.8776575E-01
         -2   -1    0    0    0  501 -0.00000000000E+00  0.00000000000E+00  0.68516986711E+03  0.68516986711E+03  0.00000000000E+00 0.  1.
          1   -1    0    0  501    0  0.00000000000E+00 -0.00000000000E+00 -0.10219676301E+04  0.10219676301E+04  0.00000000000E+00 0. -1.
        -24    2    1    2    0    0  0.46066397115E+03 -0.37031977542E+03 -0.13578660204E+03  0.61129365261E+03  0.76771726900E+02 0.  0.
        254    2    1    2    0    0 -0.46066397115E+03  0.37031977542E+03 -0.20101116093E+03  0.10958438446E+04  0.90062212637E+03 0.  0.
         23    2    4    4    0    0 -0.29915737208E+03 -0.24862436164E+03  0.50459507316E+02  0.40277994216E+03  0.91522201951E+02 0.  0.
         23    2    4    4    0    0 -0.16150659906E+03  0.61894413706E+03 -0.25147066825E+03  0.69306390242E+03  0.89016007023E+02 0.  0.
          3    1    3    3  502    0  0.15565997318E+03 -0.16662008087E+03 -0.71227052463E+02  0.23888401286E+03  0.00000000000E+00 0. -1.
         -4    1    3    3    0  502  0.30500399797E+03 -0.20369969455E+03 -0.64559549575E+02  0.37240963975E+03  0.00000000000E+00 0.  1.
         11    1    5    5    0    0 -0.13206594787E+03 -0.11815153146E+03 -0.22395844672E+02  0.17861347326E+03  0.00000000000E+00 0. -1.
        -11    1    5    5    0    0 -0.16709142422E+03 -0.13047283019E+03  0.72855351989E+02  0.22416646889E+03  0.00000000000E+00 0.  1.
          3    1    6    6  503    0 -0.96932558276E+02  0.32432132053E+03 -0.17879332417E+03  0.38281495866E+03  0.00000000000E+00 0. -1.
         -3    1    6    6    0  503 -0.64574040788E+02  0.29462281653E+03 -0.72677344079E+02  0.31024894376E+03  0.00000000000E+00 0.  1.
<mgrwt>
<rscale>  0 0.16735847E+04</rscale>
<asrwt>0</asrwt>
<pdfrwt beam="1">  1        1 0.15722579E+00 0.16735847E+04</pdfrwt>
<pdfrwt beam="2">  1       -2 0.10541075E+00 0.16735847E+04</pdfrwt>
<totfact> 0.88568348E+00</totfact>
</mgrwt>
</event>
<event>
12    4  0.4381187E-008  0.1806636E+04  0.7818608E-02  0.8702778E-01
         -2   -1    0    0    0  501 -0.00000000000E+00  0.00000000000E+00  0.18114001676E+03  0.18114001676E+03  0.00000000000E+00 0.  1.
          1   -1    0    0  501    0  0.00000000000E+00 -0.00000000000E+00 -0.45047107842E+04  0.45047107842E+04  0.00000000000E+00 0. -1.
        -24    2    1    2    0    0 -0.46349236240E+03  0.42923537654E+03 -0.99420974450E+03  0.11807066033E+04  0.80912845742E+02 0.  0.
        254    2    1    2    0    0  0.46349236240E+03 -0.42923537654E+03 -0.33293610230E+04  0.35051441977E+04  0.89572476051E+03 0.  0.
         23    2    4    4    0    0  0.38951124479E+03 -0.11231575074E+03 -0.30150476176E+04  0.30435277081E+04  0.90636286102E+02 0.  0.
         23    2    4    4    0    0  0.73981117605E+02 -0.31691962580E+03 -0.31431340542E+03  0.46161648953E+03  0.91572985069E+02 0.  0.
          3    1    3    3  502    0 -0.30024727906E+03  0.30744411551E+03 -0.61501573567E+03  0.75027639432E+03  0.00000000000E+00 0. -1.
         -4    1    3    3    0  502 -0.16324508333E+03  0.12179126103E+03 -0.37919400883E+03  0.43043020901E+03  0.00000000000E+00 0.  1.
         11    1    5    5    0    0  0.15117712888E+03 -0.59690155710E+02 -0.15230319839E+04  0.15316800785E+04  0.00000000000E+00 0. -1.
        -11    1    5    5    0    0  0.23833411591E+03 -0.52625595032E+02 -0.14920156337E+04  0.15118476296E+04  0.00000000000E+00 0.  1.
          2    1    6    6  503    0  0.76154169817E+02 -0.14689121299E+03 -0.12659838119E+03  0.20833539342E+03  0.00000000000E+00 0. -1.
         -2    1    6    6    0  503 -0.21730522114E+01 -0.17002841281E+03 -0.18771502423E+03  0.25328109610E+03  0.00000000000E+00 0.  1.
<mgrwt>
<rscale>  0 0.18066360E+04</rscale>
<asrwt>0</asrwt>
<pdfrwt beam="1">  1        1 0.69303234E+00 0.18066360E+04</pdfrwt>
<pdfrwt beam="2">  1       -2 0.27867698E-01 0.18066360E+04</pdfrwt>
<totfact> 0.31616025E-01</totfact>
</mgrwt>
</event>
<event>
12    4  0.4381187E-008  0.2665109E+04  0.7818608E-02  0.8346416E-01
          1   -1    0    0  501    0  0.00000000000E+00  0.00000000000E+00  0.18136824557E+04  0.18136824557E+04  0.00000000000E+00 0. -1.
         -2   -1    0    0    0  501 -0.00000000000E+00 -0.00000000000E+00 -0.97905849430E+03  0.97905849430E+03  0.00000000000E+00 0.  1.
        -24    2    1    2    0    0 -0.36872315897E+03 -0.67182176527E+03 -0.57103779999E+03  0.95892979074E+03  0.78491542917E+02 0.  0.
        254    2    1    2    0    0  0.36872315897E+03  0.67182176527E+03  0.14056617614E+04  0.18338111593E+04  0.89424668193E+03 0.  0.
         23    2    4    4    0    0 -0.27967990057E+03  0.31435174865E+03  0.51132654358E+03  0.66864120073E+03  0.92673364505E+02 0.  0.
         23    2    4    4    0    0  0.64840305954E+03  0.35747001662E+03  0.89433521782E+03  0.11651699585E+04  0.97847892309E+02 0.  0.
          3    1    3    3  502    0 -0.13611222157E+01  0.22765684004E+01 -0.16557947797E+01  0.31268312587E+01  0.00000000000E+00 0. -1.
         -4    1    3    3    0  502 -0.36736203675E+03 -0.67409833367E+03 -0.56938200521E+03  0.95580295949E+03  0.00000000000E+00 0.  1.
         11    1    5    5    0    0 -0.22610148138E+03  0.20893007735E+03  0.32254996274E+03  0.44588354485E+03  0.00000000000E+00 0. -1.
        -11    1    5    5    0    0 -0.53578419193E+02  0.10542167130E+03  0.18877658083E+03  0.22275765588E+03  0.00000000000E+00 0.  1.
          3    1    6    6  503    0  0.53293970687E+03  0.33413793197E+03  0.74957633761E+03  0.97853848910E+03  0.00000000000E+00 0. -1.
         -3    1    6    6    0  503  0.11546335267E+03  0.23332084650E+02  0.14475888020E+03  0.18663146943E+03  0.00000000000E+00 0.  1.
<mgrwt>
<rscale>  0 0.26651088E+04</rscale>
<asrwt>0</asrwt>
<pdfrwt beam="1">  1        1 0.27902807E+00 0.26651088E+04</pdfrwt>
<pdfrwt beam="2">  1       -2 0.15062438E+00 0.26651088E+04</pdfrwt>
<totfact> 0.90936671E-01</totfact>
</mgrwt>
</event>
<event>
12    4  0.4381187E-008  0.1310085E+04  0.7818608E-02  0.9021606E-01
         -2   -1    0    0    0  501 -0.00000000000E+00  0.00000000000E+00  0.13187906656E+03  0.13187906656E+03  0.00000000000E+00 0.  1.
          1   -1    0    0  501    0  0.00000000000E+00 -0.00000000000E+00 -0.32535904181E+04  0.32535904181E+04  0.00000000000E+00 0. -1.
        -24    2    1    2    0    0 -0.22493149911E+03 -0.20006352022E+03 -0.94788316126E+03  0.99781400757E+03  0.80812838653E+02 0.  0.
        254    2    1    2    0    0  0.22493149911E+03  0.20006352022E+03 -0.21738281903E+04  0.23876554771E+04  0.94061154839E+03 0.  0.
         23    2    4    4    0    0  0.50902177293E+03 -0.10974223258E+03 -0.14788676434E+04  0.15705489140E+04  0.91803385628E+02 0.  0.
         23    2    4    4    0    0 -0.28409027382E+03  0.30980575281E+03 -0.69496054687E+03  0.81710656308E+03  0.89476732003E+02 0.  0.
          3    1    3    3  502    0 -0.16029068640E+03 -0.15692417927E+03 -0.79870479148E+03  0.82960692266E+03  0.00000000000E+00 0. -1.
         -4    1    3    3    0  502 -0.64640812709E+02 -0.43139340953E+02 -0.14917836977E+03  0.16820708491E+03  0.00000000000E+00 0.  1.
         11    1    5    5    0    0  0.43279981314E+03 -0.85635922654E+02 -0.11403864239E+04  0.12227552434E+04  0.00000000000E+00 0.  1.
        -11    1    5    5    0    0  0.76221959795E+02 -0.24106309930E+02 -0.33848121953E+03  0.34779367060E+03  0.00000000000E+00 0. -1.
          1    1    6    6  503    0 -0.16737524781E+03  0.16186744020E+03 -0.30234460661E+03  0.38161211055E+03  0.00000000000E+00 0. -1.
         -1    1    6    6    0  503 -0.11671502601E+03  0.14793831261E+03 -0.39261594026E+03  0.43549445253E+03  0.00000000000E+00 0.  1.
<mgrwt>
<rscale>  0 0.13100847E+04</rscale>
<asrwt>0</asrwt>
<pdfrwt beam="1">  1        1 0.50055238E+00 0.13100847E+04</pdfrwt>
<pdfrwt beam="2">  1       -2 0.20289087E-01 0.13100847E+04</pdfrwt>
<totfact> 0.70530407E+00</totfact>
</mgrwt>
</event>
<event>
12    4  0.4381187E-008  0.1793284E+04  0.7818608E-02  0.8709879E-01
          1   -1    0    0  501    0  0.00000000000E+00  0.00000000000E+00  0.34857018384E+04  0.34857018384E+04  0.00000000000E+00 0. -1.
         -4   -1    0    0    0  501 -0.00000000000E+00 -0.00000000000E+00 -0.23064707866E+03  0.23064707866E+03  0.00000000000E+00 0.  1.
        -24    2    1    2    0    0  0.26803634800E+03 -0.34241640808E+03  0.16771061417E+03  0.47282224942E+03  0.79633843792E+02 0.  0.
        254    2    1    2    0    0 -0.26803634800E+03  0.34241640808E+03  0.30873441456E+04  0.32435266676E+04  0.89424766709E+03 0.  0.
         23    2    4    4    0    0 -0.27922662757E+03 -0.11941526362E+03  0.37478717126E+03  0.49049045188E+03  0.88814103097E+02 0.  0.
         23    2    4    4    0    0  0.11190279572E+02  0.46183167169E+03  0.27125569743E+04  0.27530362158E+04  0.88483620314E+02 0.  0.
          3    1    3    3  502    0  0.15456924027E+02 -0.22147383379E+02  0.34339262808E+02  0.43687619083E+02  0.00000000000E+00 0. -1.
         -4    1    3    3    0  502  0.25257942397E+03 -0.32026902470E+03  0.13337135136E+03  0.42913463034E+03  0.00000000000E+00 0.  1.
         11    1    5    5    0    0 -0.16851937821E+03 -0.45212631847E+02  0.15464113535E+03  0.23314554178E+03  0.00000000000E+00 0.  1.
        -11    1    5    5    0    0 -0.11070724936E+03 -0.74202631772E+02  0.22014603592E+03  0.25734491010E+03  0.00000000000E+00 0. -1.
          4    1    6    6  503    0 -0.11019486261E+01  0.27807461488E+03  0.13728412805E+04  0.14007212026E+04  0.00000000000E+00 0. -1.
         -4    1    6    6    0  503  0.12292228199E+02  0.18375705681E+03  0.13397156938E+04  0.13523150132E+04  0.00000000000E+00 0.  1.
<mgrwt>
<rscale>  0 0.17932841E+04</rscale>
<asrwt>0</asrwt>
<pdfrwt beam="1">  1        1 0.53626178E+00 0.17932841E+04</pdfrwt>
<pdfrwt beam="2">  1       -4 0.35484168E-01 0.17932841E+04</pdfrwt>
<totfact> 0.94478920E-01</totfact>
</mgrwt>
</event>
<event>
12    4  0.4381187E-008  0.2635407E+04  0.7818608E-02  0.8356273E-01
          1   -1    0    0  501    0  0.00000000000E+00  0.00000000000E+00  0.23961938646E+04  0.23961938646E+04  0.00000000000E+00 0. -1.
         -2   -1    0    0    0  501 -0.00000000000E+00 -0.00000000000E+00 -0.72462509173E+03  0.72462509173E+03  0.00000000000E+00 0.  1.
        -24    2    1    2    0    0  0.10317253027E+03 -0.81628037307E+03  0.17110628225E+04  0.19002592314E+04  0.79315481077E+02 0.  0.
        254    2    1    2    0    0 -0.10317253027E+03  0.81628037307E+03 -0.39494049683E+02  0.12205597249E+04  0.90069309065E+03 0.  0.
         23    2    4    4    0    0 -0.13743638702E+03  0.72472191787E+03 -0.39467461371E+03  0.84143679987E+03  0.90206533901E+02 0.  0.
         23    2    4    4    0    0  0.34263856752E+02  0.91558455209E+02  0.35518056403E+03  0.37912292500E+03  0.89576763716E+02 0.  0.
          1    1    3    3  502    0  0.11430346431E+03 -0.78334400037E+03  0.16306973265E+04  0.18126960241E+04  0.00000000000E+00 0. -1.
         -2    1    3    3    0  502 -0.11130934037E+02 -0.32936372700E+02  0.80365495988E+02  0.87563207368E+02  0.00000000000E+00 0.  1.
         11    1    5    5    0    0 -0.36868979658E+02  0.17624273287E+03 -0.14163033820E+03  0.22908508300E+03  0.00000000000E+00 0.  1.
        -11    1    5    5    0    0 -0.10056740736E+03  0.54847918499E+03 -0.25304427551E+03  0.61235171688E+03  0.00000000000E+00 0. -1.
          4    1    6    6  503    0  0.29420370147E+02  0.97820024954E+02  0.20799351601E+03  0.23172314982E+03  0.00000000000E+00 0. -1.
         -4    1    6    6    0  503  0.48434866054E+01 -0.62615697452E+01  0.14718704802E+03  0.14739977518E+03  0.00000000000E+00 0.  1.
<mgrwt>
<rscale>  0 0.26354068E+04</rscale>
<asrwt>0</asrwt>
<pdfrwt beam="1">  1        1 0.36864521E+00 0.26354068E+04</pdfrwt>
<pdfrwt beam="2">  1       -2 0.11148078E+00 0.26354068E+04</pdfrwt>
<totfact> 0.78463984E-01</totfact>
</mgrwt>
</event>
<event>
12    4  0.4381187E-008  0.3458932E+04  0.7818608E-02  0.8123592E-01
         -2   -1    0    0    0  501 -0.00000000000E+00  0.00000000000E+00  0.12822906187E+04  0.12822906187E+04  0.00000000000E+00 0.  1.
          1   -1    0    0  501    0  0.00000000000E+00 -0.00000000000E+00 -0.23325858432E+04  0.23325858432E+04  0.00000000000E+00 0. -1.
        -24    2    1    2    0    0 -0.11136335265E+04  0.11483467924E+04 -0.25319249055E+03  0.16216311556E+04  0.81860739720E+02 0.  0.
        254    2    1    2    0    0  0.11136335265E+04 -0.11483467924E+04 -0.79710273391E+03  0.19932453063E+04  0.88248178210E+03 0.  0.
         23    2    4    4    0    0  0.94824702024E+03 -0.11155129210E+04 -0.35173192065E+03  0.15084388506E+04  0.90171690979E+02 0.  0.
         23    2    4    4    0    0  0.16538650624E+03 -0.32833871451E+02 -0.44537081327E+03  0.48480645568E+03  0.90837099217E+02 0.  0.
          1    1    3    3  502    0 -0.47173502000E+03  0.49701472916E+03 -0.68172318780E+02  0.68862546798E+03  0.00000000000E+00 0. -1.
         -2    1    3    3    0  502 -0.64189850648E+03  0.65133206326E+03 -0.18502017177E+03  0.93300568767E+03  0.00000000000E+00 0.  1.
         11    1    5    5    0    0  0.54831594621E+03 -0.66208610166E+03 -0.16216846190E+03  0.87481826279E+03  0.00000000000E+00 0.  1.
        -11    1    5    5    0    0  0.39993107403E+03 -0.45342681931E+03 -0.18956345875E+03  0.63362058784E+03  0.00000000000E+00 0. -1.
          2    1    6    6  503    0  0.41847549353E+02 -0.34478594403E+02 -0.63781508704E+02  0.83714226457E+02  0.00000000000E+00 0. -1.
         -2    1    6    6    0  503  0.12353895689E+03  0.16447229517E+01 -0.38158930456E+03  0.40109222922E+03  0.00000000000E+00 0.  1.
<mgrwt>
<rscale>  0 0.34589322E+04</rscale>
<asrwt>0</asrwt>
<pdfrwt beam="1">  1        1 0.35885936E+00 0.34589322E+04</pdfrwt>
<pdfrwt beam="2">  1       -2 0.19727548E+00 0.34589322E+04</pdfrwt>
<totfact> 0.17646772E-01</totfact>
</mgrwt>
</event>
<event>
12    4  0.4381187E-008  0.2602101E+04  0.7818608E-02  0.8367488E-01
         -2   -1    0    0    0  501 -0.00000000000E+00  0.00000000000E+00  0.52498441211E+03  0.52498441211E+03  0.00000000000E+00 0.  1.
          1   -1    0    0  501    0  0.00000000000E+00 -0.00000000000E+00 -0.32243479119E+04  0.32243479119E+04  0.00000000000E+00 0. -1.
        -24    2    1    2    0    0  0.44770900196E+03  0.41276676767E+03  0.20460044040E+03  0.64725260161E+03  0.79087515722E+02 0.  0.
        254    2    1    2    0    0 -0.44770900196E+03 -0.41276676767E+03 -0.29039639402E+04  0.31020797224E+04  0.90502612300E+03 0.  0.
         23    2    4    4    0    0 -0.58492329008E+03 -0.51378853008E+03 -0.15760604605E+04  0.17602458322E+04  0.91569129987E+02 0.  0.
         23    2    4    4    0    0  0.13721428811E+03  0.10102176241E+03 -0.13279034797E+04  0.13418338902E+04  0.90318216919E+02 0.  0.
          1    1    3    3  502    0  0.30927302573E+03  0.24526318719E+03  0.15697895394E+03  0.42478962725E+03  0.00000000000E+00 0. -1.
         -2    1    3    3    0  502  0.13843597624E+03  0.16750358048E+03  0.47621486452E+02  0.22246297436E+03  0.00000000000E+00 0.  1.
         11    1    5    5    0    0 -0.31414671210E+03 -0.23688442210E+03 -0.71528186920E+03  0.81635196979E+03  0.00000000000E+00 0. -1.
        -11    1    5    5    0    0 -0.27077657797E+03 -0.27690410798E+03 -0.86077859130E+03  0.94389386238E+03  0.00000000000E+00 0.  1.
          1    1    6    6  503    0  0.10091436067E+03  0.22582514890E+02 -0.60394231742E+03  0.61273158963E+03  0.00000000000E+00 0. -1.
         -1    1    6    6    0  503  0.36299927443E+02  0.78439247522E+02 -0.72396116225E+03  0.72910230059E+03  0.00000000000E+00 0.  1.
<mgrwt>
<rscale>  0 0.26021010E+04</rscale>
<asrwt>0</asrwt>
<pdfrwt beam="1">  1        1 0.49605353E+00 0.26021010E+04</pdfrwt>
<pdfrwt beam="2">  1       -2 0.80766831E-01 0.26021010E+04</pdfrwt>
<totfact> 0.42699373E-01</totfact>
</mgrwt>
</event>
<event>
12    4  0.4381187E-008  0.1368971E+04  0.7818608E-02  0.8976591E-01
         -4   -1    0    0    0  501 -0.00000000000E+00  0.00000000000E+00  0.31898424140E+03  0.31898424140E+03  0.00000000000E+00 0.  1.
          1   -1    0    0  501    0  0.00000000000E+00 -0.00000000000E+00 -0.14687874840E+04  0.14687874840E+04  0.00000000000E+00 0. -1.
        -24    2    1    2    0    0  0.37427678203E+03 -0.96716172065E+01 -0.21841121851E+03  0.44080868881E+03  0.80200935257E+02 0.  0.
        254    2    1    2    0    0 -0.37427678203E+03  0.96716172065E+01 -0.93139202407E+03  0.13469630366E+04  0.89813232301E+03 0.  0.
         23    2    4    4    0    0 -0.92147531575E+02  0.33436461831E+03 -0.50203407372E+02  0.36231392022E+03  0.91978960192E+02 0.  0.
         23    2    4    4    0    0 -0.28212925046E+03 -0.32469300111E+03 -0.88118861669E+03  0.98464911634E+03  0.89543537996E+02 0.  0.
          3    1    3    3  502    0  0.33468640652E+02 -0.65623528397E+01  0.32268077497E+01  0.34258235070E+02  0.00000000000E+00 0. -1.
         -4    1    3    3    0  502  0.34080814138E+03 -0.31092643668E+01 -0.22163802625E+03  0.40655045374E+03  0.00000000000E+00 0.  1.
         11    1    5    5    0    0 -0.10363244538E+03  0.23463979625E+03 -0.19076357906E+02  0.25721474520E+03  0.00000000000E+00 0. -1.
        -11    1    5    5    0    0  0.11484913802E+02  0.99724822062E+02 -0.31127049466E+02  0.10509917502E+03  0.00000000000E+00 0.  1.
          2    1    6    6  503    0 -0.19866414990E+03 -0.20791037550E+03 -0.67204442739E+03  0.73098418661E+03  0.00000000000E+00 0. -1.
         -2    1    6    6    0  503 -0.83465100562E+02 -0.11678262561E+03 -0.20914418931E+03  0.25366492973E+03  0.00000000000E+00 0.  1.
<mgrwt>
<rscale>  0 0.13689705E+04</rscale>
<asrwt>0</asrwt>
<pdfrwt beam="1">  1        1 0.22596731E+00 0.13689705E+04</pdfrwt>
<pdfrwt beam="2">  1       -4 0.49074499E-01 0.13689705E+04</pdfrwt>
<totfact> 0.13253146E+01</totfact>
</mgrwt>
</event>
<event>
12    4  0.4381187E-008  0.1550852E+04  0.7818608E-02  0.8851324E-01
         -2   -1    0    0    0  501 -0.00000000000E+00  0.00000000000E+00  0.28112979894E+03  0.28112979894E+03  0.00000000000E+00 0.  1.
          1   -1    0    0  501    0  0.00000000000E+00 -0.00000000000E+00 -0.21388173273E+04  0.21388173273E+04  0.00000000000E+00 0. -1.
        -24    2    1    2    0    0 -0.23291296345E+03  0.41532556657E+03 -0.31705607516E+03  0.57760455537E+03  0.79741412038E+02 0.  0.
        254    2    1    2    0    0  0.23291296345E+03 -0.41532556657E+03 -0.15406314532E+04  0.18423425708E+04  0.89103148036E+03 0.  0.
         23    2    4    4    0    0  0.14334168314E+03 -0.57930429390E+03 -0.50904444445E+03  0.79000089151E+03  0.93993931275E+02 0.  0.
         23    2    4    4    0    0  0.89571280316E+02  0.16397872732E+03 -0.10315870087E+04  0.10523416793E+04  0.91319308975E+02 0.  0.
          3    1    3    3  502    0 -0.64190070594E+01  0.16706320821E+02 -0.35020761739E+02  0.39328851493E+02  0.00000000000E+00 0. -1.
         -4    1    3    3    0  502 -0.22649395640E+03  0.39861924575E+03 -0.28203531342E+03  0.53827570388E+03  0.00000000000E+00 0.  1.
         11    1    5    5    0    0  0.78900996938E+01 -0.21850325066E+03 -0.17747103479E+03  0.28160591686E+03  0.00000000000E+00 0. -1.
        -11    1    5    5    0    0  0.13545158345E+03 -0.36080104323E+03 -0.33157340966E+03  0.50839497465E+03  0.00000000000E+00 0.  1.
          3    1    6    6  503    0 -0.14137231896E+02  0.54730914090E+02 -0.32463153199E+03  0.32951626037E+03  0.00000000000E+00 0.  1.
         -3    1    6    6    0  503  0.10370851221E+03  0.10924781323E+03 -0.70695547672E+03  0.72282541894E+03  0.00000000000E+00 0. -1.
<mgrwt>
<rscale>  0 0.15508517E+04</rscale>
<asrwt>0</asrwt>
<pdfrwt beam="1">  1        1 0.32904881E+00 0.15508517E+04</pdfrwt>
<pdfrwt beam="2">  1       -2 0.43250739E-01 0.15508517E+04</pdfrwt>
<totfact> 0.10290388E+01</totfact>
</mgrwt>
</event>
<event>
12    4  0.4381187E-008  0.1293177E+04  0.7818608E-02  0.9034993E-01
          1   -1    0    0  501    0  0.00000000000E+00  0.00000000000E+00  0.94458902859E+03  0.94458902859E+03  0.00000000000E+00 0. -1.
         -2   -1    0    0    0  501 -0.00000000000E+00 -0.00000000000E+00 -0.44260174175E+03  0.44260174175E+03  0.00000000000E+00 0.  1.
        -24    2    1    2    0    0  0.28231687010E+03 -0.16045520913E+02 -0.63907365313E+02  0.30126498011E+03  0.81952199551E+02 0.  0.
        254    2    1    2    0    0 -0.28231687010E+03  0.16045520913E+02  0.56589465215E+03  0.10859257902E+04  0.88263117476E+03 0.  0.
         23    2    4    4    0    0  0.10173442985E+03  0.19837329146E+03  0.60145287669E+03  0.64804425948E+03  0.92271026772E+02 0.  0.
         23    2    4    4    0    0 -0.38405129996E+03 -0.18232777055E+03 -0.35558224547E+02  0.43788153074E+03  0.98676393943E+02 0.  0.
          1    1    3    3  502    0  0.15197683677E+03 -0.21142870127E+02  0.54401828432E+01  0.15353688632E+03  0.00000000000E+00 0. -1.
         -2    1    3    3    0  502  0.13034003333E+03  0.50973492134E+01 -0.69347548156E+02  0.14772809379E+03  0.00000000000E+00 0.  1.
         11    1    5    5    0    0  0.42973826199E+02  0.29661600321E+02  0.23013248739E+03  0.23598203751E+03  0.00000000000E+00 0. -1.
        -11    1    5    5    0    0  0.58760603655E+02  0.16871169114E+03  0.37132038930E+03  0.41206222198E+03  0.00000000000E+00 0.  1.
          2    1    6    6  503    0 -0.30274990122E+03 -0.10741736406E+03 -0.54165097950E+02  0.32577576740E+03  0.00000000000E+00 0. -1.
         -2    1    6    6    0  503 -0.81301398740E+02 -0.74910406487E+02  0.18606873403E+02  0.11210576334E+03  0.00000000000E+00 0.  1.
<mgrwt>
<rscale>  0 0.12931771E+04</rscale>
<asrwt>0</asrwt>
<pdfrwt beam="1">  1        1 0.14532139E+00 0.12931771E+04</pdfrwt>
<pdfrwt beam="2">  1       -2 0.68092576E-01 0.12931771E+04</pdfrwt>
<totfact> 0.28483244E+01</totfact>
</mgrwt>
</event>
<event>
12    4  0.4381187E-008  0.1844941E+04  0.7818608E-02  0.8682759E-01
          1   -1    0    0  501    0  0.00000000000E+00  0.00000000000E+00  0.72850655704E+03  0.72850655704E+03  0.00000000000E+00 0. -1.
         -2   -1    0    0    0  501 -0.00000000000E+00 -0.00000000000E+00 -0.11680767190E+04  0.11680767190E+04  0.00000000000E+00 0.  1.
        -24    2    1    2    0    0 -0.44303593539E+03  0.43022667211E+03 -0.51586099072E+03  0.80862375340E+03  0.79899833448E+02 0.  0.
        254    2    1    2    0    0  0.44303593539E+03 -0.43022667211E+03  0.76290828781E+02  0.10879595226E+04  0.89244596634E+03 0.  0.
         23    2    4    4    0    0  0.21908761613E+03  0.13245830084E+03  0.32810205421E+03  0.42567271082E+03  0.89452298754E+02 0.  0.
         23    2    4    4    0    0  0.22394831926E+03 -0.56268497295E+03 -0.25181122543E+03  0.66228681179E+03  0.91911366781E+02 0.  0.
          1    1    3    3  502    0 -0.18817154547E+02  0.19603197220E+02 -0.48645595078E+02  0.55720414275E+02  0.00000000000E+00 0. -1.
         -2    1    3    3    0  502 -0.42421878084E+03  0.41062347489E+03 -0.46721539564E+03  0.75290333913E+03  0.00000000000E+00 0.  1.
         11    1    5    5    0    0  0.12003656194E+02 -0.81337882101E+01  0.47470015632E+02  0.49635155452E+02  0.00000000000E+00 0.  1.
        -11    1    5    5    0    0  0.20708395994E+03  0.14059208905E+03  0.28063203858E+03  0.37603755537E+03  0.00000000000E+00 0. -1.
          3    1    6    6  503    0  0.14853808023E+03 -0.33370787687E+03 -0.10515772942E+03  0.38010874289E+03  0.00000000000E+00 0. -1.
         -3    1    6    6    0  503  0.75410239026E+02 -0.22897709608E+03 -0.14665349601E+03  0.28217806890E+03  0.00000000000E+00 0.  1.
<mgrwt>
<rscale>  0 0.18449407E+04</rscale>
<asrwt>0</asrwt>
<pdfrwt beam="1">  1        1 0.11207793E+00 0.18449407E+04</pdfrwt>
<pdfrwt beam="2">  1       -2 0.17970411E+00 0.18449407E+04</pdfrwt>
<totfact> 0.38412640E+00</totfact>
</mgrwt>
</event>
<event>
12    4  0.4381187E-008  0.1689937E+04  0.7818608E-02  0.8767125E-01
         -2   -1    0    0    0  501 -0.00000000000E+00  0.00000000000E+00  0.80438316868E+03  0.80438316868E+03  0.00000000000E+00 0.  1.
          1   -1    0    0  501    0  0.00000000000E+00 -0.00000000000E+00 -0.88760137808E+03  0.88760137808E+03  0.00000000000E+00 0. -1.
        -24    2    1    2    0    0 -0.49708730336E+03 -0.33786670356E+03 -0.38549259441E+02  0.60767341514E+03  0.80816072253E+02 0.  0.
        254    2    1    2    0    0  0.49708730336E+03  0.33786670356E+03 -0.44668949955E+02  0.10843111316E+04  0.90137984142E+03 0.  0.
         23    2    4    4    0    0  0.67081686686E+03 -0.93560117231E+01  0.36271427928E+02  0.67804909223E+03  0.91390104288E+02 0.  0.
         23    2    4    4    0    0 -0.17372956351E+03  0.34722271528E+03 -0.80940377884E+02  0.40626203939E+03  0.88045014806E+02 0.  0.
          3    1    3    3  502    0 -0.82760501124E+02 -0.91616243751E+02 -0.22009789754E+02  0.12540840287E+03  0.00000000000E+00 0. -1.
         -4    1    3    3    0  502 -0.41432680223E+03 -0.24625045980E+03 -0.16539469687E+02  0.48226501227E+03  0.00000000000E+00 0.  1.
         11    1    5    5    0    0  0.40452945838E+03 -0.45729203697E+02  0.19847015732E+01  0.40711077339E+03  0.00000000000E+00 0. -1.
        -11    1    5    5    0    0  0.26628740848E+03  0.36373191974E+02  0.34286726355E+02  0.27093831883E+03  0.00000000000E+00 0.  1.
          4    1    6    6  503    0 -0.17980426708E+03  0.32662222013E+03 -0.89007147034E+02  0.38331960733E+03  0.00000000000E+00 0. -1.
         -4    1    6    6    0  503  0.60747035760E+01  0.20600495152E+02  0.80667691501E+01  0.22942432055E+02  0.00000000000E+00 0.  1.
<mgrwt>
<rscale>  0 0.16899368E+04</rscale>
<asrwt>0</asrwt>
<pdfrwt beam="1">  1        1 0.13655406E+00 0.16899368E+04</pdfrwt>
<pdfrwt beam="2">  1       -2 0.12375126E+00 0.16899368E+04</pdfrwt>
<totfact> 0.76444289E+00</totfact>
</mgrwt>
</event>
<event>
12    4  0.4381187E-008  0.2118682E+04  0.7818608E-02  0.8553058E-01
         -2   -1    0    0    0  501 -0.00000000000E+00  0.00000000000E+00  0.46133172893E+03  0.46133172893E+03  0.00000000000E+00 0.  1.
          1   -1    0    0  501    0  0.00000000000E+00 -0.00000000000E+00 -0.24325304048E+04  0.24325304048E+04  0.00000000000E+00 0. -1.
        -24    2    1    2    0    0  0.77903616688E+03 -0.70338973279E+02 -0.13146195398E+04  0.15317824100E+04  0.79296258397E+02 0.  0.
        254    2    1    2    0    0 -0.77903616688E+03  0.70338973279E+02 -0.65657913608E+03  0.13620797238E+04  0.90128801804E+03 0.  0.
         23    2    4    4    0    0 -0.90478057374E+03  0.17813506852E+03 -0.70783512681E+03  0.11660018153E+04  0.90386267213E+02 0.  0.
         23    2    4    4    0    0  0.12574440685E+03 -0.10779609524E+03  0.51255990729E+02  0.19607790845E+03  0.91584472446E+02 0.  0.
          3    1    3    3  502    0  0.65727825196E+03 -0.85594087096E+02 -0.11315635728E+04  0.13114027480E+04  0.00000000000E+00 0. -1.
         -2    1    3    3    0  502  0.12175791492E+03  0.15255113817E+02 -0.18305596701E+03  0.22037966195E+03  0.00000000000E+00 0.  1.
         11    1    5    5    0    0 -0.81112267263E+03  0.18183026869E+03 -0.61451363923E+03  0.10337355801E+04  0.00000000000E+00 0. -1.
        -11    1    5    5    0    0 -0.93657901105E+02 -0.36952001690E+01 -0.93321487573E+02  0.13226623525E+03  0.00000000000E+00 0.  1.
          2    1    6    6  503    0  0.13528345482E+03 -0.11373385767E+03  0.53417125910E+02  0.18463583853E+03  0.00000000000E+00 0. -1.
         -2    1    6    6    0  503 -0.95390479698E+01  0.59377624283E+01 -0.21611351814E+01  0.11442069922E+02  0.00000000000E+00 0.  1.
<mgrwt>
<rscale>  0 0.21186821E+04</rscale>
<asrwt>0</asrwt>
<pdfrwt beam="1">  1        1 0.37423544E+00 0.21186821E+04</pdfrwt>
<pdfrwt beam="2">  1       -2 0.70974113E-01 0.21186821E+04</pdfrwt>
<totfact> 0.21952752E+00</totfact>
</mgrwt>
</event>
<event>
12    4  0.4381187E-008  0.1399522E+04  0.7818608E-02  0.8954165E-01
         -2   -1    0    0    0  501 -0.00000000000E+00  0.00000000000E+00  0.67118565516E+03  0.67118565516E+03  0.00000000000E+00 0.  1.
          1   -1    0    0  501    0  0.00000000000E+00 -0.00000000000E+00 -0.72955278482E+03  0.72955278482E+03  0.00000000000E+00 0. -1.
        -24    2    1    2    0    0 -0.14031608582E+03 -0.18366245940E+03 -0.34238642873E+03  0.42073747238E+03  0.79818864654E+02 0.  0.
        254    2    1    2    0    0  0.14031608582E+03  0.18366245940E+03  0.28401929907E+03  0.98000096760E+03  0.90901838888E+03 0.  0.
         23    2    4    4    0    0 -0.20550532807E+03  0.65189305689E+02 -0.23892010729E+03  0.33480655614E+03  0.92360851680E+02 0.  0.
         23    2    4    4    0    0  0.34582141389E+03  0.11847315371E+03  0.52293940636E+03  0.64519441146E+03  0.95822061159E+02 0.  0.
          3    1    3    3  502    0 -0.21686807615E+02 -0.27916285808E+02 -0.11684791796E+03  0.12207814124E+03  0.00000000000E+00 0. -1.
         -4    1    3    3    0  502 -0.11862927820E+03 -0.15574617359E+03 -0.22553851077E+03  0.29865933114E+03  0.00000000000E+00 0.  1.
         11    1    5    5    0    0 -0.37323524462E+02  0.33291336667E+02 -0.10893587706E+03  0.11986819381E+03  0.00000000000E+00 0. -1.
        -11    1    5    5    0    0 -0.16818180361E+03  0.31897969022E+02 -0.12998423022E+03  0.21493836233E+03  0.00000000000E+00 0.  1.
          1    1    6    6  503    0  0.19171234149E+02  0.35177922933E+02  0.43902955928E+02  0.59434771135E+02  0.00000000000E+00 0. -1.
         -1    1    6    6    0  503  0.32665017974E+03  0.83295230780E+02  0.47903645043E+03  0.58575964033E+03  0.00000000000E+00 0.  1.
<mgrwt>
<rscale>  0 0.13995219E+04</rscale>
<asrwt>0</asrwt>
<pdfrwt beam="1">  1        1 0.11223889E+00 0.13995219E+04</pdfrwt>
<pdfrwt beam="2">  1       -2 0.10325933E+00 0.13995219E+04</pdfrwt>
<totfact> 0.16706793E+01</totfact>
</mgrwt>
</event>
<event>
12    4  0.4381187E-008  0.1680850E+04  0.7818608E-02  0.8772362E-01
          1   -1    0    0  501    0  0.00000000000E+00  0.00000000000E+00  0.42797891037E+03  0.42797891037E+03  0.00000000000E+00 0. -1.
         -2   -1    0    0    0  501 -0.00000000000E+00 -0.00000000000E+00 -0.16503480991E+04  0.16503480991E+04  0.00000000000E+00 0.  1.
        -24    2    1    2    0    0 -0.32792194623E+03 -0.46115667632E+03 -0.20715092007E+03  0.60780994087E+03  0.79518158927E+02 0.  0.
        254    2    1    2    0    0  0.32792194623E+03  0.46115667632E+03 -0.10152182687E+04  0.14705170686E+04  0.90086293805E+03 0.  0.
         23    2    4    4    0    0  0.28731929776E+02 -0.13739081839E+03 -0.70951619440E+03  0.72909444066E+03  0.91998437596E+02 0.  0.
         23    2    4    4    0    0  0.29919001645E+03  0.59854749471E+03 -0.30570207430E+03  0.74142262799E+03  0.92086837810E+02 0.  0.
          3    1    3    3  502    0 -0.21404822986E+03 -0.32543039543E+03 -0.10549217963E+03  0.40354700710E+03  0.00000000000E+00 0. -1.
         -4    1    3    3    0  502 -0.11387371636E+03 -0.13572628089E+03 -0.10165874044E+03  0.20426293376E+03  0.00000000000E+00 0.  1.
         11    1    5    5    0    0  0.48529729517E+02 -0.71458183000E+02 -0.52690203225E+03  0.53393553745E+03  0.00000000000E+00 0.  1.
        -11    1    5    5    0    0 -0.19797799741E+02 -0.65932635388E+02 -0.18261416215E+03  0.19515890320E+03  0.00000000000E+00 0. -1.
          1    1    6    6  503    0  0.19169001541E+03  0.43992924298E+03 -0.18138745115E+03  0.51301482266E+03  0.00000000000E+00 0. -1.
         -1    1    6    6    0  503  0.10750000103E+03  0.15861825173E+03 -0.12431462316E+03  0.22840780533E+03  0.00000000000E+00 0.  1.
<mgrwt>
<rscale>  0 0.16808500E+04</rscale>
<asrwt>0</asrwt>
<pdfrwt beam="1">  1        1 0.65842909E-01 0.16808500E+04</pdfrwt>
<pdfrwt beam="2">  1       -2 0.25389971E+00 0.16808500E+04</pdfrwt>
<totfact> 0.27783087E+00</totfact>
</mgrwt>
</event>
<event>
12    4  0.4381187E-008  0.1425610E+04  0.7818608E-02  0.8935487E-01
         -2   -1    0    0    0  501 -0.00000000000E+00  0.00000000000E+00  0.49321762701E+03  0.49321762701E+03  0.00000000000E+00 0.  1.
          1   -1    0    0  501    0  0.00000000000E+00 -0.00000000000E+00 -0.10301556065E+04  0.10301556065E+04  0.00000000000E+00 0. -1.
        -24    2    1    2    0    0  0.37067900301E+03 -0.18112718920E+02  0.44205078719E+02  0.38204936821E+03  0.79225228969E+02 0.  0.
        254    2    1    2    0    0 -0.37067900301E+03  0.18112718920E+02 -0.58114305825E+03  0.11413238653E+04  0.90948442405E+03 0.  0.
         23    2    4    4    0    0  0.16080056061E+03  0.30017404732E+03 -0.10256359286E+03  0.36673180401E+03  0.89507801416E+02 0.  0.
         23    2    4    4    0    0 -0.53147956363E+03 -0.28206132840E+03 -0.47857946539E+03  0.77459206133E+03  0.94474532288E+02 0.  0.
          1    1    3    3  502    0  0.11628552445E+03 -0.24548709353E+02  0.46346407008E+02  0.12756548033E+03  0.00000000000E+00 0. -1.
         -2    1    3    3    0  502  0.25439347856E+03  0.64359904331E+01 -0.21413282893E+01  0.25448388789E+03  0.00000000000E+00 0.  1.
         11    1    5    5    0    0  0.12837483748E+03  0.18158043560E+03 -0.31145983722E+02  0.22454760251E+03  0.00000000000E+00 0. -1.
        -11    1    5    5    0    0  0.32425723131E+02  0.11859361173E+03 -0.71417609135E+02  0.14218420151E+03  0.00000000000E+00 0.  1.
          2    1    6    6  503    0 -0.45259510183E+03 -0.20531947737E+03 -0.41512317348E+03  0.64755359867E+03  0.00000000000E+00 0. -1.
         -2    1    6    6    0  503 -0.78884461791E+02 -0.76741851033E+02 -0.63456291916E+02  0.12703846266E+03  0.00000000000E+00 0.  1.
<mgrwt>
<rscale>  0 0.14256099E+04</rscale>
<asrwt>0</asrwt>
<pdfrwt beam="1">  1        1 0.15848547E+00 0.14256099E+04</pdfrwt>
<pdfrwt beam="2">  1       -2 0.75879637E-01 0.14256099E+04</pdfrwt>
<totfact> 0.19030636E+01</totfact>
</mgrwt>
</event>
<event>
12    4  0.4381187E-008  0.1965726E+04  0.7818608E-02  0.8622815E-01
         -2   -1    0    0    0  501 -0.00000000000E+00  0.00000000000E+00  0.58437707311E+03  0.58437707311E+03  0.00000000000E+00 0.  1.
          1   -1    0    0  501    0  0.00000000000E+00 -0.00000000000E+00 -0.16530760734E+04  0.16530760734E+04  0.00000000000E+00 0. -1.
        -24    2    1    2    0    0 -0.70824252243E+03  0.19420587823E+03 -0.13422945236E+03  0.75087075084E+03  0.80411099145E+02 0.  0.
        254    2    1    2    0    0  0.70824252243E+03 -0.19420587823E+03 -0.93446954791E+03  0.14865823957E+04  0.89295604001E+03 0.  0.
         23    2    4    4    0    0 -0.56793512061E+02 -0.27253868188E+03 -0.27659797168E+02  0.29420560682E+03  0.91044157249E+02 0.  0.
         23    2    4    4    0    0  0.76503603449E+03  0.78332803650E+02 -0.90680975074E+03  0.11923767888E+04  0.89678984867E+02 0.  0.
          1    1    3    3  502    0 -0.53994270531E+03  0.15807077736E+03 -0.69128283384E+02  0.56683614496E+03  0.00000000000E+00 0. -1.
         -2    1    3    3    0  502 -0.16829981712E+03  0.36135100871E+02 -0.65101168977E+02  0.18403460588E+03  0.00000000000E+00 0.  1.
         11    1    5    5    0    0 -0.68370687639E+01 -0.16848186467E+02 -0.28349864405E+02  0.33679692818E+02  0.00000000000E+00 0. -1.
        -11    1    5    5    0    0 -0.49956443297E+02 -0.25569049542E+03  0.69006723723E+00  0.26052591400E+03  0.00000000000E+00 0.  1.
          3    1    6    6  503    0  0.96276461648E+02  0.38889933072E+02 -0.10762836878E+03  0.14955082657E+03  0.00000000000E+00 0. -1.
         -3    1    6    6    0  503  0.66875957284E+03  0.39442870579E+02 -0.79918138196E+03  0.10428259623E+04  0.00000000000E+00 0.  1.
<mgrwt>
<rscale>  0 0.19657261E+04</rscale>
<asrwt>0</asrwt>
<pdfrwt beam="1">  1        1 0.25431939E+00 0.19657261E+04</pdfrwt>
<pdfrwt beam="2">  1       -2 0.89904166E-01 0.19657261E+04</pdfrwt>
<totfact> 0.44400548E+00</totfact>
</mgrwt>
</event>
<event>
12    4  0.4381187E-008  0.1431239E+04  0.7818608E-02  0.8931512E-01
          1   -1    0    0  501    0  0.00000000000E+00  0.00000000000E+00  0.98096147688E+03  0.98096147688E+03  0.00000000000E+00 0. -1.
         -2   -1    0    0    0  501 -0.00000000000E+00 -0.00000000000E+00 -0.52205014859E+03  0.52205014859E+03  0.00000000000E+00 0.  1.
        -24    2    1    2    0    0 -0.10384054954E+03  0.42947344396E+03  0.20591576493E+03  0.49396082391E+03  0.79785302602E+02 0.  0.
        254    2    1    2    0    0  0.10384054954E+03 -0.42947344396E+03  0.25299556336E+03  0.10090508016E+04  0.87117533611E+03 0.  0.
         23    2    4    4    0    0  0.37004600823E+03  0.21714561852E+02 -0.67335062602E+02  0.38853540723E+03  0.94974636700E+02 0.  0.
         23    2    4    4    0    0 -0.26620545869E+03 -0.45118800581E+03  0.32033062596E+03  0.62051539433E+03  0.89396207092E+02 0.  0.
          1    1    3    3  502    0 -0.56621286120E+02  0.10082033799E+03  0.70157843979E+02  0.13525100246E+03  0.00000000000E+00 0. -1.
         -2    1    3    3    0  502 -0.47219263417E+02  0.32865310597E+03  0.13575792096E+03  0.35870982145E+03  0.00000000000E+00 0.  1.
         11    1    5    5    0    0  0.23040411871E+03  0.24064159503E+02  0.40392381496E+01  0.23169259189E+03  0.00000000000E+00 0. -1.
        -11    1    5    5    0    0  0.13964188951E+03 -0.23495976514E+01 -0.71374300752E+02  0.15684281534E+03  0.00000000000E+00 0.  1.
          3    1    6    6  503    0 -0.15505130881E+03 -0.30681927702E+03  0.16607730328E+03  0.38178612832E+03  0.00000000000E+00 0. -1.
         -3    1    6    6    0  503 -0.11115414988E+03 -0.14436872880E+03  0.15425332269E+03  0.23872926601E+03  0.00000000000E+00 0.  1.
<mgrwt>
<rscale>  0 0.14312387E+04</rscale>
<asrwt>0</asrwt>
<pdfrwt beam="1">  1        1 0.15091715E+00 0.14312387E+04</pdfrwt>
<pdfrwt beam="2">  1       -2 0.80315408E-01 0.14312387E+04</pdfrwt>
<totfact> 0.18297579E+01</totfact>
</mgrwt>
</event>
<event>
12    4  0.4381187E-008  0.2538431E+04  0.7818608E-02  0.8389421E-01
         -2   -1    0    0    0  501 -0.00000000000E+00  0.00000000000E+00  0.10084117023E+04  0.10084117023E+04  0.00000000000E+00 0.  1.
          1   -1    0    0  501    0  0.00000000000E+00 -0.00000000000E+00 -0.15974709031E+04  0.15974709031E+04  0.00000000000E+00 0. -1.
        -24    2    1    2    0    0 -0.21584997499E+03 -0.30579537228E+03 -0.13304925740E+04  0.13858040931E+04  0.10069991813E+03 0.  0.
        254    2    1    2    0    0  0.21584997499E+03  0.30579537228E+03  0.74143337320E+03  0.12200785124E+04  0.89373715828E+03 0.  0.
         23    2    4    4    0    0 -0.20284899589E+03  0.46122126829E+03  0.37491435700E+03  0.63499008250E+03  0.93695551285E+02 0.  0.
         23    2    4    4    0    0  0.41869897088E+03 -0.15542589601E+03  0.36651901620E+03  0.58508842989E+03  0.92337663972E+02 0.  0.
          3    1    3    3  502    0 -0.92717340238E+02 -0.10026857199E+03 -0.65485717601E+03  0.66894559770E+03  0.00000000000E+00 0. -1.
         -4    1    3    3    0  502 -0.12313263475E+03 -0.20552680029E+03 -0.67563539798E+03  0.71685849537E+03  0.00000000000E+00 0.  1.
         11    1    5    5    0    0 -0.17842197273E+03  0.40719257723E+03  0.28773642618E+03  0.52955872786E+03  0.00000000000E+00 0. -1.
        -11    1    5    5    0    0 -0.24427023164E+02  0.54028691056E+02  0.87177930825E+02  0.10543135464E+03  0.00000000000E+00 0.  1.
          3    1    6    6  503    0  0.37570310787E+03 -0.16720997614E+03  0.32477510439E+03  0.52401418856E+03  0.00000000000E+00 0. -1.
         -3    1    6    6    0  503  0.42995863011E+02  0.11784080129E+02  0.41743911807E+02  0.61074241326E+02  0.00000000000E+00 0.  1.
<mgrwt>
<rscale>  0 0.25384313E+04</rscale>
<asrwt>0</asrwt>
<pdfrwt beam="1">  1        1 0.24576475E+00 0.25384313E+04</pdfrwt>
<pdfrwt beam="2">  1       -2 0.15514026E+00 0.25384313E+04</pdfrwt>
<totfact> 0.11932195E+00</totfact>
</mgrwt>
</event>
<event>
12    4  0.4381187E-008  0.1504583E+04  0.7818608E-02  0.8881411E-01
         -4   -1    0    0    0  501 -0.00000000000E+00  0.00000000000E+00  0.25922219855E+03  0.25922219855E+03  0.00000000000E+00 0.  1.
          1   -1    0    0  501    0  0.00000000000E+00 -0.00000000000E+00 -0.21832332427E+04  0.21832332427E+04  0.00000000000E+00 0. -1.
        -24    2    1    2    0    0 -0.46671214335E+03  0.12158878925E+03 -0.67338356504E+03  0.83242694264E+03  0.82976687933E+02 0.  0.
        254    2    1    2    0    0  0.46671214335E+03 -0.12158878925E+03 -0.12506274791E+04  0.16100284986E+04  0.89191850325E+03 0.  0.
         23    2    4    4    0    0  0.19139188064E+03 -0.44271178249E+03 -0.98861964134E+03  0.11037698129E+04  0.91183497374E+02 0.  0.
         23    2    4    4    0    0  0.27532026272E+03  0.32112299323E+03 -0.26200783778E+03  0.50625868577E+03  0.93426580894E+02 0.  0.
          1    1    3    3  502    0 -0.89349697036E+02  0.27995408967E+01 -0.84622019202E+02  0.12309383382E+03  0.00000000000E+00 0. -1.
         -4    1    3    3    0  502 -0.37736244632E+03  0.11878924836E+03 -0.58876154583E+03  0.70933310882E+03  0.00000000000E+00 0.  1.
         11    1    5    5    0    0  0.99432558116E+02 -0.33009754694E+03 -0.72201659640E+03  0.80009948731E+03  0.00000000000E+00 0. -1.
        -11    1    5    5    0    0  0.91959322521E+02 -0.11261423555E+03 -0.26660304494E+03  0.30367032555E+03  0.00000000000E+00 0.  1.
          3    1    6    6  503    0  0.22907168697E+03  0.30997959107E+03 -0.23766862213E+03  0.45282177355E+03  0.00000000000E+00 0. -1.
         -3    1    6    6    0  503  0.46248575742E+02  0.11143402166E+02 -0.24339215645E+02  0.53436912226E+02  0.00000000000E+00 0.  1.
<mgrwt>
<rscale>  0 0.15045830E+04</rscale>
<asrwt>0</asrwt>
<pdfrwt beam="1">  1        1 0.33588203E+00 0.15045830E+04</pdfrwt>
<pdfrwt beam="2">  1       -4 0.39880339E-01 0.15045830E+04</pdfrwt>
<totfact> 0.65876523E+00</totfact>
</mgrwt>
</event>
<event>
12    4  0.4381187E-008  0.1886703E+04  0.7818608E-02  0.8661504E-01
         -4   -1    0    0    0  501 -0.00000000000E+00  0.00000000000E+00  0.50385803982E+03  0.50385803982E+03  0.00000000000E+00 0.  1.
          1   -1    0    0  501    0  0.00000000000E+00 -0.00000000000E+00 -0.17661962256E+04  0.17661962256E+04  0.00000000000E+00 0. -1.
        -24    2    1    2    0    0 -0.68316210366E+03 -0.10074663199E+03 -0.73778514798E+03  0.10136423849E+04  0.79269263001E+02 0.  0.
        254    2    1    2    0    0  0.68316210366E+03  0.10074663199E+03 -0.52455303781E+03  0.12564118806E+04  0.90915047185E+03 0.  0.
         23    2    4    4    0    0  0.40249591679E+03  0.14808437344E+03 -0.75894474629E+03  0.87674777615E+03  0.93581998101E+02 0.  0.
         23    2    4    4    0    0  0.28066618687E+03 -0.47337741443E+02  0.23439170848E+03  0.37966410443E+03  0.90504082635E+02 0.  0.
          3    1    3    3  502    0 -0.66515064247E+03 -0.90472495648E+02 -0.69584497807E+03  0.96685618535E+03  0.00000000000E+00 0. -1.
         -4    1    3    3    0  502 -0.18011461192E+02 -0.10274136344E+02 -0.41940169910E+02  0.46786199504E+02  0.00000000000E+00 0.  1.
         11    1    5    5    0    0  0.74447490523E+01  0.10242743341E+02 -0.66603691040E+02  0.67796679415E+02  0.00000000000E+00 0. -1.
        -11    1    5    5    0    0  0.39505116774E+03  0.13784163009E+03 -0.69234105525E+03  0.80895109674E+03  0.00000000000E+00 0.  1.
          3    1    6    6  503    0  0.56873241040E+01  0.12439737414E+02  0.39424263603E+00  0.13683864573E+02  0.00000000000E+00 0. -1.
         -3    1    6    6    0  503  0.27497886277E+03 -0.59777478857E+02  0.23399746585E+03  0.36598023986E+03  0.00000000000E+00 0.  1.
<mgrwt>
<rscale>  0 0.18867031E+04</rscale>
<asrwt>0</asrwt>
<pdfrwt beam="1">  1        1 0.27172250E+00 0.18867031E+04</pdfrwt>
<pdfrwt beam="2">  1       -4 0.77516621E-01 0.18867031E+04</pdfrwt>
<totfact> 0.29480841E+00</totfact>
</mgrwt>
</event>
<event>
12    4  0.4381187E-008  0.2390936E+04  0.7818608E-02  0.8442905E-01
         -2   -1    0    0    0  501 -0.00000000000E+00  0.00000000000E+00  0.65475551478E+03  0.65475551478E+03  0.00000000000E+00 0.  1.
          1   -1    0    0  501    0  0.00000000000E+00 -0.00000000000E+00 -0.21827129795E+04  0.21827129795E+04  0.00000000000E+00 0. -1.
        -24    2    1    2    0    0 -0.56999904453E+03  0.59398974538E+03  0.66251616129E+02  0.82940140488E+03  0.76122831027E+02 0.  0.
        254    2    1    2    0    0  0.56999904453E+03 -0.59398974538E+03 -0.15942090809E+04  0.20080670894E+04  0.90172507655E+03 0.  0.
         23    2    4    4    0    0 -0.83197093976E+02  0.57643570208E+02  0.28613657947E+02  0.13902006021E+03  0.90902684706E+02 0.  0.
         23    2    4    4    0    0  0.65319613850E+03 -0.65163331559E+03 -0.16228227388E+04  0.18690470292E+04  0.92151952913E+02 0.  0.
          1    1    3    3  502    0 -0.14638599867E+03  0.20213533245E+03  0.26403232900E+02  0.25096749578E+03  0.00000000000E+00 0. -1.
         -2    1    3    3    0  502 -0.42361304585E+03  0.39185441293E+03  0.39848383230E+02  0.57843390910E+03  0.00000000000E+00 0.  1.
         11    1    5    5    0    0 -0.74792332647E+02  0.53805866580E+02 -0.15952337450E+02  0.93506370753E+02  0.00000000000E+00 0.  1.
        -11    1    5    5    0    0 -0.84047613282E+01  0.38377036289E+01  0.44565995397E+02  0.45513689455E+02  0.00000000000E+00 0. -1.
          4    1    6    6  503    0  0.80530963793E+02 -0.94087560634E+02 -0.28351983264E+03  0.30938843013E+03  0.00000000000E+00 0. -1.
         -4    1    6    6    0  503  0.57266517471E+03 -0.55754575496E+03 -0.13393029062E+04  0.15596585991E+04  0.00000000000E+00 0.  1.
<mgrwt>
<rscale>  0 0.23909357E+04</rscale>
<asrwt>0</asrwt>
<pdfrwt beam="1">  1        1 0.33580199E+00 0.23909357E+04</pdfrwt>
<pdfrwt beam="2">  1       -2 0.10073162E+00 0.23909357E+04</pdfrwt>
<totfact> 0.14320459E+00</totfact>
</mgrwt>
</event>
<event>
12    4  0.4381187E-008  0.1733116E+04  0.7818608E-02  0.8742699E-01
         -2   -1    0    0    0  501 -0.00000000000E+00  0.00000000000E+00  0.34331672414E+03  0.34331672414E+03  0.00000000000E+00 0.  1.
          1   -1    0    0  501    0  0.00000000000E+00 -0.00000000000E+00 -0.21872588497E+04  0.21872588497E+04  0.00000000000E+00 0. -1.
        -24    2    1    2    0    0 -0.46315069163E+03  0.12109511729E+03 -0.12711563295E+04  0.13606137879E+04  0.79113053138E+02 0.  0.
        254    2    1    2    0    0  0.46315069163E+03 -0.12109511729E+03 -0.57278579608E+03  0.11699617860E+04  0.90086315379E+03 0.  0.
         23    2    4    4    0    0  0.39287851242E+03 -0.40762941569E+03 -0.67592323132E+02  0.57812679366E+03  0.95637865598E+02 0.  0.
         23    2    4    4    0    0  0.70272179207E+02  0.28653429840E+03 -0.50519347295E+03  0.59183499232E+03  0.89488153902E+02 0.  0.
          1    1    3    3  502    0 -0.46432305464E+03  0.12504864064E+03 -0.12636052458E+04  0.13520100883E+04  0.00000000000E+00 0. -1.
         -2    1    3    3    0  502  0.11723630073E+01 -0.39535233481E+01 -0.75510836378E+01  0.86036995525E+01  0.00000000000E+00 0.  1.
         11    1    5    5    0    0  0.24498093489E+03 -0.26006117224E+03  0.39244616333E+01  0.35729941669E+03  0.00000000000E+00 0.  1.
        -11    1    5    5    0    0  0.14789757754E+03 -0.14756824345E+03 -0.71516784766E+02  0.22082737697E+03  0.00000000000E+00 0. -1.
          1    1    6    6  503    0  0.12599240673E+02  0.39641668974E+02 -0.24234594434E+02  0.48140610216E+02  0.00000000000E+00 0. -1.
         -1    1    6    6    0  503  0.57672938534E+02  0.24689262943E+03 -0.48095887852E+03  0.54369438210E+03  0.00000000000E+00 0.  1.
<mgrwt>
<rscale>  0 0.17331157E+04</rscale>
<asrwt>0</asrwt>
<pdfrwt beam="1">  1        1 0.33650135E+00 0.17331157E+04</pdfrwt>
<pdfrwt beam="2">  1       -2 0.52817959E-01 0.17331157E+04</pdfrwt>
<totfact> 0.62655478E+00</totfact>
</mgrwt>
</event>
<event>
12    4  0.4381187E-008  0.1311917E+04  0.7818608E-02  0.9020168E-01
          1   -1    0    0  501    0  0.00000000000E+00  0.00000000000E+00  0.12300889692E+04  0.12300889692E+04  0.00000000000E+00 0. -1.
         -2   -1    0    0    0  501 -0.00000000000E+00 -0.00000000000E+00 -0.34979700898E+03  0.34979700898E+03  0.00000000000E+00 0.  1.
        -24    2    1    2    0    0 -0.17224615321E+03 -0.31448719970E+02 -0.10913320745E+03  0.22122569440E+03  0.79831019109E+02 0.  0.
        254    2    1    2    0    0  0.17224615321E+03  0.31448719970E+02  0.98942516765E+03  0.13586602837E+04  0.91451508734E+03 0.  0.
         23    2    4    4    0    0  0.14810096672E+03 -0.18986078971E+03 -0.73541165612E+02  0.26881192189E+03  0.94183493774E+02 0.  0.
         23    2    4    4    0    0  0.24145186489E+02  0.22130950968E+03  0.10629663333E+04  0.10898483619E+04  0.91165437960E+02 0.  0.
          3    1    3    3  502    0 -0.31758956846E+02 -0.38601787267E+02 -0.15861351896E+02  0.52443415260E+02  0.00000000000E+00 0. -1.
         -4    1    3    3    0  502 -0.14048719636E+03  0.71530672969E+01 -0.93271855556E+02  0.16878227914E+03  0.00000000000E+00 0.  1.
         11    1    5    5    0    0 -0.38186779225E+01  0.39271226471E+01  0.77603734768E+01  0.94988415010E+01  0.00000000000E+00 0. -1.
        -11    1    5    5    0    0  0.15191964464E+03 -0.19378791236E+03 -0.81301539089E+02  0.25931308039E+03  0.00000000000E+00 0.  1.
          3    1    6    6  503    0  0.21306380663E+02  0.16344986737E+03  0.56588147902E+03  0.58939941407E+03  0.00000000000E+00 0. -1.
         -3    1    6    6    0  503  0.28388058264E+01  0.57859642313E+02  0.49708485424E+03  0.50044894778E+03  0.00000000000E+00 0.  1.
<mgrwt>
<rscale>  0 0.13119168E+04</rscale>
<asrwt>0</asrwt>
<pdfrwt beam="1">  1        1 0.18924445E+00 0.13119168E+04</pdfrwt>
<pdfrwt beam="2">  1       -2 0.53814925E-01 0.13119168E+04</pdfrwt>
<totfact> 0.28450466E+01</totfact>
</mgrwt>
</event>
<event>
12    4  0.4381187E-008  0.1825037E+04  0.7818608E-02  0.8693097E-01
          1   -1    0    0  501    0  0.00000000000E+00  0.00000000000E+00  0.17646849985E+04  0.17646849985E+04  0.00000000000E+00 0. -1.
         -2   -1    0    0    0  501 -0.00000000000E+00 -0.00000000000E+00 -0.47186313150E+03  0.47186313150E+03  0.00000000000E+00 0.  1.
        -24    2    1    2    0    0  0.32685549304E+02  0.36041728239E+03 -0.22370790983E+03  0.43280734059E+03  0.79422934770E+02 0.  0.
        254    2    1    2    0    0 -0.32685549304E+02 -0.36041728239E+03  0.15165297769E+04  0.18037407894E+04  0.90700017022E+03 0.  0.
         23    2    4    4    0    0  0.94572886376E+00 -0.19569501802E+03 -0.53012015526E+02  0.22256692978E+03  0.91805936413E+02 0.  0.
         23    2    4    4    0    0 -0.33631278167E+02 -0.16472226437E+03  0.15695417924E+04  0.15811738597E+04  0.91568821880E+02 0.  0.
          1    1    3    3  502    0  0.16299552581E+02  0.24732320134E+02 -0.40055258361E+02  0.49817535025E+02  0.00000000000E+00 0. -1.
         -2    1    3    3    0  502  0.16385996722E+02  0.33568496226E+03 -0.18365265147E+03  0.38298980557E+03  0.00000000000E+00 0.  1.
         11    1    5    5    0    0 -0.23109192736E+02 -0.89783170720E+02  0.15725370861E+02  0.94033716411E+02  0.00000000000E+00 0. -1.
        -11    1    5    5    0    0  0.24054921600E+02 -0.10591184730E+03 -0.68737386386E+02  0.12853321337E+03  0.00000000000E+00 0.  1.
          1    1    6    6  503    0 -0.48842886665E+01 -0.66728045868E+02  0.10221385626E+04  0.10243259879E+04  0.00000000000E+00 0. -1.
         -1    1    6    6    0  503 -0.28746989501E+02 -0.97994218504E+02  0.54740322980E+03  0.55684787174E+03  0.00000000000E+00 0.  1.
<mgrwt>
<rscale>  0 0.18250368E+04</rscale>
<asrwt>0</asrwt>
<pdfrwt beam="1">  1        1 0.27149000E+00 0.18250368E+04</pdfrwt>
<pdfrwt beam="2">  1       -2 0.72594329E-01 0.18250368E+04</pdfrwt>
<totfact> 0.61081800E+00</totfact>
</mgrwt>
</event>
<event>
12    4  0.4381187E-008  0.1274445E+04  0.7818608E-02  0.9050079E-01
         -2   -1    0    0    0  501 -0.00000000000E+00  0.00000000000E+00  0.52505788912E+03  0.52505788912E+03  0.00000000000E+00 0.  1.
          1   -1    0    0  501    0  0.00000000000E+00 -0.00000000000E+00 -0.77334865757E+03  0.77334865757E+03  0.00000000000E+00 0. -1.
        -24    2    1    2    0    0 -0.26141583768E+02  0.30786251364E+03 -0.26097133884E+02  0.31997888375E+03  0.79010859667E+02 0.  0.
        254    2    1    2    0    0  0.26141583768E+02 -0.30786251364E+03 -0.22219363456E+03  0.97842766294E+03  0.90138114617E+03 0.  0.
         23    2    4    4    0    0  0.24885512144E+03 -0.54515630377E+03 -0.20445723430E+03  0.63980802784E+03  0.91800244119E+02 0.  0.
         23    2    4    4    0    0 -0.22271353767E+03  0.23729379013E+03 -0.17736400265E+02  0.33861963511E+03  0.91864109897E+02 0.  0.
          3    1    3    3  502    0  0.36677321465E-01  0.98935991567E+02  0.27533968004E+02  0.10269591602E+03  0.00000000000E+00 0. -1.
         -4    1    3    3    0  502 -0.26178261089E+02  0.20892652207E+03 -0.53631101887E+02  0.21728296773E+03  0.00000000000E+00 0.  1.
         11    1    5    5    0    0  0.11426624745E+03 -0.24297924802E+03 -0.13992222402E+03  0.30277701209E+03  0.00000000000E+00 0. -1.
        -11    1    5    5    0    0  0.13458887399E+03 -0.30217705575E+03 -0.64535010275E+02  0.33703101575E+03  0.00000000000E+00 0.  1.
          2    1    6    6  503    0  0.21843771602E+01  0.10507371856E+02  0.14016494003E+02  0.17653284993E+02  0.00000000000E+00 0. -1.
         -2    1    6    6    0  503 -0.22489791483E+03  0.22678641828E+03 -0.31752894269E+02  0.32096635011E+03  0.00000000000E+00 0.  1.
<mgrwt>
<rscale>  0 0.12744455E+04</rscale>
<asrwt>0</asrwt>
<pdfrwt beam="1">  1        1 0.11897672E+00 0.12744455E+04</pdfrwt>
<pdfrwt beam="2">  1       -2 0.80778137E-01 0.12744455E+04</pdfrwt>
<totfact> 0.27224917E+01</totfact>
</mgrwt>
</event>
<event>
12    4  0.4381187E-008  0.1878455E+04  0.7818608E-02  0.8665656E-01
         -2   -1    0    0    0  501 -0.00000000000E+00  0.00000000000E+00  0.18220488951E+04  0.18220488951E+04  0.00000000000E+00 0.  1.
          1   -1    0    0  501    0  0.00000000000E+00 -0.00000000000E+00 -0.48415185137E+03  0.48415185137E+03  0.00000000000E+00 0. -1.
        -24    2    1    2    0    0 -0.61070974455E+03 -0.85162371160E+02  0.98827414697E+03  0.11675884802E+04  0.79737368476E+02 0.  0.
        254    2    1    2    0    0  0.61070974455E+03  0.85162371160E+02  0.34962289675E+03  0.11386122663E+04  0.89105706970E+03 0.  0.
         23    2    4    4    0    0  0.60090607236E+03  0.30326387852E+03 -0.43180812386E+02  0.68058832650E+03  0.90987910139E+02 0.  0.
         23    2    4    4    0    0  0.98036721897E+01 -0.21810150736E+03  0.39280370914E+03  0.45802393979E+03  0.88469181113E+02 0.  0.
          3    1    3    3  502    0 -0.30833734583E+03 -0.36790160156E+02  0.57150479463E+03  0.65041768503E+03  0.00000000000E+00 0. -1.
         -4    1    3    3    0  502 -0.30237239872E+03 -0.48372211004E+02  0.41676935235E+03  0.51717079515E+03  0.00000000000E+00 0.  1.
         11    1    5    5    0    0  0.27739687472E+03  0.14391609514E+03 -0.65410441540E+02  0.31927949262E+03  0.00000000000E+00 0. -1.
        -11    1    5    5    0    0  0.32350919764E+03  0.15934778338E+03  0.22229629154E+02  0.36130883388E+03  0.00000000000E+00 0.  1.
          2    1    6    6  503    0  0.41516534813E+02 -0.13826858029E+03  0.29083488604E+03  0.32469486275E+03  0.00000000000E+00 0. -1.
         -2    1    6    6    0  503 -0.31712862623E+02 -0.79832927072E+02  0.10196882310E+03  0.13332907704E+03  0.00000000000E+00 0.  1.
<mgrwt>
<rscale>  0 0.18784551E+04</rscale>
<asrwt>0</asrwt>
<pdfrwt beam="1">  1        1 0.74484901E-01 0.18784551E+04</pdfrwt>
<pdfrwt beam="2">  1       -2 0.28031521E+00 0.18784551E+04</pdfrwt>
<totfact> 0.15946978E+00</totfact>
</mgrwt>
</event>
<event>
12    4  0.4381187E-008  0.2364906E+04  0.7818608E-02  0.8452760E-01
         -2   -1    0    0    0  501 -0.00000000000E+00  0.00000000000E+00  0.13822915020E+04  0.13822915020E+04  0.00000000000E+00 0.  1.
          1   -1    0    0  501    0  0.00000000000E+00 -0.00000000000E+00 -0.10115051715E+04  0.10115051715E+04  0.00000000000E+00 0. -1.
        -24    2    1    2    0    0  0.30128946581E+03 -0.33822690698E+03 -0.75506212986E+03  0.88402638534E+03  0.78810197358E+02 0.  0.
        254    2    1    2    0    0 -0.30128946581E+03  0.33822690698E+03  0.11258484604E+04  0.15097702881E+04  0.89816411880E+03 0.  0.
         23    2    4    4    0    0  0.12434051379E+01  0.49013358326E+03  0.23243516420E+03  0.55002280678E+03  0.90920332861E+02 0.  0.
         23    2    4    4    0    0 -0.30253287095E+03 -0.15190667628E+03  0.89341329619E+03  0.95974748134E+03  0.91247651026E+02 0.  0.
          3    1    3    3  502    0  0.27293811932E+03 -0.29382406372E+03 -0.61317050610E+03  0.73267036718E+03  0.00000000000E+00 0. -1.
         -4    1    3    3    0  502  0.28351346489E+02 -0.44402843266E+02 -0.14189162376E+03  0.15135601816E+03  0.00000000000E+00 0.  1.
         11    1    5    5    0    0  0.40690041406E+02  0.28181027851E+03  0.15581455158E+03  0.32457801378E+03  0.00000000000E+00 0. -1.
        -11    1    5    5    0    0 -0.39446636268E+02  0.20832330475E+03  0.76620612627E+02  0.22544479301E+03  0.00000000000E+00 0.  1.
          3    1    6    6  503    0 -0.30325052235E+03 -0.13253675409E+03  0.85212982189E+03  0.91414008984E+03  0.00000000000E+00 0. -1.
         -3    1    6    6    0  503  0.71765140107E+00 -0.19369922189E+02  0.41283474301E+02  0.45607391501E+02  0.00000000000E+00 0.  1.
<mgrwt>
<rscale>  0 0.23649059E+04</rscale>
<asrwt>0</asrwt>
<pdfrwt beam="1">  1        1 0.15561618E+00 0.23649059E+04</pdfrwt>
<pdfrwt beam="2">  1       -2 0.21266023E+00 0.23649059E+04</pdfrwt>
<totfact> 0.12859102E+00</totfact>
</mgrwt>
</event>
<event>
12    4  0.4381187E-008  0.1576987E+04  0.7818608E-02  0.8834812E-01
         -2   -1    0    0    0  501 -0.00000000000E+00  0.00000000000E+00  0.73159069631E+03  0.73159069631E+03  0.00000000000E+00 0.  1.
          1   -1    0    0  501    0  0.00000000000E+00 -0.00000000000E+00 -0.84982268098E+03  0.84982268098E+03  0.00000000000E+00 0. -1.
        -24    2    1    2    0    0  0.33559977969E+02 -0.50626966440E+03  0.13578001592E+03  0.53178131003E+03  0.83185958900E+02 0.  0.
        254    2    1    2    0    0 -0.33559977969E+02  0.50626966440E+03 -0.25401200060E+03  0.10496320673E+04  0.88304594160E+03 0.  0.
         23    2    4    4    0    0  0.21547363457E+03  0.10742366880E+02  0.21476393178E+03  0.31747061806E+03  0.90109718094E+02 0.  0.
         23    2    4    4    0    0 -0.24903361254E+03  0.49552729752E+03 -0.46877593238E+03  0.73216144921E+03  0.93511871806E+02 0.  0.
          1    1    3    3  502    0  0.31503921636E+02 -0.60222779483E+02  0.13807416840E+02  0.69353622882E+02  0.00000000000E+00 0. -1.
         -2    1    3    3    0  502  0.20560563325E+01 -0.44604688492E+03  0.12197259908E+03  0.46242768715E+03  0.00000000000E+00 0.  1.
         11    1    5    5    0    0  0.14748182508E+03 -0.31809916002E+02  0.16247441172E+03  0.22172210974E+03  0.00000000000E+00 0. -1.
        -11    1    5    5    0    0  0.67991809495E+02  0.42552282882E+02  0.52289520057E+02  0.95748508315E+02  0.00000000000E+00 0.  1.
          1    1    6    6  503    0 -0.14276356890E+03  0.23077158463E+03 -0.28091038818E+03  0.39057343364E+03  0.00000000000E+00 0. -1.
         -1    1    6    6    0  503 -0.10627004364E+03  0.26475571289E+03 -0.18786554419E+03  0.34158801556E+03  0.00000000000E+00 0.  1.
<mgrwt>
<rscale>  0 0.15769875E+04</rscale>
<asrwt>0</asrwt>
<pdfrwt beam="1">  1        1 0.13074195E+00 0.15769875E+04</pdfrwt>
<pdfrwt beam="2">  1       -2 0.11255242E+00 0.15769875E+04</pdfrwt>
<totfact> 0.10485960E+01</totfact>
</mgrwt>
</event>
<event>
12    4  0.4381187E-008  0.1219629E+04  0.7818608E-02  0.9095847E-01
         -2   -1    0    0    0  501 -0.00000000000E+00  0.00000000000E+00  0.19406667801E+03  0.19406667801E+03  0.00000000000E+00 0.  1.
          1   -1    0    0  501    0  0.00000000000E+00 -0.00000000000E+00 -0.19162158132E+04  0.19162158132E+04  0.00000000000E+00 0. -1.
        -24    2    1    2    0    0 -0.11297078562E+03  0.13541247434E+03 -0.45884861705E+02  0.19902663681E+03  0.80045268523E+02 0.  0.
        254    2    1    2    0    0  0.11297078562E+03 -0.13541247434E+03 -0.16762642735E+04  0.19112558544E+04  0.90107607327E+03 0.  0.
         23    2    4    4    0    0  0.12310560000E+03  0.37237538104E+03 -0.67860527536E+03  0.78817266807E+03  0.83021815178E+02 0.  0.
         23    2    4    4    0    0 -0.10134814381E+02 -0.50778785538E+03 -0.99765899812E+03  0.11230831863E+04  0.89672439124E+02 0.  0.
          3    1    3    3  502    0 -0.50800671487E+02  0.49774879908E+02 -0.58979035762E+02  0.92394661928E+02  0.00000000000E+00 0. -1.
         -4    1    3    3    0  502 -0.62170114136E+02  0.85637594434E+02  0.13094174057E+02  0.10663197488E+03  0.00000000000E+00 0.  1.
         11    1    5    5    0    0  0.54772164018E+02  0.14501476480E+03 -0.34988365658E+03  0.38268504687E+03  0.00000000000E+00 0.  1.
        -11    1    5    5    0    0  0.68333435985E+02  0.22736061624E+03 -0.32872161878E+03  0.40548762120E+03  0.00000000000E+00 0. -1.
          3    1    6    6  503    0 -0.16698628575E+00 -0.48751511603E+03 -0.90774519891E+03  0.10303748650E+04  0.00000000000E+00 0. -1.
         -3    1    6    6    0  503 -0.99678280957E+01 -0.20272739352E+02 -0.89913799209E+02  0.92708321342E+02  0.00000000000E+00 0.  1.
<mgrwt>
<rscale>  0 0.12196289E+04</rscale>
<asrwt>0</asrwt>
<pdfrwt beam="1">  1        1 0.29480245E+00 0.12196289E+04</pdfrwt>
<pdfrwt beam="2">  1       -2 0.29856410E-01 0.12196289E+04</pdfrwt>
<totfact> 0.30531496E+01</totfact>
</mgrwt>
</event>
<event>
12    4  0.4381187E-008  0.1443320E+04  0.7818608E-02  0.8923045E-01
         -2   -1    0    0    0  501 -0.00000000000E+00  0.00000000000E+00  0.58214589487E+03  0.58214589487E+03  0.00000000000E+00 0.  1.
          1   -1    0    0  501    0  0.00000000000E+00 -0.00000000000E+00 -0.89460972457E+03  0.89460972457E+03  0.00000000000E+00 0. -1.
        -24    2    1    2    0    0 -0.16471398171E+03  0.23234376434E+03 -0.41059306235E+03  0.50610086048E+03  0.80231524522E+02 0.  0.
        254    2    1    2    0    0  0.16471398171E+03 -0.23234376434E+03  0.98129232653E+02  0.97065475896E+03  0.92272801746E+03 0.  0.
         23    2    4    4    0    0  0.59121155340E+02 -0.21463891818E+03 -0.39114433137E+03  0.45934857559E+03  0.91880627619E+02 0.  0.
         23    2    4    4    0    0  0.10559282637E+03 -0.17704846163E+02  0.48927356402E+03  0.51130618337E+03  0.10286926728E+03 0.  0.
          1    1    3    3  502    0 -0.13380215874E+03  0.14644441810E+03 -0.22985719995E+03  0.30361705757E+03  0.00000000000E+00 0. -1.
         -2    1    3    3    0  502 -0.30911822967E+02  0.85899346241E+02 -0.18073586239E+03  0.20248380290E+03  0.00000000000E+00 0.  1.
         11    1    5    5    0    0 -0.22941439084E+02 -0.37103472610E+02 -0.52259858104E+02  0.68074004407E+02  0.00000000000E+00 0. -1.
        -11    1    5    5    0    0  0.82062594424E+02 -0.17753544557E+03 -0.33888447326E+03  0.39127457118E+03  0.00000000000E+00 0.  1.
          1    1    6    6  503    0 -0.10541555706E+02  0.57049290613E+00  0.18206953800E+03  0.18237534517E+03  0.00000000000E+00 0. -1.
         -1    1    6    6    0  503  0.11613438208E+03 -0.18275339069E+02  0.30720402602E+03  0.32893083820E+03  0.00000000000E+00 0.  1.
<mgrwt>
<rscale>  0 0.14433203E+04</rscale>
<asrwt>0</asrwt>
<pdfrwt beam="1">  1        1 0.13763227E+00 0.14433203E+04</pdfrwt>
<pdfrwt beam="2">  1       -2 0.89560907E-01 0.14433203E+04</pdfrwt>
<totfact> 0.16733914E+01</totfact>
</mgrwt>
</event>
<event>
12    4  0.4381187E-008  0.2359038E+04  0.7818608E-02  0.8455000E-01
         -2   -1    0    0    0  501 -0.00000000000E+00  0.00000000000E+00  0.59630296276E+03  0.59630296276E+03  0.00000000000E+00 0.  1.
          1   -1    0    0  501    0  0.00000000000E+00 -0.00000000000E+00 -0.23331519696E+04  0.23331519696E+04  0.00000000000E+00 0. -1.
        -24    2    1    2    0    0 -0.43548775095E+03 -0.47637139755E+03  0.21741561354E+03  0.68595355194E+03  0.81752289203E+02 0.  0.
        254    2    1    2    0    0  0.43548775095E+03  0.47637139755E+03 -0.19542646204E+04  0.22435013804E+04  0.89306715751E+03 0.  0.
         23    2    4    4    0    0  0.43293095668E+03  0.65530813625E+03 -0.10377986319E+04  0.13053179565E+04  0.99854898053E+02 0.  0.
         23    2    4    4    0    0  0.25567942615E+01 -0.17893673870E+03 -0.91646598850E+03  0.93818342387E+03  0.90847867785E+02 0.  0.
          1    1    3    3  502    0 -0.11310986462E+03 -0.12020398932E+03  0.18818955394E+02  0.16612342883E+03  0.00000000000E+00 0. -1.
         -2    1    3    3    0  502 -0.32237788633E+03 -0.35616740823E+03  0.19859665814E+03  0.51983012312E+03  0.00000000000E+00 0.  1.
         11    1    5    5    0    0  0.36794111760E+03  0.49559182566E+03 -0.84848044726E+03  0.10492430572E+04  0.00000000000E+00 0. -1.
        -11    1    5    5    0    0  0.64989839083E+02  0.15971631059E+03 -0.18931818461E+03  0.25607489935E+03  0.00000000000E+00 0.  1.
          1    1    6    6  503    0 -0.34993227168E+02 -0.12736871592E+03 -0.51438728430E+03  0.53107588346E+03  0.00000000000E+00 0. -1.
         -1    1    6    6    0  503  0.37550021429E+02 -0.51568022785E+02 -0.40207870420E+03  0.40710754041E+03  0.00000000000E+00 0.  1.
<mgrwt>
<rscale>  0 0.23590383E+04</rscale>
<asrwt>0</asrwt>
<pdfrwt beam="1">  1        1 0.35894645E+00 0.23590383E+04</pdfrwt>
<pdfrwt beam="2">  1       -2 0.91738918E-01 0.23590383E+04</pdfrwt>
<totfact> 0.14111023E+00</totfact>
</mgrwt>
</event>
<event>
12    4  0.4381187E-008  0.1219296E+04  0.7818608E-02  0.9096133E-01
         -2   -1    0    0    0  501 -0.00000000000E+00  0.00000000000E+00  0.16962999148E+03  0.16962999148E+03  0.00000000000E+00 0.  1.
          1   -1    0    0  501    0  0.00000000000E+00 -0.00000000000E+00 -0.21910659614E+04  0.21910659614E+04  0.00000000000E+00 0. -1.
        -24    2    1    2    0    0  0.58722638093E+02  0.69941809059E+01  0.37415724217E+02  0.10781428218E+03  0.82016560721E+02 0.  0.
        254    2    1    2    0    0 -0.58722638093E+02 -0.69941809059E+01 -0.20588516942E+04  0.22528816707E+04  0.91274764144E+03 0.  0.
         23    2    4    4    0    0  0.43249653942E+02  0.31319370933E+03 -0.25320254277E+03  0.41397742229E+03  0.85468979021E+02 0.  0.
         23    2    4    4    0    0 -0.10197229204E+03 -0.32018789023E+03 -0.18056491514E+04  0.18389042484E+04  0.91001887808E+02 0.  0.
          3    1    3    3  502    0  0.34054525052E+02  0.11312787090E+01 -0.23795268584E+02  0.41559659227E+02  0.00000000000E+00 0. -1.
         -4    1    3    3    0  502  0.24668113041E+02  0.58629021969E+01  0.61210992801E+02  0.66254622955E+02  0.00000000000E+00 0.  1.
         11    1    5    5    0    0  0.50604018258E+02  0.21099463826E+03 -0.12698448792E+03  0.25140517936E+03  0.00000000000E+00 0.  1.
        -11    1    5    5    0    0 -0.73543643158E+01  0.10219907107E+03 -0.12621805485E+03  0.16257224293E+03  0.00000000000E+00 0. -1.
          2    1    6    6  503    0  0.37224687875E+01 -0.12521546968E+03 -0.72314668931E+03  0.73391682423E+03  0.00000000000E+00 0. -1.
         -2    1    6    6    0  503 -0.10569476082E+03 -0.19497242055E+03 -0.10825024621E+04  0.11049874242E+04  0.00000000000E+00 0.  1.
<mgrwt>
<rscale>  0 0.12192957E+04</rscale>
<asrwt>0</asrwt>
<pdfrwt beam="1">  1        1 0.33708704E+00 0.12192957E+04</pdfrwt>
<pdfrwt beam="2">  1       -2 0.26096924E-01 0.12192957E+04</pdfrwt>
<totfact> 0.25511207E+01</totfact>
</mgrwt>
</event>
<event>
12    4  0.4381187E-008  0.1890673E+04  0.7818608E-02  0.8659513E-01
         -2   -1    0    0    0  501 -0.00000000000E+00  0.00000000000E+00  0.46030670407E+03  0.46030670407E+03  0.00000000000E+00 0.  1.
          1   -1    0    0  501    0  0.00000000000E+00 -0.00000000000E+00 -0.19414466725E+04  0.19414466725E+04  0.00000000000E+00 0. -1.
        -24    2    1    2    0    0 -0.73206101636E+03 -0.40620373826E+02 -0.53373914727E+03  0.91032806854E+03  0.79097209785E+02 0.  0.
        254    2    1    2    0    0  0.73206101636E+03  0.40620373826E+02 -0.94740082120E+03  0.14914253081E+04  0.88837930364E+03 0.  0.
         23    2    4    4    0    0  0.81779881371E+02 -0.26747190638E+02  0.16018529942E+03  0.20282128108E+03  0.89854219199E+02 0.  0.
         23    2    4    4    0    0  0.65028113499E+03  0.67367564463E+02 -0.11075861206E+04  0.12886040270E+04  0.79683000351E+02 0.  0.
          3    1    3    3  502    0 -0.19482640108E+03  0.47606928532E+00 -0.18390663970E+03  0.26791641481E+03  0.00000000000E+00 0. -1.
         -4    1    3    3    0  502 -0.53723461527E+03 -0.41096443111E+02 -0.34983250757E+03  0.64241165372E+03  0.00000000000E+00 0.  1.
         11    1    5    5    0    0  0.65144366978E+02 -0.41703835983E+02  0.16285622883E+03  0.18029184605E+03  0.00000000000E+00 0. -1.
        -11    1    5    5    0    0  0.16635514393E+02  0.14956645345E+02 -0.26709294097E+01  0.22529435035E+02  0.00000000000E+00 0.  1.
          4    1    6    6  503    0  0.44563105893E+03  0.76491528756E+02 -0.71965700714E+03  0.84990834952E+03  0.00000000000E+00 0. -1.
         -4    1    6    6    0  503  0.20465007605E+03 -0.91239642920E+01 -0.38792911348E+03  0.43869567748E+03  0.00000000000E+00 0.  1.
<mgrwt>
<rscale>  0 0.18906728E+04</rscale>
<asrwt>0</asrwt>
<pdfrwt beam="1">  1        1 0.29868411E+00 0.18906728E+04</pdfrwt>
<pdfrwt beam="2">  1       -2 0.70816415E-01 0.18906728E+04</pdfrwt>
<totfact> 0.48660709E+00</totfact>
</mgrwt>
</event>
<event>
12    4  0.4381187E-008  0.2010053E+04  0.7818608E-02  0.8601935E-01
         -2   -1    0    0    0  501 -0.00000000000E+00  0.00000000000E+00  0.18792119977E+04  0.18792119977E+04  0.00000000000E+00 0.  1.
          1   -1    0    0  501    0  0.00000000000E+00 -0.00000000000E+00 -0.53750121322E+03  0.53750121322E+03  0.00000000000E+00 0. -1.
        -24    2    1    2    0    0 -0.22345160807E+03  0.76192315359E+03  0.70036436661E+03  0.10617473475E+04  0.79622049536E+02 0.  0.
        254    2    1    2    0    0  0.22345160807E+03 -0.76192315359E+03  0.64134641789E+03  0.13549658634E+04  0.89115080105E+03 0.  0.
         23    2    4    4    0    0 -0.63558935928E+02  0.17382875763E+03  0.15521836021E+03  0.25798454532E+03  0.90593106583E+02 0.  0.
         23    2    4    4    0    0  0.28701054399E+03 -0.93575191122E+03  0.48612805767E+03  0.10969813181E+04  0.95083290434E+02 0.  0.
          1    1    3    3  502    0 -0.18689381698E+03  0.66667548270E+03  0.64195181544E+03  0.94418622708E+03  0.00000000000E+00 0. -1.
         -2    1    3    3    0  502 -0.36557791089E+02  0.95247670890E+02  0.58412551164E+02  0.11756112041E+03  0.00000000000E+00 0.  1.
         11    1    5    5    0    0 -0.84966979176E+02  0.15553497522E+03  0.12635805846E+03  0.21766229578E+03  0.00000000000E+00 0. -1.
        -11    1    5    5    0    0  0.21408043248E+02  0.18293782417E+02  0.28860301755E+02  0.40322249543E+02  0.00000000000E+00 0.  1.
          2    1    6    6  503    0  0.28722101800E+03 -0.92826416743E+03  0.47039544874E+03  0.10795564626E+04  0.00000000000E+00 0. -1.
         -2    1    6    6    0  503 -0.21047401099E+00 -0.74877437932E+01  0.15732608932E+02  0.17424855530E+02  0.00000000000E+00 0.  1.
<mgrwt>
<rscale>  0 0.20100535E+04</rscale>
<asrwt>0</asrwt>
<pdfrwt beam="1">  1        1 0.82692495E-01 0.20100535E+04</pdfrwt>
<pdfrwt beam="2">  1       -2 0.28910954E+00 0.20100535E+04</pdfrwt>
<totfact> 0.12055740E+00</totfact>
</mgrwt>
</event>
<event>
12    4  0.4381187E-008  0.1144411E+04  0.7818608E-02  0.9162955E-01
         -2   -1    0    0    0  501 -0.00000000000E+00  0.00000000000E+00  0.23813857467E+03  0.23813857467E+03  0.00000000000E+00 0.  1.
          1   -1    0    0  501    0  0.00000000000E+00 -0.00000000000E+00 -0.13749098130E+04  0.13749098130E+04  0.00000000000E+00 0. -1.
        -24    2    1    2    0    0  0.11311597149E+03 -0.43266317737E+02 -0.48292213964E+03  0.50464840428E+03  0.82395520116E+02 0.  0.
        254    2    1    2    0    0 -0.11311597149E+03  0.43266317737E+02 -0.65384909868E+03  0.11083999834E+04  0.88677205753E+03 0.  0.
         23    2    4    4    0    0  0.35265162546E+03  0.70240490485E+02 -0.46941112207E+03  0.59847118332E+03  0.92325837657E+02 0.  0.
         23    2    4    4    0    0 -0.46576759695E+03 -0.26974172748E+02 -0.18443797661E+03  0.50992880005E+03  0.91339769750E+02 0.  0.
          1    1    3    3  502    0  0.12041765006E+03 -0.28567815228E+02 -0.46063199471E+03  0.47696788682E+03  0.00000000000E+00 0. -1.
         -2    1    3    3    0  502 -0.73016785627E+01 -0.14698502509E+02 -0.22290144932E+02  0.27680517461E+02  0.00000000000E+00 0.  1.
         11    1    5    5    0    0  0.25034824791E+03  0.63276348625E+01 -0.32563355391E+03  0.41079373854E+03  0.00000000000E+00 0. -1.
        -11    1    5    5    0    0  0.10230337755E+03  0.63912855622E+02 -0.14377756816E+03  0.18767744477E+03  0.00000000000E+00 0.  1.
          1    1    6    6  503    0 -0.12052797785E+03 -0.13491695457E+02 -0.68903561373E+01  0.12147631991E+03  0.00000000000E+00 0.  1.
         -1    1    6    6    0  503 -0.34523961910E+03 -0.13482477291E+02 -0.17754762047E+03  0.38845248014E+03  0.00000000000E+00 0. -1.
<mgrwt>
<rscale>  0 0.11444109E+04</rscale>
<asrwt>0</asrwt>
<pdfrwt beam="1">  1        1 0.21152459E+00 0.11444109E+04</pdfrwt>
<pdfrwt beam="2">  1       -2 0.36636703E-01 0.11444109E+04</pdfrwt>
<totfact> 0.48923318E+01</totfact>
</mgrwt>
</event>
<event>
12    4  0.4381187E-008  0.1529123E+04  0.7818608E-02  0.8865314E-01
         -2   -1    0    0    0  501 -0.00000000000E+00  0.00000000000E+00  0.46482070133E+03  0.46482070133E+03  0.00000000000E+00 0.  1.
          1   -1    0    0  501    0  0.00000000000E+00 -0.00000000000E+00 -0.12575912339E+04  0.12575912339E+04  0.00000000000E+00 0. -1.
        -24    2    1    2    0    0  0.11561501631E+03  0.24134420857E+03 -0.75788878783E+03  0.80750968482E+03  0.77862811076E+02 0.  0.
        254    2    1    2    0    0 -0.11561501631E+03 -0.24134420857E+03 -0.34881744739E+02  0.91490225041E+03  0.87419421908E+03 0.  0.
         23    2    4    4    0    0 -0.27867622839E+03  0.22891489502E+02 -0.35426843751E+03  0.46047187154E+03  0.91344173915E+02 0.  0.
         23    2    4    4    0    0  0.16306121208E+03 -0.26423569807E+03  0.31938669277E+03  0.45443037886E+03  0.89942463253E+02 0.  0.
          3    1    3    3  502    0  0.12203659707E+03  0.22322259033E+03 -0.73404409126E+03  0.77687964562E+03  0.00000000000E+00 0. -1.
         -4    1    3    3    0  502 -0.64215807568E+01  0.18121618239E+02 -0.23844696572E+02  0.30630039204E+02  0.00000000000E+00 0.  1.
         11    1    5    5    0    0 -0.17082161884E+03 -0.22444807723E+02 -0.25086234409E+03  0.30432829402E+03  0.00000000000E+00 0.  1.
        -11    1    5    5    0    0 -0.10785460955E+03  0.45336297225E+02 -0.10340609342E+03  0.15614357753E+03  0.00000000000E+00 0. -1.
          1    1    6    6  503    0  0.95412111029E+02 -0.17377845009E+03  0.14095302796E+03  0.24324920707E+03  0.00000000000E+00 0. -1.
         -1    1    6    6    0  503  0.67649101052E+02 -0.90457247980E+02  0.17843366480E+03  0.21118117179E+03  0.00000000000E+00 0.  1.
<mgrwt>
<rscale>  0 0.15291232E+04</rscale>
<asrwt>0</asrwt>
<pdfrwt beam="1">  1        1 0.19347557E+00 0.15291232E+04</pdfrwt>
<pdfrwt beam="2">  1       -2 0.71510877E-01 0.15291232E+04</pdfrwt>
<totfact> 0.14571199E+01</totfact>
</mgrwt>
</event>
<event>
12    4  0.4381187E-008  0.2025010E+04  0.7818608E-02  0.8595016E-01
         -2   -1    0    0    0  501 -0.00000000000E+00  0.00000000000E+00  0.41025772659E+03  0.41025772659E+03  0.00000000000E+00 0.  1.
          1   -1    0    0  501    0  0.00000000000E+00 -0.00000000000E+00 -0.24988347625E+04  0.24988347625E+04  0.00000000000E+00 0. -1.
        -24    2    1    2    0    0 -0.76407290196E+03  0.16423563541E+03 -0.51727750572E+03  0.93941009443E+03  0.64300576601E+02 0.  0.
        254    2    1    2    0    0  0.76407290196E+03 -0.16423563541E+03 -0.15712995302E+04  0.19696823947E+04  0.89436333713E+03 0.  0.
         23    2    4    4    0    0  0.50868749359E+03  0.24316862782E+03 -0.39238810178E+03  0.69305804169E+03  0.92016732376E+02 0.  0.
         23    2    4    4    0    0  0.25538540837E+03 -0.40740426322E+03 -0.11789114284E+04  0.12766243530E+04  0.93475355394E+02 0.  0.
          1    1    3    3  502    0 -0.50130391751E+03  0.11587714437E+03 -0.30467403002E+03  0.59796270357E+03  0.00000000000E+00 0. -1.
         -2    1    3    3    0  502 -0.26276898445E+03  0.48358491032E+02 -0.21260347569E+03  0.34144739086E+03  0.00000000000E+00 0.  1.
         11    1    5    5    0    0  0.30956127125E+02 -0.47856040856E+01 -0.10267984478E+02  0.32963848657E+02  0.00000000000E+00 0. -1.
        -11    1    5    5    0    0  0.47773136646E+03  0.24795423190E+03 -0.38212011731E+03  0.66009419303E+03  0.00000000000E+00 0.  1.
          3    1    6    6  503    0 -0.40815953496E+01  0.39082094024E+00 -0.25317761428E+01  0.48189264408E+01  0.00000000000E+00 0. -1.
         -3    1    6    6    0  503  0.25946700372E+03 -0.40779508416E+03 -0.11763796523E+04  0.12718054265E+04  0.00000000000E+00 0.  1.
<mgrwt>
<rscale>  0 0.20250099E+04</rscale>
<asrwt>0</asrwt>
<pdfrwt beam="1">  1        1 0.38443612E+00 0.20250099E+04</pdfrwt>
<pdfrwt beam="2">  1       -2 0.63116572E-01 0.20250099E+04</pdfrwt>
<totfact> 0.25676181E+00</totfact>
</mgrwt>
</event>
<event>
12    4  0.4381187E-008  0.1151699E+04  0.7818608E-02  0.9156218E-01
         -2   -1    0    0    0  501 -0.00000000000E+00  0.00000000000E+00  0.34425933766E+03  0.34425933766E+03  0.00000000000E+00 0.  1.
          1   -1    0    0  501    0  0.00000000000E+00 -0.00000000000E+00 -0.96323429923E+03  0.96323429923E+03  0.00000000000E+00 0. -1.
        -24    2    1    2    0    0 -0.12311600979E+03 -0.92446175414E+02 -0.33562024253E+03  0.37719236046E+03  0.77001833618E+02 0.  0.
        254    2    1    2    0    0  0.12311600979E+03  0.92446175414E+02 -0.28335471904E+03  0.93030127642E+03  0.87262060536E+03 0.  0.
         23    2    4    4    0    0  0.15427718041E+03 -0.32296680015E+03 -0.33866856237E+03  0.50054990310E+03  0.88004590538E+02 0.  0.
         23    2    4    4    0    0 -0.31161170619E+02  0.41541297556E+03  0.55313843330E+02  0.42975137333E+03  0.89931433834E+02 0.  0.
          1    1    3    3  502    0 -0.10772960072E+03 -0.72557767276E+02 -0.32481912290E+03  0.34982532651E+03  0.00000000000E+00 0. -1.
         -2    1    3    3    0  502 -0.15386409069E+02 -0.19888408138E+02 -0.10801119629E+02  0.27367033956E+02  0.00000000000E+00 0.  1.
         11    1    5    5    0    0  0.11605372329E+03 -0.28544793864E+03 -0.24928819398E+03  0.39635034505E+03  0.00000000000E+00 0. -1.
        -11    1    5    5    0    0  0.38223457120E+02 -0.37518861510E+02 -0.89380368391E+02  0.10419955805E+03  0.00000000000E+00 0.  1.
          1    1    6    6  503    0 -0.48360454144E+02  0.38935914846E+03  0.63550094482E+02  0.39746433114E+03  0.00000000000E+00 0. -1.
         -1    1    6    6    0  503  0.17199283525E+02  0.26053827100E+02 -0.82362511528E+01  0.32287042190E+02  0.00000000000E+00 0.  1.
<mgrwt>
<rscale>  0 0.11516986E+04</rscale>
<asrwt>0</asrwt>
<pdfrwt beam="1">  1        1 0.14818989E+00 0.11516986E+04</pdfrwt>
<pdfrwt beam="2">  1       -2 0.52962976E-01 0.11516986E+04</pdfrwt>
<totfact> 0.47342230E+01</totfact>
</mgrwt>
</event>
<event>
12    4  0.4381187E-008  0.2292810E+04  0.7818608E-02  0.8480762E-01
         -2   -1    0    0    0  501 -0.00000000000E+00  0.00000000000E+00  0.64872633820E+03  0.64872633820E+03  0.00000000000E+00 0.  1.
          1   -1    0    0  501    0  0.00000000000E+00 -0.00000000000E+00 -0.20258834551E+04  0.20258834551E+04  0.00000000000E+00 0. -1.
        -24    2    1    2    0    0  0.95527455871E+03 -0.14527406787E+03 -0.51135366313E+03  0.10963756660E+04  0.83084263679E+02 0.  0.
        254    2    1    2    0    0 -0.95527455871E+03  0.14527406787E+03 -0.86580345374E+03  0.15782341273E+04  0.89863969567E+03 0.  0.
         23    2    4    4    0    0 -0.55240570881E+03  0.26229990801E+03 -0.95689182094E+03  0.11393207357E+04  0.91959082559E+02 0.  0.
         23    2    4    4    0    0 -0.40286884990E+03 -0.11702584013E+03  0.91088367197E+02  0.43891339161E+03  0.91375692670E+02 0.  0.
          1    1    3    3  502    0  0.17270409068E+03 -0.32858072750E+02 -0.12972772232E+03  0.21848486863E+03  0.00000000000E+00 0. -1.
         -2    1    3    3    0  502  0.78257046804E+03 -0.11241599513E+03 -0.38162594081E+03  0.87789079737E+03  0.00000000000E+00 0.  1.
         11    1    5    5    0    0 -0.98794174912E+01  0.16878061133E+02 -0.56985362015E+02  0.60247849103E+02  0.00000000000E+00 0. -1.
        -11    1    5    5    0    0 -0.54252629132E+03  0.24542184688E+03 -0.89990645892E+03  0.10790728866E+04  0.00000000000E+00 0.  1.
          4    1    6    6  503    0 -0.94484158661E+02 -0.50327755669E+02 -0.10204938431E+02  0.10753734234E+03  0.00000000000E+00 0. -1.
         -4    1    6    6    0  503 -0.30838469124E+03 -0.66698084465E+02  0.10129330563E+03  0.33137604927E+03  0.00000000000E+00 0.  1.
<mgrwt>
<rscale>  0 0.22928096E+04</rscale>
<asrwt>0</asrwt>
<pdfrwt beam="1">  1        1 0.31167438E+00 0.22928096E+04</pdfrwt>
<pdfrwt beam="2">  1       -2 0.99804053E-01 0.22928096E+04</pdfrwt>
<totfact> 0.18870048E+00</totfact>
</mgrwt>
</event>
<event>
12    4  0.4381187E-008  0.1310449E+04  0.7818608E-02  0.9021319E-01
         -2   -1    0    0    0  501 -0.00000000000E+00  0.00000000000E+00  0.35766838557E+03  0.35766838557E+03  0.00000000000E+00 0.  1.
          1   -1    0    0  501    0  0.00000000000E+00 -0.00000000000E+00 -0.12003281018E+04  0.12003281018E+04  0.00000000000E+00 0. -1.
        -24    2    1    2    0    0  0.50056315362E+02  0.51187011192E+01  0.17372708459E+03  0.19737479214E+03  0.79018180452E+02 0.  0.
        254    2    1    2    0    0 -0.50056315362E+02 -0.51187011192E+01 -0.10163868008E+04  0.13606216952E+04  0.90317076615E+03 0.  0.
         23    2    4    4    0    0  0.39528478666E+03 -0.46084262263E+02 -0.27650422939E+03  0.49106168789E+03  0.79455463300E+02 0.  0.
         23    2    4    4    0    0 -0.44534110202E+03  0.40965561143E+02 -0.73988257138E+03  0.86956000730E+03  0.93281898065E+02 0.  0.
          1    1    3    3  502    0  0.63622041877E+02  0.99275113735E+01  0.80703022137E+02  0.10324387380E+03  0.00000000000E+00 0. -1.
         -2    1    3    3    0  502 -0.13565726515E+02 -0.48088102543E+01  0.93024062457E+02  0.94130918342E+02  0.00000000000E+00 0.  1.
         11    1    5    5    0    0  0.11286981699E+03  0.22726853503E+02 -0.77445480513E+02  0.13875845167E+03  0.00000000000E+00 0. -1.
        -11    1    5    5    0    0  0.28241496967E+03 -0.68811115766E+02 -0.19905874887E+03  0.35230323622E+03  0.00000000000E+00 0.  1.
          2    1    6    6  503    0 -0.26795293974E+03  0.29081875177E+02 -0.35611988276E+03  0.44661605913E+03  0.00000000000E+00 0. -1.
         -2    1    6    6    0  503 -0.17738816228E+03  0.11883685967E+02 -0.38376268862E+03  0.42294394817E+03  0.00000000000E+00 0.  1.
<mgrwt>
<rscale>  0 0.13104494E+04</rscale>
<asrwt>0</asrwt>
<pdfrwt beam="1">  1        1 0.18466586E+00 0.13104494E+04</pdfrwt>
<pdfrwt beam="2">  1       -2 0.55025906E-01 0.13104494E+04</pdfrwt>
<totfact> 0.28559779E+01</totfact>
</mgrwt>
</event>
<event>
12    4  0.4381187E-008  0.1844402E+04  0.7818608E-02  0.8683037E-01
          1   -1    0    0  501    0  0.00000000000E+00  0.00000000000E+00  0.95667939417E+03  0.95667939417E+03  0.00000000000E+00 0. -1.
         -2   -1    0    0    0  501 -0.00000000000E+00 -0.00000000000E+00 -0.88896566642E+03  0.88896566642E+03  0.00000000000E+00 0.  1.
        -24    2    1    2    0    0 -0.63556249299E+03  0.22988548570E+03  0.24345592809E+03  0.72330863370E+03  0.84365701757E+02 0.  0.
        254    2    1    2    0    0  0.63556249299E+03 -0.22988548570E+03 -0.17574220034E+03  0.11223364269E+04  0.87861636401E+03 0.  0.
         23    2    4    4    0    0  0.32741898171E+03  0.18896620877E+03  0.23431625953E+03  0.45390884906E+03  0.90651619596E+02 0.  0.
         23    2    4    4    0    0  0.30814351128E+03 -0.41885169447E+03 -0.41005845987E+03  0.66842757782E+03  0.90875303475E+02 0.  0.
          3    1    3    3  502    0 -0.32222310818E+03  0.12710638232E+03  0.81152348474E+02  0.35576602920E+03  0.00000000000E+00 0. -1.
         -2    1    3    3    0  502 -0.31333938481E+03  0.10277910337E+03  0.16230357962E+03  0.36754260450E+03  0.00000000000E+00 0.  1.
         11    1    5    5    0    0  0.29100261707E+03  0.13112337500E+03  0.17877669289E+03  0.36583735257E+03  0.00000000000E+00 0.  1.
        -11    1    5    5    0    0  0.36416364639E+02  0.57842833771E+02  0.55539566635E+02  0.88071496491E+02  0.00000000000E+00 0. -1.
          1    1    6    6  503    0  0.85242286874E+02 -0.66113837973E+02 -0.57973660874E+02  0.12246727072E+03  0.00000000000E+00 0. -1.
         -1    1    6    6    0  503  0.22290122440E+03 -0.35273785650E+03 -0.35208479900E+03  0.54596030710E+03  0.00000000000E+00 0.  1.
<mgrwt>
<rscale>  0 0.18444025E+04</rscale>
<asrwt>0</asrwt>
<pdfrwt beam="1">  1        1 0.14718145E+00 0.18444025E+04</pdfrwt>
<pdfrwt beam="2">  1       -2 0.13676395E+00 0.18444025E+04</pdfrwt>
<totfact> 0.51472882E+00</totfact>
</mgrwt>
</event>
<event>
12    4  0.4381187E-008  0.2385182E+04  0.7818608E-02  0.8445072E-01
         -2   -1    0    0    0  501 -0.00000000000E+00  0.00000000000E+00  0.14004007062E+04  0.14004007062E+04  0.00000000000E+00 0.  1.
          1   -1    0    0  501    0  0.00000000000E+00 -0.00000000000E+00 -0.10156185956E+04  0.10156185956E+04  0.00000000000E+00 0. -1.
        -24    2    1    2    0    0  0.29117295204E+03 -0.20047715241E+03  0.11427961760E+04  0.11988625431E+04  0.79470250020E+02 0.  0.
        254    2    1    2    0    0 -0.29117295204E+03  0.20047715241E+03 -0.75801406540E+03  0.12171567587E+04  0.88425814974E+03 0.  0.
         23    2    4    4    0    0 -0.23030731014E+02  0.42511386811E+03 -0.73621095533E+03  0.85504226968E+03  0.88535285391E+02 0.  0.
         23    2    4    4    0    0 -0.26814222102E+03 -0.22463671569E+03 -0.21803110066E+02  0.36211448907E+03  0.91047365982E+02 0.  0.
          3    1    3    3  502    0  0.10567774901E+03 -0.37284486155E+02  0.43429239608E+03  0.44851734062E+03  0.00000000000E+00 0. -1.
         -4    1    3    3    0  502  0.18549520303E+03 -0.16319266626E+03  0.70850377992E+03  0.75034520244E+03  0.00000000000E+00 0.  1.
         11    1    5    5    0    0  0.25664494449E+02  0.61484603470E+02 -0.13902272445E+03  0.15416335704E+03  0.00000000000E+00 0.  1.
        -11    1    5    5    0    0 -0.48695225463E+02  0.36362926464E+03 -0.59718823087E+03  0.70087891264E+03  0.00000000000E+00 0. -1.
          3    1    6    6  503    0 -0.25141104830E+03 -0.21999302998E+03  0.21624870342E+00  0.33407258973E+03  0.00000000000E+00 0. -1.
         -3    1    6    6    0  503 -0.16731172727E+02 -0.46436857094E+01 -0.22019358769E+02  0.28041899337E+02  0.00000000000E+00 0.  1.
<mgrwt>
<rscale>  0 0.23851818E+04</rscale>
<asrwt>0</asrwt>
<pdfrwt beam="1">  1        1 0.15624902E+00 0.23851818E+04</pdfrwt>
<pdfrwt beam="2">  1       -2 0.21544626E+00 0.23851818E+04</pdfrwt>
<totfact> 0.12229933E+00</totfact>
</mgrwt>
</event>
<event>
12    4  0.4381187E-008  0.1507589E+04  0.7818608E-02  0.8879422E-01
          1   -1    0    0  501    0  0.00000000000E+00  0.00000000000E+00  0.65248168114E+03  0.65248168114E+03  0.00000000000E+00 0. -1.
         -2   -1    0    0    0  501 -0.00000000000E+00 -0.00000000000E+00 -0.87083830260E+03  0.87083830260E+03  0.00000000000E+00 0.  1.
        -24    2    1    2    0    0 -0.45419122964E+03 -0.39107194021E+02  0.79749822723E+02  0.46970015566E+03  0.80244353672E+02 0.  0.
        254    2    1    2    0    0  0.45419122964E+03  0.39107194021E+02 -0.29810644418E+03  0.10536198281E+04  0.90190256920E+03 0.  0.
         23    2    4    4    0    0 -0.16037197652E+03  0.20859820511E+02 -0.38351794558E+03  0.42609496137E+03  0.91195386697E+02 0.  0.
         23    2    4    4    0    0  0.61456320616E+03  0.18247373510E+02  0.85411501407E+02  0.62752486670E+03  0.92040386502E+02 0.  0.
          3    1    3    3  502    0 -0.35836923873E+03 -0.21710995801E+02  0.94367079305E+02  0.37122099114E+03  0.00000000000E+00 0. -1.
         -4    1    3    3    0  502 -0.95821990914E+02 -0.17396198220E+02 -0.14617256582E+02  0.98479164523E+02  0.00000000000E+00 0.  1.
         11    1    5    5    0    0 -0.15055645480E+03 -0.98213730178E+01 -0.33980832813E+03  0.37179753269E+03  0.00000000000E+00 0. -1.
        -11    1    5    5    0    0 -0.98155217206E+01  0.30681193528E+02 -0.43709617456E+02  0.54297428679E+02  0.00000000000E+00 0.  1.
          2    1    6    6  503    0  0.12291408748E+03  0.33425579421E+02  0.40186554429E+02  0.13356684251E+03  0.00000000000E+00 0. -1.
         -2    1    6    6    0  503  0.49164911868E+03 -0.15178205911E+02  0.45224946978E+02  0.49395802419E+03  0.00000000000E+00 0.  1.
<mgrwt>
<rscale>  0 0.15075889E+04</rscale>
<asrwt>0</asrwt>
<pdfrwt beam="1">  1        1 0.10038180E+00 0.15075889E+04</pdfrwt>
<pdfrwt beam="2">  1       -2 0.13397512E+00 0.15075889E+04</pdfrwt>
<totfact> 0.10305439E+01</totfact>
</mgrwt>
</event>
<event>
12    4  0.4381187E-008  0.1457807E+04  0.7818608E-02  0.8913006E-01
          1   -1    0    0  501    0  0.00000000000E+00  0.00000000000E+00  0.10586585342E+04  0.10586585342E+04  0.00000000000E+00 0. -1.
         -2   -1    0    0    0  501 -0.00000000000E+00 -0.00000000000E+00 -0.50186184764E+03  0.50186184764E+03  0.00000000000E+00 0.  1.
        -24    2    1    2    0    0  0.12017651313E+03 -0.31433090986E+03 -0.13830673030E+03  0.37270994503E+03  0.80855650866E+02 0.  0.
        254    2    1    2    0    0 -0.12017651313E+03  0.31433090986E+03  0.69510341682E+03  0.11878104368E+04  0.90248465828E+03 0.  0.
         23    2    4    4    0    0  0.86458242807E+02  0.25814129897E+03  0.85757302559E+03  0.90412838631E+03  0.88908305170E+02 0.  0.
         23    2    4    4    0    0 -0.20663475594E+03  0.56189610894E+02 -0.16246960877E+03  0.28368205046E+03  0.90685926392E+02 0.  0.
          3    1    3    3  502    0  0.41097955609E+01  0.20329667220E+01  0.47650532763E+01  0.66127986489E+01  0.00000000000E+00 0. -1.
         -4    1    3    3    0  502  0.11606671757E+03 -0.31636387658E+03 -0.14307178358E+03  0.36609714638E+03  0.00000000000E+00 0.  1.
         11    1    5    5    0    0  0.68363483664E+02  0.22033875951E+03  0.80201126330E+03  0.83453268438E+03  0.00000000000E+00 0.  1.
        -11    1    5    5    0    0  0.18094759143E+02  0.37802539459E+02  0.55561762287E+02  0.69595701925E+02  0.00000000000E+00 0. -1.
          1    1    6    6  503    0 -0.11011100319E+01 -0.24409701048E+01  0.91757041154E+01  0.95584687250E+01  0.00000000000E+00 0. -1.
         -1    1    6    6    0  503 -0.20553364591E+03  0.58630580998E+02 -0.17164531289E+03  0.27412358174E+03  0.00000000000E+00 0.  1.
<mgrwt>
<rscale>  0 0.14578070E+04</rscale>
<asrwt>0</asrwt>
<pdfrwt beam="1">  1        1 0.16287054E+00 0.14578070E+04</pdfrwt>
<pdfrwt beam="2">  1       -2 0.77209515E-01 0.14578070E+04</pdfrwt>
<totfact> 0.17362953E+01</totfact>
</mgrwt>
</event>
<event>
12    4  0.4381187E-008  0.1376595E+04  0.7818608E-02  0.8970936E-01
          1   -1    0    0  501    0  0.00000000000E+00  0.00000000000E+00  0.20003891079E+04  0.20003891079E+04  0.00000000000E+00 0. -1.
         -2   -1    0    0    0  501 -0.00000000000E+00 -0.00000000000E+00 -0.23683081838E+03  0.23683081838E+03  0.00000000000E+00 0.  1.
        -24    2    1    2    0    0 -0.26936356027E+02  0.83937716985E+02 -0.10938059585E+03  0.15836135945E+03  0.73096496570E+02 0.  0.
        254    2    1    2    0    0  0.26936356027E+02 -0.83937716985E+02  0.18729388853E+04  0.20788585668E+04  0.89776487174E+03 0.  0.
         23    2    4    4    0    0 -0.17144826286E+03  0.32034453440E+03  0.45904717303E+03  0.59225307669E+03  0.89578302231E+02 0.  0.
         23    2    4    4    0    0  0.19838461889E+03 -0.40428225138E+03  0.14138917123E+04  0.14866054901E+04  0.90030624118E+02 0.  0.
          1    1    3    3  502    0  0.24368202738E+02  0.18051430837E+02 -0.21781922986E+02  0.37337857852E+02  0.00000000000E+00 0. -1.
         -2    1    3    3    0  502 -0.51304558766E+02  0.65886286148E+02 -0.87598672859E+02  0.12102350160E+03  0.00000000000E+00 0.  1.
         11    1    5    5    0    0 -0.16891757756E+03  0.23940485312E+03  0.36823826331E+03  0.47058182102E+03  0.00000000000E+00 0. -1.
        -11    1    5    5    0    0 -0.25306852990E+01  0.80939681276E+02  0.90808909716E+02  0.12167125567E+03  0.00000000000E+00 0.  1.
          3    1    6    6  503    0  0.18920627979E+03 -0.38823079172E+03  0.12676780457E+04  0.13392273113E+04  0.00000000000E+00 0. -1.
         -3    1    6    6    0  503  0.91783391015E+01 -0.16051459664E+02  0.14621366662E+03  0.14737817875E+03  0.00000000000E+00 0.  1.
<mgrwt>
<rscale>  0 0.13765955E+04</rscale>
<asrwt>0</asrwt>
<pdfrwt beam="1">  1        1 0.30775216E+00 0.13765955E+04</pdfrwt>
<pdfrwt beam="2">  1       -2 0.36435512E-01 0.13765955E+04</pdfrwt>
<totfact> 0.18128157E+01</totfact>
</mgrwt>
</event>
<event>
12    4  0.4381187E-008  0.1534488E+04  0.7818608E-02  0.8861837E-01
          1   -1    0    0  501    0  0.00000000000E+00  0.00000000000E+00  0.66310862007E+03  0.66310862007E+03  0.00000000000E+00 0. -1.
         -2   -1    0    0    0  501 -0.00000000000E+00 -0.00000000000E+00 -0.88773296477E+03  0.88773296477E+03  0.00000000000E+00 0.  1.
        -24    2    1    2    0    0  0.16713826385E+03  0.14885649322E+02 -0.55221633872E+03  0.58268128727E+03  0.80111272518E+02 0.  0.
        254    2    1    2    0    0 -0.16713826385E+03 -0.14885649322E+02  0.32759199402E+03  0.96816029758E+03  0.89546695386E+03 0.  0.
         23    2    4    4    0    0 -0.22571266660E+03  0.20972630105E+03 -0.20193622142E+03  0.38251226607E+03  0.10298576092E+03 0.  0.
         23    2    4    4    0    0  0.58574402757E+02 -0.22461195038E+03  0.52952821544E+03  0.58564803151E+03  0.93284494675E+02 0.  0.
          1    1    3    3  502    0  0.95015820356E+02  0.42257655034E+02 -0.24978441653E+03  0.27056601831E+03  0.00000000000E+00 0. -1.
         -2    1    3    3    0  502  0.72122443491E+02 -0.27372005712E+02 -0.30243192220E+03  0.31211526895E+03  0.00000000000E+00 0.  1.
         11    1    5    5    0    0 -0.79145153158E+02  0.17057569161E+02 -0.33610457730E+02  0.87661729409E+02  0.00000000000E+00 0. -1.
        -11    1    5    5    0    0 -0.14656751345E+03  0.19266873189E+03 -0.16832576369E+03  0.29485053666E+03  0.00000000000E+00 0.  1.
          2    1    6    6  503    0 -0.15597836314E+02 -0.21922356023E+02  0.11716964835E+03  0.12021900302E+03  0.00000000000E+00 0. -1.
         -2    1    6    6    0  503  0.74172239071E+02 -0.20268959435E+03  0.41235856709E+03  0.46542902849E+03  0.00000000000E+00 0.  1.
<mgrwt>
<rscale>  0 0.15344880E+04</rscale>
<asrwt>0</asrwt>
<pdfrwt beam="1">  1        1 0.10201671E+00 0.15344880E+04</pdfrwt>
<pdfrwt beam="2">  1       -2 0.13657430E+00 0.15344880E+04</pdfrwt>
<totfact> 0.95569439E+00</totfact>
</mgrwt>
</event>
<event>
12    4  0.4381187E-008  0.1271941E+04  0.7818608E-02  0.9052117E-01
          1   -1    0    0  501    0  0.00000000000E+00  0.00000000000E+00  0.10658092152E+04  0.10658092152E+04  0.00000000000E+00 0. -1.
         -2   -1    0    0    0  501 -0.00000000000E+00 -0.00000000000E+00 -0.37948512568E+03  0.37948512568E+03  0.00000000000E+00 0.  1.
        -24    2    1    2    0    0  0.23207046543E+02 -0.29474082358E+03  0.56098470487E+02  0.31167392226E+03  0.81134920567E+02 0.  0.
        254    2    1    2    0    0 -0.23207046543E+02  0.29474082358E+03  0.63022561900E+03  0.11336204186E+04  0.89470676901E+03 0.  0.
         23    2    4    4    0    0 -0.12157256290E+03  0.23227805885E+03 -0.16651983111E+03  0.32337819649E+03  0.90064527645E+02 0.  0.
         23    2    4    4    0    0  0.98365516354E+02  0.62462764730E+02  0.79674545010E+03  0.81024222210E+03  0.90065389736E+02 0.  0.
          1    1    3    3  502    0 -0.22092810468E+02 -0.29649816753E+02  0.11921075186E+00  0.36975912687E+02  0.00000000000E+00 0. -1.
         -2    1    3    3    0  502  0.45299857011E+02 -0.26509100682E+03  0.55979259735E+02  0.27469800957E+03  0.00000000000E+00 0.  1.
         11    1    5    5    0    0  0.13728071027E+02  0.15620939317E+02 -0.58070102239E+01  0.21591550362E+02  0.00000000000E+00 0.  1.
        -11    1    5    5    0    0 -0.13530063392E+03  0.21665711953E+03 -0.16071282088E+03  0.30178664612E+03  0.00000000000E+00 0. -1.
          4    1    6    6  503    0  0.10191181237E+03  0.44905590841E+02  0.77025636231E+03  0.77826563156E+03  0.00000000000E+00 0. -1.
         -4    1    6    6    0  503 -0.35462960185E+01  0.17557173889E+02  0.26489087795E+02  0.31976590541E+02  0.00000000000E+00 0.  1.
<mgrwt>
<rscale>  0 0.12719414E+04</rscale>
<asrwt>0</asrwt>
<pdfrwt beam="1">  1        1 0.16397065E+00 0.12719414E+04</pdfrwt>
<pdfrwt beam="2">  1       -2 0.58382328E-01 0.12719414E+04</pdfrwt>
<totfact> 0.31879757E+01</totfact>
</mgrwt>
</event>
<event>
12    4  0.4381187E-008  0.2200104E+04  0.7818608E-02  0.8518385E-01
         -4   -1    0    0    0  501 -0.00000000000E+00  0.00000000000E+00  0.23338359289E+04  0.23338359289E+04  0.00000000000E+00 0.  1.
          3   -1    0    0  501    0  0.00000000000E+00 -0.00000000000E+00 -0.51850867725E+03  0.51850867725E+03  0.00000000000E+00 0. -1.
        -24    2    1    2    0    0  0.81057059352E+03  0.32278895896E+03  0.11062278755E+04  0.14111272829E+04  0.79515387361E+02 0.  0.
        254    2    1    2    0    0 -0.81057059352E+03 -0.32278895896E+03  0.70909937610E+03  0.14412173232E+04  0.90170286042E+03 0.  0.
         23    2    4    4    0    0 -0.61383305985E+03 -0.26325037976E+03  0.91427990304E+03  0.11360834032E+04  0.93198552198E+02 0.  0.
         23    2    4    4    0    0 -0.19673753366E+03 -0.59538579196E+02 -0.20518052694E+03  0.30513392002E+03  0.93579703688E+02 0.  0.
          1    1    3    3  502    0  0.80750727636E+03  0.32632169186E+03  0.11031782971E+04  0.14055448066E+04  0.00000000000E+00 0. -1.
         -2    1    3    3    0  502  0.30633171594E+01 -0.35327328962E+01  0.30495783862E+01  0.55824763384E+01  0.00000000000E+00 0.  1.
         11    1    5    5    0    0 -0.90882592593E+02 -0.71871686615E+02  0.18883829043E+03  0.22155154006E+03  0.00000000000E+00 0. -1.
        -11    1    5    5    0    0 -0.52295046726E+03 -0.19137869315E+03  0.72544161262E+03  0.91453186315E+03  0.00000000000E+00 0.  1.
          2    1    6    6  503    0 -0.11543097548E+03  0.59914326303E+00 -0.65608338278E+02  0.13277470815E+03  0.00000000000E+00 0. -1.
         -2    1    6    6    0  503 -0.81306558188E+02 -0.60137722459E+02 -0.13957218867E+03  0.17235921187E+03  0.00000000000E+00 0.  1.
<mgrwt>
<rscale>  0 0.22001038E+04</rscale>
<asrwt>0</asrwt>
<pdfrwt beam="1">  1        3 0.79770567E-01 0.22001038E+04</pdfrwt>
<pdfrwt beam="2">  1       -4 0.35905167E+00 0.22001038E+04</pdfrwt>
<totfact> 0.39518794E-02</totfact>
</mgrwt>
</event>
<event>
12    4  0.4381187E-008  0.1265270E+04  0.7818608E-02  0.9057569E-01
          1   -1    0    0  501    0  0.00000000000E+00  0.00000000000E+00  0.44258554844E+03  0.44258554844E+03  0.00000000000E+00 0. -1.
         -2   -1    0    0    0  501 -0.00000000000E+00 -0.00000000000E+00 -0.90429326171E+03  0.90429326171E+03  0.00000000000E+00 0.  1.
        -24    2    1    2    0    0 -0.30705725333E+03 -0.89519775362E+00 -0.59693355650E+02  0.32271103426E+03  0.79335721637E+02 0.  0.
        254    2    1    2    0    0  0.30705725333E+03  0.89519775362E+00 -0.40201435762E+03  0.10241677759E+04  0.89051621615E+03 0.  0.
         23    2    4    4    0    0  0.45308736391E+03 -0.32807037339E+03 -0.19336046547E+03  0.59849225831E+03  0.88805317481E+02 0.  0.
         23    2    4    4    0    0 -0.14603011059E+03  0.32896557114E+03 -0.20865389215E+03  0.42567551757E+03  0.90111371948E+02 0.  0.
          1    1    3    3  502    0 -0.62136504119E+02  0.83235520904E+01  0.18638891902E+02  0.65403631052E+02  0.00000000000E+00 0. -1.
         -2    1    3    3    0  502 -0.24492074921E+03 -0.92187498440E+01 -0.78332247551E+02  0.25730740321E+03  0.00000000000E+00 0.  1.
         11    1    5    5    0    0  0.25178851695E+03 -0.17277713102E+03 -0.59294375801E+02  0.31107108074E+03  0.00000000000E+00 0.  1.
        -11    1    5    5    0    0  0.20129884696E+03 -0.15529324237E+03 -0.13406608967E+03  0.28742117757E+03  0.00000000000E+00 0. -1.
          1    1    6    6  503    0 -0.50999178630E+02  0.43640715606E+02 -0.17622265226E+02  0.69397208238E+02  0.00000000000E+00 0. -1.
         -1    1    6    6    0  503 -0.95030931959E+02  0.28532485554E+03 -0.19103162693E+03  0.35627830933E+03  0.00000000000E+00 0.  1.
<mgrwt>
<rscale>  0 0.12652701E+04</rscale>
<asrwt>0</asrwt>
<pdfrwt beam="1">  1        1 0.68090085E-01 0.12652701E+04</pdfrwt>
<pdfrwt beam="2">  1       -2 0.13912204E+00 0.12652701E+04</pdfrwt>
<totfact> 0.16448855E+01</totfact>
</mgrwt>
</event>
<event>
12    4  0.4381187E-008  0.1227979E+04  0.7818608E-02  0.9088713E-01
          1   -1    0    0  501    0  0.00000000000E+00  0.00000000000E+00  0.86804545449E+03  0.86804545449E+03  0.00000000000E+00 0. -1.
         -2   -1    0    0    0  501 -0.00000000000E+00 -0.00000000000E+00 -0.43428971035E+03  0.43428971035E+03  0.00000000000E+00 0.  1.
        -24    2    1    2    0    0 -0.17585103246E+03 -0.88113145168E+02  0.30442900349E+03  0.37124332832E+03  0.80355949913E+02 0.  0.
        254    2    1    2    0    0  0.17585103246E+03  0.88113145168E+02  0.12932674065E+03  0.93109183651E+03  0.90084354369E+03 0.  0.
         23    2    4    4    0    0  0.24137645100E+03  0.27002751080E+03 -0.28161857431E+03  0.46778932726E+03  0.91325711713E+02 0.  0.
         23    2    4    4    0    0 -0.65525418532E+02 -0.18191436564E+03  0.41094531496E+03  0.46330250925E+03  0.91579180453E+02 0.  0.
          3    1    3    3  502    0 -0.17764773181E+03 -0.64831169903E+02  0.26964695753E+03  0.32934978201E+03  0.00000000000E+00 0. -1.
         -4    1    3    3    0  502  0.17966993476E+01 -0.23281975265E+02  0.34782045959E+02  0.41893546304E+02  0.00000000000E+00 0.  1.
         11    1    5    5    0    0  0.11309985517E+03  0.67559754062E+02 -0.76659253470E+02  0.15242223837E+03  0.00000000000E+00 0. -1.
        -11    1    5    5    0    0  0.12827659583E+03  0.20246775674E+03 -0.20495932084E+03  0.31536708889E+03  0.00000000000E+00 0.  1.
          4    1    6    6  503    0  0.82308284318E+01 -0.62418593143E+02  0.20175746309E+03  0.21135255196E+03  0.00000000000E+00 0.  1.
         -4    1    6    6    0  503 -0.73756246964E+02 -0.11949577249E+03  0.20918785187E+03  0.25194995729E+03  0.00000000000E+00 0. -1.
<mgrwt>
<rscale>  0 0.12279792E+04</rscale>
<asrwt>0</asrwt>
<pdfrwt beam="1">  1        1 0.13354545E+00 0.12279792E+04</pdfrwt>
<pdfrwt beam="2">  1       -2 0.66813802E-01 0.12279792E+04</pdfrwt>
<totfact> 0.34445568E+01</totfact>
</mgrwt>
</event>
<event>
12    4  0.4381187E-008  0.1592480E+04  0.7818608E-02  0.8825181E-01
          1   -1    0    0  501    0  0.00000000000E+00  0.00000000000E+00  0.11231531230E+04  0.11231531230E+04  0.00000000000E+00 0. -1.
         -2   -1    0    0    0  501 -0.00000000000E+00 -0.00000000000E+00 -0.56448033252E+03  0.56448033252E+03  0.00000000000E+00 0.  1.
        -24    2    1    2    0    0 -0.52347284461E+03 -0.12950352215E+03  0.15410405228E+03  0.56654034639E+03  0.80155622809E+02 0.  0.
        254    2    1    2    0    0  0.52347284461E+03  0.12950352215E+03  0.40456873825E+03  0.11210931092E+04  0.89575605729E+03 0.  0.
         23    2    4    4    0    0  0.18191287599E+03 -0.11950814293E+03 -0.24585141611E+03  0.34001930790E+03  0.88293376086E+02 0.  0.
         23    2    4    4    0    0  0.34155996862E+03  0.24901166508E+03  0.65042015436E+03  0.78107380128E+03  0.91432403060E+02 0.  0.
          1    1    3    3  502    0 -0.30996173397E+03 -0.91064496942E+02  0.13009386111E+03  0.34827206582E+03  0.00000000000E+00 0. -1.
         -2    1    3    3    0  502 -0.21351111064E+03 -0.38439025206E+02  0.24010191167E+02  0.21826828057E+03  0.00000000000E+00 0.  1.
         11    1    5    5    0    0  0.65017627585E+02 -0.87745015882E+00 -0.44883678866E+02  0.79010166714E+02  0.00000000000E+00 0. -1.
        -11    1    5    5    0    0  0.11689524840E+03 -0.11863069278E+03 -0.20096773724E+03  0.26100914118E+03  0.00000000000E+00 0.  1.
          4    1    6    6  503    0  0.11247261642E+02  0.98066233705E+01  0.70785269209E+02  0.72341033261E+02  0.00000000000E+00 0. -1.
         -4    1    6    6    0  503  0.33031270698E+03  0.23920504171E+03  0.57963488515E+03  0.70873276801E+03  0.00000000000E+00 0.  1.
<mgrwt>
<rscale>  0 0.15924796E+04</rscale>
<asrwt>0</asrwt>
<pdfrwt beam="1">  1        1 0.17279279E+00 0.15924796E+04</pdfrwt>
<pdfrwt beam="2">  1       -2 0.86843128E-01 0.15924796E+04</pdfrwt>
<totfact> 0.11766534E+01</totfact>
</mgrwt>
</event>
<event>
12    4  0.4381187E-008  0.1972895E+04  0.7818608E-02  0.8619399E-01
         -4   -1    0    0    0  501 -0.00000000000E+00  0.00000000000E+00  0.40598793657E+03  0.40598793657E+03  0.00000000000E+00 0.  1.
          1   -1    0    0  501    0  0.00000000000E+00 -0.00000000000E+00 -0.23968160749E+04  0.23968160749E+04  0.00000000000E+00 0. -1.
        -24    2    1    2    0    0 -0.40821853961E+03  0.13837179220E+03  0.13080874246E+03  0.45742696005E+03  0.79620146437E+02 0.  0.
        254    2    1    2    0    0  0.40821853961E+03 -0.13837179220E+03 -0.21216368808E+04  0.23453770515E+04  0.90203177907E+03 0.  0.
         23    2    4    4    0    0  0.42397208743E+03 -0.26036887954E+03 -0.21334789133E+04  0.21925504314E+04  0.89447394138E+02 0.  0.
         23    2    4    4    0    0 -0.15753547820E+02  0.12199708735E+03  0.11842032486E+02  0.15282662006E+03  0.89912615775E+02 0.  0.
          1    1    3    3  502    0 -0.92526945279E+02  0.19404054993E+02 -0.27697955417E+01  0.94580255446E+02  0.00000000000E+00 0. -1.
         -2    1    3    3    0  502 -0.31569159433E+03  0.11896773720E+03  0.13357853800E+03  0.36284670461E+03  0.00000000000E+00 0.  1.
         11    1    5    5    0    0 -0.53581923575E+00 -0.56384477580E+01 -0.60910393774E+01  0.83174488919E+01  0.00000000000E+00 0.  1.
        -11    1    5    5    0    0  0.42450790667E+03 -0.25473043178E+03 -0.21273878739E+04  0.21842329825E+04  0.00000000000E+00 0. -1.
          1    1    6    6  503    0 -0.50881156922E+02  0.95465302223E+02  0.51619380990E+01  0.10830125421E+03  0.00000000000E+00 0. -1.
         -1    1    6    6    0  503  0.35127609103E+02  0.26531785123E+02  0.66800943865E+01  0.44525365850E+02  0.00000000000E+00 0.  1.
<mgrwt>
<rscale>  0 0.19728947E+04</rscale>
<asrwt>0</asrwt>
<pdfrwt beam="1">  1        1 0.36874095E+00 0.19728947E+04</pdfrwt>
<pdfrwt beam="2">  1       -4 0.62459681E-01 0.19728947E+04</pdfrwt>
<totfact> 0.17668801E+00</totfact>
</mgrwt>
</event>
<event>
12    4  0.4381187E-008  0.2673645E+04  0.7818608E-02  0.8343607E-01
          1   -1    0    0  501    0  0.00000000000E+00  0.00000000000E+00  0.19629896736E+04  0.19629896736E+04  0.00000000000E+00 0. -1.
         -2   -1    0    0    0  501 -0.00000000000E+00 -0.00000000000E+00 -0.91039431844E+03  0.91039431844E+03  0.00000000000E+00 0.  1.
        -24    2    1    2    0    0  0.28600223017E+02  0.10000443899E+04  0.11510960608E+04  0.15272442328E+04  0.80907667837E+02 0.  0.
        254    2    1    2    0    0 -0.28600223017E+02 -0.10000443899E+04 -0.98500705724E+02  0.13461397592E+04  0.89525588962E+03 0.  0.
         23    2    4    4    0    0  0.37712749144E+03 -0.77364447121E+03 -0.11142555688E+03  0.87221425182E+03  0.87127112437E+02 0.  0.
         23    2    4    4    0    0 -0.40572771445E+03 -0.22639991867E+03  0.12924851154E+02  0.47392550742E+03  0.92555028808E+02 0.  0.
          3    1    3    3  502    0  0.39566814767E+02  0.56430127947E+03  0.60026682272E+03  0.82481617667E+03  0.00000000000E+00 0. -1.
         -4    1    3    3    0  502 -0.10966591750E+02  0.43574311041E+03  0.55082923812E+03  0.70242805608E+03  0.00000000000E+00 0.  1.
         11    1    5    5    0    0  0.19900778662E+03 -0.34087133757E+03 -0.18923244476E+02  0.39516510106E+03  0.00000000000E+00 0.  1.
        -11    1    5    5    0    0  0.17811970482E+03 -0.43277313363E+03 -0.92502312401E+02  0.47704915076E+03  0.00000000000E+00 0. -1.
          4    1    6    6  503    0 -0.14072520448E+03 -0.81026246387E+02  0.48767882862E+02  0.16954982211E+03  0.00000000000E+00 0. -1.
         -4    1    6    6    0  503 -0.26500250997E+03 -0.14537367228E+03 -0.35843031708E+02  0.30437568531E+03  0.00000000000E+00 0.  1.
<mgrwt>
<rscale>  0 0.26736452E+04</rscale>
<asrwt>0</asrwt>
<pdfrwt beam="1">  1        1 0.30199841E+00 0.26736452E+04</pdfrwt>
<pdfrwt beam="2">  1       -2 0.14006066E+00 0.26736452E+04</pdfrwt>
<totfact> 0.87123849E-01</totfact>
</mgrwt>
</event>
<event>
12    4  0.4381187E-008  0.1681191E+04  0.7818608E-02  0.8772165E-01
          1   -1    0    0  501    0  0.00000000000E+00  0.00000000000E+00  0.85391182152E+03  0.85391182152E+03  0.00000000000E+00 0. -1.
         -2   -1    0    0    0  501 -0.00000000000E+00 -0.00000000000E+00 -0.82748637115E+03  0.82748637115E+03  0.00000000000E+00 0.  1.
        -24    2    1    2    0    0 -0.53076294746E+02 -0.27336056429E+03  0.53580314659E+03  0.60963004849E+03  0.83789575438E+02 0.  0.
        254    2    1    2    0    0  0.53076294746E+02  0.27336056429E+03 -0.50937769621E+03  0.10717681442E+04  0.90093186552E+03 0.  0.
         23    2    4    4    0    0 -0.33072837184E+03  0.53971279111E+02  0.52805819131E+02  0.35092688147E+03  0.89816850825E+02 0.  0.
         23    2    4    4    0    0  0.38380466659E+03  0.21938928518E+03 -0.56218351535E+03  0.72084126271E+03  0.90134014436E+02 0.  0.
          1    1    3    3  502    0 -0.56169695357E+02 -0.27027689587E+03  0.48048243048E+03  0.55413716814E+03  0.00000000000E+00 0. -1.
         -2    1    3    3    0  502  0.30934006116E+01 -0.30836684221E+01  0.55320716109E+02  0.55492880346E+02  0.00000000000E+00 0.  1.
         11    1    5    5    0    0 -0.23777279264E+03  0.23061723501E+02  0.75189862182E+02  0.25044212782E+03  0.00000000000E+00 0. -1.
        -11    1    5    5    0    0 -0.92955579201E+02  0.30909555611E+02 -0.22384043051E+02  0.10048475365E+03  0.00000000000E+00 0.  1.
          1    1    6    6  503    0  0.16661317916E+02  0.32290199301E+02 -0.70537494984E+02  0.79346043910E+02  0.00000000000E+00 0. -1.
         -1    1    6    6    0  503  0.36714334867E+03  0.18709908588E+03 -0.49164602036E+03  0.64149521880E+03  0.00000000000E+00 0.  1.
<mgrwt>
<rscale>  0 0.16811905E+04</rscale>
<asrwt>0</asrwt>
<pdfrwt beam="1">  1        1 0.13137105E+00 0.16811905E+04</pdfrwt>
<pdfrwt beam="2">  1       -2 0.12730560E+00 0.16811905E+04</pdfrwt>
<totfact> 0.75995161E+00</totfact>
</mgrwt>
</event>
<event>
12    4  0.4381187E-008  0.1362673E+04  0.7818608E-02  0.8981290E-01
         -4   -1    0    0    0  501 -0.00000000000E+00  0.00000000000E+00  0.34127396121E+03  0.34127396121E+03  0.00000000000E+00 0.  1.
          1   -1    0    0  501    0  0.00000000000E+00 -0.00000000000E+00 -0.13602551218E+04  0.13602551218E+04  0.00000000000E+00 0. -1.
        -24    2    1    2    0    0  0.34910090231E+03  0.11912697861E+03 -0.42616678706E+03  0.56861525879E+03  0.75116610052E+02 0.  0.
        254    2    1    2    0    0 -0.34910090231E+03 -0.11912697861E+03 -0.59281437354E+03  0.11329138242E+04  0.89218953963E+03 0.  0.
         23    2    4    4    0    0  0.20381150099E+03 -0.29367619623E+03 -0.14977499001E+03  0.39763439262E+03  0.88857900010E+02 0.  0.
         23    2    4    4    0    0 -0.55291240330E+03  0.17454921762E+03 -0.44303938353E+03  0.73527943162E+03  0.90401283727E+02 0.  0.
          3    1    3    3  502    0  0.14226390285E+03  0.41735473409E+02 -0.11799035991E+03  0.18947979530E+03  0.00000000000E+00 0. -1.
         -4    1    3    3    0  502  0.20683699946E+03  0.77391505199E+02 -0.30817642715E+03  0.37913546349E+03  0.00000000000E+00 0.  1.
         11    1    5    5    0    0  0.18594304958E+03 -0.23727158428E+03 -0.15363088102E+03  0.33834164685E+03  0.00000000000E+00 0.  1.
        -11    1    5    5    0    0  0.17868451415E+02 -0.56404611946E+02  0.38558910107E+01  0.59292745764E+02  0.00000000000E+00 0. -1.
          1    1    6    6  503    0 -0.16111912405E+03  0.73599335631E+02 -0.18094965330E+03  0.25321732044E+03  0.00000000000E+00 0. -1.
         -1    1    6    6    0  503 -0.39179327925E+03  0.10094988199E+03 -0.26208973023E+03  0.48206211117E+03  0.00000000000E+00 0.  1.
<mgrwt>
<rscale>  0 0.13626733E+04</rscale>
<asrwt>0</asrwt>
<pdfrwt beam="1">  1        1 0.20927002E+00 0.13626733E+04</pdfrwt>
<pdfrwt beam="2">  1       -4 0.52503687E-01 0.13626733E+04</pdfrwt>
<totfact> 0.13692594E+01</totfact>
</mgrwt>
</event>
<event>
12    4  0.4381187E-008  0.1722260E+04  0.7818608E-02  0.8748770E-01
          3   -1    0    0  501    0  0.00000000000E+00  0.00000000000E+00  0.80248467594E+03  0.80248467594E+03  0.00000000000E+00 0. -1.
         -4   -1    0    0    0  501 -0.00000000000E+00 -0.00000000000E+00 -0.92406089203E+03  0.92406089203E+03  0.00000000000E+00 0.  1.
        -24    2    1    2    0    0  0.15231266885E+03  0.21357302281E+03  0.52488636585E+03  0.59202954053E+03  0.78617394014E+02 0.  0.
        254    2    1    2    0    0 -0.15231266885E+03 -0.21357302281E+03 -0.64646258194E+03  0.11345160274E+04  0.89465086011E+03 0.  0.
         23    2    4    4    0    0 -0.42097512250E+03 -0.39171708859E+03 -0.50701092231E+03  0.77260400671E+03  0.95888187927E+02 0.  0.
         23    2    4    4    0    0  0.26866245365E+03  0.17814406577E+03 -0.13945165963E+03  0.36191202073E+03  0.87285297748E+02 0.  0.
          3    1    3    3  502    0  0.31242031640E+02  0.86029178604E+02  0.12269518941E+03  0.15307251098E+03  0.00000000000E+00 0. -1.
         -4    1    3    3    0  502  0.12107063721E+03  0.12754384421E+03  0.40219117644E+03  0.43895702955E+03  0.00000000000E+00 0.  1.
         11    1    5    5    0    0 -0.30310851301E+03 -0.32233032894E+03 -0.34839220334E+03  0.56315960345E+03  0.00000000000E+00 0.  1.
        -11    1    5    5    0    0 -0.11786660949E+03 -0.69386759650E+02 -0.15861871897E+03  0.20944440326E+03  0.00000000000E+00 0. -1.
          4    1    6    6  503    0  0.26249445103E+02 -0.84722756117E+01 -0.64513896436E+01  0.28327252790E+02  0.00000000000E+00 0. -1.
         -4    1    6    6    0  503  0.24241300855E+03  0.18661634139E+03 -0.13300026999E+03  0.33358476794E+03  0.00000000000E+00 0.  1.
<mgrwt>
<rscale>  0 0.17222598E+04</rscale>
<asrwt>0</asrwt>
<pdfrwt beam="1">  1        3 0.12345918E+00 0.17222598E+04</pdfrwt>
<pdfrwt beam="2">  1       -4 0.14216321E+00 0.17222598E+04</pdfrwt>
<totfact> 0.39439617E-01</totfact>
</mgrwt>
</event>
<event>
12    4  0.4381187E-008  0.1544334E+04  0.7818608E-02  0.8855495E-01
          1   -1    0    0  501    0  0.00000000000E+00  0.00000000000E+00  0.17224609224E+04  0.17224609224E+04  0.00000000000E+00 0. -1.
         -2   -1    0    0    0  501 -0.00000000000E+00 -0.00000000000E+00 -0.34615718318E+03  0.34615718318E+03  0.00000000000E+00 0.  1.
        -24    2    1    2    0    0  0.10844931392E+03 -0.34815102450E+03  0.92834239065E+03  0.10007232258E+04  0.81590384574E+02 0.  0.
        254    2    1    2    0    0 -0.10844931392E+03  0.34815102450E+03  0.44796134853E+03  0.10678948797E+04  0.89819803764E+03 0.  0.
         23    2    4    4    0    0  0.23466343254E+03  0.95029677603E+02  0.55727601799E+03  0.61833353377E+03  0.87648346029E+02 0.  0.
         23    2    4    4    0    0 -0.34311274647E+03  0.25312134689E+03 -0.10931466945E+03  0.44956134596E+03  0.91427204818E+02 0.  0.
          1    1    3    3  502    0  0.10991987660E+03 -0.22424406663E+03  0.62486785945E+03  0.67292467815E+03  0.00000000000E+00 0. -1.
         -2    1    3    3    0  502 -0.14705626770E+01 -0.12390695786E+03  0.30347453120E+03  0.32779854766E+03  0.00000000000E+00 0.  1.
         11    1    5    5    0    0  0.62121136180E+02 -0.86128561836E+01  0.18176819281E+03  0.19228336582E+03  0.00000000000E+00 0.  1.
        -11    1    5    5    0    0  0.17254229636E+03  0.10364253379E+03  0.37550782517E+03  0.42605016795E+03  0.00000000000E+00 0. -1.
          1    1    6    6  503    0 -0.21359243889E+03  0.10197193677E+03 -0.50645428527E+02  0.24204331280E+03  0.00000000000E+00 0. -1.
         -1    1    6    6    0  503 -0.12952030757E+03  0.15114941012E+03 -0.58669240926E+02  0.20751803316E+03  0.00000000000E+00 0.  1.
<mgrwt>
<rscale>  0 0.15443344E+04</rscale>
<asrwt>0</asrwt>
<pdfrwt beam="1">  1        1 0.26499398E+00 0.15443344E+04</pdfrwt>
<pdfrwt beam="2">  1       -2 0.53254952E-01 0.15443344E+04</pdfrwt>
<totfact> 0.12939375E+01</totfact>
</mgrwt>
</event>
<event>
12    4  0.4381187E-008  0.2610564E+04  0.7818608E-02  0.8364622E-01
          1   -1    0    0  501    0  0.00000000000E+00  0.00000000000E+00  0.10920234245E+04  0.10920234245E+04  0.00000000000E+00 0. -1.
         -2   -1    0    0    0  501 -0.00000000000E+00 -0.00000000000E+00 -0.15601873781E+04  0.15601873781E+04  0.00000000000E+00 0.  1.
        -24    2    1    2    0    0  0.76974002824E+03  0.41931436180E+03  0.55064249612E+03  0.10381591360E+04  0.79012581275E+02 0.  0.
        254    2    1    2    0    0 -0.76974002824E+03 -0.41931436180E+03 -0.10188064497E+04  0.16140516666E+04  0.89379637247E+03 0.  0.
         23    2    4    4    0    0  0.49596228605E+02 -0.81816398600E+02 -0.62719551573E+03  0.64107522871E+03  0.91921297519E+02 0.  0.
         23    2    4    4    0    0 -0.81933625685E+03 -0.33749796320E+03 -0.39161093396E+03  0.97297643790E+03  0.90040258541E+02 0.  0.
          1    1    3    3  502    0  0.70249199895E+03  0.37582859290E+03  0.47257297518E+03  0.92631925204E+03  0.00000000000E+00 0. -1.
         -4    1    3    3    0  502  0.67248029294E+02  0.43485768896E+02  0.78069520936E+02  0.11183988394E+03  0.00000000000E+00 0.  1.
         11    1    5    5    0    0 -0.20419499322E+02 -0.50358565235E+02 -0.21265931966E+03  0.21949243103E+03  0.00000000000E+00 0. -1.
        -11    1    5    5    0    0  0.70015727927E+02 -0.31457833365E+02 -0.41453619608E+03  0.42158279767E+03  0.00000000000E+00 0.  1.
          1    1    6    6  503    0 -0.88522851035E+02 -0.10424610144E+02 -0.26481688781E+02  0.92985200396E+02  0.00000000000E+00 0. -1.
         -1    1    6    6    0  503 -0.73081340581E+03 -0.32707335305E+03 -0.36512924518E+03  0.87999123750E+03  0.00000000000E+00 0.  1.
<mgrwt>
<rscale>  0 0.26105640E+04</rscale>
<asrwt>0</asrwt>
<pdfrwt beam="1">  1        1 0.16800360E+00 0.26105640E+04</pdfrwt>
<pdfrwt beam="2">  1       -2 0.24002883E+00 0.26105640E+04</pdfrwt>
<totfact> 0.73482317E-01</totfact>
</mgrwt>
</event>
<event>
12    4  0.4381187E-008  0.1539619E+04  0.7818608E-02  0.8858526E-01
         -2   -1    0    0    0  501 -0.00000000000E+00  0.00000000000E+00  0.11430313043E+04  0.11430313043E+04  0.00000000000E+00 0.  1.
          1   -1    0    0  501    0  0.00000000000E+00 -0.00000000000E+00 -0.51845158332E+03  0.51845158332E+03  0.00000000000E+00 0. -1.
        -24    2    1    2    0    0  0.26547824148E+03 -0.36649752717E+03 -0.53650971897E+02  0.46266442164E+03  0.79879948298E+02 0.  0.
        254    2    1    2    0    0 -0.26547824148E+03  0.36649752717E+03  0.67823069290E+03  0.11988184660E+04  0.87884566764E+03 0.  0.
         23    2    4    4    0    0 -0.11214309935E+03  0.41427306490E+03  0.84141773038E+03  0.94900239711E+03  0.91779658352E+02 0.  0.
         23    2    4    4    0    0 -0.15333514213E+03 -0.47775537730E+02 -0.16318703748E+03  0.24981606890E+03  0.99919423848E+02 0.  0.
          3    1    3    3  502    0  0.15814377361E+03 -0.15866214666E+03 -0.45606003272E+02  0.22861110526E+03  0.00000000000E+00 0. -1.
         -4    1    3    3    0  502  0.10733446787E+03 -0.20783538052E+03 -0.80449686244E+01  0.23405331638E+03  0.00000000000E+00 0.  1.
         11    1    5    5    0    0 -0.25694669691E+02  0.16213933287E+03  0.23571959360E+03  0.28725094625E+03  0.00000000000E+00 0. -1.
        -11    1    5    5    0    0 -0.86448429657E+02  0.25213373204E+03  0.60569813678E+03  0.66175145086E+03  0.00000000000E+00 0.  1.
          4    1    6    6  503    0 -0.66080033093E+02  0.26956917232E+02 -0.84312174880E+02  0.11046170827E+03  0.00000000000E+00 0.  1.
         -4    1    6    6    0  503 -0.87255109037E+02 -0.74732454962E+02 -0.78874862602E+02  0.13935436064E+03  0.00000000000E+00 0. -1.
<mgrwt>
<rscale>  0 0.15396186E+04</rscale>
<asrwt>0</asrwt>
<pdfrwt beam="1">  1        1 0.79761782E-01 0.15396186E+04</pdfrwt>
<pdfrwt beam="2">  1       -2 0.17585097E+00 0.15396186E+04</pdfrwt>
<totfact> 0.68826263E+00</totfact>
</mgrwt>
</event>
<event>
12    4  0.4381187E-008  0.1589989E+04  0.7818608E-02  0.8826722E-01
         -2   -1    0    0    0  501 -0.00000000000E+00  0.00000000000E+00  0.75337970171E+03  0.75337970171E+03  0.00000000000E+00 0.  1.
          1   -1    0    0  501    0  0.00000000000E+00 -0.00000000000E+00 -0.83890764592E+03  0.83890764592E+03  0.00000000000E+00 0. -1.
        -24    2    1    2    0    0  0.27490207648E+03 -0.52001982229E+02 -0.48956666458E+03  0.56923002264E+03  0.77922665515E+02 0.  0.
        254    2    1    2    0    0 -0.27490207648E+03  0.52001982229E+02  0.40403872037E+03  0.10230573250E+04  0.89728682417E+03 0.  0.
         23    2    4    4    0    0 -0.56331754711E+03  0.19757698872E+02  0.75852763600E+02  0.57589619877E+03  0.90475214611E+02 0.  0.
         23    2    4    4    0    0  0.28841547063E+03  0.32244283357E+02  0.32818595677E+03  0.44716112622E+03  0.89576074210E+02 0.  0.
          1    1    3    3  502    0  0.21982859870E+03 -0.33627676439E+02 -0.43952362994E+03  0.49258141936E+03  0.00000000000E+00 0. -1.
         -2    1    3    3    0  502  0.55073477787E+02 -0.18374305790E+02 -0.50043034642E+02  0.76648603281E+02  0.00000000000E+00 0.  1.
         11    1    5    5    0    0 -0.54215680678E+03  0.19108612068E+01  0.64525492792E+02  0.54598644099E+03  0.00000000000E+00 0. -1.
        -11    1    5    5    0    0 -0.21160740330E+02  0.17846837665E+02  0.11327270808E+02  0.29909757771E+02  0.00000000000E+00 0.  1.
          3    1    6    6  503    0  0.29519619565E+03  0.32137314597E+02  0.32083014258E+03  0.43715624358E+03  0.00000000000E+00 0. -1.
         -3    1    6    6    0  503 -0.67807250205E+01  0.10696875947E+00  0.73558141897E+01  0.10004882634E+02  0.00000000000E+00 0.  1.
<mgrwt>
<rscale>  0 0.15899887E+04</rscale>
<asrwt>0</asrwt>
<pdfrwt beam="1">  1        1 0.12906271E+00 0.15899887E+04</pdfrwt>
<pdfrwt beam="2">  1       -2 0.11590457E+00 0.15899887E+04</pdfrwt>
<totfact> 0.99600029E+00</totfact>
</mgrwt>
</event>
<event>
12    4  0.4381187E-008  0.1785797E+04  0.7818608E-02  0.8713889E-01
         -2   -1    0    0    0  501 -0.00000000000E+00  0.00000000000E+00  0.38156321403E+03  0.38156321403E+03  0.00000000000E+00 0.  1.
          1   -1    0    0  501    0  0.00000000000E+00 -0.00000000000E+00 -0.20894765252E+04  0.20894765252E+04  0.00000000000E+00 0. -1.
        -24    2    1    2    0    0 -0.10966360172E+03 -0.63440396285E+03 -0.86287437178E+03  0.10794185392E+04  0.78087820273E+02 0.  0.
        254    2    1    2    0    0  0.10966360172E+03  0.63440396285E+03 -0.84503893936E+03  0.13916212000E+04  0.89890169742E+03 0.  0.
         23    2    4    4    0    0  0.10928186943E+03  0.82547779177E+03 -0.47132934451E+03  0.96130122497E+03  0.92696183490E+02 0.  0.
         23    2    4    4    0    0  0.38173229362E+00 -0.19107382892E+03 -0.37370959485E+03  0.43031997504E+03  0.94905562618E+02 0.  0.
          3    1    3    3  502    0 -0.58824511447E+02 -0.22057127034E+03 -0.25449232475E+03  0.34187476040E+03  0.00000000000E+00 0. -1.
         -4    1    3    3    0  502 -0.50839090272E+02 -0.41383269251E+03 -0.60838204703E+03  0.73754377879E+03  0.00000000000E+00 0.  1.
         11    1    5    5    0    0  0.10300301852E+03  0.42923243384E+03 -0.25614645060E+03  0.51035390490E+03  0.00000000000E+00 0.  1.
        -11    1    5    5    0    0  0.62788509071E+01  0.39624535792E+03 -0.21518289391E+03  0.45094732007E+03  0.00000000000E+00 0. -1.
          1    1    6    6  503    0  0.20050676674E+01  0.11029727453E+02 -0.18202187613E+02  0.21377437123E+02  0.00000000000E+00 0. -1.
         -1    1    6    6    0  503 -0.16233353738E+01 -0.20210355637E+03 -0.35550740724E+03  0.40894253791E+03  0.00000000000E+00 0.  1.
<mgrwt>
<rscale>  0 0.17857966E+04</rscale>
<asrwt>0</asrwt>
<pdfrwt beam="1">  1        1 0.32145792E+00 0.17857966E+04</pdfrwt>
<pdfrwt beam="2">  1       -2 0.58702034E-01 0.17857966E+04</pdfrwt>
<totfact> 0.58312382E+00</totfact>
</mgrwt>
</event>
<event>
12    4  0.4381187E-008  0.3678806E+04  0.7818608E-02  0.8072675E-01
          1   -1    0    0  501    0  0.00000000000E+00  0.00000000000E+00  0.27212796833E+04  0.27212796833E+04  0.00000000000E+00 0. -1.
         -2   -1    0    0    0  501 -0.00000000000E+00 -0.00000000000E+00 -0.12433131567E+04  0.12433131567E+04  0.00000000000E+00 0.  1.
        -24    2    1    2    0    0 -0.73293931492E+03 -0.15586084110E+04  0.52129869175E+03  0.18012851615E+04  0.80097995806E+02 0.  0.
        254    2    1    2    0    0  0.73293931492E+03  0.15586084110E+04  0.95666783488E+03  0.21633076784E+04  0.89343525054E+03 0.  0.
         23    2    4    4    0    0 -0.16458291138E+03  0.41427820972E+03  0.80132479077E+02  0.46272205799E+03  0.94744493155E+02 0.  0.
         23    2    4    4    0    0  0.89752222630E+03  0.11443302013E+04  0.87653535580E+03  0.17005856204E+04  0.92948728190E+02 0.  0.
          3    1    3    3  502    0 -0.15215177973E+03 -0.39540020162E+03  0.14483085130E+03  0.44773592552E+03  0.00000000000E+00 0. -1.
         -4    1    3    3    0  502 -0.58078753518E+03 -0.11632082094E+04  0.37646784044E+03  0.13535492360E+04  0.00000000000E+00 0.  1.
         11    1    5    5    0    0 -0.41476184090E+01 -0.12818188464E+01 -0.75603199851E+01  0.87180408521E+01  0.00000000000E+00 0.  1.
        -11    1    5    5    0    0 -0.16043529297E+03  0.41556002856E+03  0.87692799062E+02  0.45400401714E+03  0.00000000000E+00 0. -1.
          1    1    6    6  503    0  0.83516229121E+03  0.10977189795E+04  0.82464260151E+03  0.16070216025E+04  0.00000000000E+00 0. -1.
         -1    1    6    6    0  503  0.62359935093E+02  0.46611221762E+02  0.51892754293E+02  0.93564017908E+02  0.00000000000E+00 0.  1.
<mgrwt>
<rscale>  0 0.36788057E+04</rscale>
<asrwt>0</asrwt>
<pdfrwt beam="1">  1        1 0.41865841E+00 0.36788057E+04</pdfrwt>
<pdfrwt beam="2">  1       -2 0.19127895E+00 0.36788057E+04</pdfrwt>
<totfact> 0.10189472E-01</totfact>
</mgrwt>
</event>
<event>
12    4  0.4381187E-008  0.1253992E+04  0.7818608E-02  0.9066867E-01
         -2   -1    0    0    0  501 -0.00000000000E+00  0.00000000000E+00  0.97756176364E+02  0.97756176364E+02  0.00000000000E+00 0.  1.
          1   -1    0    0  501    0  0.00000000000E+00 -0.00000000000E+00 -0.40214752090E+04  0.40214752090E+04  0.00000000000E+00 0. -1.
        -24    2    1    2    0    0  0.18699425538E+03 -0.31806238381E+02 -0.17023414127E+04  0.17155492675E+04  0.95731475538E+02 0.  0.
        254    2    1    2    0    0 -0.18699425538E+03  0.31806238381E+02 -0.22213776199E+04  0.24036821179E+04  0.89843792504E+03 0.  0.
         23    2    4    4    0    0 -0.43262408064E+03 -0.82258590010E+02 -0.19763826165E+04  0.20268613560E+04  0.90269811448E+02 0.  0.
         23    2    4    4    0    0  0.24562982526E+03  0.11406482839E+03 -0.24499500346E+03  0.37682076190E+03  0.92879162088E+02 0.  0.
          3    1    3    3  502    0  0.17392945297E+03 -0.25997843420E+02 -0.16789430981E+04  0.16881283332E+04  0.00000000000E+00 0. -1.
         -4    1    3    3    0  502  0.13064802407E+02 -0.58083949613E+01 -0.23398314570E+02  0.27420934315E+02  0.00000000000E+00 0.  1.
         11    1    5    5    0    0 -0.22674613628E+03 -0.30748658793E+02 -0.82813572299E+03  0.85916707689E+03  0.00000000000E+00 0. -1.
        -11    1    5    5    0    0 -0.20587794436E+03 -0.51509931217E+02 -0.11482468935E+04  0.11676942791E+04  0.00000000000E+00 0.  1.
          4    1    6    6  503    0  0.23070854070E+03  0.11708094043E+03 -0.25099117117E+03  0.36045935328E+03  0.00000000000E+00 0. -1.
         -4    1    6    6    0  503  0.14921284563E+02 -0.30161120372E+01  0.59961677156E+01  0.16361408622E+02  0.00000000000E+00 0.  1.
<mgrwt>
<rscale>  0 0.12539921E+04</rscale>
<asrwt>0</asrwt>
<pdfrwt beam="1">  1        1 0.61868844E+00 0.12539921E+04</pdfrwt>
<pdfrwt beam="2">  1       -2 0.15039413E-01 0.12539921E+04</pdfrwt>
<totfact> 0.28686525E+00</totfact>
</mgrwt>
</event>
<event>
12    4  0.4381187E-008  0.2258604E+04  0.7818608E-02  0.8494424E-01
          1   -1    0    0  501    0  0.00000000000E+00  0.00000000000E+00  0.19511898750E+04  0.19511898750E+04  0.00000000000E+00 0. -1.
         -2   -1    0    0    0  501 -0.00000000000E+00 -0.00000000000E+00 -0.65361310495E+03  0.65361310495E+03  0.00000000000E+00 0.  1.
        -24    2    1    2    0    0  0.85936263719E+03 -0.27459975556E+03  0.90355223921E+03  0.12793847138E+04  0.80681031777E+02 0.  0.
        254    2    1    2    0    0 -0.85936263719E+03  0.27459975556E+03  0.39402453083E+03  0.13254182662E+04  0.88745088962E+03 0.  0.
         23    2    4    4    0    0 -0.13509562831E+03 -0.19797032444E+03 -0.15204790024E+03  0.29853656457E+03  0.92533444093E+02 0.  0.
         23    2    4    4    0    0 -0.72426700888E+03  0.47257007999E+03  0.54607243107E+03  0.10268817016E+04  0.91682868981E+02 0.  0.
          3    1    3    3  502    0  0.86013273701E+03 -0.27582766281E+03  0.90392845063E+03  0.12778872676E+04  0.00000000000E+00 0. -1.
         -4    1    3    3    0  502 -0.77009982205E+00  0.12279072564E+01 -0.37621142122E+00  0.14974461592E+01  0.00000000000E+00 0.  1.
         11    1    5    5    0    0 -0.10347576864E+03 -0.97113154606E+02 -0.12576990215E+03  0.18962138007E+03  0.00000000000E+00 0.  1.
        -11    1    5    5    0    0 -0.31619859671E+02 -0.10085716983E+03 -0.26277998082E+02  0.10891518450E+03  0.00000000000E+00 0. -1.
          3    1    6    6  503    0 -0.52907146995E+03  0.32882187685E+03  0.34602288369E+03  0.71258142205E+03  0.00000000000E+00 0. -1.
         -3    1    6    6    0  503 -0.19519553893E+03  0.14374820314E+03  0.20004954738E+03  0.31430027956E+03  0.00000000000E+00 0.  1.
<mgrwt>
<rscale>  0 0.22586042E+04</rscale>
<asrwt>0</asrwt>
<pdfrwt beam="1">  1        1 0.30018306E+00 0.22586042E+04</pdfrwt>
<pdfrwt beam="2">  1       -2 0.10055586E+00 0.22586042E+04</pdfrwt>
<totfact> 0.20891493E+00</totfact>
</mgrwt>
</event>
<event>
12    4  0.4381187E-008  0.2179821E+04  0.7818608E-02  0.8526874E-01
          1   -1    0    0  501    0  0.00000000000E+00  0.00000000000E+00  0.17068285872E+04  0.17068285872E+04  0.00000000000E+00 0. -1.
         -2   -1    0    0    0  501 -0.00000000000E+00 -0.00000000000E+00 -0.69597223500E+03  0.69597223500E+03  0.00000000000E+00 0.  1.
        -24    2    1    2    0    0  0.15085310713E+03 -0.23934923497E+03 -0.51875455895E+03  0.59587895977E+03  0.76946254334E+02 0.  0.
        254    2    1    2    0    0 -0.15085310713E+03  0.23934923497E+03  0.15296109112E+04  0.18069218625E+04  0.91935431754E+03 0.  0.
         23    2    4    4    0    0 -0.72382744381E+02 -0.10411529135E+03  0.14177007219E+04  0.14261958368E+04  0.89888665899E+02 0.  0.
         23    2    4    4    0    0 -0.78470362753E+02  0.34346452632E+03  0.11191018925E+03  0.38072602569E+03  0.91120456018E+02 0.  0.
          1    1    3    3  502    0  0.17202515209E+02  0.42379193791E+00 -0.18553125788E+02  0.25304636050E+02  0.00000000000E+00 0. -1.
         -2    1    3    3    0  502  0.13365059193E+03 -0.23977302691E+03 -0.50020143316E+03  0.57057432372E+03  0.00000000000E+00 0.  1.
         11    1    5    5    0    0 -0.74689472290E+01  0.15060943739E+02  0.26528171330E+03  0.26581385331E+03  0.00000000000E+00 0.  1.
        -11    1    5    5    0    0 -0.64913797152E+02 -0.11917623509E+03  0.11524190086E+04  0.11603819835E+04  0.00000000000E+00 0. -1.
          1    1    6    6  503    0 -0.64859100187E+02  0.98082006520E+02  0.46158307681E+02  0.12632249304E+03  0.00000000000E+00 0. -1.
         -1    1    6    6    0  503 -0.13611262567E+02  0.24538251980E+03  0.65751881570E+02  0.25440353265E+03  0.00000000000E+00 0.  1.
<mgrwt>
<rscale>  0 0.21798214E+04</rscale>
<asrwt>0</asrwt>
<pdfrwt beam="1">  1        1 0.26258901E+00 0.21798214E+04</pdfrwt>
<pdfrwt beam="2">  1       -2 0.10707265E+00 0.21798214E+04</pdfrwt>
<totfact> 0.26520316E+00</totfact>
</mgrwt>
</event>
<event>
12    4  0.4381187E-008  0.1564924E+04  0.7818608E-02  0.8842391E-01
         -2   -1    0    0    0  501 -0.00000000000E+00  0.00000000000E+00  0.29660309800E+03  0.29660309800E+03  0.00000000000E+00 0.  1.
          1   -1    0    0  501    0  0.00000000000E+00 -0.00000000000E+00 -0.20641942777E+04  0.20641942777E+04  0.00000000000E+00 0. -1.
        -24    2    1    2    0    0 -0.10270035714E+02 -0.25716182413E+03  0.89241510498E+02  0.28400561571E+03  0.80358354491E+02 0.  0.
        254    2    1    2    0    0  0.10270035714E+02  0.25716182413E+03 -0.18568326902E+04  0.20767917600E+04  0.89386727067E+03 0.  0.
         23    2    4    4    0    0  0.38791860209E+03 -0.65329000818E+02 -0.60712251147E+03  0.72879486150E+03  0.88292049585E+02 0.  0.
         23    2    4    4    0    0 -0.37764856637E+03  0.32249082495E+03 -0.12497101787E+04  0.13479968985E+04  0.93280950221E+02 0.  0.
          1    1    3    3  502    0 -0.26906887460E+02 -0.34445069114E+02  0.29776337497E+02  0.52887367620E+02  0.00000000000E+00 0. -1.
         -4    1    3    3    0  502  0.16636851746E+02 -0.22271675502E+03  0.59465173002E+02  0.23111824809E+03  0.00000000000E+00 0.  1.
         11    1    5    5    0    0  0.25845232151E+03 -0.20643063181E+01 -0.40875721902E+03  0.48361588886E+03  0.00000000000E+00 0. -1.
        -11    1    5    5    0    0  0.12946628058E+03 -0.63264694500E+02 -0.19836529246E+03  0.24517897264E+03  0.00000000000E+00 0.  1.
          3    1    6    6  503    0 -0.25118299599E+03  0.15568532021E+03 -0.70339804988E+03  0.76295454188E+03  0.00000000000E+00 0. -1.
         -3    1    6    6    0  503 -0.12646557038E+03  0.16680550474E+03 -0.54631212886E+03  0.58504235662E+03  0.00000000000E+00 0.  1.
<mgrwt>
<rscale>  0 0.15649235E+04</rscale>
<asrwt>0</asrwt>
<pdfrwt beam="1">  1        1 0.31756834E+00 0.15649235E+04</pdfrwt>
<pdfrwt beam="2">  1       -2 0.45631247E-01 0.15649235E+04</pdfrwt>
<totfact> 0.10377133E+01</totfact>
</mgrwt>
</event>
<event>
12    4  0.4381187E-008  0.1987962E+04  0.7818608E-02  0.8612269E-01
          1   -1    0    0  501    0  0.00000000000E+00  0.00000000000E+00  0.16729588831E+04  0.16729588831E+04  0.00000000000E+00 0. -1.
         -2   -1    0    0    0  501 -0.00000000000E+00 -0.00000000000E+00 -0.59056952530E+03  0.59056952530E+03  0.00000000000E+00 0.  1.
        -24    2    1    2    0    0 -0.65737576595E+03  0.44183292013E+03  0.54649805521E+03  0.96559436700E+03  0.79706525837E+02 0.  0.
        254    2    1    2    0    0  0.65737576595E+03 -0.44183292013E+03  0.53589130257E+03  0.12979340414E+04  0.87755003313E+03 0.  0.
         23    2    4    4    0    0  0.78849683514E+03 -0.12297878861E+03  0.48279159791E+03  0.93727934778E+03  0.92486795122E+02 0.  0.
         23    2    4    4    0    0 -0.13112106919E+03 -0.31885413153E+03  0.53099704654E+02  0.36065469361E+03  0.91605335052E+02 0.  0.
          3    1    3    3  502    0 -0.64225569015E+03  0.41958326376E+03  0.51414823709E+03  0.92352092368E+03  0.00000000000E+00 0. -1.
         -4    1    3    3    0  502 -0.15120075795E+02  0.22249656368E+02  0.32349818119E+02  0.42073443321E+02  0.00000000000E+00 0.  1.
         11    1    5    5    0    0  0.40669322520E+03 -0.10408402612E+03  0.27926582637E+03  0.50420458715E+03  0.00000000000E+00 0. -1.
        -11    1    5    5    0    0  0.38180360994E+03 -0.18894762488E+02  0.20352577154E+03  0.43307476063E+03  0.00000000000E+00 0.  1.
          1    1    6    6  503    0 -0.10310797312E+03 -0.30541697335E+03  0.33894679240E+02  0.32412903451E+03  0.00000000000E+00 0. -1.
         -1    1    6    6    0  503 -0.28013096076E+02 -0.13437158178E+02  0.19205025414E+02  0.36525659102E+02  0.00000000000E+00 0.  1.
<mgrwt>
<rscale>  0 0.19879623E+04</rscale>
<asrwt>0</asrwt>
<pdfrwt beam="1">  1        1 0.25737829E+00 0.19879623E+04</pdfrwt>
<pdfrwt beam="2">  1       -2 0.90856851E-01 0.19879623E+04</pdfrwt>
<totfact> 0.41917123E+00</totfact>
</mgrwt>
</event>
<event>
12    4  0.4381187E-008  0.2312271E+04  0.7818608E-02  0.8473099E-01
          1   -1    0    0  501    0  0.00000000000E+00  0.00000000000E+00  0.16976442637E+04  0.16976442637E+04  0.00000000000E+00 0. -1.
         -2   -1    0    0    0  501 -0.00000000000E+00 -0.00000000000E+00 -0.78735505961E+03  0.78735505961E+03  0.00000000000E+00 0.  1.
        -24    2    1    2    0    0  0.56422457198E+02  0.55531446784E+03  0.12844537624E+04  0.14027701866E+04  0.79906675099E+02 0.  0.
        254    2    1    2    0    0 -0.56422457198E+02 -0.55531446784E+03 -0.37416455834E+03  0.10822291367E+04  0.84832961505E+03 0.  0.
         23    2    4    4    0    0  0.31982828148E+03 -0.15589327267E+03 -0.37696422693E+03  0.52608131783E+03  0.89814711980E+02 0.  0.
         23    2    4    4    0    0 -0.37625073868E+03 -0.39942119517E+03  0.27996685856E+01  0.55614781888E+03  0.90502203286E+02 0.  0.
          3    1    3    3  502    0  0.55856384754E+02  0.55603508351E+03  0.12852944652E+04  0.14015266006E+04  0.00000000000E+00 0. -1.
         -4    1    3    3    0  502  0.56607244368E+00 -0.72061567989E+00 -0.84070279663E+00  0.12435860090E+01  0.00000000000E+00 0.  1.
         11    1    5    5    0    0  0.20887790101E+03 -0.58450152970E+02 -0.25326054585E+03  0.33344760008E+03  0.00000000000E+00 0. -1.
        -11    1    5    5    0    0  0.11095038047E+03 -0.97443119699E+02 -0.12370368108E+03  0.19263371775E+03  0.00000000000E+00 0.  1.
          3    1    6    6  503    0 -0.18138535248E+03 -0.18623380543E+03 -0.43654164858E+02  0.26360835056E+03  0.00000000000E+00 0. -1.
         -3    1    6    6    0  503 -0.19486538620E+03 -0.21318738974E+03  0.46453833443E+02  0.29253946832E+03  0.00000000000E+00 0.  1.
<mgrwt>
<rscale>  0 0.23122706E+04</rscale>
<asrwt>0</asrwt>
<pdfrwt beam="1">  1        1 0.26117604E+00 0.23122706E+04</pdfrwt>
<pdfrwt beam="2">  1       -2 0.12113155E+00 0.23122706E+04</pdfrwt>
<totfact> 0.19678181E+00</totfact>
</mgrwt>
</event>
<event>
12    4  0.4381187E-008  0.1671642E+04  0.7818608E-02  0.8777705E-01
          1   -1    0    0  501    0  0.00000000000E+00  0.00000000000E+00  0.50617140652E+03  0.50617140652E+03  0.00000000000E+00 0. -1.
         -2   -1    0    0    0  501 -0.00000000000E+00 -0.00000000000E+00 -0.13801584714E+04  0.13801584714E+04  0.00000000000E+00 0.  1.
        -24    2    1    2    0    0  0.42699002176E+03  0.31629961410E+03 -0.58077508114E+03  0.79162997870E+03  0.83740096403E+02 0.  0.
        254    2    1    2    0    0 -0.42699002176E+03 -0.31629961410E+03 -0.29321198376E+03  0.10946998992E+04  0.91105909655E+03 0.  0.
         23    2    4    4    0    0 -0.40651273757E+03  0.16456764329E+03  0.10871388408E+03  0.46107307106E+03  0.91839823865E+02 0.  0.
         23    2    4    4    0    0 -0.20477284194E+02 -0.48086725738E+03 -0.40192586784E+03  0.63362682817E+03  0.91027005601E+02 0.  0.
          3    1    3    3  502    0  0.11606204484E+02  0.29410399460E+02 -0.21626030932E+02  0.38306145626E+02  0.00000000000E+00 0. -1.
         -4    1    3    3    0  502  0.41538381728E+03  0.28688921464E+03 -0.55914905021E+03  0.75332383308E+03  0.00000000000E+00 0.  1.
         11    1    5    5    0    0 -0.81766724695E+02  0.63434734724E+02 -0.16054310832E+01  0.10350043597E+03  0.00000000000E+00 0. -1.
        -11    1    5    5    0    0 -0.32474601287E+03  0.10113290856E+03  0.11031931516E+03  0.35757263510E+03  0.00000000000E+00 0.  1.
          4    1    6    6  503    0 -0.14164798801E+02 -0.21106766136E+03 -0.23551381154E+03  0.31657061554E+03  0.00000000000E+00 0.  1.
         -4    1    6    6    0  503 -0.63124853925E+01 -0.26979959602E+03 -0.16641205630E+03  0.31705621263E+03  0.00000000000E+00 0. -1.
<mgrwt>
<rscale>  0 0.16716420E+04</rscale>
<asrwt>0</asrwt>
<pdfrwt beam="1">  1        1 0.77872525E-01 0.16716420E+04</pdfrwt>
<pdfrwt beam="2">  1       -2 0.21233207E+00 0.16716420E+04</pdfrwt>
<totfact> 0.40194980E+00</totfact>
</mgrwt>
</event>
<event>
12    4  0.4381187E-008  0.1894772E+04  0.7818608E-02  0.8657463E-01
         -2   -1    0    0    0  501 -0.00000000000E+00  0.00000000000E+00  0.89094334518E+03  0.89094334518E+03  0.00000000000E+00 0.  1.
          1   -1    0    0  501    0  0.00000000000E+00 -0.00000000000E+00 -0.10074042022E+04  0.10074042022E+04  0.00000000000E+00 0. -1.
        -24    2    1    2    0    0 -0.42272917744E+03  0.30764608351E+03  0.45797267157E+03  0.69960876795E+03  0.79795928066E+02 0.  0.
        254    2    1    2    0    0  0.42272917744E+03 -0.30764608351E+03 -0.57443352856E+03  0.11987387794E+04  0.91304693875E+03 0.  0.
         23    2    4    4    0    0  0.41540150807E+03  0.18716635018E+03 -0.42166512390E+02  0.46623120922E+03  0.89464351236E+02 0.  0.
         23    2    4    4    0    0  0.73276693704E+01 -0.49481243369E+03 -0.53226701617E+03  0.73250757018E+03  0.91466521715E+02 0.  0.
          3    1    3    3  502    0 -0.10765012725E+03  0.38437764436E+02  0.92269195509E+02  0.14690002066E+03  0.00000000000E+00 0. -1.
         -4    1    3    3    0  502 -0.31507905019E+03  0.26920831907E+03  0.36570347606E+03  0.55270874729E+03  0.00000000000E+00 0.  1.
         11    1    5    5    0    0  0.26929997740E+03  0.75878795324E+02 -0.11438055586E+02  0.28001946097E+03  0.00000000000E+00 0.  1.
        -11    1    5    5    0    0  0.14610153067E+03  0.11128755486E+03 -0.30728456804E+02  0.18621174825E+03  0.00000000000E+00 0. -1.
          1    1    6    6  503    0  0.30958889132E+02 -0.82241552930E+02 -0.69138851318E+02  0.11181371386E+03  0.00000000000E+00 0. -1.
         -1    1    6    6    0  503 -0.23631219761E+02 -0.41257088076E+03 -0.46312816485E+03  0.62069385633E+03  0.00000000000E+00 0.  1.
<mgrwt>
<rscale>  0 0.18947718E+04</rscale>
<asrwt>0</asrwt>
<pdfrwt beam="1">  1        1 0.15498526E+00 0.18947718E+04</pdfrwt>
<pdfrwt beam="2">  1       -2 0.13706821E+00 0.18947718E+04</pdfrwt>
<totfact> 0.46482944E+00</totfact>
</mgrwt>
</event>
<event>
12    4  0.4381187E-008  0.2792982E+04  0.7818608E-02  0.8305450E-01
          1   -1    0    0  501    0  0.00000000000E+00  0.00000000000E+00  0.10577807288E+04  0.10577807288E+04  0.00000000000E+00 0. -1.
         -2   -1    0    0    0  501 -0.00000000000E+00 -0.00000000000E+00 -0.18436590950E+04  0.18436590950E+04  0.00000000000E+00 0.  1.
        -24    2    1    2    0    0  0.11618984002E+04 -0.23814843334E+03 -0.76562115023E+03  0.14145045501E+04  0.89021391211E+02 0.  0.
        254    2    1    2    0    0 -0.11618984002E+04  0.23814843334E+03 -0.20257216001E+02  0.14869352736E+04  0.89657324553E+03 0.  0.
         23    2    4    4    0    0 -0.41526134374E+03 -0.44682123763E+02 -0.41140728338E+03  0.59326115908E+03  0.90908603924E+02 0.  0.
         23    2    4    4    0    0 -0.74663705642E+03  0.28283055711E+03  0.39115006738E+03  0.89367411456E+03  0.90526403656E+02 0.  0.
          1    1    3    3  502    0  0.14556188973E+02 -0.39733027867E+01 -0.24222569449E+02  0.28537740680E+02  0.00000000000E+00 0. -1.
         -2    1    3    3    0  502  0.11473422112E+04 -0.23417513055E+03 -0.74139858079E+03  0.13859668095E+04  0.00000000000E+00 0.  1.
         11    1    5    5    0    0 -0.20737990021E+02 -0.20669318160E+02 -0.12940450242E+02  0.32011563470E+02  0.00000000000E+00 0.  1.
        -11    1    5    5    0    0 -0.39452335372E+03 -0.24012805603E+02 -0.39846683314E+03  0.56124959561E+03  0.00000000000E+00 0. -1.
          4    1    6    6  503    0 -0.44993283076E+03  0.18243658847E+03  0.28481783140E+03  0.56288885056E+03  0.00000000000E+00 0. -1.
         -4    1    6    6    0  503 -0.29670422567E+03  0.10039396864E+03  0.10633223599E+03  0.33078526400E+03  0.00000000000E+00 0.  1.
<mgrwt>
<rscale>  0 0.27929820E+04</rscale>
<asrwt>0</asrwt>
<pdfrwt beam="1">  1        1 0.16273550E+00 0.27929820E+04</pdfrwt>
<pdfrwt beam="2">  1       -2 0.28363986E+00 0.27929820E+04</pdfrwt>
<totfact> 0.41513766E-01</totfact>
</mgrwt>
</event>
<event>
12    4  0.4381187E-008  0.1263362E+04  0.7818608E-02  0.9059135E-01
          1   -1    0    0  501    0  0.00000000000E+00  0.00000000000E+00  0.19323922769E+04  0.19323922769E+04  0.00000000000E+00 0. -1.
         -2   -1    0    0    0  501 -0.00000000000E+00 -0.00000000000E+00 -0.20649048430E+03  0.20649048430E+03  0.00000000000E+00 0.  1.
        -24    2    1    2    0    0 -0.12056248953E+03 -0.16003090122E+03  0.48109319415E+01  0.21481977247E+03  0.77325198685E+02 0.  0.
        254    2    1    2    0    0  0.12056248953E+03  0.16003090122E+03  0.17210908607E+04  0.19240629887E+04  0.83649233754E+03 0.  0.
         23    2    4    4    0    0 -0.16265642892E+02 -0.18611004275E+03  0.14236793903E+04  0.14388132538E+04  0.91755401870E+02 0.  0.
         23    2    4    4    0    0  0.13682813242E+03  0.34614094398E+03  0.29741147041E+03  0.48524973500E+03  0.92077313506E+02 0.  0.
          3    1    3    3  502    0 -0.87362164633E+01 -0.37462443946E+02 -0.25507797232E+02  0.46156298640E+02  0.00000000000E+00 0. -1.
         -4    1    3    3    0  502 -0.11182627306E+03 -0.12256845728E+03  0.30318729174E+02  0.16866347383E+03  0.00000000000E+00 0.  1.
         11    1    5    5    0    0  0.49383890781E+01 -0.16275397499E+03  0.13307696212E+04  0.13406942339E+04  0.00000000000E+00 0. -1.
        -11    1    5    5    0    0 -0.21204031970E+02 -0.23356067759E+02  0.92909769039E+02  0.98119019847E+02  0.00000000000E+00 0.  1.
          4    1    6    6  503    0  0.12410572746E+03  0.19191665118E+03  0.17118069455E+03  0.28554695372E+03  0.00000000000E+00 0. -1.
         -4    1    6    6    0  503  0.12722404953E+02  0.15422429279E+03  0.12623077586E+03  0.19970278128E+03  0.00000000000E+00 0.  1.
<mgrwt>
<rscale>  0 0.12633616E+04</rscale>
<asrwt>0</asrwt>
<pdfrwt beam="1">  1        1 0.29729111E+00 0.12633616E+04</pdfrwt>
<pdfrwt beam="2">  1       -2 0.31767768E-01 0.12633616E+04</pdfrwt>
<totfact> 0.26409895E+01</totfact>
</mgrwt>
</event>
<event>
12    4  0.4381187E-008  0.1565578E+04  0.7818608E-02  0.8841978E-01
         -2   -1    0    0    0  501 -0.00000000000E+00  0.00000000000E+00  0.16815017608E+03  0.16815017608E+03  0.00000000000E+00 0.  1.
          1   -1    0    0  501    0  0.00000000000E+00 -0.00000000000E+00 -0.36441171212E+04  0.36441171212E+04  0.00000000000E+00 0. -1.
        -24    2    1    2    0    0  0.29350766211E+03  0.21523712030E+03 -0.24931445947E+03  0.44806929991E+03  0.78323892553E+02 0.  0.
        254    2    1    2    0    0 -0.29350766211E+03 -0.21523712030E+03 -0.32266524856E+04  0.33641979974E+04  0.87981142111E+03 0.  0.
         23    2    4    4    0    0 -0.25037682497E+03 -0.53328092824E+03 -0.17022784348E+04  0.18036449017E+04  0.91137034639E+02 0.  0.
         23    2    4    4    0    0 -0.43130837141E+02  0.31804380794E+03 -0.15243740509E+04  0.15605530957E+04  0.92723160536E+02 0.  0.
          3    1    3    3  502    0  0.33498894775E+02  0.68677217845E+01 -0.42635355827E+01  0.34460401758E+02  0.00000000000E+00 0. -1.
         -4    1    3    3    0  502  0.26000876734E+03  0.20836939851E+03 -0.24505092389E+03  0.41360889815E+03  0.00000000000E+00 0.  1.
         11    1    5    5    0    0 -0.20559281325E+03 -0.36322749363E+03 -0.12756942773E+04  0.13422363823E+04  0.00000000000E+00 0. -1.
        -11    1    5    5    0    0 -0.44784011726E+02 -0.17005343462E+03 -0.42658415748E+03  0.46140851936E+03  0.00000000000E+00 0.  1.
          3    1    6    6  503    0 -0.14990242792E+02  0.29684571022E+03 -0.14046966192E+04  0.14357975746E+04  0.00000000000E+00 0. -1.
         -3    1    6    6    0  503 -0.28140594349E+02  0.21198097721E+02 -0.11967743166E+03  0.12475552110E+03  0.00000000000E+00 0.  1.
<mgrwt>
<rscale>  0 0.15655784E+04</rscale>
<asrwt>0</asrwt>
<pdfrwt beam="1">  1        1 0.56063334E+00 0.15655784E+04</pdfrwt>
<pdfrwt beam="2">  1       -2 0.25869261E-01 0.15655784E+04</pdfrwt>
<totfact> 0.22096727E+00</totfact>
</mgrwt>
</event>
<event>
12    4  0.4381187E-008  0.1992378E+04  0.7818608E-02  0.8610193E-01
         -2   -1    0    0    0  501 -0.00000000000E+00  0.00000000000E+00  0.91098730194E+03  0.91098730194E+03  0.00000000000E+00 0.  1.
          1   -1    0    0  501    0  0.00000000000E+00 -0.00000000000E+00 -0.10893591148E+04  0.10893591148E+04  0.00000000000E+00 0. -1.
        -24    2    1    2    0    0  0.22385080508E+03 -0.36311182630E+03 -0.74157098104E+03  0.86130199343E+03  0.99770850552E+02 0.  0.
        254    2    1    2    0    0 -0.22385080508E+03  0.36311182630E+03  0.56319916823E+03  0.11390444233E+04  0.89345929608E+03 0.  0.
         23    2    4    4    0    0 -0.13611298911E+03  0.33585656127E+03 -0.15854666484E+03  0.40574596252E+03  0.90367945763E+02 0.  0.
         23    2    4    4    0    0 -0.87737815975E+02  0.27255265033E+02  0.72174583307E+03  0.73329846074E+03  0.91481206538E+02 0.  0.
          1    1    3    3  502    0  0.22942188037E+03 -0.31576841015E+03 -0.66636439613E+03  0.77226005754E+03  0.00000000000E+00 0. -1.
         -2    1    3    3    0  502 -0.55710752817E+01 -0.47343416147E+02 -0.75206584915E+02  0.89041935889E+02  0.00000000000E+00 0.  1.
         11    1    5    5    0    0 -0.12974731896E+03  0.33120475336E+03 -0.13425084068E+03  0.38020289801E+03  0.00000000000E+00 0. -1.
        -11    1    5    5    0    0 -0.63656701439E+01  0.46518079015E+01 -0.24295824162E+02  0.25543064515E+02  0.00000000000E+00 0.  1.
          1    1    6    6  503    0 -0.30037441277E+02  0.34305027018E+02  0.55190591830E+03  0.55378626329E+03  0.00000000000E+00 0. -1.
         -1    1    6    6    0  503 -0.57700374698E+02 -0.70497619844E+01  0.16983991477E+03  0.17951219745E+03  0.00000000000E+00 0.  1.
<mgrwt>
<rscale>  0 0.19923778E+04</rscale>
<asrwt>0</asrwt>
<pdfrwt beam="1">  1        1 0.16759371E+00 0.19923778E+04</pdfrwt>
<pdfrwt beam="2">  1       -2 0.14015189E+00 0.19923778E+04</pdfrwt>
<totfact> 0.37651855E+00</totfact>
</mgrwt>
</event>
<event>
12    4  0.4381187E-008  0.4484815E+04  0.7818608E-02  0.7913301E-01
          1   -1    0    0  501    0  0.00000000000E+00  0.00000000000E+00  0.23634173871E+04  0.23634173871E+04  0.00000000000E+00 0. -1.
         -2   -1    0    0    0  501 -0.00000000000E+00 -0.00000000000E+00 -0.21275937976E+04  0.21275937976E+04  0.00000000000E+00 0.  1.
        -24    2    1    2    0    0  0.34972313898E+03  0.77371064453E+03  0.20883171810E+04  0.22557614828E+04  0.80354113248E+02 0.  0.
        254    2    1    2    0    0 -0.34972313898E+03 -0.77371064453E+03 -0.18524935915E+04  0.22352497018E+04  0.91851744010E+03 0.  0.
         23    2    4    4    0    0 -0.18970000623E+03 -0.76431826123E+03 -0.66825417054E+03  0.10368277234E+04  0.90992278158E+02 0.  0.
         23    2    4    4    0    0 -0.16002313275E+03 -0.93923833017E+01 -0.11842394209E+04  0.11984219785E+04  0.89981178839E+02 0.  0.
          3    1    3    3  502    0  0.14855217922E+03  0.42409034356E+03  0.10792710449E+04  0.11690792778E+04  0.00000000000E+00 0. -1.
         -4    1    3    3    0  502  0.20117095976E+03  0.34962030098E+03  0.10090461361E+04  0.10866822050E+04  0.00000000000E+00 0.  1.
         11    1    5    5    0    0 -0.53226219212E+01 -0.34316730388E+02 -0.58207427516E+02  0.67779590635E+02  0.00000000000E+00 0. -1.
        -11    1    5    5    0    0 -0.18437738430E+03 -0.73000153084E+03 -0.61004674302E+03  0.96904813273E+03  0.00000000000E+00 0.  1.
          2    1    6    6  503    0 -0.17373234261E+02  0.30326556836E+02 -0.27333307199E+03  0.27555851931E+03  0.00000000000E+00 0. -1.
         -2    1    6    6    0  503 -0.14264989849E+03 -0.39718940138E+02 -0.91090634892E+03  0.92286345916E+03  0.00000000000E+00 0.  1.
<mgrwt>
<rscale>  0 0.44848153E+04</rscale>
<asrwt>0</asrwt>
<pdfrwt beam="1">  1        1 0.36360268E+00 0.44848153E+04</pdfrwt>
<pdfrwt beam="2">  1       -2 0.32732212E+00 0.44848153E+04</pdfrwt>
<totfact> 0.24021846E-02</totfact>
</mgrwt>
</event>
<event>
12    4  0.4381187E-008  0.1494778E+04  0.7818608E-02  0.8887933E-01
         -2   -1    0    0    0  501 -0.00000000000E+00  0.00000000000E+00  0.11266914340E+04  0.11266914340E+04  0.00000000000E+00 0.  1.
          1   -1    0    0  501    0  0.00000000000E+00 -0.00000000000E+00 -0.49577957533E+03  0.49577957533E+03  0.00000000000E+00 0. -1.
        -24    2    1    2    0    0 -0.14945170983E+03  0.22227327057E+03 -0.22231832325E+03  0.35720685039E+03  0.80187759203E+02 0.  0.
        254    2    1    2    0    0  0.14945170983E+03 -0.22227327057E+03  0.85323018194E+03  0.12652641590E+04  0.89507006888E+03 0.  0.
         23    2    4    4    0    0 -0.21825975167E+03 -0.43059976286E+03  0.55353949259E+03  0.73927338131E+03  0.84057643810E+02 0.  0.
         23    2    4    4    0    0  0.36771146151E+03  0.20832649229E+03  0.29969068934E+03  0.52599077765E+03  0.90775231071E+02 0.  0.
          3    1    3    3  502    0 -0.12420733011E+03  0.12602199707E+03 -0.11594795843E+03  0.21154889190E+03  0.00000000000E+00 0. -1.
         -4    1    3    3    0  502 -0.25244379721E+02  0.96251273501E+02 -0.10637036483E+03  0.14565795849E+03  0.00000000000E+00 0.  1.
         11    1    5    5    0    0 -0.13745889815E+03 -0.32335189746E+03  0.44250965194E+03  0.56503645045E+03  0.00000000000E+00 0.  1.
        -11    1    5    5    0    0 -0.80800853522E+02 -0.10724786540E+03  0.11102984065E+03  0.17423693087E+03  0.00000000000E+00 0. -1.
          2    1    6    6  503    0  0.15865128774E+03  0.13111426811E+03  0.11022352334E+03  0.23347463995E+03  0.00000000000E+00 0.  1.
         -2    1    6    6    0  503  0.20906017376E+03  0.77212224185E+02  0.18946716601E+03  0.29251613769E+03  0.00000000000E+00 0. -1.
<mgrwt>
<rscale>  0 0.14947784E+04</rscale>
<asrwt>0</asrwt>
<pdfrwt beam="1">  1        1 0.76273781E-01 0.14947784E+04</pdfrwt>
<pdfrwt beam="2">  1       -2 0.17333714E+00 0.14947784E+04</pdfrwt>
<totfact> 0.76535762E+00</totfact>
</mgrwt>
</event>
<event>
12    4  0.4381187E-008  0.1551408E+04  0.7818608E-02  0.8850969E-01
          1   -1    0    0  501    0  0.00000000000E+00  0.00000000000E+00  0.32675341099E+03  0.32675341099E+03  0.00000000000E+00 0. -1.
         -2   -1    0    0    0  501 -0.00000000000E+00 -0.00000000000E+00 -0.18415011326E+04  0.18415011326E+04  0.00000000000E+00 0.  1.
        -24    2    1    2    0    0  0.48098233218E+03 -0.13875631093E+03 -0.33958001734E+03  0.61155627702E+03  0.89939835985E+02 0.  0.
        254    2    1    2    0    0 -0.48098233218E+03  0.13875631093E+03 -0.11751677043E+04  0.15566982666E+04  0.88977134270E+03 0.  0.
         23    2    4    4    0    0 -0.13632597560E+03  0.35542834997E+03 -0.10504332132E+04  0.11211390379E+04  0.92890921474E+02 0.  0.
         23    2    4    4    0    0 -0.34465635658E+03 -0.21667203905E+03 -0.12473449107E+03  0.43555922867E+03  0.91751685482E+02 0.  0.
          3    1    3    3  502    0 -0.41485717046E+01 -0.11615825219E+01 -0.35890075126E+01  0.56072182113E+01  0.00000000000E+00 0. -1.
         -4    1    3    3    0  502  0.48513090388E+03 -0.13759472841E+03 -0.33599100983E+03  0.60594905881E+03  0.00000000000E+00 0.  1.
         11    1    5    5    0    0 -0.13815964214E+03  0.33599622428E+03 -0.10328106793E+04  0.10948422027E+04  0.00000000000E+00 0.  1.
        -11    1    5    5    0    0  0.18336665378E+01  0.19432125697E+02 -0.17622533903E+02  0.26296835232E+02  0.00000000000E+00 0. -1.
          2    1    6    6  503    0 -0.18631695133E+03 -0.12561367735E+03 -0.21457947942E+02  0.22572825659E+03  0.00000000000E+00 0. -1.
         -2    1    6    6    0  503 -0.15833940524E+03 -0.91058361694E+02 -0.10327654313E+03  0.20983097209E+03  0.00000000000E+00 0.  1.
<mgrwt>
<rscale>  0 0.15514081E+04</rscale>
<asrwt>0</asrwt>
<pdfrwt beam="1">  1        1 0.50269757E-01 0.15514081E+04</pdfrwt>
<pdfrwt beam="2">  1       -2 0.28330786E+00 0.15514081E+04</pdfrwt>
<totfact> 0.26582753E+00</totfact>
</mgrwt>
</event>
<event>
12    4  0.4381187E-008  0.1308866E+04  0.7818608E-02  0.9022564E-01
         -2   -1    0    0    0  501 -0.00000000000E+00  0.00000000000E+00  0.24990649383E+03  0.24990649383E+03  0.00000000000E+00 0.  1.
          1   -1    0    0  501    0  0.00000000000E+00 -0.00000000000E+00 -0.17137712365E+04  0.17137712365E+04  0.00000000000E+00 0. -1.
        -24    2    1    2    0    0 -0.81825543986E+02 -0.14774908306E+03  0.48099799950E+02  0.19856990899E+03  0.92688763120E+02 0.  0.
        254    2    1    2    0    0  0.81825543986E+02  0.14774908306E+03 -0.15119645426E+04  0.17651078213E+04  0.89501040867E+03 0.  0.
         23    2    4    4    0    0  0.32178556779E+03 -0.25489884377E+03 -0.55445431467E+03  0.69591624083E+03  0.91435523735E+02 0.  0.
         23    2    4    4    0    0 -0.23996002381E+03  0.40264792684E+03 -0.95751022795E+03  0.10691915805E+04  0.81477807995E+02 0.  0.
          1    1    3    3  502    0  0.19540160740E+02 -0.41009097061E+02  0.12777354220E+02  0.47189243524E+02  0.00000000000E+00 0. -1.
         -2    1    3    3    0  502 -0.10136570473E+03 -0.10673998600E+03  0.35322445730E+02  0.15138066547E+03  0.00000000000E+00 0.  1.
         11    1    5    5    0    0  0.46264133696E+02 -0.20595891277E+01 -0.69780851141E+02  0.83749502446E+02  0.00000000000E+00 0.  1.
        -11    1    5    5    0    0  0.27552143410E+03 -0.25283925465E+03 -0.48467346353E+03  0.61216673839E+03  0.00000000000E+00 0. -1.
          4    1    6    6  503    0 -0.21399669700E+03  0.29202882821E+03 -0.73748652164E+03  0.82156058355E+03  0.00000000000E+00 0. -1.
         -4    1    6    6    0  503 -0.25963326801E+02  0.11061909863E+03 -0.22002370630E+03  0.24763099696E+03  0.00000000000E+00 0.  1.
<mgrwt>
<rscale>  0 0.13088660E+04</rscale>
<asrwt>0</asrwt>
<pdfrwt beam="1">  1        1 0.26365713E+00 0.13088660E+04</pdfrwt>
<pdfrwt beam="2">  1       -2 0.38447151E-01 0.13088660E+04</pdfrwt>
<totfact> 0.25689238E+01</totfact>
</mgrwt>
</event>
<event>
12    4  0.4381187E-008  0.1920119E+04  0.7818608E-02  0.8644906E-01
          1   -1    0    0  501    0  0.00000000000E+00  0.00000000000E+00  0.62756236498E+03  0.62756236498E+03  0.00000000000E+00 0. -1.
         -2   -1    0    0    0  501 -0.00000000000E+00 -0.00000000000E+00 -0.14687216324E+04  0.14687216324E+04  0.00000000000E+00 0.  1.
        -24    2    1    2    0    0 -0.25324712266E+03  0.22753876061E+03 -0.10538666546E+04  0.11102470233E+04  0.78137919270E+02 0.  0.
        254    2    1    2    0    0  0.25324712266E+03 -0.22753876061E+03  0.21270738715E+03  0.98603697407E+03  0.90062005806E+03 0.  0.
         23    2    4    4    0    0  0.16589785050E+03 -0.49417776148E+03  0.37479009005E+03  0.64845210459E+03  0.91042647192E+02 0.  0.
         23    2    4    4    0    0  0.87349272157E+02  0.26663900087E+03 -0.16208270290E+03  0.33758486948E+03  0.94691548678E+02 0.  0.
          3    1    3    3  502    0 -0.19559251389E+03  0.12642179594E+03 -0.69814150285E+03  0.73596226804E+03  0.00000000000E+00 0. -1.
         -4    1    3    3    0  502 -0.57654608765E+02  0.10111696467E+03 -0.35572515172E+03  0.37428475526E+03  0.00000000000E+00 0.  1.
         11    1    5    5    0    0  0.57430837485E+02 -0.19282659251E+03  0.19952313875E+03  0.28335468722E+03  0.00000000000E+00 0. -1.
        -11    1    5    5    0    0  0.10846701301E+03 -0.30135116898E+03  0.17526695129E+03  0.36509741737E+03  0.00000000000E+00 0.  1.
          2    1    6    6  503    0  0.77322085188E+00  0.67964310102E+01 -0.34981498599E+02  0.35643997941E+02  0.00000000000E+00 0. -1.
         -2    1    6    6    0  503  0.86576051305E+02  0.25984256986E+03 -0.12710120430E+03  0.30194087154E+03  0.00000000000E+00 0.  1.
<mgrwt>
<rscale>  0 0.19201192E+04</rscale>
<asrwt>0</asrwt>
<pdfrwt beam="1">  1        1 0.96548059E-01 0.19201192E+04</pdfrwt>
<pdfrwt beam="2">  1       -2 0.22595717E+00 0.19201192E+04</pdfrwt>
<totfact> 0.23767093E+00</totfact>
</mgrwt>
</event>
<event>
12    4  0.4381187E-008  0.1598293E+04  0.7818608E-02  0.8821597E-01
         -2   -1    0    0    0  501 -0.00000000000E+00  0.00000000000E+00  0.24034947609E+04  0.24034947609E+04  0.00000000000E+00 0.  1.
          1   -1    0    0  501    0  0.00000000000E+00 -0.00000000000E+00 -0.26571107023E+03  0.26571107023E+03  0.00000000000E+00 0. -1.
        -24    2    1    2    0    0  0.18375283675E+03 -0.27551424791E+03  0.14593603941E+04  0.14984093789E+04  0.76319728973E+02 0.  0.
        254    2    1    2    0    0 -0.18375283675E+03  0.27551424791E+03  0.67842329649E+03  0.11707964522E+04  0.89489270719E+03 0.  0.
         23    2    4    4    0    0 -0.11143573754E+02  0.51997427364E+03  0.13579244892E+03  0.54459690919E+03  0.87457302887E+02 0.  0.
         23    2    4    4    0    0 -0.17260926299E+03 -0.24446002573E+03  0.54263084757E+03  0.62619954298E+03  0.90127515481E+02 0.  0.
          3    1    3    3  502    0  0.38883911704E+02 -0.11727856078E+03  0.60867332245E+03  0.62108729892E+03  0.00000000000E+00 0. -1.
         -4    1    3    3    0  502  0.14486892504E+03 -0.15823568713E+03  0.85068707169E+03  0.87732208000E+03  0.00000000000E+00 0.  1.
         11    1    5    5    0    0  0.24047481210E+02  0.26986293639E+03  0.10322721378E+03  0.28993127368E+03  0.00000000000E+00 0. -1.
        -11    1    5    5    0    0 -0.35191054965E+02  0.25011133725E+03  0.32565235135E+02  0.25466563551E+03  0.00000000000E+00 0.  1.
          3    1    6    6  503    0 -0.14113061213E+03 -0.18223513929E+03  0.33077492109E+03  0.40316193285E+03  0.00000000000E+00 0. -1.
         -3    1    6    6    0  503 -0.31478650862E+02 -0.62224886445E+02  0.21185592647E+03  0.22303761014E+03  0.00000000000E+00 0.  1.
<mgrwt>
<rscale>  0 0.15982930E+04</rscale>
<asrwt>0</asrwt>
<pdfrwt beam="1">  1        1 0.40878628E-01 0.15982930E+04</pdfrwt>
<pdfrwt beam="2">  1       -2 0.36976841E+00 0.15982930E+04</pdfrwt>
<totfact> 0.10095458E+00</totfact>
</mgrwt>
</event>
<event>
12    4  0.4381187E-008  0.1149558E+04  0.7818608E-02  0.9158192E-01
          1   -1    0    0  501    0  0.00000000000E+00  0.00000000000E+00  0.92245198365E+03  0.92245198365E+03  0.00000000000E+00 0. -1.
         -2   -1    0    0    0  501 -0.00000000000E+00 -0.00000000000E+00 -0.35814419881E+03  0.35814419881E+03  0.00000000000E+00 0.  1.
        -24    2    1    2    0    0  0.28782845667E+02 -0.21673879682E+02  0.35467149994E+03  0.36526727174E+03  0.79561910902E+02 0.  0.
        254    2    1    2    0    0 -0.28782845667E+02  0.21673879682E+02  0.20963628490E+03  0.91532891073E+03  0.89027042723E+03 0.  0.
         23    2    4    4    0    0 -0.70481227071E+02 -0.28835129292E+03  0.42376695151E+03  0.52521685848E+03  0.90334089598E+02 0.  0.
         23    2    4    4    0    0  0.41698381404E+02  0.31002517260E+03 -0.21413066661E+03  0.39011205225E+03  0.92092932772E+02 0.  0.
          1    1    3    3  502    0  0.32709661856E+02 -0.27451401064E+02  0.35565791080E+03  0.35821229866E+03  0.00000000000E+00 0. -1.
         -2    1    3    3    0  502 -0.39268161889E+01  0.57775213825E+01 -0.98641085741E+00  0.70549730748E+01  0.00000000000E+00 0.  1.
         11    1    5    5    0    0 -0.79991288944E+02 -0.14005602532E+03  0.23371750352E+03  0.28396860388E+03  0.00000000000E+00 0.  1.
        -11    1    5    5    0    0  0.95100618731E+01 -0.14829526760E+03  0.19004944799E+03  0.24124825460E+03  0.00000000000E+00 0. -1.
          1    1    6    6  503    0  0.30192147334E+02  0.16885344353E+03 -0.62358505174E+02  0.18251475096E+03  0.00000000000E+00 0. -1.
         -1    1    6    6    0  503  0.11506234070E+02  0.14117172907E+03 -0.15177216144E+03  0.20759730128E+03  0.00000000000E+00 0.  1.
<mgrwt>
<rscale>  0 0.11495579E+04</rscale>
<asrwt>0</asrwt>
<pdfrwt beam="1">  1        1 0.14191569E+00 0.11495579E+04</pdfrwt>
<pdfrwt beam="2">  1       -2 0.55099108E-01 0.11495579E+04</pdfrwt>
<totfact> 0.47037494E+01</totfact>
</mgrwt>
</event>
<event>
12    4  0.4381187E-008  0.1203111E+04  0.7818608E-02  0.9110138E-01
         -2   -1    0    0    0  501 -0.00000000000E+00  0.00000000000E+00  0.11510668066E+04  0.11510668066E+04  0.00000000000E+00 0.  1.
          1   -1    0    0  501    0  0.00000000000E+00 -0.00000000000E+00 -0.31437712161E+03  0.31437712161E+03  0.00000000000E+00 0. -1.
        -24    2    1    2    0    0 -0.64702384231E+02 -0.30975340622E+03  0.31107780055E+03  0.45021899346E+03  0.76119464587E+02 0.  0.
        254    2    1    2    0    0  0.64702384231E+02  0.30975340622E+03  0.52561188439E+03  0.10152249347E+04  0.80887591375E+03 0.  0.
         23    2    4    4    0    0  0.35974522586E+03 -0.63896789675E+02  0.16560949635E+03  0.41143707368E+03  0.91403134840E+02 0.  0.
         23    2    4    4    0    0 -0.29504284163E+03  0.37365019589E+03  0.36000238804E+03  0.60378786102E+03  0.91067636625E+02 0.  0.
          1    1    3    3  502    0  0.45199229567E+01 -0.14380949386E+03  0.11508553929E+03  0.18424516705E+03  0.00000000000E+00 0. -1.
         -2    1    3    3    0  502 -0.69222307188E+02 -0.16594391235E+03  0.19599226127E+03  0.26597382641E+03  0.00000000000E+00 0.  1.
         11    1    5    5    0    0  0.13305799128E+03  0.82897781286E+01  0.93535101157E+02  0.16285565576E+03  0.00000000000E+00 0.  1.
        -11    1    5    5    0    0  0.22668723458E+03 -0.72186567804E+02  0.72074395191E+02  0.24858141792E+03  0.00000000000E+00 0. -1.
          2    1    6    6  503    0 -0.16154408541E+03  0.23753674113E+03  0.26478078479E+03  0.39067769186E+03  0.00000000000E+00 0. -1.
         -2    1    6    6    0  503 -0.13349875621E+03  0.13611345476E+03  0.95221603243E+02  0.21311016916E+03  0.00000000000E+00 0.  1.
<mgrwt>
<rscale>  0 0.12031111E+04</rscale>
<asrwt>0</asrwt>
<pdfrwt beam="1">  1        1 0.48365711E-01 0.12031111E+04</pdfrwt>
<pdfrwt beam="2">  1       -2 0.17708720E+00 0.12031111E+04</pdfrwt>
<totfact> 0.13516590E+01</totfact>
</mgrwt>
</event>
<event>
12    4  0.4381187E-008  0.1305603E+04  0.7818608E-02  0.9025134E-01
         -4   -1    0    0    0  501 -0.00000000000E+00  0.00000000000E+00  0.33883903334E+03  0.33883903334E+03  0.00000000000E+00 0.  1.
          1   -1    0    0  501    0  0.00000000000E+00 -0.00000000000E+00 -0.12576760254E+04  0.12576760254E+04  0.00000000000E+00 0. -1.
        -24    2    1    2    0    0 -0.96145210779E+02  0.33718092287E+03 -0.19160194990E+03  0.40722218791E+03  0.78636676020E+02 0.  0.
        254    2    1    2    0    0  0.96145210779E+02 -0.33718092287E+03 -0.72723504217E+03  0.11892928708E+04  0.87327650248E+03 0.  0.
         23    2    4    4    0    0  0.37501961268E+03 -0.17621233306E+03 -0.41894924007E+02  0.42662306360E+03  0.92528684857E+02 0.  0.
         23    2    4    4    0    0 -0.27887440190E+03 -0.16096858981E+03 -0.68534011817E+03  0.76266980725E+03  0.91062277462E+02 0.  0.
          3    1    3    3  502    0 -0.63628666905E+02  0.16619480058E+03 -0.13771200823E+03  0.22501981291E+03  0.00000000000E+00 0. -1.
         -4    1    3    3    0  502 -0.32516543874E+02  0.17098612229E+03 -0.53889941674E+02  0.18220237500E+03  0.00000000000E+00 0.  1.
         11    1    5    5    0    0  0.21705509304E+03 -0.13626229245E+03  0.74092845762E+01  0.25638881266E+03  0.00000000000E+00 0. -1.
        -11    1    5    5    0    0  0.15796451964E+03 -0.39950040608E+02 -0.49304208583E+02  0.17023425094E+03  0.00000000000E+00 0.  1.
          3    1    6    6  503    0 -0.26292587132E+03 -0.13892380527E+03 -0.66574048243E+03  0.72913663152E+03  0.00000000000E+00 0. -1.
         -3    1    6    6    0  503 -0.15948530582E+02 -0.22044784540E+02 -0.19599635731E+02  0.33533175721E+02  0.00000000000E+00 0.  1.
<mgrwt>
<rscale>  0 0.13056029E+04</rscale>
<asrwt>0</asrwt>
<pdfrwt beam="1">  1        1 0.19348862E+00 0.13056029E+04</pdfrwt>
<pdfrwt beam="2">  1       -4 0.52129083E-01 0.13056029E+04</pdfrwt>
<totfact> 0.16503972E+01</totfact>
</mgrwt>
</event>
<event>
12    4  0.4381187E-008  0.1536305E+04  0.7818608E-02  0.8860663E-01
         -2   -1    0    0    0  501 -0.00000000000E+00  0.00000000000E+00  0.24661360562E+03  0.24661360562E+03  0.00000000000E+00 0.  1.
          1   -1    0    0  501    0  0.00000000000E+00 -0.00000000000E+00 -0.23926424471E+04  0.23926424471E+04  0.00000000000E+00 0. -1.
        -24    2    1    2    0    0 -0.34843088734E+03 -0.24435580308E+03 -0.11136998808E+04  0.11949128858E+04  0.79846967363E+02 0.  0.
        254    2    1    2    0    0  0.34843088734E+03  0.24435580308E+03 -0.10323289606E+04  0.14443431669E+04  0.91613877727E+03 0.  0.
         23    2    4    4    0    0 -0.13852657451E+02 -0.56325836765E+02  0.14066659567E+03  0.17715828636E+03  0.90738477416E+02 0.  0.
         23    2    4    4    0    0  0.36228354479E+03  0.30068163985E+03 -0.11729955563E+04  0.12671848806E+04  0.90444077436E+02 0.  0.
          1    1    3    3  502    0 -0.24056086374E+03 -0.20432259115E+03 -0.75866635504E+03  0.82170060770E+03  0.00000000000E+00 0. -1.
         -2    1    3    3    0  502 -0.10787002360E+03 -0.40033211935E+02 -0.35503352581E+03  0.37321227806E+03  0.00000000000E+00 0.  1.
         11    1    5    5    0    0  0.80093984440E+01 -0.18732964312E+02 -0.82810177480E+01  0.21992036520E+02  0.00000000000E+00 0.  1.
        -11    1    5    5    0    0 -0.21862055895E+02 -0.37592872453E+02  0.14894761342E+03  0.15516624984E+03  0.00000000000E+00 0. -1.
          1    1    6    6  503    0  0.29719323280E+03  0.20777192480E+03 -0.95311692601E+03  0.10197670641E+04  0.00000000000E+00 0. -1.
         -1    1    6    6    0  503  0.65090311987E+02  0.92909715053E+02 -0.21987863028E+03  0.24741781650E+03  0.00000000000E+00 0.  1.
<mgrwt>
<rscale>  0 0.15363049E+04</rscale>
<asrwt>0</asrwt>
<pdfrwt beam="1">  1        1 0.36809883E+00 0.15363049E+04</pdfrwt>
<pdfrwt beam="2">  1       -2 0.37940555E-01 0.15363049E+04</pdfrwt>
<totfact> 0.89424138E+00</totfact>
</mgrwt>
</event>
<event>
12    4  0.4381187E-008  0.1738402E+04  0.7818608E-02  0.8739761E-01
         -2   -1    0    0    0  501 -0.00000000000E+00  0.00000000000E+00  0.33151927765E+03  0.33151927765E+03  0.00000000000E+00 0.  1.
          1   -1    0    0  501    0  0.00000000000E+00 -0.00000000000E+00 -0.22789324718E+04  0.22789324718E+04  0.00000000000E+00 0. -1.
        -24    2    1    2    0    0 -0.28053986991E+03 -0.32191105198E+03 -0.14209048284E+04  0.14857424176E+04  0.78298507109E+02 0.  0.
        254    2    1    2    0    0  0.28053986991E+03  0.32191105198E+03 -0.52650836577E+03  0.11247093318E+04  0.89745789755E+03 0.  0.
         23    2    4    4    0    0 -0.20048639879E+03  0.11123527213E+03  0.13045733860E+03  0.27877243915E+03  0.90149175097E+02 0.  0.
         23    2    4    4    0    0  0.48102626871E+03  0.21067577985E+03 -0.65696570437E+03  0.84593689267E+03  0.90745436602E+02 0.  0.
          3    1    3    3  502    0 -0.58366482361E+02 -0.11015783952E+03 -0.34118604662E+03  0.36324828187E+03  0.00000000000E+00 0. -1.
         -4    1    3    3    0  502 -0.22217338755E+03 -0.21175321246E+03 -0.10797187817E+04  0.11224941357E+04  0.00000000000E+00 0.  1.
         11    1    5    5    0    0 -0.16892947590E+03  0.76625129365E+02  0.61523138705E+02  0.19543202111E+03  0.00000000000E+00 0.  1.
        -11    1    5    5    0    0 -0.31556922888E+02  0.34610142765E+02  0.68934199896E+02  0.83340418044E+02  0.00000000000E+00 0. -1.
          2    1    6    6  503    0  0.58269947661E+02  0.41233978808E+02 -0.50256560184E+02  0.87300341639E+02  0.00000000000E+00 0. -1.
         -2    1    6    6    0  503  0.42275632104E+03  0.16944180105E+03 -0.60670914419E+03  0.75863655104E+03  0.00000000000E+00 0.  1.
<mgrwt>
<rscale>  0 0.17384016E+04</rscale>
<asrwt>0</asrwt>
<pdfrwt beam="1">  1        1 0.35060501E+00 0.17384016E+04</pdfrwt>
<pdfrwt beam="2">  1       -2 0.51002964E-01 0.17384016E+04</pdfrwt>
<totfact> 0.58274937E+00</totfact>
</mgrwt>
</event>
<event>
12    4  0.4381187E-008  0.1734726E+04  0.7818608E-02  0.8741803E-01
         -2   -1    0    0    0  501 -0.00000000000E+00  0.00000000000E+00  0.35500068355E+03  0.35500068355E+03  0.00000000000E+00 0.  1.
          1   -1    0    0  501    0  0.00000000000E+00 -0.00000000000E+00 -0.21192042891E+04  0.21192042891E+04  0.00000000000E+00 0. -1.
        -24    2    1    2    0    0 -0.36682131198E+03 -0.24229982842E+03 -0.12915761893E+04  0.13658106209E+04  0.63265454415E+02 0.  0.
        254    2    1    2    0    0  0.36682131198E+03  0.24229982842E+03 -0.47262741623E+03  0.11083943517E+04  0.90105176462E+03 0.  0.
         23    2    4    4    0    0  0.19348587354E+03 -0.21432228072E+03 -0.52611390585E+03  0.60732962861E+03  0.93180537634E+02 0.  0.
         23    2    4    4    0    0  0.17333543844E+03  0.45662210915E+03  0.53486489614E+02  0.50106472308E+03  0.98265596034E+02 0.  0.
          3    1    3    3  502    0 -0.26685078778E+03 -0.16329256639E+03 -0.83118488840E+03  0.88811154923E+03  0.00000000000E+00 0. -1.
         -4    1    3    3    0  502 -0.99970524197E+02 -0.79007262033E+02 -0.46039130088E+03  0.47769907168E+03  0.00000000000E+00 0.  1.
         11    1    5    5    0    0  0.60293621848E+01 -0.12641062436E+02 -0.93365543928E+02  0.94410139608E+02  0.00000000000E+00 0. -1.
        -11    1    5    5    0    0  0.18745651135E+03 -0.20168121829E+03 -0.43274836192E+03  0.51291948901E+03  0.00000000000E+00 0.  1.
          3    1    6    6  503    0  0.30306546589E+02  0.21103696366E+03  0.88876473713E+01  0.21338715302E+03  0.00000000000E+00 0. -1.
         -3    1    6    6    0  503  0.14302889185E+03  0.24558514548E+03  0.44598842243E+02  0.28767757006E+03  0.00000000000E+00 0.  1.
<mgrwt>
<rscale>  0 0.17347265E+04</rscale>
<asrwt>0</asrwt>
<pdfrwt beam="1">  1        1 0.32603143E+00 0.17347265E+04</pdfrwt>
<pdfrwt beam="2">  1       -2 0.54615489E-01 0.17347265E+04</pdfrwt>
<totfact> 0.65023488E+00</totfact>
</mgrwt>
</event>
<event>
12    4  0.4381187E-008  0.1323794E+04  0.7818608E-02  0.9010907E-01
          1   -1    0    0  501    0  0.00000000000E+00  0.00000000000E+00  0.64659621774E+03  0.64659621774E+03  0.00000000000E+00 0. -1.
         -2   -1    0    0    0  501 -0.00000000000E+00 -0.00000000000E+00 -0.67755949765E+03  0.67755949765E+03  0.00000000000E+00 0.  1.
        -24    2    1    2    0    0  0.12044904243E+03 -0.31702150440E+03  0.15261103680E+02  0.34896852932E+03  0.80842606959E+02 0.  0.
        254    2    1    2    0    0 -0.12044904243E+03  0.31702150440E+03 -0.46224383591E+02  0.97518718606E+03  0.91314990454E+03 0.  0.
         23    2    4    4    0    0 -0.48101084726E+03  0.23849866234E+03 -0.17826294490E+03  0.57307212502E+03  0.91547451312E+02 0.  0.
         23    2    4    4    0    0  0.36056180483E+03  0.78522842058E+02  0.13203856131E+03  0.40211506104E+03  0.89953814923E+02 0.  0.
          1    1    3    3  502    0  0.98173656452E+02 -0.17235023557E+03 -0.17007864910E+02  0.19907771847E+03  0.00000000000E+00 0. -1.
         -2    1    3    3    0  502  0.22275385978E+02 -0.14467126883E+03  0.32268968590E+02  0.14989081085E+03  0.00000000000E+00 0.  1.
         11    1    5    5    0    0 -0.47859801593E+03  0.23794026860E+03 -0.16469753685E+03  0.55928249653E+03  0.00000000000E+00 0. -1.
        -11    1    5    5    0    0 -0.24128313211E+01  0.55839373402E+00 -0.13565408047E+02  0.13789628495E+02  0.00000000000E+00 0.  1.
          3    1    6    6  503    0  0.19442990126E+03  0.19634258304E+02  0.11062671626E+03  0.22455903667E+03  0.00000000000E+00 0. -1.
         -3    1    6    6    0  503  0.16613190357E+03  0.58888583754E+02  0.21411845046E+02  0.17755602437E+03  0.00000000000E+00 0.  1.
<mgrwt>
<rscale>  0 0.13237937E+04</rscale>
<asrwt>0</asrwt>
<pdfrwt beam="1">  1        1 0.99476341E-01 0.13237937E+04</pdfrwt>
<pdfrwt beam="2">  1       -2 0.10423992E+00 0.13237937E+04</pdfrwt>
<totfact> 0.19712802E+01</totfact>
</mgrwt>
</event>
<event>
12    4  0.4381187E-008  0.1223235E+04  0.7818608E-02  0.9092758E-01
          1   -1    0    0  501    0  0.00000000000E+00  0.00000000000E+00  0.50541813876E+03  0.50541813876E+03  0.00000000000E+00 0. -1.
         -2   -1    0    0    0  501 -0.00000000000E+00 -0.00000000000E+00 -0.74013196634E+03  0.74013196634E+03  0.00000000000E+00 0.  1.
        -24    2    1    2    0    0  0.12388676912E+03  0.20488903948E+03 -0.21307587740E+03  0.33058058448E+03  0.80961368821E+02 0.  0.
        254    2    1    2    0    0 -0.12388676912E+03 -0.20488903948E+03 -0.21637950179E+02  0.91496952062E+03  0.88282137079E+03 0.  0.
         23    2    4    4    0    0  0.16689851969E+02  0.14141483418E+03  0.34454573039E+03  0.38395045774E+03  0.91812238763E+02 0.  0.
         23    2    4    4    0    0 -0.14057662109E+03 -0.34630387367E+03 -0.36618368057E+03  0.53101906288E+03  0.90568194826E+02 0.  0.
          3    1    3    3  502    0  0.13316307183E+02  0.97874845942E+02 -0.78862539919E+02  0.12639663646E+03  0.00000000000E+00 0. -1.
         -4    1    3    3    0  502  0.11057046194E+03  0.10701419354E+03 -0.13421333748E+03  0.20418394802E+03  0.00000000000E+00 0.  1.
         11    1    5    5    0    0  0.16776304874E+02 -0.38958758280E+01  0.82820493088E+02  0.84592294738E+02  0.00000000000E+00 0. -1.
        -11    1    5    5    0    0 -0.86452905322E-01  0.14531071001E+03  0.26172523730E+03  0.29935816301E+03  0.00000000000E+00 0.  1.
          4    1    6    6  503    0 -0.13253372828E+03 -0.34983748524E+03 -0.36400401351E+03  0.52196779313E+03  0.00000000000E+00 0.  1.
         -4    1    6    6    0  503 -0.80428928115E+01  0.35336115791E+01 -0.21796670557E+01  0.90512697475E+01  0.00000000000E+00 0. -1.
<mgrwt>
<rscale>  0 0.12232353E+04</rscale>
<asrwt>0</asrwt>
<pdfrwt beam="1">  1        1 0.77756637E-01 0.12232353E+04</pdfrwt>
<pdfrwt beam="2">  1       -2 0.11386646E+00 0.12232353E+04</pdfrwt>
<totfact> 0.22788666E+01</totfact>
</mgrwt>
</event>
<event>
12    4  0.4381187E-008  0.2054689E+04  0.7818608E-02  0.8581470E-01
         -2   -1    0    0    0  501 -0.00000000000E+00  0.00000000000E+00  0.34040976145E+03  0.34040976145E+03  0.00000000000E+00 0.  1.
          1   -1    0    0  501    0  0.00000000000E+00 -0.00000000000E+00 -0.31004893213E+04  0.31004893213E+04  0.00000000000E+00 0. -1.
        -24    2    1    2    0    0 -0.32719571232E+03 -0.29893593806E+03 -0.22707672000E+04  0.23150002164E+04  0.80141099433E+02 0.  0.
        254    2    1    2    0    0  0.32719571232E+03  0.29893593806E+03 -0.48931235977E+03  0.11258988663E+04  0.91203176621E+03 0.  0.
         23    2    4    4    0    0  0.58869319076E+03  0.18091164918E+03 -0.95448957997E+02  0.63011446475E+03  0.92978693480E+02 0.  0.
         23    2    4    4    0    0 -0.26149747844E+03  0.11802428888E+03 -0.39386340177E+03  0.49578440159E+03  0.91450148221E+02 0.  0.
          3    1    3    3  502    0 -0.20910401153E+03 -0.23786657645E+03 -0.16577388300E+04  0.16877212520E+04  0.00000000000E+00 0. -1.
         -4    1    3    3    0  502 -0.11809170080E+03 -0.61069361610E+02 -0.61302836999E+03  0.62727896437E+03  0.00000000000E+00 0.  1.
         11    1    5    5    0    0  0.45667206552E+03  0.16150734209E+03 -0.10735703430E+03  0.49614466619E+03  0.00000000000E+00 0.  1.
        -11    1    5    5    0    0  0.13202112525E+03  0.19404307097E+02  0.11908076307E+02  0.13396979856E+03  0.00000000000E+00 0. -1.
          1    1    6    6  503    0 -0.27539922623E+02  0.35995964115E+02 -0.10957256394E+03  0.11857615081E+03  0.00000000000E+00 0. -1.
         -1    1    6    6    0  503 -0.23395755582E+03  0.82028324761E+02 -0.28429083783E+03  0.37720825078E+03  0.00000000000E+00 0.  1.
<mgrwt>
<rscale>  0 0.20546891E+04</rscale>
<asrwt>0</asrwt>
<pdfrwt beam="1">  1        1 0.47699837E+00 0.20546891E+04</pdfrwt>
<pdfrwt beam="2">  1       -2 0.52370731E-01 0.20546891E+04</pdfrwt>
<totfact> 0.14103868E+00</totfact>
</mgrwt>
</event>
<event>
12    4  0.4381187E-008  0.1109810E+04  0.7818608E-02  0.9195683E-01
          1   -1    0    0  501    0  0.00000000000E+00  0.00000000000E+00  0.16684471142E+04  0.16684471142E+04  0.00000000000E+00 0. -1.
         -2   -1    0    0    0  501 -0.00000000000E+00 -0.00000000000E+00 -0.18455455641E+03  0.18455455641E+03  0.00000000000E+00 0.  1.
        -24    2    1    2    0    0 -0.40444628857E+02  0.15021638115E+03  0.43851350994E+03  0.47473248268E+03  0.94213069908E+02 0.  0.
        254    2    1    2    0    0  0.40444628857E+02 -0.15021638115E+03  0.10453790478E+04  0.13782691879E+04  0.88465127115E+03 0.  0.
         23    2    4    4    0    0 -0.14654811421E+03 -0.46945882011E+03  0.45759321787E+03  0.67801709616E+03  0.91911349037E+02 0.  0.
         23    2    4    4    0    0  0.18699274306E+03  0.31924243896E+03  0.58778582995E+03  0.70025209175E+03  0.89324069108E+02 0.  0.
          3    1    3    3  502    0 -0.36121100247E+02  0.94490126103E+02  0.38231226902E+03  0.39546907446E+03  0.00000000000E+00 0. -1.
         -4    1    3    3    0  502 -0.43235286098E+01  0.55726255046E+02  0.56201240926E+02  0.79263408220E+02  0.00000000000E+00 0.  1.
         11    1    5    5    0    0 -0.13686279836E+03 -0.44236114539E+03  0.39314207648E+03  0.60743353614E+03  0.00000000000E+00 0.  1.
        -11    1    5    5    0    0 -0.96853158494E+01 -0.27097674719E+02  0.64451141391E+02  0.70583560018E+02  0.00000000000E+00 0. -1.
          1    1    6    6  503    0 -0.38785823173E+01 -0.33584783664E+00 -0.66556593627E+00  0.39495787848E+01  0.00000000000E+00 0. -1.
         -1    1    6    6    0  503  0.19087132538E+03  0.31957828680E+03  0.58845139589E+03  0.69630251297E+03  0.00000000000E+00 0.  1.
<mgrwt>
<rscale>  0 0.11098099E+04</rscale>
<asrwt>0</asrwt>
<pdfrwt beam="1">  1        1 0.25668416E+00 0.11098099E+04</pdfrwt>
<pdfrwt beam="2">  1       -2 0.28393010E-01 0.11098099E+04</pdfrwt>
<totfact> 0.49756389E+01</totfact>
</mgrwt>
</event>
<event>
12    4  0.4381187E-008  0.2169220E+04  0.7818608E-02  0.8531350E-01
          1   -1    0    0  501    0  0.00000000000E+00  0.00000000000E+00  0.21820997211E+04  0.21820997211E+04  0.00000000000E+00 0. -1.
         -2   -1    0    0    0  501 -0.00000000000E+00 -0.00000000000E+00 -0.53910391126E+03  0.53910391126E+03  0.00000000000E+00 0.  1.
        -24    2    1    2    0    0 -0.75943100033E+03  0.45986528463E+03  0.49827593362E+03  0.10212318540E+04  0.80150291575E+02 0.  0.
        254    2    1    2    0    0  0.75943100033E+03 -0.45986528463E+03  0.11447198762E+04  0.16999717784E+04  0.88955546656E+03 0.  0.
         23    2    4    4    0    0  0.34084598954E+03 -0.20370127326E+03 -0.44980613733E+02  0.40973204067E+03  0.90481446899E+02 0.  0.
         23    2    4    4    0    0  0.41858501080E+03 -0.25616401137E+03  0.11897004900E+04  0.12902397377E+04  0.92184125734E+02 0.  0.
          3    1    3    3  502    0 -0.32659707518E+03  0.15784865105E+03  0.22552559692E+03  0.42713421898E+03  0.00000000000E+00 0. -1.
         -4    1    3    3    0  502 -0.43283392515E+03  0.30201663357E+03  0.27275033671E+03  0.59409763498E+03  0.00000000000E+00 0.  1.
         11    1    5    5    0    0  0.31458608586E+03 -0.16728068721E+03 -0.62120684226E+02  0.36167141599E+03  0.00000000000E+00 0. -1.
        -11    1    5    5    0    0  0.26259903674E+02 -0.36420586046E+02  0.17140070493E+02  0.48060624688E+02  0.00000000000E+00 0.  1.
          2    1    6    6  503    0  0.31618303512E+03 -0.17644384080E+03  0.96588335767E+03  0.10315206257E+04  0.00000000000E+00 0. -1.
         -2    1    6    6    0  503  0.10240197567E+03 -0.79720170567E+02  0.22381713229E+03  0.25871911202E+03  0.00000000000E+00 0.  1.
<mgrwt>
<rscale>  0 0.21692197E+04</rscale>
<asrwt>0</asrwt>
<pdfrwt beam="1">  1        1 0.33570765E+00 0.21692197E+04</pdfrwt>
<pdfrwt beam="2">  1       -2 0.82939064E-01 0.21692197E+04</pdfrwt>
<totfact> 0.22925605E+00</totfact>
</mgrwt>
</event>
<event>
12    4  0.4381187E-008  0.1518078E+04  0.7818608E-02  0.8872520E-01
          3   -1    0    0  501    0  0.00000000000E+00  0.00000000000E+00  0.46550261075E+03  0.46550261075E+03  0.00000000000E+00 0. -1.
         -4   -1    0    0    0  501 -0.00000000000E+00 -0.00000000000E+00 -0.12376728345E+04  0.12376728345E+04  0.00000000000E+00 0.  1.
        -24    2    1    2    0    0  0.28659666607E+03  0.25425353351E+03 -0.58802631851E+03  0.70638363691E+03  0.80127292061E+02 0.  0.
        254    2    1    2    0    0 -0.28659666607E+03 -0.25425353351E+03 -0.18414390527E+03  0.99679180837E+03  0.90161101540E+03 0.  0.
         23    2    4    4    0    0 -0.46497053638E+03 -0.11410821024E+03  0.21048347066E+03  0.53287212913E+03  0.10213290962E+03 0.  0.
         23    2    4    4    0    0  0.17837387031E+03 -0.14014532327E+03 -0.39462737593E+03  0.46391967925E+03  0.89625630875E+02 0.  0.
          3    1    3    3  502    0  0.23576283508E+03  0.21059295687E+03 -0.53291326649E+03  0.61962089820E+03  0.00000000000E+00 0. -1.
         -4    1    3    3    0  502  0.50833830989E+02  0.43660576640E+02 -0.55113052021E+02  0.86762738711E+02  0.00000000000E+00 0.  1.
         11    1    5    5    0    0 -0.46775397750E+03 -0.10542501416E+03  0.20161021224E+03  0.52014891594E+03  0.00000000000E+00 0. -1.
        -11    1    5    5    0    0  0.27834411180E+01 -0.86831960757E+01  0.88732584282E+01  0.12723213182E+02  0.00000000000E+00 0.  1.
          2    1    6    6  503    0  0.10222112942E+03 -0.59559364912E+02 -0.28230169556E+03  0.30608940617E+03  0.00000000000E+00 0. -1.
         -2    1    6    6    0  503  0.76152740891E+02 -0.80585958357E+02 -0.11232568037E+03  0.15783027308E+03  0.00000000000E+00 0.  1.
<mgrwt>
<rscale>  0 0.15180776E+04</rscale>
<asrwt>0</asrwt>
<pdfrwt beam="1">  1        3 0.71615787E-01 0.15180776E+04</pdfrwt>
<pdfrwt beam="2">  1       -4 0.19041120E+00 0.15180776E+04</pdfrwt>
<totfact> 0.62526216E-01</totfact>
</mgrwt>
</event>
<event>
12    4  0.4381187E-008  0.2232445E+04  0.7818608E-02  0.8505044E-01
          1   -1    0    0  501    0  0.00000000000E+00  0.00000000000E+00  0.81299658747E+03  0.81299658747E+03  0.00000000000E+00 0. -1.
         -2   -1    0    0    0  501 -0.00000000000E+00 -0.00000000000E+00 -0.15325439793E+04  0.15325439793E+04  0.00000000000E+00 0.  1.
        -24    2    1    2    0    0 -0.55247588752E+03  0.28949412928E+02  0.48757681125E+03  0.74169726717E+03  0.79473356915E+02 0.  0.
        254    2    1    2    0    0  0.55247588752E+03 -0.28949412928E+02 -0.12071242031E+04  0.16038432996E+04  0.89949808960E+03 0.  0.
         23    2    4    4    0    0  0.27909700328E+03  0.12035083809E+03 -0.12396920191E+04  0.12798393024E+04  0.93663633268E+02 0.  0.
         23    2    4    4    0    0  0.27337888424E+03 -0.14930025102E+03  0.32567816052E+02  0.32400399720E+03  0.83014144915E+02 0.  0.
          1    1    3    3  502    0 -0.44420479489E+03  0.87304368284E+01  0.42593170890E+03  0.61547700280E+03  0.00000000000E+00 0. -1.
         -2    1    3    3    0  502 -0.10827109263E+03  0.20218976099E+02  0.61645102353E+02  0.12622026437E+03  0.00000000000E+00 0.  1.
         11    1    5    5    0    0  0.18172138279E+03  0.84097459125E+02 -0.97771947342E+03  0.99801323252E+03  0.00000000000E+00 0.  1.
        -11    1    5    5    0    0  0.97375620497E+02  0.36253378968E+02 -0.26197254572E+03  0.28182606988E+03  0.00000000000E+00 0. -1.
          1    1    6    6  503    0  0.14112539941E+03 -0.11233877053E+03  0.45637233355E+02  0.18606217990E+03  0.00000000000E+00 0. -1.
         -1    1    6    6    0  503  0.13225348483E+03 -0.36961480489E+02 -0.13069417303E+02  0.13794181729E+03  0.00000000000E+00 0.  1.
<mgrwt>
<rscale>  0 0.22324453E+04</rscale>
<asrwt>0</asrwt>
<pdfrwt beam="1">  1        1 0.12507640E+00 0.22324453E+04</pdfrwt>
<pdfrwt beam="2">  1       -2 0.23577599E+00 0.22324453E+04</pdfrwt>
<totfact> 0.13503567E+00</totfact>
</mgrwt>
</event>
<event>
12    4  0.4381187E-008  0.2054081E+04  0.7818608E-02  0.8581745E-01
         -2   -1    0    0    0  501 -0.00000000000E+00  0.00000000000E+00  0.56531954896E+03  0.56531954896E+03  0.00000000000E+00 0.  1.
          1   -1    0    0  501    0  0.00000000000E+00 -0.00000000000E+00 -0.18658693988E+04  0.18658693988E+04  0.00000000000E+00 0. -1.
        -24    2    1    2    0    0  0.33130228045E+03 -0.13230979345E+03 -0.14080272206E+04  0.14547478567E+04  0.80520743154E+02 0.  0.
        254    2    1    2    0    0 -0.33130228045E+03  0.13230979345E+03  0.10747737079E+03  0.97644109106E+03  0.90256231730E+03 0.  0.
         23    2    4    4    0    0 -0.12324064667E+03 -0.37893684280E+03  0.95956011695E+02  0.41806275132E+03  0.82386406873E+02 0.  0.
         23    2    4    4    0    0 -0.20806163378E+03  0.51124663625E+03  0.11521359092E+02  0.55837833974E+03  0.83611375110E+02 0.  0.
          3    1    3    3  502    0  0.18553276332E+03 -0.31097472687E+02 -0.70464453396E+03  0.72932391865E+03  0.00000000000E+00 0. -1.
         -4    1    3    3    0  502  0.14576951713E+03 -0.10121232076E+03 -0.70338268663E+03  0.72542393802E+03  0.00000000000E+00 0.  1.
         11    1    5    5    0    0 -0.10962127311E+03 -0.34599138059E+03  0.11075311096E+03  0.37946424146E+03  0.00000000000E+00 0. -1.
        -11    1    5    5    0    0 -0.13619373559E+02 -0.32945462214E+02 -0.14797099269E+02  0.38598509860E+02  0.00000000000E+00 0.  1.
          4    1    6    6  503    0 -0.21596870133E+03  0.49446736814E+03  0.89219865510E+01  0.53964808899E+03  0.00000000000E+00 0. -1.
         -4    1    6    6    0  503  0.79070675476E+01  0.16779268115E+02  0.25993725406E+01  0.18730250753E+02  0.00000000000E+00 0.  1.
<mgrwt>
<rscale>  0 0.20540813E+04</rscale>
<asrwt>0</asrwt>
<pdfrwt beam="1">  1        1 0.28705684E+00 0.20540813E+04</pdfrwt>
<pdfrwt beam="2">  1       -2 0.86972237E-01 0.20540813E+04</pdfrwt>
<totfact> 0.34069937E+00</totfact>
</mgrwt>
</event>
<event>
12    4  0.4381187E-008  0.2367055E+04  0.7818608E-02  0.8451942E-01
         -2   -1    0    0    0  501 -0.00000000000E+00  0.00000000000E+00  0.13240375416E+04  0.13240375416E+04  0.00000000000E+00 0.  1.
          1   -1    0    0  501    0  0.00000000000E+00 -0.00000000000E+00 -0.10579284832E+04  0.10579284832E+04  0.00000000000E+00 0. -1.
        -24    2    1    2    0    0  0.42356487534E+03  0.74477121193E+02 -0.80143143278E+03  0.91315167323E+03  0.81237870943E+02 0.  0.
        254    2    1    2    0    0 -0.42356487534E+03 -0.74477121193E+02  0.10675404912E+04  0.14688143515E+04  0.91258909361E+03 0.  0.
         23    2    4    4    0    0  0.22228469919E+03  0.17569309898E+03  0.42944618615E+03  0.52236525440E+03  0.90348656224E+02 0.  0.
         23    2    4    4    0    0 -0.64584957453E+03 -0.25017022017E+03  0.63809430504E+03  0.94644909714E+03  0.94311925991E+02 0.  0.
          3    1    3    3  502    0  0.36258981072E+03  0.35678779312E+02 -0.64388148762E+03  0.73981600160E+03  0.00000000000E+00 0. -1.
         -4    1    3    3    0  502  0.60975064615E+02  0.38798341881E+02 -0.15754994516E+03  0.17333567163E+03  0.00000000000E+00 0.  1.
         11    1    5    5    0    0  0.14704320753E+03  0.10787890616E+03  0.34602703706E+03  0.39114482440E+03  0.00000000000E+00 0.  1.
        -11    1    5    5    0    0  0.75241491664E+02  0.67814192816E+02  0.83419149084E+02  0.13122043000E+03  0.00000000000E+00 0. -1.
          1    1    6    6  503    0  0.30306279778E+01 -0.21728197675E+01  0.95565955055E+00  0.38495632036E+01  0.00000000000E+00 0. -1.
         -1    1    6    6    0  503 -0.64888020250E+03 -0.24799740040E+03  0.63713864549E+03  0.94259953394E+03  0.00000000000E+00 0.  1.
<mgrwt>
<rscale>  0 0.23670547E+04</rscale>
<asrwt>0</asrwt>
<pdfrwt beam="1">  1        1 0.16275823E+00 0.23670547E+04</pdfrwt>
<pdfrwt beam="2">  1       -2 0.20369808E+00 0.23670547E+04</pdfrwt>
<totfact> 0.13528893E+00</totfact>
</mgrwt>
</event>
<event>
12    4  0.4381187E-008  0.4193623E+04  0.7818608E-02  0.7966586E-01
         -2   -1    0    0    0  501 -0.00000000000E+00  0.00000000000E+00  0.11150611734E+04  0.11150611734E+04  0.00000000000E+00 0.  1.
          1   -1    0    0  501    0  0.00000000000E+00 -0.00000000000E+00 -0.39429387103E+04  0.39429387103E+04  0.00000000000E+00 0. -1.
        -24    2    1    2    0    0  0.18205316668E+04 -0.40693035213E+02 -0.23515480139E+04  0.29752351583E+04  0.79086737989E+02 0.  0.
        254    2    1    2    0    0 -0.18205316668E+04  0.40693035213E+02 -0.47632952299E+03  0.20827647254E+04  0.89164321004E+03 0.  0.
         23    2    4    4    0    0 -0.11704207973E+04 -0.34910629410E+03 -0.48958730938E+03  0.13192511774E+04  0.94698934791E+02 0.  0.
         23    2    4    4    0    0 -0.65011086954E+03  0.38979932931E+03  0.13257786395E+02  0.76351354804E+03  0.90495907714E+02 0.  0.
          3    1    3    3  502    0  0.51081284053E+03  0.15630969648E+02 -0.62238788915E+03  0.80532029021E+03  0.00000000000E+00 0. -1.
         -4    1    3    3    0  502  0.13097188263E+04 -0.56324004862E+02 -0.17291601248E+04  0.21699148681E+04  0.00000000000E+00 0.  1.
         11    1    5    5    0    0 -0.11307725976E+04 -0.32075998461E+03 -0.45974063336E+03  0.12620994751E+04  0.00000000000E+00 0. -1.
        -11    1    5    5    0    0 -0.39648199682E+02 -0.28346309487E+02 -0.29846676021E+02  0.57151702241E+02  0.00000000000E+00 0.  1.
          1    1    6    6  503    0 -0.53188179250E+03  0.28613387013E+03  0.33955989716E+02  0.60491639263E+03  0.00000000000E+00 0. -1.
         -1    1    6    6    0  503 -0.11822907704E+03  0.10366545918E+03 -0.20698203321E+02  0.15859715542E+03  0.00000000000E+00 0.  1.
<mgrwt>
<rscale>  0 0.41936227E+04</rscale>
<asrwt>0</asrwt>
<pdfrwt beam="1">  1        1 0.60660594E+00 0.41936227E+04</pdfrwt>
<pdfrwt beam="2">  1       -2 0.17154788E+00 0.41936227E+04</pdfrwt>
<totfact> 0.15142385E-02</totfact>
</mgrwt>
</event>
<event>
12    4  0.4381187E-008  0.3144184E+04  0.7818608E-02  0.8203715E-01
          1   -1    0    0  501    0  0.00000000000E+00  0.00000000000E+00  0.31527286521E+04  0.31527286521E+04  0.00000000000E+00 0. -1.
         -2   -1    0    0    0  501 -0.00000000000E+00 -0.00000000000E+00 -0.78391586990E+03  0.78391586990E+03  0.00000000000E+00 0.  1.
        -24    2    1    2    0    0  0.38812891532E+03  0.16420321720E+03  0.28156260983E+04  0.28481134454E+04  0.79956994036E+02 0.  0.
        254    2    1    2    0    0 -0.38812891532E+03 -0.16420321720E+03 -0.44681331604E+03  0.10885310767E+04  0.89869406031E+03 0.  0.
         23    2    4    4    0    0 -0.50397493336E+03 -0.66406375750E+02 -0.64273702162E+03  0.82450453368E+03  0.91084064986E+02 0.  0.
         23    2    4    4    0    0  0.11584601804E+03 -0.97796841446E+02  0.19592370558E+03  0.26402654299E+03  0.91320287456E+02 0.  0.
          1    1    3    3  502    0  0.37940140806E+03  0.17189817910E+03  0.27056837271E+04  0.27375570941E+04  0.00000000000E+00 0. -1.
         -2    1    3    3    0  502  0.87275072557E+01 -0.76949619044E+01  0.10994237117E+03  0.11055635124E+03  0.00000000000E+00 0.  1.
         11    1    5    5    0    0 -0.22521314502E+03 -0.13598948140E+02 -0.21809441778E+03  0.31380099928E+03  0.00000000000E+00 0. -1.
        -11    1    5    5    0    0 -0.27876178833E+03 -0.52807427610E+02 -0.42464260385E+03  0.51070353440E+03  0.00000000000E+00 0.  1.
          3    1    6    6  503    0  0.19219869105E+01 -0.46051850018E+02  0.85554897101E+02  0.97180797186E+02  0.00000000000E+00 0. -1.
         -3    1    6    6    0  503  0.11392403113E+03 -0.51744991428E+02  0.11036880848E+03  0.16684574580E+03  0.00000000000E+00 0.  1.
<mgrwt>
<rscale>  0 0.31441845E+04</rscale>
<asrwt>0</asrwt>
<pdfrwt beam="1">  1        1 0.48503517E+00 0.31441845E+04</pdfrwt>
<pdfrwt beam="2">  1       -2 0.12060244E+00 0.31441845E+04</pdfrwt>
<totfact> 0.17881248E-01</totfact>
</mgrwt>
</event>
<event>
12    4  0.4381187E-008  0.1497352E+04  0.7818608E-02  0.8886216E-01
         -2   -1    0    0    0  501 -0.00000000000E+00  0.00000000000E+00  0.37082029782E+03  0.37082029782E+03  0.00000000000E+00 0.  1.
          1   -1    0    0  501    0  0.00000000000E+00 -0.00000000000E+00 -0.15115553123E+04  0.15115553123E+04  0.00000000000E+00 0. -1.
        -24    2    1    2    0    0  0.74881946309E+02  0.65311665814E+02 -0.96732133523E+03  0.97589970116E+03  0.82442352860E+02 0.  0.
        254    2    1    2    0    0 -0.74881946309E+02 -0.65311665814E+02 -0.17341367926E+03  0.90647590898E+03  0.88416816830E+03 0.  0.
         23    2    4    4    0    0  0.37377962930E+03 -0.46158429422E+02  0.57729940318E+02  0.39265400348E+03  0.94882077082E+02 0.  0.
         23    2    4    4    0    0 -0.44866157561E+03 -0.19153236392E+02 -0.23114361958E+03  0.51382190550E+03  0.94453807800E+02 0.  0.
          1    1    3    3  502    0  0.76373823579E+02  0.74901951699E+02 -0.95033017438E+03  0.95633190035E+03  0.00000000000E+00 0. -1.
         -2    1    3    3    0  502 -0.14918772698E+01 -0.95902858846E+01 -0.16991160856E+02  0.19567800806E+02  0.00000000000E+00 0.  1.
         11    1    5    5    0    0  0.54128681718E+02 -0.11559793485E+02 -0.24893336644E+02  0.60689547858E+02  0.00000000000E+00 0.  1.
        -11    1    5    5    0    0  0.31965094758E+03 -0.34598635937E+02  0.82623276962E+02  0.33196445562E+03  0.00000000000E+00 0. -1.
          1    1    6    6  503    0 -0.37722126053E+03  0.18703393784E+02 -0.19803605982E+03  0.42645512932E+03  0.00000000000E+00 0. -1.
         -1    1    6    6    0  503 -0.71440315083E+02 -0.37856630176E+02 -0.33107559755E+02  0.87366776181E+02  0.00000000000E+00 0.  1.
<mgrwt>
<rscale>  0 0.14973515E+04</rscale>
<asrwt>0</asrwt>
<pdfrwt beam="1">  1        1 0.23254697E+00 0.14973515E+04</pdfrwt>
<pdfrwt beam="2">  1       -2 0.57049277E-01 0.14973515E+04</pdfrwt>
<totfact> 0.15703798E+01</totfact>
</mgrwt>
</event>
<event>
12    4  0.4381187E-008  0.2532588E+04  0.7818608E-02  0.8391467E-01
         -2   -1    0    0    0  501 -0.00000000000E+00  0.00000000000E+00  0.81515048144E+03  0.81515048144E+03  0.00000000000E+00 0.  1.
          1   -1    0    0  501    0  0.00000000000E+00 -0.00000000000E+00 -0.19671225086E+04  0.19671225086E+04  0.00000000000E+00 0. -1.
        -24    2    1    2    0    0 -0.94574718862E+03 -0.23923371518E+03 -0.10825506294E+04  0.14593474837E+04  0.78158157913E+02 0.  0.
        254    2    1    2    0    0  0.94574718862E+03  0.23923371518E+03 -0.69421397791E+02  0.13229255064E+04  0.89086589885E+03 0.  0.
         23    2    4    4    0    0  0.85379815177E+03  0.46869979871E+03 -0.24239939797E+03  0.10073554960E+04  0.85772034361E+02 0.  0.
         23    2    4    4    0    0  0.91949036850E+02 -0.22946608353E+03  0.17297800017E+03  0.31557001041E+03  0.92486399318E+02 0.  0.
          3    1    3    3  502    0 -0.94600487079E+03 -0.23855002535E+03 -0.10747901456E+04  0.14515526815E+04  0.00000000000E+00 0. -1.
         -4    1    3    3    0  502  0.25768216557E+00 -0.68368983017E+00 -0.77604838129E+01  0.77948021715E+01  0.00000000000E+00 0.  1.
         11    1    5    5    0    0  0.38687985897E+03  0.25918351378E+03 -0.12818396176E+03  0.48299404463E+03  0.00000000000E+00 0.  1.
        -11    1    5    5    0    0  0.46691829280E+03  0.20951628493E+03 -0.11421543621E+03  0.52436145136E+03  0.00000000000E+00 0. -1.
          1    1    6    6  503    0  0.59670688318E+02 -0.52175508697E+02  0.27260235556E+02  0.83821209695E+02  0.00000000000E+00 0. -1.
         -1    1    6    6    0  503  0.32278348532E+02 -0.17729057483E+03  0.14571776462E+03  0.23174880071E+03  0.00000000000E+00 0.  1.
<mgrwt>
<rscale>  0 0.25325883E+04</rscale>
<asrwt>0</asrwt>
<pdfrwt beam="1">  1        1 0.30263423E+00 0.25325883E+04</pdfrwt>
<pdfrwt beam="2">  1       -2 0.12540777E+00 0.25325883E+04</pdfrwt>
<totfact> 0.11614242E+00</totfact>
</mgrwt>
</event>
<event>
12    4  0.4381187E-008  0.1189846E+04  0.7818608E-02  0.9121791E-01
         -2   -1    0    0    0  501 -0.00000000000E+00  0.00000000000E+00  0.29498295417E+03  0.29498295417E+03  0.00000000000E+00 0.  1.
          1   -1    0    0  501    0  0.00000000000E+00 -0.00000000000E+00 -0.11998441237E+04  0.11998441237E+04  0.00000000000E+00 0. -1.
        -24    2    1    2    0    0 -0.13618052740E+03 -0.17248273274E+03 -0.84065497925E+02  0.24850442859E+03  0.79950071598E+02 0.  0.
        254    2    1    2    0    0  0.13618052740E+03  0.17248273274E+03 -0.82079567163E+03  0.12463226493E+04  0.91176706590E+03 0.  0.
         23    2    4    4    0    0 -0.36854244910E+03  0.18034289075E+03 -0.30423503001E+03  0.51871129881E+03  0.90307048420E+02 0.  0.
         23    2    4    4    0    0  0.50472297650E+03 -0.78601580069E+01 -0.51656064161E+03  0.72761135049E+03  0.88183421389E+02 0.  0.
          3    1    3    3  502    0 -0.75215259137E+01 -0.22213337459E+02  0.14410532407E+02  0.27525790768E+02  0.00000000000E+00 0. -1.
         -4    1    3    3    0  502 -0.12865900148E+03 -0.15026939529E+03 -0.98476030332E+02  0.22097863782E+03  0.00000000000E+00 0.  1.
         11    1    5    5    0    0 -0.29036350119E+03  0.17358284717E+03 -0.27116088382E+03  0.43355529355E+03  0.00000000000E+00 0.  1.
        -11    1    5    5    0    0 -0.78178947904E+02  0.67600435860E+01 -0.33074146196E+02  0.85156005257E+02  0.00000000000E+00 0. -1.
          1    1    6    6  503    0  0.31358186380E+03  0.31986766440E+02 -0.28753027865E+03  0.42665020763E+03  0.00000000000E+00 0. -1.
         -1    1    6    6    0  503  0.19114111270E+03 -0.39846924447E+02 -0.22903036296E+03  0.30096114286E+03  0.00000000000E+00 0.  1.
<mgrwt>
<rscale>  0 0.11898463E+04</rscale>
<asrwt>0</asrwt>
<pdfrwt beam="1">  1        1 0.18459140E+00 0.11898463E+04</pdfrwt>
<pdfrwt beam="2">  1       -2 0.45381993E-01 0.11898463E+04</pdfrwt>
<totfact> 0.42741001E+01</totfact>
</mgrwt>
</event>
<event>
12    4  0.4381187E-008  0.1326192E+04  0.7818608E-02  0.9009049E-01
          1   -1    0    0  501    0  0.00000000000E+00  0.00000000000E+00  0.23066940779E+04  0.23066940779E+04  0.00000000000E+00 0. -1.
         -2   -1    0    0    0  501 -0.00000000000E+00 -0.00000000000E+00 -0.19061750110E+03  0.19061750110E+03  0.00000000000E+00 0.  1.
        -24    2    1    2    0    0  0.15160253276E+03  0.31049663240E+03  0.46815938603E+03  0.58714722593E+03  0.78594958622E+02 0.  0.
        254    2    1    2    0    0 -0.15160253276E+03 -0.31049663240E+03  0.16479171908E+04  0.19101643531E+04  0.90205615205E+03 0.  0.
         23    2    4    4    0    0 -0.15535325787E+03 -0.22481537445E+03  0.17339056169E+04  0.17576507209E+04  0.90723650814E+02 0.  0.
         23    2    4    4    0    0  0.37507251106E+01 -0.85681257946E+02 -0.85988426118E+02  0.15251363225E+03  0.92255366745E+02 0.  0.
          3    1    3    3  502    0  0.12963505084E+03  0.23565567238E+03  0.40786318040E+03  0.48856035068E+03  0.00000000000E+00 0. -1.
         -4    1    3    3    0  502  0.21967481922E+02  0.74840960015E+02  0.60296205627E+02  0.98586875247E+02  0.00000000000E+00 0.  1.
         11    1    5    5    0    0 -0.12566698277E+03 -0.13410201037E+03  0.92072397844E+03  0.93888667272E+03  0.00000000000E+00 0. -1.
        -11    1    5    5    0    0 -0.29686275097E+02 -0.90713364084E+02  0.81318163848E+03  0.81876404813E+03  0.00000000000E+00 0.  1.
          1    1    6    6  503    0  0.13899707732E+02  0.17453173192E+02 -0.16212809006E+02  0.27580252090E+02  0.00000000000E+00 0. -1.
         -1    1    6    6    0  503 -0.10148982622E+02 -0.10313443114E+03 -0.69775617112E+02  0.12493338016E+03  0.00000000000E+00 0.  1.
<mgrwt>
<rscale>  0 0.13261919E+04</rscale>
<asrwt>0</asrwt>
<pdfrwt beam="1">  1        1 0.35487599E+00 0.13261919E+04</pdfrwt>
<pdfrwt beam="2">  1       -2 0.29325771E-01 0.13261919E+04</pdfrwt>
<totfact> 0.17011259E+01</totfact>
</mgrwt>
</event>
<event>
12    4  0.4381187E-008  0.2267826E+04  0.7818608E-02  0.8490716E-01
         -2   -1    0    0    0  501 -0.00000000000E+00  0.00000000000E+00  0.97913382380E+03  0.97913382380E+03  0.00000000000E+00 0.  1.
          1   -1    0    0  501    0  0.00000000000E+00 -0.00000000000E+00 -0.13131597260E+04  0.13131597260E+04  0.00000000000E+00 0. -1.
        -24    2    1    2    0    0 -0.78608139546E+03 -0.30404694550E+02  0.40389806603E+03  0.88795192569E+03  0.80477132561E+02 0.  0.
        254    2    1    2    0    0  0.78608139546E+03  0.30404694550E+02 -0.73792396822E+03  0.14043416241E+04  0.89933042235E+03 0.  0.
         23    2    4    4    0    0  0.58581844074E+03  0.99358666080E+02 -0.92791710337E+03  0.11055495946E+04  0.90301524345E+02 0.  0.
         23    2    4    4    0    0  0.20026295472E+03 -0.68953971530E+02  0.18999313515E+03  0.29879202952E+03  0.91210658810E+02 0.  0.
          1    1    3    3  502    0 -0.43694213308E+02 -0.20567655582E+02  0.26519772558E+02  0.55095472312E+02  0.00000000000E+00 0. -1.
         -2    1    3    3    0  502 -0.74238718215E+03 -0.98370389676E+01  0.37737829347E+03  0.83285645338E+03  0.00000000000E+00 0.  1.
         11    1    5    5    0    0  0.18294906995E+03 -0.10232826282E+02 -0.26812881288E+03  0.32475857683E+03  0.00000000000E+00 0.  1.
        -11    1    5    5    0    0  0.40286937079E+03  0.10959149236E+03 -0.65978829049E+03  0.78079101774E+03  0.00000000000E+00 0. -1.
          1    1    6    6  503    0  0.20502109494E+03 -0.77506226882E+02  0.17319836448E+03  0.27935378650E+03  0.00000000000E+00 0. -1.
         -1    1    6    6    0  503 -0.47581402175E+01  0.85522553528E+01  0.16794770668E+02  0.19438243021E+02  0.00000000000E+00 0.  1.
<mgrwt>
<rscale>  0 0.22678264E+04</rscale>
<asrwt>0</asrwt>
<pdfrwt beam="1">  1        1 0.20202457E+00 0.22678264E+04</pdfrwt>
<pdfrwt beam="2">  1       -2 0.15063597E+00 0.22678264E+04</pdfrwt>
<totfact> 0.20861054E+00</totfact>
</mgrwt>
</event>
<event>
12    4  0.4381187E-008  0.1114062E+04  0.7818608E-02  0.9191594E-01
          1   -1    0    0  501    0  0.00000000000E+00  0.00000000000E+00  0.21533407080E+03  0.21533407080E+03  0.00000000000E+00 0. -1.
         -2   -1    0    0    0  501 -0.00000000000E+00 -0.00000000000E+00 -0.14409394348E+04  0.14409394348E+04  0.00000000000E+00 0.  1.
        -24    2    1    2    0    0  0.13513186586E+02 -0.50649968913E+02 -0.47006681149E+03  0.47968933296E+03  0.79943876127E+02 0.  0.
        254    2    1    2    0    0 -0.13513186586E+02  0.50649968913E+02 -0.75553855246E+03  0.11765841726E+04  0.90042422521E+03 0.  0.
         23    2    4    4    0    0  0.42985502757E+02  0.18643707421E+03 -0.91693605340E+03  0.94113421045E+03  0.91407548670E+02 0.  0.
         23    2    4    4    0    0 -0.56498689344E+02 -0.13578710530E+03  0.16139750094E+03  0.23544996214E+03  0.88075487500E+02 0.  0.
          3    1    3    3  502    0  0.35684273121E+02 -0.11431477082E+02 -0.98244601303E+02  0.10514774226E+03  0.00000000000E+00 0. -1.
         -4    1    3    3    0  502 -0.22171086535E+02 -0.39218491831E+02 -0.37182221019E+03  0.37454159071E+03  0.00000000000E+00 0.  1.
         11    1    5    5    0    0  0.54745722220E+02  0.18214203397E+03 -0.75036527132E+03  0.77409356996E+03  0.00000000000E+00 0.  1.
        -11    1    5    5    0    0 -0.11760219463E+02  0.42950402418E+01 -0.16657078208E+03  0.16704064049E+03  0.00000000000E+00 0. -1.
          1    1    6    6  503    0 -0.17388918224E+02 -0.30877173825E+02 -0.40618336301E+01  0.35668933722E+02  0.00000000000E+00 0. -1.
         -1    1    6    6    0  503 -0.39109771120E+02 -0.10490993148E+03  0.16545933457E+03  0.19978102842E+03  0.00000000000E+00 0.  1.
<mgrwt>
<rscale>  0 0.11140617E+04</rscale>
<asrwt>0</asrwt>
<pdfrwt beam="1">  1        1 0.33128319E-01 0.11140617E+04</pdfrwt>
<pdfrwt beam="2">  1       -2 0.22168299E+00 0.11140617E+04</pdfrwt>
<totfact> 0.11320390E+01</totfact>
</mgrwt>
</event>
<event>
12    4  0.4381187E-008  0.2207904E+04  0.7818608E-02  0.8515146E-01
          1   -1    0    0  501    0  0.00000000000E+00  0.00000000000E+00  0.73511996729E+03  0.73511996729E+03  0.00000000000E+00 0. -1.
         -2   -1    0    0    0  501 -0.00000000000E+00 -0.00000000000E+00 -0.16578378359E+04  0.16578378359E+04  0.00000000000E+00 0.  1.
        -24    2    1    2    0    0  0.82309504652E+03 -0.13066933996E+03  0.35443688036E+02  0.83808309636E+03  0.81037579926E+02 0.  0.
        254    2    1    2    0    0 -0.82309504652E+03  0.13066933996E+03 -0.95816155661E+03  0.15548747068E+04  0.89721895503E+03 0.  0.
         23    2    4    4    0    0 -0.43123324269E+03  0.18518916134E+03  0.37514508838E+02  0.47963655527E+03  0.91579209994E+02 0.  0.
         23    2    4    4    0    0 -0.39186180384E+03 -0.54519821380E+02 -0.99567606544E+03  0.10752381515E+04  0.90764370599E+02 0.  0.
          1    1    3    3  502    0  0.27258282629E+03 -0.24657666869E+02  0.45025388077E+02  0.27737462626E+03  0.00000000000E+00 0. -1.
         -2    1    3    3    0  502  0.55051222024E+03 -0.10601167309E+03 -0.95817000408E+01  0.56070847010E+03  0.00000000000E+00 0.  1.
         11    1    5    5    0    0 -0.37917042632E+03  0.18476725031E+03  0.53502523982E+02  0.42517251681E+03  0.00000000000E+00 0.  1.
        -11    1    5    5    0    0 -0.52062816366E+02  0.42191103753E+00 -0.15988015145E+02  0.54464038458E+02  0.00000000000E+00 0. -1.
          2    1    6    6  503    0 -0.12712916677E+03  0.24554700389E+02 -0.30443300393E+03  0.33082353640E+03  0.00000000000E+00 0. -1.
         -2    1    6    6    0  503 -0.26473263707E+03 -0.79074521770E+02 -0.69124306151E+03  0.74441461513E+03  0.00000000000E+00 0.  1.
<mgrwt>
<rscale>  0 0.22079037E+04</rscale>
<asrwt>0</asrwt>
<pdfrwt beam="1">  1        1 0.11309538E+00 0.22079037E+04</pdfrwt>
<pdfrwt beam="2">  1       -2 0.25505197E+00 0.22079037E+04</pdfrwt>
<totfact> 0.12068483E+00</totfact>
</mgrwt>
</event>
<event>
12    4  0.4381187E-008  0.2435905E+04  0.7818608E-02  0.8426182E-01
          1   -1    0    0  501    0  0.00000000000E+00  0.00000000000E+00  0.18635489336E+04  0.18635489336E+04  0.00000000000E+00 0. -1.
         -2   -1    0    0    0  501 -0.00000000000E+00 -0.00000000000E+00 -0.79601268560E+03  0.79601268560E+03  0.00000000000E+00 0.  1.
        -24    2    1    2    0    0 -0.10344299584E+04 -0.21614448023E+03  0.26170174326E+03  0.10914246166E+04  0.77175877986E+02 0.  0.
        254    2    1    2    0    0  0.10344299584E+04  0.21614448023E+03  0.80583450474E+03  0.15681370026E+04  0.83241854526E+03 0.  0.
         23    2    4    4    0    0 -0.10226599109E+03  0.10785561317E+03  0.12153544810E+02  0.17467598326E+03  0.90955067207E+02 0.  0.
         23    2    4    4    0    0  0.11366959495E+04  0.10828886705E+03  0.79368095993E+03  0.13934610193E+04  0.89442639189E+02 0.  0.
          3    1    3    3  502    0 -0.41405047723E+03 -0.52167910672E+02  0.12074698641E+03  0.43444116210E+03  0.00000000000E+00 0. -1.
         -4    1    3    3    0  502 -0.62037948121E+03 -0.16397656955E+03  0.14095475684E+03  0.65698345455E+03  0.00000000000E+00 0.  1.
         11    1    5    5    0    0 -0.96402324877E+02  0.12010325133E+03 -0.33797236351E+01  0.15404422012E+03  0.00000000000E+00 0. -1.
        -11    1    5    5    0    0 -0.58636662145E+01 -0.12247638152E+02  0.15533268445E+02  0.20631763143E+02  0.00000000000E+00 0.  1.
          3    1    6    6  503    0  0.63356741482E+03  0.10479128899E+03  0.44952459099E+03  0.78387578179E+03  0.00000000000E+00 0. -1.
         -3    1    6    6    0  503  0.50312853472E+03  0.34975780659E+01  0.34415636894E+03  0.60958523750E+03  0.00000000000E+00 0.  1.
<mgrwt>
<rscale>  0 0.24359052E+04</rscale>
<asrwt>0</asrwt>
<pdfrwt beam="1">  1        1 0.28669984E+00 0.24359052E+04</pdfrwt>
<pdfrwt beam="2">  1       -2 0.12246349E+00 0.24359052E+04</pdfrwt>
<totfact> 0.14611946E+00</totfact>
</mgrwt>
</event>
<event>
12    4  0.4381187E-008  0.2232000E+04  0.7818608E-02  0.8505226E-01
          1   -1    0    0  501    0  0.00000000000E+00  0.00000000000E+00  0.34730677821E+04  0.34730677821E+04  0.00000000000E+00 0. -1.
         -2   -1    0    0    0  501 -0.00000000000E+00 -0.00000000000E+00 -0.35860396186E+03  0.35860396186E+03  0.00000000000E+00 0.  1.
        -24    2    1    2    0    0 -0.65510655154E+03  0.20254728362E+03  0.23904840268E+04  0.24881862043E+04  0.80415851642E+02 0.  0.
        254    2    1    2    0    0  0.65510655154E+03 -0.20254728362E+03  0.72397979345E+03  0.13434855396E+04  0.90034252252E+03 0.  0.
         23    2    4    4    0    0  0.65621877636E+03  0.15878384859E+03  0.21948175975E+03  0.71618240410E+03  0.94390677830E+02 0.  0.
         23    2    4    4    0    0 -0.11122248213E+01 -0.36133113221E+03  0.50449803370E+03  0.62730313551E+03  0.91812491882E+02 0.  0.
          1    1    3    3  502    0 -0.56651104675E+03  0.14876727685E+03  0.20775121095E+04  0.21585001816E+04  0.00000000000E+00 0. -1.
         -2    1    3    3    0  502 -0.88595504787E+02  0.53780006772E+02  0.31297191723E+03  0.32968602271E+03  0.00000000000E+00 0.  1.
         11    1    5    5    0    0  0.38302036165E+03  0.10089616825E+03  0.80249662368E+02  0.40413443619E+03  0.00000000000E+00 0.  1.
        -11    1    5    5    0    0  0.27319841471E+03  0.57887680338E+02  0.13923209738E+03  0.31204796791E+03  0.00000000000E+00 0. -1.
          1    1    6    6  503    0  0.20419872578E+02 -0.39073901792E+02  0.30042373760E+02  0.53350587798E+02  0.00000000000E+00 0. -1.
         -1    1    6    6    0  503 -0.21532097399E+02 -0.32225723042E+03  0.47445565994E+03  0.57395254771E+03  0.00000000000E+00 0.  1.
<mgrwt>
<rscale>  0 0.22319999E+04</rscale>
<asrwt>0</asrwt>
<pdfrwt beam="1">  1        1 0.53431810E+00 0.22319999E+04</pdfrwt>
<pdfrwt beam="2">  1       -2 0.55169842E-01 0.22319999E+04</pdfrwt>
<totfact> 0.64923695E-01</totfact>
</mgrwt>
</event>
<event>
12    4  0.4381187E-008  0.1557345E+04  0.7818608E-02  0.8847190E-01
          1   -1    0    0  501    0  0.00000000000E+00  0.00000000000E+00  0.13242485992E+04  0.13242485992E+04  0.00000000000E+00 0. -1.
         -2   -1    0    0    0  501 -0.00000000000E+00 -0.00000000000E+00 -0.45786782574E+03  0.45786782574E+03  0.00000000000E+00 0.  1.
        -24    2    1    2    0    0  0.27774026880E+03 -0.43120774586E+03  0.31341087636E+03  0.60632443023E+03  0.79518301481E+02 0.  0.
        254    2    1    2    0    0 -0.27774026880E+03  0.43120774586E+03  0.55296989710E+03  0.11757919947E+04  0.90201514994E+03 0.  0.
         23    2    4    4    0    0 -0.26281678920E+03  0.28515072872E+03 -0.16934469540E+03  0.43299812488E+03  0.91794049446E+02 0.  0.
         23    2    4    4    0    0 -0.14923479602E+02  0.14605701714E+03  0.72231459250E+03  0.74279386983E+03  0.91918442231E+02 0.  0.
          1    1    3    3  502    0  0.44146317546E+02 -0.39308590192E+02  0.60908916224E+02  0.84876137349E+02  0.00000000000E+00 0. -1.
         -2    1    3    3    0  502  0.23359395125E+03 -0.39189915567E+03  0.25250196013E+03  0.52144829288E+03  0.00000000000E+00 0.  1.
         11    1    5    5    0    0 -0.12106524130E+03  0.15248734132E+03 -0.37408976044E+02  0.19826399926E+03  0.00000000000E+00 0.  1.
        -11    1    5    5    0    0 -0.14175154790E+03  0.13266338740E+03 -0.13193571935E+03  0.23473412562E+03  0.00000000000E+00 0. -1.
          3    1    6    6  503    0 -0.11994756726E+02  0.99756438322E+02  0.64383040427E+03  0.65162321217E+03  0.00000000000E+00 0. -1.
         -3    1    6    6    0  503 -0.29287228759E+01  0.46300578815E+02  0.78484188225E+02  0.91170657657E+02  0.00000000000E+00 0.  1.
<mgrwt>
<rscale>  0 0.15573450E+04</rscale>
<asrwt>0</asrwt>
<pdfrwt beam="1">  1        1 0.20373055E+00 0.15573450E+04</pdfrwt>
<pdfrwt beam="2">  1       -2 0.70441205E-01 0.15573450E+04</pdfrwt>
<totfact> 0.13461847E+01</totfact>
</mgrwt>
</event>
<event>
12    4  0.4381187E-008  0.1179534E+04  0.7818608E-02  0.9130961E-01
         -2   -1    0    0    0  501 -0.00000000000E+00  0.00000000000E+00  0.21229815210E+03  0.21229815210E+03  0.00000000000E+00 0.  1.
          1   -1    0    0  501    0  0.00000000000E+00 -0.00000000000E+00 -0.16383809044E+04  0.16383809044E+04  0.00000000000E+00 0. -1.
        -24    2    1    2    0    0  0.38758619548E+02  0.22579835496E+03 -0.24710559365E+03  0.34584809923E+03  0.77862735822E+02 0.  0.
        254    2    1    2    0    0 -0.38758619548E+02 -0.22579835496E+03 -0.11789771586E+04  0.15048309573E+04  0.90666528647E+03 0.  0.
         23    2    4    4    0    0  0.22516516261E+03 -0.30484528923E+03 -0.11489778519E+04  0.12133282641E+04  0.91571673539E+02 0.  0.
         23    2    4    4    0    0 -0.26392378216E+03  0.79046934263E+02 -0.29999306734E+02  0.29150269321E+03  0.90386288432E+02 0.  0.
          1    1    3    3  502    0  0.55553652736E+02  0.20926855647E+03 -0.20829493787E+03  0.30044353580E+03  0.00000000000E+00 0. -1.
         -2    1    3    3    0  502 -0.16795033188E+02  0.16529798495E+02 -0.38810655780E+02  0.45404563429E+02  0.00000000000E+00 0.  1.
         11    1    5    5    0    0  0.14684681234E+03 -0.24282112257E+03 -0.74594049684E+03  0.79809354632E+03  0.00000000000E+00 0.  1.
        -11    1    5    5    0    0  0.78318350275E+02 -0.62024166655E+02 -0.40303735506E+03  0.41523471774E+03  0.00000000000E+00 0. -1.
          2    1    6    6  503    0  0.35449028672E+01  0.14117467055E+02  0.61334107997E+00  0.14568644401E+02  0.00000000000E+00 0. -1.
         -2    1    6    6    0  503 -0.26746868503E+03  0.64929467208E+02 -0.30612647814E+02  0.27693404881E+03  0.00000000000E+00 0.  1.
<mgrwt>
<rscale>  0 0.11795342E+04</rscale>
<asrwt>0</asrwt>
<pdfrwt beam="1">  1        1 0.25205860E+00 0.11795342E+04</pdfrwt>
<pdfrwt beam="2">  1       -2 0.32661254E-01 0.11795342E+04</pdfrwt>
<totfact> 0.39932709E+01</totfact>
</mgrwt>
</event>
<event>
12    4  0.4381187E-008  0.2522844E+04  0.7818608E-02  0.8394892E-01
          1   -1    0    0  501    0  0.00000000000E+00  0.00000000000E+00  0.77161787541E+03  0.77161787541E+03  0.00000000000E+00 0. -1.
         -2   -1    0    0    0  501 -0.00000000000E+00 -0.00000000000E+00 -0.20621416688E+04  0.20621416688E+04  0.00000000000E+00 0.  1.
        -24    2    1    2    0    0 -0.20746312436E+03  0.94531955779E+03  0.20694816532E+02  0.97135907348E+03  0.80250606809E+02 0.  0.
        254    2    1    2    0    0  0.20746312436E+03 -0.94531955779E+03 -0.13112186099E+04  0.18624004707E+04  0.90142734374E+03 0.  0.
         23    2    4    4    0    0  0.30514098756E+02  0.32566702004E+02  0.94199304193E+02  0.13862318701E+03  0.91384784097E+02 0.  0.
         23    2    4    4    0    0  0.17694902560E+03 -0.97788625979E+03 -0.14054179141E+04  0.17237772837E+04  0.92930704229E+02 0.  0.
          1    1    3    3  502    0 -0.98435441546E+02  0.52285146164E+03  0.47986195200E+02  0.53419646388E+03  0.00000000000E+00 0. -1.
         -2    1    3    3    0  502 -0.10902768281E+03  0.42246809615E+03 -0.27291378667E+02  0.43716260960E+03  0.00000000000E+00 0.  1.
         11    1    5    5    0    0 -0.68908507791E+01 -0.16501023469E+02  0.70165659076E+02  0.72408475426E+02  0.00000000000E+00 0. -1.
        -11    1    5    5    0    0  0.37404949535E+02  0.49067725473E+02  0.24033645117E+02  0.66214711586E+02  0.00000000000E+00 0.  1.
          1    1    6    6  503    0  0.13974895076E+03 -0.84310263254E+03 -0.11525341137E+04  0.14348124273E+04  0.00000000000E+00 0. -1.
         -1    1    6    6    0  503  0.37200074839E+02 -0.13478362725E+03 -0.25288380040E+03  0.28896485642E+03  0.00000000000E+00 0.  1.
<mgrwt>
<rscale>  0 0.25228439E+04</rscale>
<asrwt>0</asrwt>
<pdfrwt beam="1">  1        1 0.11871044E+00 0.25228439E+04</pdfrwt>
<pdfrwt beam="2">  1       -2 0.31725256E+00 0.25228439E+04</pdfrwt>
<totfact> 0.45344819E-01</totfact>
</mgrwt>
</event>
<event>
12    4  0.4381187E-008  0.1776657E+04  0.7818608E-02  0.8718812E-01
          1   -1    0    0  501    0  0.00000000000E+00  0.00000000000E+00  0.11896053800E+04  0.11896053800E+04  0.00000000000E+00 0. -1.
         -2   -1    0    0    0  501 -0.00000000000E+00 -0.00000000000E+00 -0.66335234105E+03  0.66335234105E+03  0.00000000000E+00 0.  1.
        -24    2    1    2    0    0 -0.42353902573E+03 -0.46724208451E+03  0.79319217470E+01  0.63553295641E+03  0.78350184707E+02 0.  0.
        254    2    1    2    0    0  0.42353902573E+03  0.46724208451E+03  0.51832111717E+03  0.12174247646E+04  0.90319754492E+03 0.  0.
         23    2    4    4    0    0  0.39036661494E+03  0.22567507131E+03  0.74195891261E+03  0.87311603815E+03  0.92267308476E+02 0.  0.
         23    2    4    4    0    0  0.33172410797E+02  0.24156701321E+03 -0.22363779544E+03  0.34430872646E+03  0.95286960613E+02 0.  0.
          1    1    3    3  502    0 -0.32911589707E+03 -0.34820388406E+03  0.38051531785E+02  0.48063618013E+03  0.00000000000E+00 0. -1.
         -2    1    3    3    0  502 -0.94423128663E+02 -0.11903820045E+03 -0.30119610038E+02  0.15489677628E+03  0.00000000000E+00 0.  1.
         11    1    5    5    0    0  0.32106643820E+02  0.50019046627E+02  0.72265360341E+02  0.93568284734E+02  0.00000000000E+00 0.  1.
        -11    1    5    5    0    0  0.35825997112E+03  0.17565602468E+03  0.66969355227E+03  0.77954775342E+03  0.00000000000E+00 0. -1.
          3    1    6    6  503    0  0.13356007381E+02  0.19450033193E+03 -0.21873128376E+03  0.29300535243E+03  0.00000000000E+00 0. -1.
         -3    1    6    6    0  503  0.19816403416E+02  0.47066681275E+02 -0.49065116746E+01  0.51303374036E+02  0.00000000000E+00 0.  1.
<mgrwt>
<rscale>  0 0.17766570E+04</rscale>
<asrwt>0</asrwt>
<pdfrwt beam="1">  1        1 0.18301621E+00 0.17766570E+04</pdfrwt>
<pdfrwt beam="2">  1       -2 0.10205421E+00 0.17766570E+04</pdfrwt>
<totfact> 0.70971069E+00</totfact>
</mgrwt>
</event>
<event>
12    4  0.4381187E-008  0.1211007E+04  0.7818608E-02  0.9103277E-01
          1   -1    0    0  501    0  0.00000000000E+00  0.00000000000E+00  0.12911952477E+03  0.12911952477E+03  0.00000000000E+00 0. -1.
         -2   -1    0    0    0  501 -0.00000000000E+00 -0.00000000000E+00 -0.28394947595E+04  0.28394947595E+04  0.00000000000E+00 0.  1.
        -24    2    1    2    0    0 -0.51403072210E+02  0.24131666916E+03 -0.40896008840E+03  0.48420963190E+03  0.79590219702E+02 0.  0.
        254    2    1    2    0    0  0.51403072210E+02 -0.24131666916E+03 -0.23014151463E+04  0.24844046524E+04  0.90270636993E+03 0.  0.
         23    2    4    4    0    0 -0.31079230958E+03  0.53668549041E+02 -0.36597245465E+03  0.49138417539E+03  0.89724006870E+02 0.  0.
         23    2    4    4    0    0  0.36219538179E+03 -0.29498521820E+03 -0.19354426917E+04  0.19930204770E+04  0.89389234955E+02 0.  0.
          1    1    3    3  502    0 -0.63866928150E+02  0.23512684457E+03 -0.37171713657E+03  0.44445162523E+03  0.00000000000E+00 0. -1.
         -2    1    3    3    0  502  0.12463855940E+02  0.61898245919E+01 -0.37242951836E+02  0.39758006675E+02  0.00000000000E+00 0.  1.
         11    1    5    5    0    0 -0.10809252659E+02  0.66942875806E+01 -0.56181252544E+02  0.57601966691E+02  0.00000000000E+00 0.  1.
        -11    1    5    5    0    0 -0.29998305692E+03  0.46974261461E+02 -0.30979120210E+03  0.43378220870E+03  0.00000000000E+00 0. -1.
          2    1    6    6  503    0  0.23074270692E+03 -0.20550248266E+03 -0.14362764848E+04  0.14691370283E+04  0.00000000000E+00 0. -1.
         -2    1    6    6    0  503  0.13145267488E+03 -0.89482735544E+02 -0.49916620686E+03  0.52388344864E+03  0.00000000000E+00 0.  1.
<mgrwt>
<rscale>  0 0.12110065E+04</rscale>
<asrwt>0</asrwt>
<pdfrwt beam="1">  1        1 0.19864543E-01 0.12110065E+04</pdfrwt>
<pdfrwt beam="2">  1       -2 0.43684534E+00 0.12110065E+04</pdfrwt>
<totfact> 0.98596878E-01</totfact>
</mgrwt>
</event>
<event>
12    4  0.4381187E-008  0.1343202E+04  0.7818608E-02  0.8995990E-01
         -2   -1    0    0    0  501 -0.00000000000E+00  0.00000000000E+00  0.43546908560E+03  0.43546908560E+03  0.00000000000E+00 0.  1.
          1   -1    0    0  501    0  0.00000000000E+00 -0.00000000000E+00 -0.10357749249E+04  0.10357749249E+04  0.00000000000E+00 0. -1.
        -24    2    1    2    0    0 -0.38141735305E+01 -0.28627620146E+03  0.12152833108E+03  0.32074120526E+03  0.78340117810E+02 0.  0.
        254    2    1    2    0    0  0.38141735305E+01  0.28627620146E+03 -0.72183417033E+03  0.11505028052E+04  0.84890725280E+03 0.  0.
         23    2    4    4    0    0 -0.86194070058E+02  0.56483030098E+03 -0.37633611671E+03  0.69008512022E+03  0.90143850570E+02 0.  0.
         23    2    4    4    0    0  0.90008243588E+02 -0.27855409952E+03 -0.34549805362E+03  0.46041768497E+03  0.83196570267E+02 0.  0.
          1    1    3    3  502    0 -0.17748631771E+02 -0.26456577688E+03  0.90031632041E+02  0.28002813964E+03  0.00000000000E+00 0. -1.
         -2    1    3    3    0  502  0.13934458241E+02 -0.21710424580E+02  0.31496699036E+02  0.40713065618E+02  0.00000000000E+00 0.  1.
         11    1    5    5    0    0 -0.85105925884E+02  0.26827264217E+03 -0.16998587423E+03  0.32879845893E+03  0.00000000000E+00 0.  1.
        -11    1    5    5    0    0 -0.10881441741E+01  0.29655765881E+03 -0.20635024249E+03  0.36128666130E+03  0.00000000000E+00 0. -1.
          2    1    6    6  503    0 -0.84491530351E+01 -0.21765707601E+02 -0.58188823747E+02  0.62698272890E+02  0.00000000000E+00 0. -1.
         -2    1    6    6    0  503  0.98457396623E+02 -0.25678839192E+03 -0.28730922987E+03  0.39771941208E+03  0.00000000000E+00 0.  1.
<mgrwt>
<rscale>  0 0.13432021E+04</rscale>
<asrwt>0</asrwt>
<pdfrwt beam="1">  1        1 0.15934999E+00 0.13432021E+04</pdfrwt>
<pdfrwt beam="2">  1       -2 0.66995245E-01 0.13432021E+04</pdfrwt>
<totfact> 0.24924152E+01</totfact>
</mgrwt>
</event>
<event>
12    4  0.4381187E-008  0.1241847E+04  0.7818608E-02  0.9076997E-01
          1   -1    0    0  501    0  0.00000000000E+00  0.00000000000E+00  0.26298061795E+03  0.26298061795E+03  0.00000000000E+00 0. -1.
         -2   -1    0    0    0  501 -0.00000000000E+00 -0.00000000000E+00 -0.14660620168E+04  0.14660620168E+04  0.00000000000E+00 0.  1.
        -24    2    1    2    0    0  0.24929380230E+03 -0.13287761559E+03 -0.22204272927E+03  0.36758136793E+03  0.77519209491E+02 0.  0.
        254    2    1    2    0    0 -0.24929380230E+03  0.13287761559E+03 -0.98103866964E+03  0.13614612669E+04  0.90074194376E+03 0.  0.
         23    2    4    4    0    0 -0.13346404142E+01 -0.20355952451E+03 -0.89711477795E+03  0.92543935022E+03  0.10091979405E+03 0.  0.
         23    2    4    4    0    0 -0.24795916189E+03  0.33643714010E+03 -0.83923891686E+02  0.43602191664E+03  0.91641677181E+02 0.  0.
          3    1    3    3  502    0  0.11167463910E+03 -0.53240940401E+02 -0.50338668035E+02  0.13356573008E+03  0.00000000000E+00 0. -1.
         -4    1    3    3    0  502  0.13761916320E+03 -0.79636675192E+02 -0.17170406123E+03  0.23401563785E+03  0.00000000000E+00 0.  1.
         11    1    5    5    0    0  0.12541698085E+02 -0.17236299173E+03 -0.84918430938E+03  0.86659118759E+03  0.00000000000E+00 0.  1.
        -11    1    5    5    0    0 -0.13876338499E+02 -0.31196532776E+02 -0.47930468570E+02  0.58848162628E+02  0.00000000000E+00 0. -1.
          3    1    6    6  503    0 -0.78386074889E+01  0.40915239185E+02 -0.30243442201E+02  0.51479766521E+02  0.00000000000E+00 0. -1.
         -3    1    6    6    0  503 -0.24012055440E+03  0.29552190091E+03 -0.53680449485E+02  0.38454215012E+03  0.00000000000E+00 0.  1.
<mgrwt>
<rscale>  0 0.12418468E+04</rscale>
<asrwt>0</asrwt>
<pdfrwt beam="1">  1        1 0.40458557E-01 0.12418468E+04</pdfrwt>
<pdfrwt beam="2">  1       -2 0.22554800E+00 0.12418468E+04</pdfrwt>
<totfact> 0.81760250E+00</totfact>
</mgrwt>
</event>
<event>
12    4  0.4381187E-008  0.1703464E+04  0.7818608E-02  0.8759391E-01
          1   -1    0    0  501    0  0.00000000000E+00  0.00000000000E+00  0.55541957635E+03  0.55541957635E+03  0.00000000000E+00 0. -1.
         -2   -1    0    0    0  501 -0.00000000000E+00 -0.00000000000E+00 -0.13061243985E+04  0.13061243985E+04  0.00000000000E+00 0.  1.
        -24    2    1    2    0    0  0.23656405350E+03  0.13415713702E+03  0.32320787589E+03  0.42977498492E+03  0.79262335319E+02 0.  0.
        254    2    1    2    0    0 -0.23656405350E+03 -0.13415713702E+03 -0.10739126980E+04  0.14317689899E+04  0.90703542856E+03 0.  0.
         23    2    4    4    0    0 -0.27422644600E+03  0.24958149486E+03 -0.93839670575E+03  0.10129210200E+04  0.89048015473E+02 0.  0.
         23    2    4    4    0    0  0.37662392504E+02 -0.38373863188E+03 -0.13551599227E+03  0.41884796994E+03  0.91625566074E+02 0.  0.
          3    1    3    3  502    0  0.21513268052E+03  0.10994526711E+03  0.24016903818E+03  0.34066288158E+03  0.00000000000E+00 0. -1.
         -4    1    3    3    0  502  0.21431372981E+02  0.24211869910E+02  0.83038837710E+02  0.89112103334E+02  0.00000000000E+00 0.  1.
         11    1    5    5    0    0 -0.32313900404E+02  0.63108524364E+02 -0.11995226640E+03  0.13933922714E+03  0.00000000000E+00 0. -1.
        -11    1    5    5    0    0 -0.24191254560E+03  0.18647297049E+03 -0.81844443935E+03  0.87358179282E+03  0.00000000000E+00 0.  1.
          2    1    6    6  503    0 -0.84444812464E+01 -0.72472858562E+02 -0.61915002780E+02  0.95692695965E+02  0.00000000000E+00 0. -1.
         -2    1    6    6    0  503  0.46106873750E+02 -0.31126577332E+03 -0.73600989488E+02  0.32315527398E+03  0.00000000000E+00 0.  1.
<mgrwt>
<rscale>  0 0.17034636E+04</rscale>
<asrwt>0</asrwt>
<pdfrwt beam="1">  1        1 0.85449166E-01 0.17034636E+04</pdfrwt>
<pdfrwt beam="2">  1       -2 0.20094221E+00 0.17034636E+04</pdfrwt>
<totfact> 0.41724447E+00</totfact>
</mgrwt>
</event>
<event>
12    4  0.4381187E-008  0.2116736E+04  0.7818608E-02  0.8553907E-01
          1   -1    0    0  501    0  0.00000000000E+00  0.00000000000E+00  0.64655591990E+03  0.64655591990E+03  0.00000000000E+00 0. -1.
         -2   -1    0    0    0  501 -0.00000000000E+00 -0.00000000000E+00 -0.17324765389E+04  0.17324765389E+04  0.00000000000E+00 0.  1.
        -24    2    1    2    0    0  0.63272857601E+03 -0.36747441063E+02 -0.11086140906E+04  0.12793538515E+04  0.77622485195E+02 0.  0.
        254    2    1    2    0    0 -0.63272857601E+03  0.36747441063E+02  0.22693471591E+02  0.10996786073E+04  0.89837754889E+03 0.  0.
         23    2    4    4    0    0  0.13014477485E+03  0.19448309027E+03  0.16556612834E+03  0.30269684099E+03  0.97220881847E+02 0.  0.
         23    2    4    4    0    0 -0.76287335086E+03 -0.15773564921E+03 -0.14287265675E+03  0.79698176630E+03  0.88944113277E+02 0.  0.
          3    1    3    3  502    0  0.98404740896E+02 -0.24257384139E+01 -0.12142064393E+03  0.15630850908E+03  0.00000000000E+00 0. -1.
         -4    1    3    3    0  502  0.53432383511E+03 -0.34321702649E+02 -0.98719344663E+03  0.11230453424E+04  0.00000000000E+00 0.  1.
         11    1    5    5    0    0  0.82535583111E+02  0.17124546258E+03  0.89786206286E+02  0.21023485385E+03  0.00000000000E+00 0.  1.
        -11    1    5    5    0    0  0.47609191743E+02  0.23237627692E+02  0.75779922056E+02  0.92461987140E+02  0.00000000000E+00 0. -1.
          3    1    6    6  503    0 -0.29121239809E+03 -0.95259981796E+02 -0.29018595896E+02  0.30776810075E+03  0.00000000000E+00 0. -1.
         -3    1    6    6    0  503 -0.47166095277E+03 -0.62475667410E+02 -0.11385406085E+03  0.48921366555E+03  0.00000000000E+00 0.  1.
<mgrwt>
<rscale>  0 0.21167361E+04</rscale>
<asrwt>0</asrwt>
<pdfrwt beam="1">  1        1 0.99470143E-01 0.21167361E+04</pdfrwt>
<pdfrwt beam="2">  1       -2 0.26653485E+00 0.21167361E+04</pdfrwt>
<totfact> 0.12567450E+00</totfact>
</mgrwt>
</event>
<event>
12    4  0.4381187E-008  0.1025914E+04  0.7818608E-02  0.9280570E-01
          3   -1    0    0  501    0  0.00000000000E+00  0.00000000000E+00  0.15510916628E+03  0.15510916628E+03  0.00000000000E+00 0. -1.
         -4   -1    0    0    0  501 -0.00000000000E+00 -0.00000000000E+00 -0.16963858497E+04  0.16963858497E+04  0.00000000000E+00 0.  1.
        -24    2    1    2    0    0 -0.28837080392E+02  0.91909222715E+02 -0.21206453755E+03  0.24601995953E+03  0.79218495176E+02 0.  0.
        254    2    1    2    0    0  0.28837080392E+02 -0.91909222715E+02 -0.13292121459E+04  0.16054750565E+04  0.89524652791E+03 0.  0.
         23    2    4    4    0    0  0.30199840965E+03  0.28288038655E+03 -0.54867615180E+03  0.69328858576E+03  0.91537921442E+02 0.  0.
         23    2    4    4    0    0 -0.27316132926E+03 -0.37478960926E+03 -0.78053599407E+03  0.91218647070E+03  0.88109910189E+02 0.  0.
          1    1    3    3  502    0 -0.20658832514E+02  0.59476814065E+01 -0.55846043893E+01  0.22211485343E+02  0.00000000000E+00 0. -1.
         -2    1    3    3    0  502 -0.81782478778E+01  0.85961541308E+02 -0.20647993316E+03  0.22380847419E+03  0.00000000000E+00 0.  1.
         11    1    5    5    0    0  0.97996601946E+02  0.45990444207E+02 -0.17854599550E+03  0.20879925158E+03  0.00000000000E+00 0.  1.
        -11    1    5    5    0    0  0.20400180771E+03  0.23688994234E+03 -0.37013015631E+03  0.48448933418E+03  0.00000000000E+00 0. -1.
          2    1    6    6  503    0 -0.26302851842E+03 -0.37822062455E+03 -0.76914570855E+03  0.89656007234E+03  0.00000000000E+00 0. -1.
         -2    1    6    6    0  503 -0.10132810840E+02  0.34310152854E+01 -0.11390285517E+02  0.15626398356E+02  0.00000000000E+00 0.  1.
<mgrwt>
<rscale>  0 0.10259142E+04</rscale>
<asrwt>0</asrwt>
<pdfrwt beam="1">  1        3 0.23862950E-01 0.10259142E+04</pdfrwt>
<pdfrwt beam="2">  1       -4 0.26098242E+00 0.10259142E+04</pdfrwt>
<totfact> 0.20662290E+00</totfact>
</mgrwt>
</event>
<event>
12    4  0.4381187E-008  0.2360226E+04  0.7818608E-02  0.8454546E-01
          1   -1    0    0  501    0  0.00000000000E+00  0.00000000000E+00  0.85080236410E+03  0.85080236410E+03  0.00000000000E+00 0. -1.
         -2   -1    0    0    0  501 -0.00000000000E+00 -0.00000000000E+00 -0.16368865844E+04  0.16368865844E+04  0.00000000000E+00 0.  1.
        -24    2    1    2    0    0  0.94268390276E+03  0.33571383318E+02 -0.13040423334E+02  0.94675951115E+03  0.80022128222E+02 0.  0.
        254    2    1    2    0    0 -0.94268390276E+03 -0.33571383318E+02 -0.77304379697E+03  0.15409294373E+04  0.94185287628E+03 0.  0.
         23    2    4    4    0    0 -0.43276336961E+03  0.27763904489E+03 -0.77755361379E+03  0.93666360984E+03  0.91550654682E+02 0.  0.
         23    2    4    4    0    0 -0.50992053316E+03 -0.31121042821E+03  0.45098168167E+01  0.60426582751E+03  0.90807329468E+02 0.  0.
          3    1    3    3  502    0  0.91607822354E+03  0.19757803166E+02 -0.77846746610E+01  0.91632433319E+03  0.00000000000E+00 0. -1.
         -4    1    3    3    0  502  0.26605679224E+02  0.13813580152E+02 -0.52557486725E+01  0.30435177964E+02  0.00000000000E+00 0.  1.
         11    1    5    5    0    0 -0.20169940605E+03  0.10929555986E+03 -0.27153286880E+03  0.35546908254E+03  0.00000000000E+00 0. -1.
        -11    1    5    5    0    0 -0.23106396356E+03  0.16834348503E+03 -0.50602074499E+03  0.58119452730E+03  0.00000000000E+00 0.  1.
          3    1    6    6  503    0 -0.46547327760E+03 -0.26773471968E+03 -0.20203275810E+02  0.53735967902E+03  0.00000000000E+00 0. -1.
         -3    1    6    6    0  503 -0.44447255560E+02 -0.43475708525E+02  0.24713092626E+02  0.66906148489E+02  0.00000000000E+00 0.  1.
<mgrwt>
<rscale>  0 0.23602262E+04</rscale>
<asrwt>0</asrwt>
<pdfrwt beam="1">  1        1 0.13089267E+00 0.23602262E+04</pdfrwt>
<pdfrwt beam="2">  1       -2 0.25182870E+00 0.23602262E+04</pdfrwt>
<totfact> 0.98697554E-01</totfact>
</mgrwt>
</event>
<event>
12    4  0.4381187E-008  0.1950231E+04  0.7818608E-02  0.8630249E-01
         -2   -1    0    0    0  501 -0.00000000000E+00  0.00000000000E+00  0.12493790696E+04  0.12493790696E+04  0.00000000000E+00 0.  1.
          1   -1    0    0  501    0  0.00000000000E+00 -0.00000000000E+00 -0.76105829476E+03  0.76105829476E+03  0.00000000000E+00 0. -1.
        -24    2    1    2    0    0 -0.49328822802E+03 -0.12544101770E+03 -0.40056820256E+03  0.65265493485E+03  0.80217543278E+02 0.  0.
        254    2    1    2    0    0  0.49328822802E+03  0.12544101770E+03  0.88888897744E+03  0.13577824295E+04  0.89128041992E+03 0.  0.
         23    2    4    4    0    0  0.14735229083E+03  0.20817702728E+03 -0.11092180930E+03  0.29242188233E+03  0.90313549297E+02 0.  0.
         23    2    4    4    0    0  0.34593593720E+03 -0.82736009582E+02  0.99981078673E+03  0.10653605472E+04  0.94098705386E+02 0.  0.
          1    1    3    3  502    0 -0.18239513564E+03 -0.74651930179E+02 -0.18993696379E+03  0.27370960231E+03  0.00000000000E+00 0. -1.
         -2    1    3    3    0  502 -0.31089309239E+03 -0.50789087519E+02 -0.21063123877E+03  0.37894533254E+03  0.00000000000E+00 0.  1.
         11    1    5    5    0    0 -0.48960783951E+01 -0.51668065200E+01 -0.83400040667E+01  0.10964631371E+02  0.00000000000E+00 0.  1.
        -11    1    5    5    0    0  0.15224836922E+03  0.21334383380E+03 -0.10258180523E+03  0.28145725096E+03  0.00000000000E+00 0. -1.
          1    1    6    6  503    0  0.26311040937E+03 -0.44720124405E+02  0.84015623199E+03  0.88152678416E+03  0.00000000000E+00 0. -1.
         -1    1    6    6    0  503  0.82825527822E+02 -0.38015885176E+02  0.15965455474E+03  0.18383376305E+03  0.00000000000E+00 0.  1.
<mgrwt>
<rscale>  0 0.19502311E+04</rscale>
<asrwt>0</asrwt>
<pdfrwt beam="1">  1        1 0.11708589E+00 0.19502311E+04</pdfrwt>
<pdfrwt beam="2">  1       -2 0.19221216E+00 0.19502311E+04</pdfrwt>
<totfact> 0.29248165E+00</totfact>
</mgrwt>
</event>
<event>
12    4  0.4381187E-008  0.1972514E+04  0.7818608E-02  0.8619580E-01
         -2   -1    0    0    0  501 -0.00000000000E+00  0.00000000000E+00  0.33929907488E+03  0.33929907488E+03  0.00000000000E+00 0.  1.
          1   -1    0    0  501    0  0.00000000000E+00 -0.00000000000E+00 -0.28668016094E+04  0.28668016094E+04  0.00000000000E+00 0. -1.
        -24    2    1    2    0    0  0.53474213240E+03  0.20272234061E+03 -0.16900624942E+04  0.17860213052E+04  0.80717860026E+02 0.  0.
        254    2    1    2    0    0 -0.53474213240E+03 -0.20272234061E+03 -0.83744004038E+03  0.14200793791E+04  0.99411977456E+03 0.  0.
         23    2    4    4    0    0  0.15796437102E+03  0.97635907765E+01  0.11864790397E+03  0.21746716986E+03  0.90369102202E+02 0.  0.
         23    2    4    4    0    0 -0.69270650341E+03 -0.21248593138E+03 -0.95608794435E+03  0.12026122092E+04  0.84731325801E+02 0.  0.
          3    1    3    3  502    0  0.35618579983E+03  0.10783597554E+03 -0.11819395469E+04  0.12391440652E+04  0.00000000000E+00 0. -1.
         -4    1    3    3    0  502  0.17855633257E+03  0.94886365068E+02 -0.50812294723E+03  0.54687724004E+03  0.00000000000E+00 0.  1.
         11    1    5    5    0    0  0.66554968309E+02 -0.91016421160E+01  0.85703305592E+00  0.67179894324E+02  0.00000000000E+00 0.  1.
        -11    1    5    5    0    0  0.91409402707E+02  0.18865232892E+02  0.11779087092E+03  0.15028727553E+03  0.00000000000E+00 0. -1.
          3    1    6    6  503    0 -0.46822771784E+03 -0.13317953060E+03 -0.70355414229E+03  0.85554801984E+03  0.00000000000E+00 0. -1.
         -3    1    6    6    0  503 -0.22447878557E+03 -0.79306400788E+02 -0.25253380206E+03  0.34706418940E+03  0.00000000000E+00 0.  1.
<mgrwt>
<rscale>  0 0.19725143E+04</rscale>
<asrwt>0</asrwt>
<pdfrwt beam="1">  1        1 0.44104643E+00 0.19725143E+04</pdfrwt>
<pdfrwt beam="2">  1       -2 0.52199855E-01 0.19725143E+04</pdfrwt>
<totfact> 0.21157180E+00</totfact>
</mgrwt>
</event>
<event>
12    4  0.4381187E-008  0.1800295E+04  0.7818608E-02  0.8706143E-01
          1   -1    0    0  501    0  0.00000000000E+00  0.00000000000E+00  0.82118839086E+03  0.82118839086E+03  0.00000000000E+00 0. -1.
         -2   -1    0    0    0  501 -0.00000000000E+00 -0.00000000000E+00 -0.98669877552E+03  0.98669877552E+03  0.00000000000E+00 0.  1.
        -24    2    1    2    0    0 -0.35394021614E+03 -0.50606681189E+03  0.10202082156E+03  0.63102050731E+03  0.80008361597E+02 0.  0.
        254    2    1    2    0    0  0.35394021614E+03  0.50606681189E+03 -0.26753120622E+03  0.11768666591E+04  0.96543507924E+03 0.  0.
         23    2    4    4    0    0  0.67073266383E+03  0.24802554815E+03 -0.11120461952E+03  0.72982377604E+03  0.94219413102E+02 0.  0.
         23    2    4    4    0    0 -0.31679244769E+03  0.25804126374E+03 -0.15632658670E+03  0.44704288303E+03  0.92014068779E+02 0.  0.
          3    1    3    3  502    0 -0.19006683640E+03 -0.31932871261E+03  0.89608897762E+02  0.38226428496E+03  0.00000000000E+00 0. -1.
         -4    1    3    3    0  502 -0.16387337974E+03 -0.18673809928E+03  0.12411923799E+02  0.24875622236E+03  0.00000000000E+00 0.  1.
         11    1    5    5    0    0  0.19629426214E+03  0.11732107714E+03 -0.22586817116E+02  0.22979520622E+03  0.00000000000E+00 0.  1.
        -11    1    5    5    0    0  0.47443840169E+03  0.13070447101E+03 -0.88617802406E+02  0.50002856982E+03  0.00000000000E+00 0. -1.
          3    1    6    6  503    0 -0.25030330356E+03  0.17567423898E+03 -0.15101528151E+03  0.34105541670E+03  0.00000000000E+00 0. -1.
         -3    1    6    6    0  503 -0.66489144134E+02  0.82367024763E+02 -0.53113051864E+01  0.10598746633E+03  0.00000000000E+00 0.  1.
<mgrwt>
<rscale>  0 0.18002951E+04</rscale>
<asrwt>0</asrwt>
<pdfrwt beam="1">  1        1 0.12633668E+00 0.18002951E+04</pdfrwt>
<pdfrwt beam="2">  1       -2 0.15179981E+00 0.18002951E+04</pdfrwt>
<totfact> 0.50837535E+00</totfact>
</mgrwt>
</event>
<event>
12    4  0.4381187E-008  0.1247217E+04  0.7818608E-02  0.9072502E-01
          1   -1    0    0  501    0  0.00000000000E+00  0.00000000000E+00  0.13636654348E+04  0.13636654348E+04  0.00000000000E+00 0. -1.
         -2   -1    0    0    0  501 -0.00000000000E+00 -0.00000000000E+00 -0.28517827294E+03  0.28517827294E+03  0.00000000000E+00 0.  1.
        -24    2    1    2    0    0 -0.10789721249E+03  0.32407054915E+03  0.14545391019E+03  0.37961481811E+03  0.79290862338E+02 0.  0.
        254    2    1    2    0    0  0.10789721249E+03 -0.32407054915E+03  0.93303325163E+03  0.12692288896E+04  0.78976413962E+03 0.  0.
         23    2    4    4    0    0  0.10939898728E+03 -0.49411323591E+03  0.94502291866E+03  0.10758949640E+04  0.91463809122E+02 0.  0.
         23    2    4    4    0    0 -0.15017747931E+01  0.17004268675E+03 -0.11989667033E+02  0.19333392562E+03  0.91200241426E+02 0.  0.
          1    1    3    3  502    0 -0.47864009946E+02  0.47459569626E+02  0.23123798794E+02  0.71260678273E+02  0.00000000000E+00 0. -1.
         -2    1    3    3    0  502 -0.60033202542E+02  0.27661097953E+03  0.12233011139E+03  0.30835413984E+03  0.00000000000E+00 0.  1.
         11    1    5    5    0    0  0.86198798477E+02 -0.18902539261E+03  0.35779369984E+03  0.41373562036E+03  0.00000000000E+00 0.  1.
        -11    1    5    5    0    0  0.23200188804E+02 -0.30508784329E+03  0.58722921882E+03  0.66215934360E+03  0.00000000000E+00 0. -1.
          4    1    6    6  503    0 -0.21450953583E+02  0.77622640645E+00 -0.78195490201E+01  0.22844940008E+02  0.00000000000E+00 0.  1.
         -4    1    6    6    0  503  0.19949178790E+02  0.16926646034E+03 -0.41701180130E+01  0.17048898562E+03  0.00000000000E+00 0. -1.
<mgrwt>
<rscale>  0 0.12472173E+04</rscale>
<asrwt>0</asrwt>
<pdfrwt beam="1">  1        1 0.20979468E+00 0.12472173E+04</pdfrwt>
<pdfrwt beam="2">  1       -2 0.43873581E-01 0.12472173E+04</pdfrwt>
<totfact> 0.34736535E+01</totfact>
</mgrwt>
</event>
<event>
12    4  0.4381187E-008  0.1754565E+04  0.7818608E-02  0.8730842E-01
         -2   -1    0    0    0  501 -0.00000000000E+00  0.00000000000E+00  0.31624000877E+03  0.31624000877E+03  0.00000000000E+00 0.  1.
          1   -1    0    0  501    0  0.00000000000E+00 -0.00000000000E+00 -0.24336713965E+04  0.24336713965E+04  0.00000000000E+00 0. -1.
        -24    2    1    2    0    0  0.18158328978E+03 -0.29638967693E+03  0.75613491078E+01  0.35646170275E+03  0.78666637223E+02 0.  0.
        254    2    1    2    0    0 -0.18158328978E+03  0.29638967693E+03 -0.21249927369E+04  0.23934497025E+04  0.10450779948E+04 0.  0.
         23    2    4    4    0    0 -0.29099184816E+03  0.64820793753E+03 -0.14941966607E+04  0.16571294422E+04  0.92760667152E+02 0.  0.
         23    2    4    4    0    0  0.10940855838E+03 -0.35181826061E+03 -0.63079607616E+03  0.73632026035E+03  0.92290383903E+02 0.  0.
          3    1    3    3  502    0  0.24901246027E+02 -0.74546819823E+02  0.29576275219E+02  0.83976523238E+02  0.00000000000E+00 0. -1.
         -4    1    3    3    0  502  0.15668204375E+03 -0.22184285710E+03 -0.22014926111E+02  0.27248517951E+03  0.00000000000E+00 0.  1.
         11    1    5    5    0    0 -0.29528514627E+02  0.14056336756E+03 -0.25422808954E+03  0.29199642975E+03  0.00000000000E+00 0. -1.
        -11    1    5    5    0    0 -0.26146333353E+03  0.50764456997E+03 -0.12399685712E+04  0.13651330124E+04  0.00000000000E+00 0.  1.
          4    1    6    6  503    0  0.25427699791E+02 -0.28468254937E+02 -0.12043802279E+03  0.12634210221E+03  0.00000000000E+00 0. -1.
         -4    1    6    6    0  503  0.83980858591E+02 -0.32335000567E+03 -0.51035805337E+03  0.60997815814E+03  0.00000000000E+00 0.  1.
<mgrwt>
<rscale>  0 0.17545646E+04</rscale>
<asrwt>0</asrwt>
<pdfrwt beam="1">  1        1 0.37441098E+00 0.17545646E+04</pdfrwt>
<pdfrwt beam="2">  1       -2 0.48652309E-01 0.17545646E+04</pdfrwt>
<totfact> 0.50176253E+00</totfact>
</mgrwt>
</event>
<event>
12    4  0.4381187E-008  0.2450299E+04  0.7818608E-02  0.8420909E-01
         -2   -1    0    0    0  501 -0.00000000000E+00  0.00000000000E+00  0.92450922324E+03  0.92450922324E+03  0.00000000000E+00 0.  1.
          1   -1    0    0  501    0  0.00000000000E+00 -0.00000000000E+00 -0.16235546682E+04  0.16235546682E+04  0.00000000000E+00 0. -1.
        -24    2    1    2    0    0 -0.13695602885E+02  0.19873864245E+03 -0.13736766607E+04  0.13905876256E+04  0.84034271525E+02 0.  0.
        254    2    1    2    0    0  0.13695602885E+02 -0.19873864245E+03  0.67463121574E+03  0.11574762658E+04  0.91920585899E+03 0.  0.
         23    2    4    4    0    0  0.19435604150E+02 -0.53616946019E+03  0.57927592604E+03  0.79499290137E+03  0.92723686174E+02 0.  0.
         23    2    4    4    0    0 -0.57400012651E+01  0.33743081775E+03  0.95355289695E+02  0.36248336447E+03  0.91700893498E+02 0.  0.
          1    1    3    3  502    0  0.17149419504E+02  0.17122300402E+03 -0.11855662422E+04  0.11979894550E+04  0.00000000000E+00 0. -1.
         -2    1    3    3    0  502 -0.30845022389E+02  0.27515638427E+02 -0.18811041855E+03  0.19259817063E+03  0.00000000000E+00 0.  1.
         11    1    5    5    0    0  0.45498940881E+02 -0.30162835433E+03  0.28182687928E+03  0.41530254952E+03  0.00000000000E+00 0.  1.
        -11    1    5    5    0    0 -0.26063336731E+02 -0.23454110586E+03  0.29744904677E+03  0.37969035184E+03  0.00000000000E+00 0. -1.
          3    1    6    6  503    0  0.98883577601E+01  0.20482262661E+03  0.12719730431E+02  0.20545529814E+03  0.00000000000E+00 0. -1.
         -3    1    6    6    0  503 -0.15628359025E+02  0.13260819113E+03  0.82635559264E+02  0.15702806633E+03  0.00000000000E+00 0.  1.
<mgrwt>
<rscale>  0 0.24502990E+04</rscale>
<asrwt>0</asrwt>
<pdfrwt beam="1">  1        1 0.24977764E+00 0.24502990E+04</pdfrwt>
<pdfrwt beam="2">  1       -2 0.14223219E+00 0.24502990E+04</pdfrwt>
<totfact> 0.14519851E+00</totfact>
</mgrwt>
</event>
<event>
12    4  0.4381187E-008  0.3544463E+04  0.7818608E-02  0.8103333E-01
          1   -1    0    0  501    0  0.00000000000E+00  0.00000000000E+00  0.31502367701E+04  0.31502367701E+04  0.00000000000E+00 0. -1.
         -2   -1    0    0    0  501 -0.00000000000E+00 -0.00000000000E+00 -0.99700562877E+03  0.99700562877E+03  0.00000000000E+00 0.  1.
        -24    2    1    2    0    0 -0.31750158377E+02 -0.11739500577E+04  0.23941642970E+04  0.26678844904E+04  0.80113434402E+02 0.  0.
        254    2    1    2    0    0  0.31750158377E+02  0.11739500577E+04 -0.24093315563E+03  0.14793579085E+04  0.86676653456E+03 0.  0.
         23    2    4    4    0    0  0.93909131813E+02  0.17017461613E+01  0.18554300869E+03  0.22713481649E+03  0.91335621812E+02 0.  0.
         23    2    4    4    0    0 -0.62158973436E+02  0.11722483116E+04 -0.42647616432E+03  0.12522230920E+04  0.90282398743E+02 0.  0.
          1    1    3    3  502    0 -0.45950974895E+01 -0.40498555063E+03  0.91241744178E+03  0.99826850056E+03  0.00000000000E+00 0. -1.
         -2    1    3    3    0  502 -0.27155060887E+02 -0.76896450711E+03  0.14817468552E+04  0.16696159898E+04  0.00000000000E+00 0.  1.
         11    1    5    5    0    0  0.59668120972E+02 -0.28619871767E+02  0.46815005083E+02  0.81061867862E+02  0.00000000000E+00 0.  1.
        -11    1    5    5    0    0  0.34241010841E+02  0.30321617928E+02  0.13872800361E+03  0.14607294863E+03  0.00000000000E+00 0. -1.
          1    1    6    6  503    0 -0.81260207996E+02  0.10811230899E+04 -0.38869816701E+03  0.11517450334E+04  0.00000000000E+00 0. -1.
         -1    1    6    6    0  503  0.19101234560E+02  0.91125221713E+02 -0.37777997306E+02  0.10047805867E+03  0.00000000000E+00 0.  1.
<mgrwt>
<rscale>  0 0.35444626E+04</rscale>
<asrwt>0</asrwt>
<pdfrwt beam="1">  1        1 0.48465181E+00 0.35444626E+04</pdfrwt>
<pdfrwt beam="2">  1       -2 0.15338548E+00 0.35444626E+04</pdfrwt>
<totfact> 0.93509926E-02</totfact>
</mgrwt>
</event>
<event>
12    4  0.4381187E-008  0.1255680E+04  0.7818608E-02  0.9065469E-01
         -2   -1    0    0    0  501 -0.00000000000E+00  0.00000000000E+00  0.30122246732E+03  0.30122246732E+03  0.00000000000E+00 0.  1.
          1   -1    0    0  501    0  0.00000000000E+00 -0.00000000000E+00 -0.13086103037E+04  0.13086103037E+04  0.00000000000E+00 0. -1.
        -24    2    1    2    0    0 -0.33192317506E+01  0.25198093583E+03 -0.56921190085E+02  0.27161056431E+03  0.83826412575E+02 0.  0.
        254    2    1    2    0    0  0.33192317506E+01 -0.25198093583E+03 -0.95046664629E+03  0.13382222067E+04  0.90771494397E+03 0.  0.
         23    2    4    4    0    0 -0.20362977753E+03  0.24410448684E+03 -0.13412448994E+03  0.35682635370E+03  0.91014180780E+02 0.  0.
         23    2    4    4    0    0  0.20694900928E+03 -0.49608542267E+03 -0.81634215635E+03  0.98139585301E+03  0.88287400273E+02 0.  0.
          3    1    3    3  502    0 -0.21792388325E+02  0.10237721368E+03 -0.60367092453E+02  0.12083123736E+03  0.00000000000E+00 0. -1.
         -4    1    3    3    0  502  0.18473156574E+02  0.14960372214E+03  0.34459023683E+01  0.15077932695E+03  0.00000000000E+00 0.  1.
         11    1    5    5    0    0 -0.68223653367E+02  0.47543933626E+02 -0.72477602115E+02  0.11030818334E+03  0.00000000000E+00 0. -1.
        -11    1    5    5    0    0 -0.13540612416E+03  0.19656055322E+03 -0.61646887824E+02  0.24651817036E+03  0.00000000000E+00 0.  1.
          4    1    6    6  503    0  0.63106827052E+02 -0.85419836066E+02 -0.11965408160E+03  0.15998787222E+03  0.00000000000E+00 0. -1.
         -4    1    6    6    0  503  0.14384218223E+03 -0.41066558660E+03 -0.69668807475E+03  0.82140798079E+03  0.00000000000E+00 0.  1.
<mgrwt>
<rscale>  0 0.12556796E+04</rscale>
<asrwt>0</asrwt>
<pdfrwt beam="1">  1        1 0.20132467E+00 0.12556796E+04</pdfrwt>
<pdfrwt beam="2">  1       -2 0.46341917E-01 0.12556796E+04</pdfrwt>
<totfact> 0.34039907E+01</totfact>
</mgrwt>
</event>
<event>
12    4  0.4381187E-008  0.1131326E+04  0.7818608E-02  0.9175186E-01
         -2   -1    0    0    0  501 -0.00000000000E+00  0.00000000000E+00  0.34678036552E+03  0.34678036552E+03  0.00000000000E+00 0.  1.
          1   -1    0    0  501    0  0.00000000000E+00 -0.00000000000E+00 -0.92270158637E+03  0.92270158637E+03  0.00000000000E+00 0. -1.
        -24    2    1    2    0    0 -0.23564212327E+03 -0.11522869766E+03  0.19840865644E+02  0.27519182814E+03  0.80820908813E+02 0.  0.
        254    2    1    2    0    0  0.23564212327E+03  0.11522869766E+03 -0.59576208650E+03  0.99429012375E+03  0.75158201379E+03 0.  0.
         23    2    4    4    0    0  0.28759044265E+03  0.36403869029E+03 -0.19907144379E+03  0.51323001637E+03  0.92429320253E+02 0.  0.
         23    2    4    4    0    0 -0.51948319376E+02 -0.24880999264E+03 -0.39669064271E+03  0.48106010738E+03  0.97212759323E+02 0.  0.
          3    1    3    3  502    0 -0.24905721523E+01  0.96176217910E+01  0.18624261401E+01  0.10107929050E+02  0.00000000000E+00 0. -1.
         -4    1    3    3    0  502 -0.23315155112E+03 -0.12484631945E+03  0.17978439504E+02  0.26508389909E+03  0.00000000000E+00 0.  1.
         11    1    5    5    0    0  0.59613553552E+02  0.47815662916E+02 -0.66997822415E+02  0.10163081027E+03  0.00000000000E+00 0. -1.
        -11    1    5    5    0    0  0.22797688909E+03  0.31622302738E+03 -0.13207362138E+03  0.41159920611E+03  0.00000000000E+00 0.  1.
          4    1    6    6  503    0  0.29123491342E+02 -0.63143971771E+02 -0.10118629331E+03  0.12277623904E+03  0.00000000000E+00 0. -1.
         -4    1    6    6    0  503 -0.81071810718E+02 -0.18566602086E+03 -0.29550434940E+03  0.35828386833E+03  0.00000000000E+00 0.  1.
<mgrwt>
<rscale>  0 0.11313263E+04</rscale>
<asrwt>0</asrwt>
<pdfrwt beam="1">  1        1 0.14195409E+00 0.11313263E+04</pdfrwt>
<pdfrwt beam="2">  1       -2 0.53350825E-01 0.11313263E+04</pdfrwt>
<totfact> 0.50330546E+01</totfact>
</mgrwt>
</event>
<event>
12    4  0.4381187E-008  0.2441064E+04  0.7818608E-02  0.8424288E-01
         -2   -1    0    0    0  501 -0.00000000000E+00  0.00000000000E+00  0.16209693925E+04  0.16209693925E+04  0.00000000000E+00 0.  1.
          1   -1    0    0  501    0  0.00000000000E+00 -0.00000000000E+00 -0.91901692699E+03  0.91901692699E+03  0.00000000000E+00 0. -1.
        -24    2    1    2    0    0  0.15940817461E+03 -0.34337722935E+03 -0.71868840113E+03  0.81615872972E+03  0.79266426679E+02 0.  0.
        254    2    1    2    0    0 -0.15940817461E+03  0.34337722935E+03  0.14206408666E+04  0.17238275898E+04  0.90002344387E+03 0.  0.
         23    2    4    4    0    0 -0.45601065972E+03  0.21579550686E+03  0.40071494846E+03  0.65012543286E+03  0.87047033072E+02 0.  0.
         23    2    4    4    0    0  0.29660248511E+03  0.12758172249E+03  0.10199259182E+04  0.10737021569E+04  0.91308888409E+02 0.  0.
          1    1    3    3  502    0  0.13736270979E+03 -0.29184681891E+03 -0.54121185736E+03  0.63004234326E+03  0.00000000000E+00 0. -1.
         -2    1    3    3    0  502  0.22045464828E+02 -0.51530410440E+02 -0.17747654377E+03  0.18611638646E+03  0.00000000000E+00 0.  1.
         11    1    5    5    0    0 -0.27818873183E+03  0.10166836483E+03  0.27554908410E+03  0.40454013975E+03  0.00000000000E+00 0. -1.
        -11    1    5    5    0    0 -0.17782192789E+03  0.11412714203E+03  0.12516586436E+03  0.24558529310E+03  0.00000000000E+00 0.  1.
          1    1    6    6  503    0  0.28676573677E+03  0.12086035269E+03  0.88249810466E+03  0.93575889917E+03  0.00000000000E+00 0. -1.
         -1    1    6    6    0  503  0.98367483363E+01  0.67213698009E+01  0.13742781351E+03  0.13794325774E+03  0.00000000000E+00 0.  1.
<mgrwt>
<rscale>  0 0.24410640E+04</rscale>
<asrwt>0</asrwt>
<pdfrwt beam="1">  1        1 0.14138722E+00 0.24410640E+04</pdfrwt>
<pdfrwt beam="2">  1       -2 0.24937991E+00 0.24410640E+04</pdfrwt>
<totfact> 0.89112488E-01</totfact>
</mgrwt>
</event>
<event>
12    4  0.4381187E-008  0.1385637E+04  0.7818608E-02  0.8964281E-01
         -2   -1    0    0    0  501 -0.00000000000E+00  0.00000000000E+00  0.20785962278E+03  0.20785962278E+03  0.00000000000E+00 0.  1.
          1   -1    0    0  501    0  0.00000000000E+00 -0.00000000000E+00 -0.23092378484E+04  0.23092378484E+04  0.00000000000E+00 0. -1.
        -24    2    1    2    0    0  0.48843024913E+02 -0.66092589684E+02 -0.13100891160E+04  0.13150980074E+04  0.79971281066E+02 0.  0.
        254    2    1    2    0    0 -0.48843024913E+02  0.66092589684E+02 -0.79128910967E+03  0.12019994638E+04  0.90106069961E+03 0.  0.
         23    2    4    4    0    0  0.11985994298E+03  0.16867860848E+03 -0.92142975012E+03  0.94873704507E+03  0.90831257782E+02 0.  0.
         23    2    4    4    0    0 -0.16870296790E+03 -0.10258601880E+03  0.13014064045E+03  0.25326241873E+03  0.90667986695E+02 0.  0.
          3    1    3    3  502    0  0.10721364207E+02 -0.55392405560E+02 -0.37991960724E+03  0.38408615467E+03  0.00000000000E+00 0. -1.
         -4    1    3    3    0  502  0.38121660706E+02 -0.10700184124E+02 -0.93016950871E+03  0.93101185272E+03  0.00000000000E+00 0.  1.
         11    1    5    5    0    0  0.32815185907E+02  0.33703657876E+01 -0.23631015781E+03  0.23860152237E+03  0.00000000000E+00 0. -1.
        -11    1    5    5    0    0  0.87044757077E+02  0.16530824270E+03 -0.68511959230E+03  0.71013552270E+03  0.00000000000E+00 0.  1.
          2    1    6    6  503    0 -0.99441680598E+02 -0.60465144896E+02  0.22541219355E+02  0.11854445646E+03  0.00000000000E+00 0. -1.
         -2    1    6    6    0  503 -0.69261287299E+02 -0.42120873903E+02  0.10759942110E+03  0.13471796227E+03  0.00000000000E+00 0.  1.
<mgrwt>
<rscale>  0 0.13856368E+04</rscale>
<asrwt>0</asrwt>
<pdfrwt beam="1">  1        1 0.35526736E+00 0.13856368E+04</pdfrwt>
<pdfrwt beam="2">  1       -2 0.31978403E-01 0.13856368E+04</pdfrwt>
<totfact> 0.14333064E+01</totfact>
</mgrwt>
</event>
<event>
12    4  0.4381187E-008  0.2033771E+04  0.7818608E-02  0.8590993E-01
          1   -1    0    0  501    0  0.00000000000E+00  0.00000000000E+00  0.16661644187E+04  0.16661644187E+04  0.00000000000E+00 0. -1.
         -2   -1    0    0    0  501 -0.00000000000E+00 -0.00000000000E+00 -0.62062042903E+03  0.62062042903E+03  0.00000000000E+00 0.  1.
        -24    2    1    2    0    0  0.47489562319E+02 -0.73376629561E+03  0.80583258065E+03  0.10943847123E+04  0.87427200256E+02 0.  0.
        254    2    1    2    0    0 -0.47489562319E+02  0.73376629561E+03  0.23971140897E+03  0.11924001354E+04  0.90757274542E+03 0.  0.
         23    2    4    4    0    0  0.65169556762E+02  0.31047546132E+03  0.55437770976E+03  0.64548447430E+03  0.93131510589E+02 0.  0.
         23    2    4    4    0    0 -0.11265911908E+03  0.42329083428E+03 -0.31466630080E+03  0.54691566111E+03  0.90744983365E+02 0.  0.
          1    1    3    3  502    0  0.54939483031E+02 -0.50341836615E+03  0.60237624084E+03  0.78695967730E+03  0.00000000000E+00 0. -1.
         -2    1    3    3    0  502 -0.74499207121E+01 -0.23034792946E+03  0.20345633981E+03  0.30742503498E+03  0.00000000000E+00 0.  1.
         11    1    5    5    0    0  0.64473655721E+02  0.30817542183E+03  0.55825708180E+03  0.64092114357E+03  0.00000000000E+00 0.  1.
        -11    1    5    5    0    0  0.69590104035E+00  0.23000394880E+01 -0.38793720338E+01  0.45633307223E+01  0.00000000000E+00 0. -1.
          2    1    6    6  503    0 -0.11680784437E+03  0.35466910041E+03 -0.23289088977E+03  0.44008227620E+03  0.00000000000E+00 0. -1.
         -2    1    6    6    0  503  0.41487252847E+01  0.68621733877E+02 -0.81775411026E+02  0.10683338491E+03  0.00000000000E+00 0.  1.
<mgrwt>
<rscale>  0 0.20337706E+04</rscale>
<asrwt>0</asrwt>
<pdfrwt beam="1">  1        1 0.25633298E+00 0.20337706E+04</pdfrwt>
<pdfrwt beam="2">  1       -2 0.95480067E-01 0.20337706E+04</pdfrwt>
<totfact> 0.37597693E+00</totfact>
</mgrwt>
</event>
<event>
12    4  0.4381187E-008  0.1271438E+04  0.7818608E-02  0.9052527E-01
         -2   -1    0    0    0  501 -0.00000000000E+00  0.00000000000E+00  0.53223831424E+03  0.53223831424E+03  0.00000000000E+00 0.  1.
          1   -1    0    0  501    0  0.00000000000E+00 -0.00000000000E+00 -0.75931885383E+03  0.75931885383E+03  0.00000000000E+00 0. -1.
        -24    2    1    2    0    0  0.19002231451E+03 -0.37209978995E+02  0.18939471064E+03  0.28187086459E+03  0.78024133027E+02 0.  0.
        254    2    1    2    0    0 -0.19002231451E+03  0.37209978995E+02 -0.41647525024E+03  0.10096863035E+04  0.89917836652E+03 0.  0.
         23    2    4    4    0    0 -0.38620633162E+03 -0.10906800064E+03  0.10605500910E+03  0.42459649263E+03  0.89349634887E+02 0.  0.
         23    2    4    4    0    0  0.19618401711E+03  0.14627797964E+03 -0.52253025934E+03  0.58508981085E+03  0.96988653649E+02 0.  0.
          1    1    3    3  502    0  0.47991849458E+02 -0.36959094159E+02  0.27557302538E+02  0.66547706036E+02  0.00000000000E+00 0. -1.
         -2    1    3    3    0  502  0.14203046505E+03 -0.25088483591E+00  0.16183740811E+03  0.21532315855E+03  0.00000000000E+00 0.  1.
         11    1    5    5    0    0 -0.25555221978E+03 -0.11068274904E+03  0.91431823829E+02  0.29311667707E+03  0.00000000000E+00 0.  1.
        -11    1    5    5    0    0 -0.13065411184E+03  0.16147483913E+01  0.14623185269E+02  0.13147981556E+03  0.00000000000E+00 0. -1.
          3    1    6    6  503    0  0.87550977342E+01 -0.43282559334E+01 -0.87432113813E+02  0.87975906142E+02  0.00000000000E+00 0. -1.
         -3    1    6    6    0  503  0.18742891937E+03  0.15060623557E+03 -0.43509814552E+03  0.49711390470E+03  0.00000000000E+00 0.  1.
<mgrwt>
<rscale>  0 0.12714379E+04</rscale>
<asrwt>0</asrwt>
<pdfrwt beam="1">  1        1 0.11681828E+00 0.12714379E+04</pdfrwt>
<pdfrwt beam="2">  1       -2 0.81882818E-01 0.12714379E+04</pdfrwt>
<totfact> 0.27180480E+01</totfact>
</mgrwt>
</event>
<event>
12    4  0.4381187E-008  0.1058014E+04  0.7818608E-02  0.9247109E-01
         -2   -1    0    0    0  501 -0.00000000000E+00  0.00000000000E+00  0.14603391828E+04  0.14603391828E+04  0.00000000000E+00 0.  1.
          1   -1    0    0  501    0  0.00000000000E+00 -0.00000000000E+00 -0.19163235617E+03  0.19163235617E+03  0.00000000000E+00 0. -1.
        -24    2    1    2    0    0  0.43496631003E+02 -0.14981601625E+02  0.38726066240E+03  0.39801323946E+03  0.79544408033E+02 0.  0.
        254    2    1    2    0    0 -0.43496631003E+02  0.14981601625E+02  0.88144616422E+03  0.12539582995E+04  0.89070066304E+03 0.  0.
         23    2    4    4    0    0  0.19546358317E+03  0.27177190354E+03  0.55062328429E+02  0.35127361271E+03  0.91078598357E+02 0.  0.
         23    2    4    4    0    0 -0.23896021417E+03 -0.25679030191E+03  0.82638383579E+03  0.90268468677E+03  0.94266412723E+02 0.  0.
          3    1    3    3  502    0  0.33131960046E+02  0.17560987112E+02  0.32363876113E+03  0.32580387160E+03  0.00000000000E+00 0. -1.
         -4    1    3    3    0  502  0.10364670957E+02 -0.32542588736E+02  0.63621901270E+02  0.72209367861E+02  0.00000000000E+00 0.  1.
         11    1    5    5    0    0  0.28172802821E+02  0.99475622811E+01 -0.13984238750E+02  0.32988175875E+02  0.00000000000E+00 0. -1.
        -11    1    5    5    0    0  0.16729078035E+03  0.26182434126E+03  0.69046567179E+02  0.31828543684E+03  0.00000000000E+00 0.  1.
          1    1    6    6  503    0 -0.94727818171E+02 -0.80746086405E+02  0.40597497092E+03  0.42462803372E+03  0.00000000000E+00 0. -1.
         -1    1    6    6    0  503 -0.14423239600E+03 -0.17604421551E+03  0.42040886486E+03  0.47805665305E+03  0.00000000000E+00 0.  1.
<mgrwt>
<rscale>  0 0.10580137E+04</rscale>
<asrwt>0</asrwt>
<pdfrwt beam="1">  1        1 0.29481902E-01 0.10580137E+04</pdfrwt>
<pdfrwt beam="2">  1       -2 0.22466756E+00 0.10580137E+04</pdfrwt>
<totfact> 0.12674934E+01</totfact>
</mgrwt>
</event>
<event>
12    4  0.4381187E-008  0.1604047E+04  0.7818608E-02  0.8818065E-01
          1   -1    0    0  501    0  0.00000000000E+00  0.00000000000E+00  0.19650721663E+04  0.19650721663E+04  0.00000000000E+00 0. -1.
         -2   -1    0    0    0  501 -0.00000000000E+00 -0.00000000000E+00 -0.32733755284E+03  0.32733755284E+03  0.00000000000E+00 0.  1.
        -24    2    1    2    0    0  0.38726026067E+03 -0.23858135313E+03  0.10445847011E+03  0.47337895891E+03  0.79274808160E+02 0.  0.
        254    2    1    2    0    0 -0.38726026067E+03  0.23858135313E+03  0.15332761433E+04  0.18190307602E+04  0.86662887288E+03 0.  0.
         23    2    4    4    0    0  0.77020755287E+02  0.38354006050E+03  0.10628611316E+04  0.11365844466E+04  0.95473789032E+02 0.  0.
         23    2    4    4    0    0 -0.46428101596E+03 -0.14495870737E+03  0.47041501170E+03  0.68244631359E+03  0.88728795134E+02 0.  0.
          1    1    3    3  502    0  0.22210481764E+03 -0.14014398678E+03  0.10013092654E+03  0.28106420886E+03  0.00000000000E+00 0. -1.
         -2    1    3    3    0  502  0.16515544303E+03 -0.98437366342E+02  0.43275435657E+01  0.19231475005E+03  0.00000000000E+00 0.  1.
         11    1    5    5    0    0 -0.49841366328E+01  0.70673257315E+01  0.34989874993E+01  0.93290741497E+01  0.00000000000E+00 0.  1.
        -11    1    5    5    0    0  0.82004891920E+02  0.37647273476E+03  0.10593621441E+04  0.11272553725E+04  0.00000000000E+00 0. -1.
          3    1    6    6  503    0 -0.35423225793E+03 -0.14898629866E+03  0.36511482100E+03  0.53008135438E+03  0.00000000000E+00 0. -1.
         -3    1    6    6    0  503 -0.11004875803E+03  0.40275912951E+01  0.10530019069E+03  0.15236495921E+03  0.00000000000E+00 0.  1.
<mgrwt>
<rscale>  0 0.16040473E+04</rscale>
<asrwt>0</asrwt>
<pdfrwt beam="1">  1        1 0.30231879E+00 0.16040473E+04</pdfrwt>
<pdfrwt beam="2">  1       -2 0.50359625E-01 0.16040473E+04</pdfrwt>
<totfact> 0.98870012E+00</totfact>
</mgrwt>
</event>
<event>
12    4  0.4381187E-008  0.1897427E+04  0.7818608E-02  0.8656138E-01
         -2   -1    0    0    0  501 -0.00000000000E+00  0.00000000000E+00  0.11414189282E+04  0.11414189282E+04  0.00000000000E+00 0.  1.
          1   -1    0    0  501    0  0.00000000000E+00 -0.00000000000E+00 -0.78854279851E+03  0.78854279851E+03  0.00000000000E+00 0. -1.
        -24    2    1    2    0    0  0.45417137366E+03 -0.36861299973E+02  0.71359096231E+03  0.85041076279E+03  0.79724600288E+02 0.  0.
        254    2    1    2    0    0 -0.45417137366E+03  0.36861299973E+02 -0.36071483258E+03  0.10795509640E+04  0.90977178526E+03 0.  0.
         23    2    4    4    0    0 -0.59870201900E+03  0.25074612065E+03 -0.38366293732E+02  0.65667411333E+03  0.91821533670E+02 0.  0.
         23    2    4    4    0    0  0.14453064534E+03 -0.21388482068E+03 -0.32234853885E+03  0.42287685063E+03  0.90996847976E+02 0.  0.
          3    1    3    3  502    0  0.38121036066E+02  0.19347659402E+02  0.67283749784E+02  0.79716047946E+02  0.00000000000E+00 0. -1.
         -4    1    3    3    0  502  0.41605033760E+03 -0.56208959376E+02  0.64630721252E+03  0.77069471484E+03  0.00000000000E+00 0.  1.
         11    1    5    5    0    0 -0.21494527463E+03  0.13642814170E+03 -0.18791408345E+01  0.25459308731E+03  0.00000000000E+00 0. -1.
        -11    1    5    5    0    0 -0.38375674437E+03  0.11431797895E+03 -0.36487152898E+02  0.40208102602E+03  0.00000000000E+00 0.  1.
          2    1    6    6  503    0  0.13318432701E+01  0.41943267192E+01 -0.32944547322E+02  0.33237168673E+02  0.00000000000E+00 0. -1.
         -2    1    6    6    0  503  0.14319880207E+03 -0.21807914740E+03 -0.28940399153E+03  0.38963968196E+03  0.00000000000E+00 0.  1.
<mgrwt>
<rscale>  0 0.18974274E+04</rscale>
<asrwt>0</asrwt>
<pdfrwt beam="1">  1        1 0.12131428E+00 0.18974274E+04</pdfrwt>
<pdfrwt beam="2">  1       -2 0.17560291E+00 0.18974274E+04</pdfrwt>
<totfact> 0.36076524E+00</totfact>
</mgrwt>
</event>
<event>
12    4  0.4381187E-008  0.2103380E+04  0.7818608E-02  0.8559756E-01
         -2   -1    0    0    0  501 -0.00000000000E+00  0.00000000000E+00  0.66082857855E+03  0.66082857855E+03  0.00000000000E+00 0.  1.
          1   -1    0    0  501    0  0.00000000000E+00 -0.00000000000E+00 -0.16737351967E+04  0.16737351967E+04  0.00000000000E+00 0. -1.
        -24    2    1    2    0    0 -0.25067286734E+03 -0.55692745157E+03  0.25807371618E+03  0.66787149164E+03  0.80282087806E+02 0.  0.
        254    2    1    2    0    0  0.25067286734E+03  0.55692745157E+03 -0.12709803343E+04  0.16666922836E+04  0.88851960318E+03 0.  0.
         23    2    4    4    0    0  0.50177964509E+03  0.95358504763E+02 -0.44420201629E+03  0.68312375860E+03  0.92014029524E+02 0.  0.
         23    2    4    4    0    0 -0.25110677775E+03  0.46156894681E+03 -0.82677831798E+03  0.98356852497E+03  0.88000850694E+02 0.  0.
          3    1    3    3  502    0 -0.79758710519E+02 -0.24499324884E+03  0.13917706799E+03  0.29283681486E+03  0.00000000000E+00 0. -1.
         -4    1    3    3    0  502 -0.17091415682E+03 -0.31193420273E+03  0.11889664818E+03  0.37503467678E+03  0.00000000000E+00 0.  1.
         11    1    5    5    0    0  0.88968734834E+02 -0.11584015812E+02 -0.10586421082E+03  0.13876907556E+03  0.00000000000E+00 0. -1.
        -11    1    5    5    0    0  0.41281091025E+03  0.10694252057E+03 -0.33833780548E+03  0.54435468304E+03  0.00000000000E+00 0.  1.
          1    1    6    6  503    0 -0.33868093774E+02  0.12484403130E+03 -0.24640768064E+03  0.27829808660E+03  0.00000000000E+00 0. -1.
         -1    1    6    6    0  503 -0.21723868397E+03  0.33672491551E+03 -0.58037063735E+03  0.70527043837E+03  0.00000000000E+00 0.  1.
<mgrwt>
<rscale>  0 0.21033802E+04</rscale>
<asrwt>0</asrwt>
<pdfrwt beam="1">  1        1 0.25749772E+00 0.21033802E+04</pdfrwt>
<pdfrwt beam="2">  1       -2 0.10166594E+00 0.21033802E+04</pdfrwt>
<totfact> 0.31842758E+00</totfact>
</mgrwt>
</event>
<event>
12    4  0.4381187E-008  0.2719206E+04  0.7818608E-02  0.8328800E-01
         -2   -1    0    0    0  501 -0.00000000000E+00  0.00000000000E+00  0.10111220656E+04  0.10111220656E+04  0.00000000000E+00 0.  1.
          1   -1    0    0  501    0  0.00000000000E+00 -0.00000000000E+00 -0.18281864764E+04  0.18281864764E+04  0.00000000000E+00 0. -1.
        -24    2    1    2    0    0  0.34456256605E+03 -0.11469178272E+04 -0.18651391276E+03  0.12147228822E+04  0.81365696734E+02 0.  0.
        254    2    1    2    0    0 -0.34456256605E+03  0.11469178272E+04 -0.63055049808E+03  0.16245856598E+04  0.89863272316E+03 0.  0.
         23    2    4    4    0    0 -0.36278999411E+03  0.88213376624E+03 -0.83844949136E+03  0.12732801623E+04  0.92023154118E+02 0.  0.
         23    2    4    4    0    0  0.18227428065E+02  0.26478406093E+03  0.20789899328E+03  0.35130549744E+03  0.98745749617E+02 0.  0.
          1    1    3    3  502    0  0.44163030006E+02 -0.20944746425E+03 -0.59286680344E+02  0.22211151246E+03  0.00000000000E+00 0. -1.
         -2    1    3    3    0  502  0.30039953604E+03 -0.93747036291E+03 -0.12722723241E+03  0.99261136970E+03  0.00000000000E+00 0.  1.
         11    1    5    5    0    0 -0.32524964208E+03  0.77135839317E+03 -0.77201553440E+03  0.11387664755E+04  0.00000000000E+00 0. -1.
        -11    1    5    5    0    0 -0.37540352025E+02  0.11077537307E+03 -0.66433956960E+02  0.13451368683E+03  0.00000000000E+00 0.  1.
          3    1    6    6  503    0 -0.38536915996E+02  0.14835521339E+03  0.12167912191E+03  0.19570429720E+03  0.00000000000E+00 0. -1.
         -3    1    6    6    0  503  0.56764344061E+02  0.11642884754E+03  0.86219871370E+02  0.15560120024E+03  0.00000000000E+00 0.  1.
<mgrwt>
<rscale>  0 0.27192055E+04</rscale>
<asrwt>0</asrwt>
<pdfrwt beam="1">  1        1 0.28125946E+00 0.27192055E+04</pdfrwt>
<pdfrwt beam="2">  1       -2 0.15555724E+00 0.27192055E+04</pdfrwt>
<totfact> 0.81188804E-01</totfact>
</mgrwt>
</event>
<event>
12    4  0.4381187E-008  0.1338784E+04  0.7818608E-02  0.8999362E-01
          1   -1    0    0  501    0  0.00000000000E+00  0.00000000000E+00  0.13207982497E+04  0.13207982497E+04  0.00000000000E+00 0. -1.
         -2   -1    0    0    0  501 -0.00000000000E+00 -0.00000000000E+00 -0.33925377386E+03  0.33925377386E+03  0.00000000000E+00 0.  1.
        -24    2    1    2    0    0 -0.19450789665E+03 -0.19434947353E+03 -0.16806106647E+02  0.28660642567E+03  0.79093351775E+02 0.  0.
        254    2    1    2    0    0  0.19450789665E+03  0.19434947353E+03  0.99835058246E+03  0.13734455979E+04  0.90224380579E+03 0.  0.
         23    2    4    4    0    0  0.44908894870E+03  0.37717681388E+03  0.78229879260E+03  0.98182374754E+03  0.89684098648E+02 0.  0.
         23    2    4    4    0    0 -0.25458105205E+03 -0.18282734036E+03  0.21605178986E+03  0.39162185033E+03  0.91934483764E+02 0.  0.
          1    1    3    3  502    0 -0.10718157718E+03 -0.68326968497E+02  0.20653024363E+02  0.12877504621E+03  0.00000000000E+00 0. -1.
         -2    1    3    3    0  502 -0.87326319468E+02 -0.12602250503E+03 -0.37459131010E+02  0.15783137946E+03  0.00000000000E+00 0.  1.
         11    1    5    5    0    0  0.28236512257E+03  0.29023632564E+03  0.51894113568E+03  0.65823027085E+03  0.00000000000E+00 0. -1.
        -11    1    5    5    0    0  0.16672382613E+03  0.86940488243E+02  0.26335765692E+03  0.32359347669E+03  0.00000000000E+00 0.  1.
          4    1    6    6  503    0 -0.76251992674E+02 -0.10276869417E+03  0.11262754638E+03  0.17047209475E+03  0.00000000000E+00 0. -1.
         -4    1    6    6    0  503 -0.17832905938E+03 -0.80058646190E+02  0.10342424348E+03  0.22114975557E+03  0.00000000000E+00 0.  1.
<mgrwt>
<rscale>  0 0.13387842E+04</rscale>
<asrwt>0</asrwt>
<pdfrwt beam="1">  1        1 0.20319973E+00 0.13387842E+04</pdfrwt>
<pdfrwt beam="2">  1       -2 0.52192889E-01 0.13387842E+04</pdfrwt>
<totfact> 0.26029823E+01</totfact>
</mgrwt>
</event>
<event>
12    4  0.4381187E-008  0.3056922E+04  0.7818608E-02  0.8227661E-01
          1   -1    0    0  501    0  0.00000000000E+00  0.00000000000E+00  0.15716322163E+04  0.15716322163E+04  0.00000000000E+00 0. -1.
         -2   -1    0    0    0  501 -0.00000000000E+00 -0.00000000000E+00 -0.14864758851E+04  0.14864758851E+04  0.00000000000E+00 0.  1.
        -24    2    1    2    0    0  0.10576109019E+04 -0.72834204943E+03  0.59931709724E+03  0.14193280112E+04  0.79297286436E+02 0.  0.
        254    2    1    2    0    0 -0.10576109019E+04  0.72834204943E+03 -0.51416076606E+03  0.16387800901E+04  0.87875817483E+03 0.  0.
         23    2    4    4    0    0 -0.76601670047E+03  0.56589017466E+03 -0.75380478155E+03  0.12180812799E+04  0.92125352752E+02 0.  0.
         23    2    4    4    0    0 -0.29159420138E+03  0.16245187477E+03  0.23964401549E+03  0.42069881023E+03  0.90224413964E+02 0.  0.
          1    1    3    3  502    0  0.95011776937E+03 -0.63001849152E+03  0.54783327190E+03  0.12648195006E+04  0.00000000000E+00 0. -1.
         -2    1    3    3    0  502  0.10749313248E+03 -0.98323557909E+02  0.51483825337E+02  0.15450851058E+03  0.00000000000E+00 0.  1.
         11    1    5    5    0    0 -0.19654953012E+03  0.12488218873E+03 -0.23160864516E+03  0.32843544779E+03  0.00000000000E+00 0. -1.
        -11    1    5    5    0    0 -0.56946717034E+03  0.44100798593E+03 -0.52219613639E+03  0.88964583212E+03  0.00000000000E+00 0.  1.
          1    1    6    6  503    0 -0.95903823867E+02  0.80385295679E+02  0.45702228369E+02  0.13322174324E+03  0.00000000000E+00 0. -1.
         -1    1    6    6    0  503 -0.19569037752E+03  0.82066579090E+02  0.19394178712E+03  0.28747706699E+03  0.00000000000E+00 0.  1.
<mgrwt>
<rscale>  0 0.30569222E+04</rscale>
<asrwt>0</asrwt>
<pdfrwt beam="1">  1        1 0.24178957E+00 0.30569222E+04</pdfrwt>
<pdfrwt beam="2">  1       -2 0.22868860E+00 0.30569222E+04</pdfrwt>
<totfact> 0.37836747E-01</totfact>
</mgrwt>
</event>
<event>
12    4  0.4381187E-008  0.3136704E+04  0.7818608E-02  0.8205736E-01
          1   -1    0    0  501    0  0.00000000000E+00  0.00000000000E+00  0.34202544064E+04  0.34202544064E+04  0.00000000000E+00 0. -1.
         -2   -1    0    0    0  501 -0.00000000000E+00 -0.00000000000E+00 -0.71916525371E+03  0.71916525371E+03  0.00000000000E+00 0.  1.
        -24    2    1    2    0    0 -0.78412990574E+03 -0.69207201642E+03  0.25368053091E+04  0.27450634289E+04  0.78540865135E+02 0.  0.
        254    2    1    2    0    0  0.78412990574E+03  0.69207201642E+03  0.16428384355E+03  0.13943562312E+04  0.90742312793E+03 0.  0.
         23    2    4    4    0    0 -0.48891491420E+02  0.40451903741E+02 -0.23594738599E+03  0.25984493032E+03  0.88439156528E+02 0.  0.
         23    2    4    4    0    0  0.83302139716E+03  0.65162011268E+03  0.40023122954E+03  0.11345113008E+04  0.91637520961E+02 0.  0.
          1    1    3    3  502    0 -0.77855437388E+03 -0.69037897353E+03  0.25017084167E+04  0.27094861215E+04  0.00000000000E+00 0. -1.
         -2    1    3    3    0  502 -0.55755318601E+01 -0.16930428878E+01  0.35096892396E+02  0.35577307453E+02  0.00000000000E+00 0.  1.
         11    1    5    5    0    0 -0.51218174494E+02  0.33945761041E+02 -0.24259556099E+03  0.25025631322E+03  0.00000000000E+00 0.  1.
        -11    1    5    5    0    0  0.23266830740E+01  0.65061427002E+01  0.66481750065E+01  0.95886170994E+01  0.00000000000E+00 0. -1.
          2    1    6    6  503    0  0.20513718538E+03  0.16592078197E+03  0.14275717136E+03  0.29998430074E+03  0.00000000000E+00 0. -1.
         -2    1    6    6    0  503  0.62788421178E+03  0.48569933071E+03  0.25747405818E+03  0.83452700010E+03  0.00000000000E+00 0.  1.
<mgrwt>
<rscale>  0 0.31367041E+04</rscale>
<asrwt>0</asrwt>
<pdfrwt beam="1">  1        1 0.52619297E+00 0.31367041E+04</pdfrwt>
<pdfrwt beam="2">  1       -2 0.11064081E+00 0.31367041E+04</pdfrwt>
<totfact> 0.13829438E-01</totfact>
</mgrwt>
</event>
<event>
12    4  0.4381187E-008  0.1924271E+04  0.7818608E-02  0.8642868E-01
          1   -1    0    0  501    0  0.00000000000E+00  0.00000000000E+00  0.37226708627E+04  0.37226708627E+04  0.00000000000E+00 0. -1.
         -4   -1    0    0    0  501 -0.00000000000E+00 -0.00000000000E+00 -0.24866688740E+03  0.24866688740E+03  0.00000000000E+00 0.  1.
        -24    2    1    2    0    0 -0.10550264400E+02  0.20577297759E+03  0.28603313724E+04  0.28688832408E+04  0.80880550894E+02 0.  0.
        254    2    1    2    0    0  0.10550264400E+02 -0.20577297759E+03  0.61367260291E+03  0.11024545092E+04  0.89238895945E+03 0.  0.
         23    2    4    4    0    0 -0.37217058002E+02 -0.54743628708E+03  0.38624586425E+03  0.67752454669E+03  0.93712570661E+02 0.  0.
         23    2    4    4    0    0  0.47767322402E+02  0.34166330949E+03  0.22742673866E+03  0.42492996253E+03  0.99131314218E+02 0.  0.
          1    1    3    3  502    0 -0.13311959183E+02  0.21148143838E+03  0.26508100995E+04  0.26592660248E+04  0.00000000000E+00 0. -1.
         -2    1    3    3    0  502  0.27616947828E+01 -0.57084607846E+01  0.20952127289E+03  0.20961721608E+03  0.00000000000E+00 0.  1.
         11    1    5    5    0    0 -0.63513137058E+02 -0.38340802952E+03  0.29562065078E+03  0.48829008268E+03  0.00000000000E+00 0. -1.
        -11    1    5    5    0    0  0.26296079055E+02 -0.16402825756E+03  0.90625213470E+02  0.18923446400E+03  0.00000000000E+00 0.  1.
          4    1    6    6  503    0  0.68659240137E+02  0.31797788652E+03  0.19317313985E+03  0.37833832681E+03  0.00000000000E+00 0. -1.
         -4    1    6    6    0  503 -0.20891917734E+02  0.23685422970E+02  0.34253598817E+02  0.46591635727E+02  0.00000000000E+00 0.  1.
<mgrwt>
<rscale>  0 0.19242713E+04</rscale>
<asrwt>0</asrwt>
<pdfrwt beam="1">  1        1 0.57271856E+00 0.19242713E+04</pdfrwt>
<pdfrwt beam="2">  1       -4 0.38256447E-01 0.19242713E+04</pdfrwt>
<totfact> 0.51873853E-01</totfact>
</mgrwt>
</event>
<event>
12    4  0.4381187E-008  0.2867926E+04  0.7818608E-02  0.8282485E-01
         -2   -1    0    0    0  501 -0.00000000000E+00  0.00000000000E+00  0.15283089384E+04  0.15283089384E+04  0.00000000000E+00 0.  1.
          1   -1    0    0  501    0  0.00000000000E+00 -0.00000000000E+00 -0.13454415688E+04  0.13454415688E+04  0.00000000000E+00 0. -1.
        -24    2    1    2    0    0  0.73925141870E+03 -0.39907514141E+02 -0.97827717514E+03  0.12294827386E+04  0.80723623962E+02 0.  0.
        254    2    1    2    0    0 -0.73925141870E+03  0.39907514141E+02  0.11611445448E+04  0.16442677686E+04  0.89848459700E+03 0.  0.
         23    2    4    4    0    0 -0.47243794082E+03  0.19662421666E+03  0.12108911937E+04  0.13177431320E+04  0.91273152981E+02 0.  0.
         23    2    4    4    0    0 -0.26681347788E+03 -0.15671670252E+03 -0.49746648894E+02  0.32652463655E+03  0.91619061188E+02 0.  0.
          3    1    3    3  502    0  0.22608191705E+03 -0.46741537957E+02 -0.32737887963E+03  0.40059297974E+03  0.00000000000E+00 0. -1.
         -4    1    3    3    0  502  0.51316950166E+03  0.68340238154E+01 -0.65089829551E+03  0.82888975890E+03  0.00000000000E+00 0.  1.
         11    1    5    5    0    0 -0.18906440090E+03  0.12021162676E+03  0.58568967140E+03  0.62707940014E+03  0.00000000000E+00 0. -1.
        -11    1    5    5    0    0 -0.28337353993E+03  0.76412589901E+02  0.62520152230E+03  0.69066373186E+03  0.00000000000E+00 0.  1.
          1    1    6    6  503    0 -0.22584564866E+03 -0.93553165037E+02 -0.18968633102E+02  0.24519025419E+03  0.00000000000E+00 0. -1.
         -1    1    6    6    0  503 -0.40967829216E+02 -0.63163537483E+02 -0.30778015791E+02  0.81334382361E+02  0.00000000000E+00 0.  1.
<mgrwt>
<rscale>  0 0.28679263E+04</rscale>
<asrwt>0</asrwt>
<pdfrwt beam="1">  1        1 0.20699101E+00 0.28679263E+04</pdfrwt>
<pdfrwt beam="2">  1       -2 0.23512445E+00 0.28679263E+04</pdfrwt>
<totfact> 0.50389742E-01</totfact>
</mgrwt>
</event>
<event>
12    4  0.4381187E-008  0.1732185E+04  0.7818608E-02  0.8743218E-01
          1   -1    0    0  501    0  0.00000000000E+00  0.00000000000E+00  0.12732928222E+04  0.12732928222E+04  0.00000000000E+00 0. -1.
         -2   -1    0    0    0  501 -0.00000000000E+00 -0.00000000000E+00 -0.58911544357E+03  0.58911544357E+03  0.00000000000E+00 0.  1.
        -24    2    1    2    0    0 -0.44577015804E+03  0.23550732324E+02  0.70552982464E+03  0.83876485285E+03  0.80551065319E+02 0.  0.
        254    2    1    2    0    0  0.44577015804E+03 -0.23550732324E+02 -0.21352445984E+02  0.10236434130E+04  0.92093660973E+03 0.  0.
         23    2    4    4    0    0  0.35416040518E+03  0.34205410092E+03  0.24040335035E+03  0.55581396531E+03  0.93299478138E+02 0.  0.
         23    2    4    4    0    0  0.91609752861E+02 -0.36560483325E+03 -0.26175579633E+03  0.46782944765E+03  0.91044243401E+02 0.  0.
          3    1    3    3  502    0 -0.14566821162E+03 -0.14415375405E+02  0.28932229918E+03  0.32424438889E+03  0.00000000000E+00 0. -1.
         -4    1    3    3    0  502 -0.30010194642E+03  0.37966107730E+02  0.41620752547E+03  0.51452046396E+03  0.00000000000E+00 0.  1.
         11    1    5    5    0    0  0.12787680933E+03  0.92737285334E+02  0.11948842822E+03  0.19806606709E+03  0.00000000000E+00 0. -1.
        -11    1    5    5    0    0  0.22628359585E+03  0.24931681559E+03  0.12091492213E+03  0.35774789822E+03  0.00000000000E+00 0.  1.
          3    1    6    6  503    0  0.82826314825E+02 -0.31573012806E+03 -0.25974234230E+03  0.41714721211E+03  0.00000000000E+00 0. -1.
         -3    1    6    6    0  503  0.87834380352E+01 -0.49874705189E+02 -0.20134540365E+01  0.50682235532E+02  0.00000000000E+00 0.  1.
<mgrwt>
<rscale>  0 0.17321853E+04</rscale>
<asrwt>0</asrwt>
<pdfrwt beam="1">  1        1 0.19589120E+00 0.17321853E+04</pdfrwt>
<pdfrwt beam="2">  1       -2 0.90633145E-01 0.17321853E+04</pdfrwt>
<totfact> 0.81841557E+00</totfact>
</mgrwt>
</event>
<event>
12    4  0.4381187E-008  0.2604233E+04  0.7818608E-02  0.8366765E-01
         -2   -1    0    0    0  501 -0.00000000000E+00  0.00000000000E+00  0.60895408313E+03  0.60895408313E+03  0.00000000000E+00 0.  1.
          1   -1    0    0  501    0  0.00000000000E+00 -0.00000000000E+00 -0.27842940329E+04  0.27842940329E+04  0.00000000000E+00 0. -1.
        -24    2    1    2    0    0  0.36223265555E+03  0.10621377822E+04 -0.68020023762E+03  0.13146826365E+04  0.79805427634E+02 0.  0.
        254    2    1    2    0    0 -0.36223265555E+03 -0.10621377822E+04 -0.14951397121E+04  0.20785654795E+04  0.90864873774E+03 0.  0.
         23    2    4    4    0    0 -0.35481240880E+03 -0.12016503524E+04 -0.14167967381E+04  0.18938654854E+04  0.97765356450E+02 0.  0.
         23    2    4    4    0    0 -0.74202467535E+01  0.13951257013E+03 -0.78342974044E+02  0.18469999411E+03  0.91965476981E+02 0.  0.
          1    1    3    3  502    0  0.16520973392E+02  0.92160049843E+02 -0.77378171319E+02  0.12146521620E+03  0.00000000000E+00 0. -1.
         -2    1    3    3    0  502  0.34571168216E+03  0.96997773239E+03 -0.60282206630E+03  0.11932174203E+04  0.00000000000E+00 0.  1.
         11    1    5    5    0    0 -0.18775652521E+03 -0.75389910711E+03 -0.82588535699E+03  0.11338884422E+04  0.00000000000E+00 0. -1.
        -11    1    5    5    0    0 -0.16705588359E+03 -0.44775124526E+03 -0.59091138111E+03  0.75997704321E+03  0.00000000000E+00 0.  1.
          3    1    6    6  503    0  0.35258511111E+02  0.43528724122E+02 -0.42986656663E+01  0.56181767114E+02  0.00000000000E+00 0. -1.
         -3    1    6    6    0  503 -0.42678757865E+02  0.95983846009E+02 -0.74044308378E+02  0.12851822700E+03  0.00000000000E+00 0.  1.
<mgrwt>
<rscale>  0 0.26042329E+04</rscale>
<asrwt>0</asrwt>
<pdfrwt beam="1">  1        1 0.42835293E+00 0.26042329E+04</pdfrwt>
<pdfrwt beam="2">  1       -2 0.93685243E-01 0.26042329E+04</pdfrwt>
<totfact> 0.63730971E-01</totfact>
</mgrwt>
</event>
<event>
12    4  0.4381187E-008  0.1353356E+04  0.7818608E-02  0.8988291E-01
          1   -1    0    0  501    0  0.00000000000E+00  0.00000000000E+00  0.43167327608E+03  0.43167327608E+03  0.00000000000E+00 0. -1.
         -2   -1    0    0    0  501 -0.00000000000E+00 -0.00000000000E+00 -0.10607402064E+04  0.10607402064E+04  0.00000000000E+00 0.  1.
        -24    2    1    2    0    0 -0.36390403488E+03  0.71896921507E+02 -0.18998856555E+03  0.42484853835E+03  0.82494312396E+02 0.  0.
        254    2    1    2    0    0  0.36390403488E+03 -0.71896921507E+02 -0.43907836475E+03  0.10675649441E+04  0.89961646581E+03 0.  0.
         23    2    4    4    0    0 -0.12712491192E+03 -0.33662134575E+03 -0.33632952074E+02  0.37271682360E+03  0.91170068993E+02 0.  0.
         23    2    4    4    0    0  0.49102894680E+03  0.26472442425E+03 -0.40544541267E+03  0.69484812050E+03  0.85085136913E+02 0.  0.
          1    1    3    3  502    0 -0.21129391155E+03  0.24879838110E+02 -0.66251396077E+02  0.22283036347E+03  0.00000000000E+00 0. -1.
         -2    1    3    3    0  502 -0.15261012333E+03  0.47017083397E+02 -0.12373716948E+03  0.20201817489E+03  0.00000000000E+00 0.  1.
         11    1    5    5    0    0 -0.16313577224E+02 -0.12295779528E+03 -0.44516054340E+02  0.13178175638E+03  0.00000000000E+00 0. -1.
        -11    1    5    5    0    0 -0.11081133469E+03 -0.21366355048E+03  0.10883102266E+02  0.24093506721E+03  0.00000000000E+00 0.  1.
          4    1    6    6  503    0  0.27139517083E+03  0.18490571158E+03 -0.20634586270E+03  0.38784542795E+03  0.00000000000E+00 0. -1.
         -4    1    6    6    0  503  0.21963377596E+03  0.79818712661E+02 -0.19909954997E+03  0.30700269255E+03  0.00000000000E+00 0.  1.
<mgrwt>
<rscale>  0 0.13533561E+04</rscale>
<asrwt>0</asrwt>
<pdfrwt beam="1">  1        1 0.66411274E-01 0.13533561E+04</pdfrwt>
<pdfrwt beam="2">  1       -2 0.16319080E+00 0.13533561E+04</pdfrwt>
<totfact> 0.11044560E+01</totfact>
</mgrwt>
</event>
<event>
12    4  0.4381187E-008  0.2066921E+04  0.7818608E-02  0.8575957E-01
          1   -1    0    0  501    0  0.00000000000E+00  0.00000000000E+00  0.22243340200E+04  0.22243340200E+04  0.00000000000E+00 0. -1.
         -2   -1    0    0    0  501 -0.00000000000E+00 -0.00000000000E+00 -0.48016187514E+03  0.48016187514E+03  0.00000000000E+00 0.  1.
        -24    2    1    2    0    0  0.45258168922E+03  0.22526888383E+03 -0.16163468711E+03  0.53655433337E+03  0.78667179531E+02 0.  0.
        254    2    1    2    0    0 -0.45258168922E+03 -0.22526888383E+03  0.19058068320E+04  0.21679415618E+04  0.90127392009E+03 0.  0.
         23    2    4    4    0    0 -0.39125043528E+03  0.20383127102E+03  0.15028241534E+04  0.15691069505E+04  0.94826662626E+02 0.  0.
         23    2    4    4    0    0 -0.61331253948E+02 -0.42910015485E+03  0.40298267866E+03  0.59883461135E+03  0.91210672846E+02 0.  0.
          3    1    3    3  502    0  0.12683428428E+03  0.42382464233E+02 -0.12501399131E+02  0.13431118316E+03  0.00000000000E+00 0. -1.
         -4    1    3    3    0  502  0.32574740495E+03  0.18288641960E+03 -0.14913328798E+03  0.40224315021E+03  0.00000000000E+00 0.  1.
         11    1    5    5    0    0  0.18651364894E+01  0.89678442603E+01  0.70340616826E+02  0.70934500352E+02  0.00000000000E+00 0. -1.
        -11    1    5    5    0    0 -0.39311557176E+03  0.19486342676E+03  0.14324835365E+04  0.14981724501E+04  0.00000000000E+00 0.  1.
          4    1    6    6  503    0 -0.49023420823E+02 -0.81580076939E+02  0.89875651550E+02  0.13090545246E+03  0.00000000000E+00 0. -1.
         -4    1    6    6    0  503 -0.12307833125E+02 -0.34752007791E+03  0.31310702711E+03  0.46792915888E+03  0.00000000000E+00 0.  1.
<mgrwt>
<rscale>  0 0.20669208E+04</rscale>
<asrwt>0</asrwt>
<pdfrwt beam="1">  1        1 0.34220523E+00 0.20669208E+04</pdfrwt>
<pdfrwt beam="2">  1       -2 0.73871059E-01 0.20669208E+04</pdfrwt>
<totfact> 0.28054932E+00</totfact>
</mgrwt>
</event>
<event>
12    4  0.4381187E-008  0.1488641E+04  0.7818608E-02  0.8892042E-01
          1   -1    0    0  501    0  0.00000000000E+00  0.00000000000E+00  0.81031747072E+03  0.81031747072E+03  0.00000000000E+00 0. -1.
         -2   -1    0    0    0  501 -0.00000000000E+00 -0.00000000000E+00 -0.68369853450E+03  0.68369853450E+03  0.00000000000E+00 0.  1.
        -24    2    1    2    0    0 -0.44275309837E+03 -0.32065946643E+02  0.18868580627E+03  0.48899950402E+03  0.80371950314E+02 0.  0.
        254    2    1    2    0    0  0.44275309837E+03  0.32065946643E+02 -0.62066870049E+02  0.10050165012E+04  0.89952617543E+03 0.  0.
         23    2    4    4    0    0  0.15675165457E+03 -0.15372015131E+03  0.37547250296E+03  0.44349754389E+03  0.86657399142E+02 0.  0.
         23    2    4    4    0    0  0.28600144379E+03  0.18578609796E+03 -0.43753937301E+03  0.56151895731E+03  0.86888068457E+02 0.  0.
          1    1    3    3  502    0 -0.44583381506E+03 -0.33395178224E+02  0.18455349639E+03  0.48367656715E+03  0.00000000000E+00 0. -1.
         -2    1    3    3    0  502  0.30807166960E+01  0.13292315808E+01  0.41323098823E+01  0.53229368698E+01  0.00000000000E+00 0.  1.
         11    1    5    5    0    0  0.30596892112E+02 -0.89251051854E+02  0.15182818146E+03  0.17875602577E+03  0.00000000000E+00 0. -1.
        -11    1    5    5    0    0  0.12615476246E+03 -0.64469099458E+02  0.22364432150E+03  0.26474151812E+03  0.00000000000E+00 0.  1.
          3    1    6    6  503    0  0.27884761942E+03  0.19123688280E+03 -0.40414770800E+03  0.52693729236E+03  0.00000000000E+00 0. -1.
         -3    1    6    6    0  503  0.71538243779E+01 -0.54507848470E+01 -0.33391665009E+02  0.34581664951E+02  0.00000000000E+00 0.  1.
<mgrwt>
<rscale>  0 0.14886408E+04</rscale>
<asrwt>0</asrwt>
<pdfrwt beam="1">  1        1 0.12466423E+00 0.14886408E+04</pdfrwt>
<pdfrwt beam="2">  1       -2 0.10518439E+00 0.14886408E+04</pdfrwt>
<totfact> 0.13446810E+01</totfact>
</mgrwt>
</event>
<event>
12    4  0.5408216E-008  0.2505944E+04  0.7818608E-02  0.8400871E-01
         -2   -1    0    0    0  501 -0.00000000000E+00  0.00000000000E+00  0.11617163178E+04  0.11617163178E+04  0.00000000000E+00 0.  1.
          1   -1    0    0  501    0  0.00000000000E+00 -0.00000000000E+00 -0.13513965543E+04  0.13513965543E+04  0.00000000000E+00 0. -1.
        -24    2    1    2    0    0 -0.24040346574E+02 -0.10480595625E+04  0.23147112068E+03  0.10765623521E+04  0.80005209003E+02 0.  0.
        254    2    1    2    0    0  0.24040346574E+02  0.10480595625E+04 -0.42115135725E+03  0.14365505200E+04  0.88730048231E+03 0.  0.
         23    2    4    4    0    0 -0.44434255381E+00  0.68469301642E+03 -0.68922508601E+03  0.97559393710E+03  0.89149238555E+02 0.  0.
         23    2    4    4    0    0  0.24484689128E+02  0.36336654608E+03  0.26807372875E+03  0.46095658288E+03  0.89345959296E+02 0.  0.
          3    1    3    3  502    0 -0.15574671741E+02 -0.35235354519E+02  0.84162153416E+01  0.39432642425E+02  0.00000000000E+00 0. -1.
         -4    1    3    3    0  502 -0.84656748331E+01 -0.10128242080E+04  0.22305490534E+03  0.10371297097E+04  0.00000000000E+00 0.  1.
         11    1    5    5    0    0 -0.32347413300E+02  0.58038454345E+03 -0.58657589179E+03  0.82581102575E+03  0.00000000000E+00 0.  1.
        -11    1    5    5    0    0  0.31903070747E+02  0.10430847297E+03 -0.10264919422E+03  0.14978291134E+03  0.00000000000E+00 0. -1.
          1    1    6    6  503    0  0.69003274609E+01  0.34898394769E+03  0.26452883913E+03  0.43796451568E+03  0.00000000000E+00 0. -1.
         -1    1    6    6    0  503  0.17584361667E+02  0.14382598386E+02  0.35448896240E+01  0.22992067198E+02  0.00000000000E+00 0.  1.
<mgrwt>
<rscale>  0 0.25059445E+04</rscale>
<asrwt>0</asrwt>
<pdfrwt beam="1">  1        1 0.20790716E+00 0.25059445E+04</pdfrwt>
<pdfrwt beam="2">  1       -2 0.17872559E+00 0.25059445E+04</pdfrwt>
<totfact> 0.11992559E+00</totfact>
</mgrwt>
</event>
<event>
12    4  0.4381187E-008  0.2074265E+04  0.7818608E-02  0.8572665E-01
          1   -1    0    0  501    0  0.00000000000E+00  0.00000000000E+00  0.80088891683E+03  0.80088891683E+03  0.00000000000E+00 0. -1.
         -2   -1    0    0    0  501 -0.00000000000E+00 -0.00000000000E+00 -0.13430627053E+04  0.13430627053E+04  0.00000000000E+00 0.  1.
        -24    2    1    2    0    0  0.76020523109E+03 -0.34585044246E+03 -0.12871350104E+03  0.84880946621E+03  0.79911342514E+02 0.  0.
        254    2    1    2    0    0 -0.76020523109E+03  0.34585044246E+03 -0.41346028746E+03  0.12951421559E+04  0.89939939564E+03 0.  0.
         23    2    4    4    0    0 -0.21118172929E+03 -0.28521131728E+03 -0.23456281092E+03  0.43479353172E+03  0.89902639944E+02 0.  0.
         23    2    4    4    0    0 -0.54902350180E+03  0.63106175974E+03 -0.17889747654E+03  0.86034862422E+03  0.92356363871E+02 0.  0.
          1    1    3    3  502    0  0.70620597230E+03 -0.32506159182E+03 -0.98822689245E+02  0.78368223005E+03  0.00000000000E+00 0. -1.
         -2    1    3    3    0  502  0.53999258785E+02 -0.20788850639E+02 -0.29890811792E+02  0.65127236160E+02  0.00000000000E+00 0.  1.
         11    1    5    5    0    0 -0.11969283922E+02 -0.29745475633E+02  0.42257420279E+01  0.32340593283E+02  0.00000000000E+00 0.  1.
        -11    1    5    5    0    0 -0.19921244536E+03 -0.25546584165E+03 -0.23878855295E+03  0.40245293844E+03  0.00000000000E+00 0. -1.
          4    1    6    6  503    0 -0.25753192583E+03  0.36001933132E+03 -0.74749236974E+02  0.44891431273E+03  0.00000000000E+00 0. -1.
         -4    1    6    6    0  503 -0.29149157597E+03  0.27104242842E+03 -0.10414823957E+03  0.41143431149E+03  0.00000000000E+00 0.  1.
<mgrwt>
<rscale>  0 0.20742652E+04</rscale>
<asrwt>0</asrwt>
<pdfrwt beam="1">  1        1 0.12321368E+00 0.20742652E+04</pdfrwt>
<pdfrwt beam="2">  1       -2 0.20662503E+00 0.20742652E+04</pdfrwt>
<totfact> 0.21452580E+00</totfact>
</mgrwt>
</event>
<event>
12    4  0.4381187E-008  0.2264502E+04  0.7818608E-02  0.8492050E-01
         -2   -1    0    0    0  501 -0.00000000000E+00  0.00000000000E+00  0.77424739131E+03  0.77424739131E+03  0.00000000000E+00 0.  1.
          1   -1    0    0  501    0  0.00000000000E+00 -0.00000000000E+00 -0.16557921675E+04  0.16557921675E+04  0.00000000000E+00 0. -1.
        -24    2    1    2    0    0  0.80261150004E+03 -0.44853627011E+03 -0.12880460118E+03  0.93187089254E+03  0.80141933270E+02 0.  0.
        254    2    1    2    0    0 -0.80261150004E+03  0.44853627011E+03 -0.75274017506E+03  0.14981686663E+04  0.91242620303E+03 0.  0.
         23    2    4    4    0    0 -0.83804846958E+03  0.42942315043E+03 -0.91176051169E+03  0.13135204379E+04  0.85435535461E+02 0.  0.
         23    2    4    4    0    0  0.35436969539E+02  0.19113119681E+02  0.15902033662E+03  0.18464822838E+03  0.84772699788E+02 0.  0.
          3    1    3    3  502    0  0.40509848981E+03 -0.24107427185E+03 -0.27683142517E+02  0.47221599653E+03  0.00000000000E+00 0. -1.
         -4    1    3    3    0  502  0.39751301023E+03 -0.20746199826E+03 -0.10112145866E+03  0.45965489601E+03  0.00000000000E+00 0.  1.
         11    1    5    5    0    0 -0.82994058161E+03  0.41748384572E+03 -0.88486045583E+03  0.12829934360E+04  0.00000000000E+00 0.  1.
        -11    1    5    5    0    0 -0.81078879685E+01  0.11939304711E+02 -0.26900055855E+02  0.30527001970E+02  0.00000000000E+00 0. -1.
          4    1    6    6  503    0 -0.12747554664E+02  0.84022605887E+01 -0.27513856217E+01  0.15513486254E+02  0.00000000000E+00 0. -1.
         -4    1    6    6    0  503  0.48184524204E+02  0.10710859092E+02  0.16177172225E+03  0.16913474212E+03  0.00000000000E+00 0.  1.
<mgrwt>
<rscale>  0 0.22645024E+04</rscale>
<asrwt>0</asrwt>
<pdfrwt beam="1">  1        1 0.25473725E+00 0.22645024E+04</pdfrwt>
<pdfrwt beam="2">  1       -2 0.11911498E+00 0.22645024E+04</pdfrwt>
<totfact> 0.22003174E+00</totfact>
</mgrwt>
</event>
<event>
12    4  0.4381187E-008  0.1992457E+04  0.7818608E-02  0.8610155E-01
          1   -1    0    0  501    0  0.00000000000E+00  0.00000000000E+00  0.17172169616E+04  0.17172169616E+04  0.00000000000E+00 0. -1.
         -2   -1    0    0    0  501 -0.00000000000E+00 -0.00000000000E+00 -0.57795324032E+03  0.57795324032E+03  0.00000000000E+00 0.  1.
        -24    2    1    2    0    0 -0.69914889101E+03  0.18266429911E+03  0.71759212492E+03  0.10215036755E+04  0.79723793803E+02 0.  0.
        254    2    1    2    0    0  0.69914889101E+03 -0.18266429911E+03  0.42167159633E+03  0.12736665264E+04  0.96033539318E+03 0.  0.
         23    2    4    4    0    0 -0.13963303759E+03 -0.20395193325E+03  0.33359554487E+03  0.42565292061E+03  0.93811753023E+02 0.  0.
         23    2    4    4    0    0  0.83878192860E+03  0.21287634143E+02  0.88076051464E+02  0.84801360580E+03  0.85798587816E+02 0.  0.
          3    1    3    3  502    0 -0.11864604019E+03  0.56670614695E+02  0.15627250385E+03  0.20422912838E+03  0.00000000000E+00 0. -1.
         -4    1    3    3    0  502 -0.58050285082E+03  0.12599368441E+03  0.56131962108E+03  0.81727454710E+03  0.00000000000E+00 0.  1.
         11    1    5    5    0    0 -0.52776810887E+02 -0.71443171245E+02  0.53048403556E+02  0.10345845352E+03  0.00000000000E+00 0. -1.
        -11    1    5    5    0    0 -0.86856226705E+02 -0.13250876200E+03  0.28054714131E+03  0.32219446709E+03  0.00000000000E+00 0.  1.
          1    1    6    6  503    0  0.53966544475E+03  0.47856532820E+02  0.79603140170E+02  0.54759994514E+03  0.00000000000E+00 0. -1.
         -1    1    6    6    0  503  0.29911648385E+03 -0.26568898677E+02  0.84729112940E+01  0.30041366067E+03  0.00000000000E+00 0.  1.
<mgrwt>
<rscale>  0 0.19924569E+04</rscale>
<asrwt>0</asrwt>
<pdfrwt beam="1">  1        1 0.26418722E+00 0.19924569E+04</pdfrwt>
<pdfrwt beam="2">  1       -2 0.88915884E-01 0.19924569E+04</pdfrwt>
<totfact> 0.41083839E+00</totfact>
</mgrwt>
</event>
<event>
12    4  0.4381187E-008  0.1553092E+04  0.7818608E-02  0.8849895E-01
         -4   -1    0    0    0  501 -0.00000000000E+00  0.00000000000E+00  0.41600385999E+03  0.41600385999E+03  0.00000000000E+00 0.  1.
          3   -1    0    0  501    0  0.00000000000E+00 -0.00000000000E+00 -0.14495628416E+04  0.14495628416E+04  0.00000000000E+00 0. -1.
        -24    2    1    2    0    0 -0.18423558685E+03 -0.21603528480E+03  0.16637647508E+03  0.33844520921E+03  0.79057146645E+02 0.  0.
        254    2    1    2    0    0  0.18423558685E+03  0.21603528480E+03 -0.11999354567E+04  0.15271214924E+04  0.90091118128E+03 0.  0.
         23    2    4    4    0    0  0.50454431989E+03 -0.32224151166E+02 -0.78867936058E+03  0.94246942557E+03  0.10310246202E+03 0.  0.
         23    2    4    4    0    0 -0.32030873304E+03  0.24825943597E+03 -0.41125609616E+03  0.58465206685E+03  0.91956678073E+02 0.  0.
          3    1    3    3  502    0 -0.10241385891E+03 -0.15860341455E+03  0.75452900410E+02  0.20331448985E+03  0.00000000000E+00 0. -1.
         -4    1    3    3    0  502 -0.81821727943E+02 -0.57431870256E+02  0.90923574666E+02  0.13513071936E+03  0.00000000000E+00 0.  1.
         11    1    5    5    0    0  0.42356274236E+03 -0.65086574740E+02 -0.65987888334E+03  0.78681751353E+03  0.00000000000E+00 0.  1.
        -11    1    5    5    0    0  0.80981577531E+02  0.32862423574E+02 -0.12880047724E+03  0.15565191203E+03  0.00000000000E+00 0. -1.
          1    1    6    6  503    0 -0.20376231653E+03  0.11192725219E+03 -0.19298585508E+03  0.30214289944E+03  0.00000000000E+00 0. -1.
         -1    1    6    6    0  503 -0.11654641651E+03  0.13633218377E+03 -0.21827024107E+03  0.28250916741E+03  0.00000000000E+00 0.  1.
<mgrwt>
<rscale>  0 0.15530921E+04</rscale>
<asrwt>0</asrwt>
<pdfrwt beam="1">  1        3 0.22300967E+00 0.15530921E+04</pdfrwt>
<pdfrwt beam="2">  1       -4 0.64000594E-01 0.15530921E+04</pdfrwt>
<totfact> 0.53543155E-01</totfact>
</mgrwt>
</event>
<event>
12    4  0.4381187E-008  0.1482057E+04  0.7818608E-02  0.8896473E-01
         -4   -1    0    0    0  501 -0.00000000000E+00  0.00000000000E+00  0.52476289698E+03  0.52476289698E+03  0.00000000000E+00 0.  1.
          1   -1    0    0  501    0  0.00000000000E+00 -0.00000000000E+00 -0.10464212232E+04  0.10464212232E+04  0.00000000000E+00 0. -1.
        -24    2    1    2    0    0  0.35285110845E+02  0.24263711476E+03  0.24691144669E+03  0.35740196413E+03  0.81566494033E+02 0.  0.
        254    2    1    2    0    0 -0.35285110845E+02 -0.24263711476E+03 -0.76856977290E+03  0.12137821560E+04  0.90689019071E+03 0.  0.
         23    2    4    4    0    0  0.33869526117E+03 -0.33584989701E+03 -0.62677026409E+03  0.79303305446E+03  0.92470688639E+02 0.  0.
         23    2    4    4    0    0 -0.37398037202E+03  0.93212782246E+02 -0.14179950881E+03  0.42074910158E+03  0.91502810637E+02 0.  0.
          1    1    3    3  502    0 -0.21888716527E+02  0.31314271016E+02  0.24872975550E+02  0.45589081951E+02  0.00000000000E+00 0. -1.
         -2    1    3    3    0  502  0.57173827372E+02  0.21132284374E+03  0.22203847114E+03  0.31181288218E+03  0.00000000000E+00 0.  1.
         11    1    5    5    0    0  0.26279228141E+03 -0.30078274732E+03 -0.48337748617E+03  0.62704372925E+03  0.00000000000E+00 0. -1.
        -11    1    5    5    0    0  0.75902979756E+02 -0.35067149683E+02 -0.14339277792E+03  0.16598932521E+03  0.00000000000E+00 0.  1.
          4    1    6    6  503    0 -0.36467234476E+03  0.89378042069E+02 -0.15321981599E+03  0.40552517240E+03  0.00000000000E+00 0. -1.
         -4    1    6    6    0  503 -0.93080272599E+01  0.38347401772E+01  0.11420307182E+02  0.15223929185E+02  0.00000000000E+00 0.  1.
<mgrwt>
<rscale>  0 0.14820567E+04</rscale>
<asrwt>0</asrwt>
<pdfrwt beam="1">  1        1 0.16098788E+00 0.14820567E+04</pdfrwt>
<pdfrwt beam="2">  1       -4 0.80732754E-01 0.14820567E+04</pdfrwt>
<totfact> 0.89318911E+00</totfact>
</mgrwt>
</event>
<event>
12    4  0.4381187E-008  0.1349270E+04  0.7818608E-02  0.8991381E-01
         -2   -1    0    0    0  501 -0.00000000000E+00  0.00000000000E+00  0.63414369977E+03  0.63414369977E+03  0.00000000000E+00 0.  1.
          1   -1    0    0  501    0  0.00000000000E+00 -0.00000000000E+00 -0.71771137535E+03  0.71771137535E+03  0.00000000000E+00 0. -1.
        -24    2    1    2    0    0  0.17075962435E+03  0.24693214440E+03 -0.22750313824E+03  0.38541599647E+03  0.81568861575E+02 0.  0.
        254    2    1    2    0    0 -0.17075962435E+03 -0.24693214440E+03  0.14393546266E+03  0.96643907866E+03  0.90727765436E+03 0.  0.
         23    2    4    4    0    0 -0.53725069741E+02 -0.56002139233E+03 -0.45525552492E+02  0.57126585507E+03  0.88100841412E+02 0.  0.
         23    2    4    4    0    0 -0.11703455461E+03  0.31308924793E+03  0.18946101515E+03  0.39517322358E+03  0.92436119758E+02 0.  0.
          1    1    3    3  502    0  0.15753476566E+03  0.18516585865E+03 -0.15093510631E+03  0.28615555896E+03  0.00000000000E+00 0. -1.
         -2    1    3    3    0  502  0.13224858685E+02  0.61766285747E+02 -0.76568031922E+02  0.99260437510E+02  0.00000000000E+00 0.  1.
         11    1    5    5    0    0 -0.69277121164E+02 -0.27892674478E+03 -0.10756677727E+02  0.28760242452E+03  0.00000000000E+00 0. -1.
        -11    1    5    5    0    0  0.15552051423E+02 -0.28109464754E+03 -0.34768874765E+02  0.28366343055E+03  0.00000000000E+00 0.  1.
          1    1    6    6  503    0 -0.66527312905E+02  0.27306918634E+03  0.16701529085E+03  0.32693542370E+03  0.00000000000E+00 0. -1.
         -1    1    6    6    0  503 -0.50507241704E+02  0.40020061588E+02  0.22445724301E+02  0.68237799887E+02  0.00000000000E+00 0.  1.
<mgrwt>
<rscale>  0 0.13492696E+04</rscale>
<asrwt>0</asrwt>
<pdfrwt beam="1">  1        1 0.11041713E+00 0.13492696E+04</pdfrwt>
<pdfrwt beam="2">  1       -2 0.97560569E-01 0.13492696E+04</pdfrwt>
<totfact> 0.19683994E+01</totfact>
</mgrwt>
</event>
<event>
12    4  0.4381187E-008  0.3345691E+04  0.7818608E-02  0.8151366E-01
          1   -1    0    0  501    0  0.00000000000E+00  0.00000000000E+00  0.20993022058E+04  0.20993022058E+04  0.00000000000E+00 0. -1.
         -2   -1    0    0    0  501 -0.00000000000E+00 -0.00000000000E+00 -0.13330201582E+04  0.13330201582E+04  0.00000000000E+00 0.  1.
        -24    2    1    2    0    0  0.51907227638E+02 -0.21765466237E+02 -0.12348033810E+04  0.12383439923E+04  0.74755318878E+02 0.  0.
        254    2    1    2    0    0 -0.51907227638E+02  0.21765466237E+02  0.20010854285E+04  0.21939783717E+04  0.89779179519E+03 0.  0.
         23    2    4    4    0    0  0.20143424679E+03  0.25375288496E+03  0.16806883651E+04  0.17140984365E+04  0.91944478673E+02 0.  0.
         23    2    4    4    0    0 -0.25334147443E+03 -0.23198741872E+03  0.32039706344E+03  0.47987993519E+03  0.98134646425E+02 0.  0.
          3    1    3    3  502    0  0.34986336687E+02 -0.48437855535E+02 -0.92712970243E+03  0.92905314957E+03  0.00000000000E+00 0. -1.
         -4    1    3    3    0  502  0.16920890951E+02  0.26672389298E+02 -0.30767367858E+03  0.30929084272E+03  0.00000000000E+00 0.  1.
         11    1    5    5    0    0 -0.42262709418E+01  0.31339656580E+02  0.22620288309E+03  0.22840267021E+03  0.00000000000E+00 0.  1.
        -11    1    5    5    0    0  0.20566051773E+03  0.22241322838E+03  0.14544854820E+04  0.14856957663E+04  0.00000000000E+00 0. -1.
          2    1    6    6  503    0 -0.22703092017E+03 -0.23398151602E+03  0.31418585788E+03  0.45277272648E+03  0.00000000000E+00 0. -1.
         -2    1    6    6    0  503 -0.26310554258E+02  0.19940973014E+01  0.62112055530E+01  0.27107208706E+02  0.00000000000E+00 0.  1.
<mgrwt>
<rscale>  0 0.33456911E+04</rscale>
<asrwt>0</asrwt>
<pdfrwt beam="1">  1        1 0.32296957E+00 0.33456911E+04</pdfrwt>
<pdfrwt beam="2">  1       -2 0.20508003E+00 0.33456911E+04</pdfrwt>
<totfact> 0.22845845E-01</totfact>
</mgrwt>
</event>
<event>
12    4  0.4381187E-008  0.2405291E+04  0.7818608E-02  0.8437525E-01
          1   -1    0    0  501    0  0.00000000000E+00  0.00000000000E+00  0.10694714801E+04  0.10694714801E+04  0.00000000000E+00 0. -1.
         -2   -1    0    0    0  501 -0.00000000000E+00 -0.00000000000E+00 -0.13524030876E+04  0.13524030876E+04  0.00000000000E+00 0.  1.
        -24    2    1    2    0    0 -0.32886979847E+03  0.48532471656E+03 -0.97527830326E+03  0.11407470908E+04  0.80254168732E+02 0.  0.
        254    2    1    2    0    0  0.32886979847E+03 -0.48532471656E+03  0.69234669584E+03  0.12811274769E+04  0.90457074897E+03 0.  0.
         23    2    4    4    0    0 -0.99906968809E+02  0.21281054474E+03  0.12931132948E+03  0.28288128959E+03  0.89614026244E+02 0.  0.
         23    2    4    4    0    0  0.42877676728E+03 -0.69813526131E+03  0.56303536636E+03  0.99824618727E+03  0.90797948201E+02 0.  0.
          3    1    3    3  502    0 -0.10975589022E+03  0.12093121314E+03 -0.21976135200E+03  0.27379876841E+03  0.00000000000E+00 0. -1.
         -4    1    3    3    0  502 -0.21911390825E+03  0.36439350342E+03 -0.75551695126E+03  0.86694832243E+03  0.00000000000E+00 0.  1.
         11    1    5    5    0    0 -0.79671777077E+02  0.16904896280E+03  0.13998899268E+03  0.23349959734E+03  0.00000000000E+00 0.  1.
        -11    1    5    5    0    0 -0.20235191732E+02  0.43761581940E+02 -0.10677663197E+02  0.49381692252E+02  0.00000000000E+00 0. -1.
          2    1    6    6  503    0  0.29160570827E+03 -0.48331934492E+03  0.43728093046E+03  0.71403507646E+03  0.00000000000E+00 0. -1.
         -2    1    6    6    0  503  0.13717105901E+03 -0.21481591638E+03  0.12575443590E+03  0.28421111081E+03  0.00000000000E+00 0.  1.
<mgrwt>
<rscale>  0 0.24052913E+04</rscale>
<asrwt>0</asrwt>
<pdfrwt beam="1">  1        1 0.16453407E+00 0.24052913E+04</pdfrwt>
<pdfrwt beam="2">  1       -2 0.20806201E+00 0.24052913E+04</pdfrwt>
<totfact> 0.12380288E+00</totfact>
</mgrwt>
</event>
<event>
12    4  0.4381187E-008  0.1640595E+04  0.7818608E-02  0.8795990E-01
          1   -1    0    0  501    0  0.00000000000E+00  0.00000000000E+00  0.25328408410E+04  0.25328408410E+04  0.00000000000E+00 0. -1.
         -2   -1    0    0    0  501 -0.00000000000E+00 -0.00000000000E+00 -0.26566519165E+03  0.26566519165E+03  0.00000000000E+00 0.  1.
        -24    2    1    2    0    0 -0.50094582184E+03  0.24641719109E+03  0.59946973951E+03  0.82361248108E+03  0.85471643982E+02 0.  0.
        254    2    1    2    0    0  0.50094582184E+03 -0.24641719109E+03  0.16677059098E+04  0.19748935515E+04  0.89849506942E+03 0.  0.
         23    2    4    4    0    0 -0.24948259500E+03 -0.97546102451E+02  0.54437147028E+03  0.61266578788E+03  0.85218910308E+02 0.  0.
         23    2    4    4    0    0  0.75042841683E+03 -0.14887108864E+03  0.11233344395E+04  0.13622277636E+04  0.92080438732E+02 0.  0.
          1    1    3    3  502    0 -0.96742274712E+02  0.80395012393E+02  0.16420790034E+03  0.20684936613E+03  0.00000000000E+00 0. -1.
         -4    1    3    3    0  502 -0.40420354712E+03  0.16602217870E+03  0.43526183917E+03  0.61676311495E+03  0.00000000000E+00 0.  1.
         11    1    5    5    0    0 -0.23720040989E+03 -0.10973953718E+03  0.48645225531E+03  0.55221607833E+03  0.00000000000E+00 0.  1.
        -11    1    5    5    0    0 -0.12282185106E+02  0.12193434731E+02  0.57919214975E+02  0.60449709551E+02  0.00000000000E+00 0. -1.
          3    1    6    6  503    0  0.17568231751E+03 -0.72163041477E+02  0.25089602389E+03  0.31467538201E+03  0.00000000000E+00 0. -1.
         -3    1    6    6    0  503  0.57474609932E+03 -0.76708047162E+02  0.87243841563E+03  0.10475523816E+04  0.00000000000E+00 0.  1.
<mgrwt>
<rscale>  0 0.16405946E+04</rscale>
<asrwt>0</asrwt>
<pdfrwt beam="1">  1        1 0.38966780E+00 0.16405946E+04</pdfrwt>
<pdfrwt beam="2">  1       -2 0.40871570E-01 0.16405946E+04</pdfrwt>
<totfact> 0.61314676E+00</totfact>
</mgrwt>
</event>
<event>
12    4  0.4381187E-008  0.1721135E+04  0.7818608E-02  0.8749401E-01
         -2   -1    0    0    0  501 -0.00000000000E+00  0.00000000000E+00  0.69967133084E+03  0.69967133084E+03  0.00000000000E+00 0.  1.
          1   -1    0    0  501    0  0.00000000000E+00 -0.00000000000E+00 -0.10584637328E+04  0.10584637328E+04  0.00000000000E+00 0. -1.
        -24    2    1    2    0    0 -0.36766038776E+03  0.50477886630E+03 -0.86876911724E+01  0.62967109079E+03  0.80214350430E+02 0.  0.
        254    2    1    2    0    0  0.36766038776E+03 -0.50477886630E+03 -0.35010471080E+03  0.11284639729E+04  0.87228536898E+03 0.  0.
         23    2    4    4    0    0 -0.23970702270E+03 -0.32320735318E+03 -0.24460338059E+03  0.47943575097E+03  0.90029859664E+02 0.  0.
         23    2    4    4    0    0  0.60736741046E+03 -0.18157151312E+03 -0.10550133021E+03  0.64902822189E+03  0.90794914321E+02 0.  0.
          3    1    3    3  502    0 -0.12013120943E+03  0.18378523451E+03 -0.39751434789E+02  0.22313380844E+03  0.00000000000E+00 0. -1.
         -4    1    3    3    0  502 -0.24752917832E+03  0.32099363179E+03  0.31063743617E+02  0.40653728235E+03  0.00000000000E+00 0.  1.
         11    1    5    5    0    0 -0.19043566626E+03 -0.23408709136E+03 -0.22329321664E+03  0.37539628384E+03  0.00000000000E+00 0.  1.
        -11    1    5    5    0    0 -0.49271356446E+02 -0.89120261825E+02 -0.21310163946E+02  0.10403946713E+03  0.00000000000E+00 0. -1.
          2    1    6    6  503    0  0.96592674655E+02 -0.23508921652E+02 -0.50587212358E+02  0.11154317661E+03  0.00000000000E+00 0. -1.
         -2    1    6    6    0  503  0.51077473581E+03 -0.15806259146E+03 -0.54914117853E+02  0.53748504528E+03  0.00000000000E+00 0.  1.
<mgrwt>
<rscale>  0 0.17211354E+04</rscale>
<asrwt>0</asrwt>
<pdfrwt beam="1">  1        1 0.16284057E+00 0.17211354E+04</pdfrwt>
<pdfrwt beam="2">  1       -2 0.10764174E+00 0.17211354E+04</pdfrwt>
<totfact> 0.78625257E+00</totfact>
</mgrwt>
</event>
<event>
12    4  0.4381187E-008  0.1548406E+04  0.7818608E-02  0.8852887E-01
          1   -1    0    0  501    0  0.00000000000E+00  0.00000000000E+00  0.22934728851E+04  0.22934728851E+04  0.00000000000E+00 0. -1.
         -4   -1    0    0    0  501 -0.00000000000E+00 -0.00000000000E+00 -0.26134606254E+03  0.26134606254E+03  0.00000000000E+00 0.  1.
        -24    2    1    2    0    0 -0.30840405423E+03  0.32528317755E+03  0.11592639179E+04  0.12453926594E+04  0.78662815711E+02 0.  0.
        254    2    1    2    0    0  0.30840405423E+03 -0.32528317755E+03  0.87286290470E+03  0.13094262882E+04  0.86705556205E+03 0.  0.
         23    2    4    4    0    0  0.33846887657E+03 -0.54839446439E+02  0.95127609712E+03  0.10154268179E+04  0.92719276440E+02 0.  0.
         23    2    4    4    0    0 -0.30064822339E+02 -0.27044373111E+03 -0.78413192422E+02  0.29399947036E+03  0.79014901071E+02 0.  0.
          3    1    3    3  502    0 -0.24735069498E+03  0.23213708350E+03  0.94259131658E+03  0.10017726199E+04  0.00000000000E+00 0. -1.
         -4    1    3    3    0  502 -0.61053359250E+02  0.93146094048E+02  0.21667260128E+03  0.24362003953E+03  0.00000000000E+00 0.  1.
         11    1    5    5    0    0  0.29154960394E+03 -0.41777206675E+02  0.88805062343E+03  0.93561766568E+03  0.00000000000E+00 0. -1.
        -11    1    5    5    0    0  0.46919272624E+02 -0.13062239765E+02  0.63225473686E+02  0.79809152195E+02  0.00000000000E+00 0.  1.
          3    1    6    6  503    0 -0.39121556779E+02 -0.26616696089E+03 -0.64147188415E+02  0.27656863353E+03  0.00000000000E+00 0. -1.
         -3    1    6    6    0  503  0.90567344400E+01 -0.42767702168E+01 -0.14266004007E+02  0.17430836828E+02  0.00000000000E+00 0.  1.
<mgrwt>
<rscale>  0 0.15484058E+04</rscale>
<asrwt>0</asrwt>
<pdfrwt beam="1">  1        1 0.35284197E+00 0.15484058E+04</pdfrwt>
<pdfrwt beam="2">  1       -4 0.40207088E-01 0.15484058E+04</pdfrwt>
<totfact> 0.54343133E+00</totfact>
</mgrwt>
</event>
<event>
12    4  0.4381187E-008  0.2387538E+04  0.7818608E-02  0.8444184E-01
         -2   -1    0    0    0  501 -0.00000000000E+00  0.00000000000E+00  0.78055352529E+03  0.78055352529E+03  0.00000000000E+00 0.  1.
          1   -1    0    0  501    0  0.00000000000E+00 -0.00000000000E+00 -0.18257358176E+04  0.18257358176E+04  0.00000000000E+00 0. -1.
        -24    2    1    2    0    0  0.89563685855E+02 -0.94796049915E+03 -0.41588710922E+02  0.95667773024E+03  0.82776185604E+02 0.  0.
        254    2    1    2    0    0 -0.89563685855E+02  0.94796049915E+03 -0.10035935814E+04  0.16496116126E+04  0.89853638447E+03 0.  0.
         23    2    4    4    0    0  0.27007321365E+03  0.58024357403E+02 -0.45337702675E+03  0.53864714732E+03  0.91014582071E+02 0.  0.
         23    2    4    4    0    0 -0.35963689951E+03  0.88993614174E+03 -0.55021655463E+03  0.11109644653E+04  0.10088979313E+03 0.  0.
          3    1    3    3  502    0  0.35860854124E+02 -0.57629900653E+03 -0.61179486383E+02  0.58064573997E+03  0.00000000000E+00 0. -1.
         -4    1    3    3    0  502  0.53702831730E+02 -0.37166149261E+03  0.19590775461E+02  0.37603199027E+03  0.00000000000E+00 0.  1.
         11    1    5    5    0    0  0.17927965746E+03  0.21991644026E+02 -0.36352339715E+03  0.40592374685E+03  0.00000000000E+00 0.  1.
        -11    1    5    5    0    0  0.90793556189E+02  0.36032713378E+02 -0.89853629600E+02  0.13272340047E+03  0.00000000000E+00 0. -1.
          2    1    6    6  503    0 -0.14420236805E+03  0.34095418121E+03 -0.26899366549E+03  0.45760427086E+03  0.00000000000E+00 0. -1.
         -2    1    6    6    0  503 -0.21543453145E+03  0.54898196053E+03 -0.28122288914E+03  0.65336019446E+03  0.00000000000E+00 0.  1.
<mgrwt>
<rscale>  0 0.23875381E+04</rscale>
<asrwt>0</asrwt>
<pdfrwt beam="1">  1        1 0.28088243E+00 0.23875381E+04</pdfrwt>
<pdfrwt beam="2">  1       -2 0.12008516E+00 0.23875381E+04</pdfrwt>
<totfact> 0.16346147E+00</totfact>
</mgrwt>
</event>
<event>
12    4  0.4381187E-008  0.1703350E+04  0.7818608E-02  0.8759456E-01
         -2   -1    0    0    0  501 -0.00000000000E+00  0.00000000000E+00  0.44603557400E+03  0.44603557400E+03  0.00000000000E+00 0.  1.
          1   -1    0    0  501    0  0.00000000000E+00 -0.00000000000E+00 -0.16262153380E+04  0.16262153380E+04  0.00000000000E+00 0. -1.
        -24    2    1    2    0    0  0.61619153978E+02 -0.45354399517E+03  0.75846824678E+02  0.47071619598E+03  0.79510506556E+02 0.  0.
        254    2    1    2    0    0 -0.61619153978E+02  0.45354399517E+03 -0.12560265887E+04  0.16015347161E+04  0.88193626723E+03 0.  0.
         23    2    4    4    0    0 -0.31600528949E+03  0.48757284033E+03 -0.11819103301E+04  0.13200605751E+04  0.89784608748E+02 0.  0.
         23    2    4    4    0    0  0.25438613551E+03 -0.34028845161E+02 -0.74116258606E+02  0.28147414092E+03  0.88680347168E+02 0.  0.
          1    1    3    3  502    0  0.61106580982E+02 -0.21567931249E+03  0.12285293579E+02  0.22450503004E+03  0.00000000000E+00 0. -1.
         -4    1    3    3    0  502  0.51257299646E+00 -0.23786468268E+03  0.63561531099E+02  0.24621116594E+03  0.00000000000E+00 0.  1.
         11    1    5    5    0    0 -0.41864503382E+02  0.11991754851E+03 -0.30703252545E+03  0.33226770347E+03  0.00000000000E+00 0. -1.
        -11    1    5    5    0    0 -0.27414078611E+03  0.36765529182E+03 -0.87487780468E+03  0.98779287167E+03  0.00000000000E+00 0.  1.
          4    1    6    6  503    0  0.82241904136E+02  0.26604563281E+01  0.15859268587E+02  0.83799315176E+02  0.00000000000E+00 0. -1.
         -4    1    6    6    0  503  0.17214423137E+03 -0.36689301489E+02 -0.89975527193E+02  0.19767482574E+03  0.00000000000E+00 0.  1.
<mgrwt>
<rscale>  0 0.17033495E+04</rscale>
<asrwt>0</asrwt>
<pdfrwt beam="1">  1        1 0.25018698E+00 0.17033495E+04</pdfrwt>
<pdfrwt beam="2">  1       -2 0.68620856E-01 0.17033495E+04</pdfrwt>
<totfact> 0.86781057E+00</totfact>
</mgrwt>
</event>
<event>
12    4  0.4381187E-008  0.2052555E+04  0.7818608E-02  0.8582436E-01
          1   -1    0    0  501    0  0.00000000000E+00  0.00000000000E+00  0.10535311874E+04  0.10535311874E+04  0.00000000000E+00 0. -1.
         -2   -1    0    0    0  501 -0.00000000000E+00 -0.00000000000E+00 -0.99972904450E+03  0.99972904450E+03  0.00000000000E+00 0.  1.
        -24    2    1    2    0    0 -0.74990861286E+03  0.34998214588E+03  0.90286663661E+02  0.83626374834E+03  0.79592368224E+02 0.  0.
        254    2    1    2    0    0  0.74990861286E+03 -0.34998214588E+03 -0.36484520718E+02  0.12169964836E+04  0.89157102396E+03 0.  0.
         23    2    4    4    0    0  0.29205457667E+03  0.27092477353E+03  0.11710265113E+03  0.42515415119E+03  0.91361439937E+02 0.  0.
         23    2    4    4    0    0  0.45785403619E+03 -0.62090691941E+03 -0.15358717184E+03  0.79184233241E+03  0.90937005700E+02 0.  0.
          3    1    3    3  502    0 -0.13715080970E+03  0.58584289539E+02 -0.13938070181E+02  0.14978896282E+03  0.00000000000E+00 0. -1.
         -4    1    3    3    0  502 -0.61275780315E+03  0.29139785634E+03  0.10422473384E+03  0.68647478552E+03  0.00000000000E+00 0.  1.
         11    1    5    5    0    0  0.19252498029E+03  0.13920961938E+03  0.10460503697E+03  0.25959083174E+03  0.00000000000E+00 0. -1.
        -11    1    5    5    0    0  0.99529596375E+02  0.13171515415E+03  0.12497614160E+02  0.16556331945E+03  0.00000000000E+00 0.  1.
          3    1    6    6  503    0  0.59530595660E+01 -0.41054949047E+02 -0.44836565330E+01  0.41725902451E+02  0.00000000000E+00 0. -1.
         -3    1    6    6    0  503  0.45190097662E+03 -0.57985197037E+03 -0.14910351531E+03  0.75011642996E+03  0.00000000000E+00 0.  1.
<mgrwt>
<rscale>  0 0.20525552E+04</rscale>
<asrwt>0</asrwt>
<pdfrwt beam="1">  1        1 0.16208172E+00 0.20525552E+04</pdfrwt>
<pdfrwt beam="2">  1       -2 0.15380447E+00 0.20525552E+04</pdfrwt>
<totfact> 0.31209915E+00</totfact>
</mgrwt>
</event>
<event>
12    4  0.4381187E-008  0.1483316E+04  0.7818608E-02  0.8895624E-01
          1   -1    0    0  501    0  0.00000000000E+00  0.00000000000E+00  0.83856132510E+03  0.83856132510E+03  0.00000000000E+00 0. -1.
         -2   -1    0    0    0  501 -0.00000000000E+00 -0.00000000000E+00 -0.65595231599E+03  0.65595231599E+03  0.00000000000E+00 0.  1.
        -24    2    1    2    0    0 -0.29923300165E+03 -0.43259518467E+02  0.39100186134E+03  0.49979679595E+03  0.74179555500E+02 0.  0.
        254    2    1    2    0    0  0.29923300165E+03  0.43259518467E+02 -0.20839285223E+03  0.99471684514E+03  0.92445781187E+03 0.  0.
         23    2    4    4    0    0  0.34207839828E+03  0.10142665678E+03 -0.53514860225E+03  0.64930725870E+03  0.88943197830E+02 0.  0.
         23    2    4    4    0    0 -0.42845396629E+02 -0.58167138317E+02  0.32675575002E+03  0.34540958643E+03  0.85553014177E+02 0.  0.
          3    1    3    3  502    0 -0.93330252601E+02  0.11283491502E+01  0.17354921992E+03  0.19705618731E+03  0.00000000000E+00 0. -1.
         -4    1    3    3    0  502 -0.20590274905E+03 -0.44387867617E+02  0.21745264142E+03  0.30274060864E+03  0.00000000000E+00 0.  1.
         11    1    5    5    0    0  0.21289365236E+03  0.92084456377E+02 -0.39804313847E+03  0.46069685739E+03  0.00000000000E+00 0. -1.
        -11    1    5    5    0    0  0.12918474592E+03  0.93422004065E+01 -0.13710546377E+03  0.18861040132E+03  0.00000000000E+00 0.  1.
          1    1    6    6  503    0 -0.18799537965E+02 -0.61752773966E+02  0.30803333521E+03  0.31472426554E+03  0.00000000000E+00 0. -1.
         -1    1    6    6    0  503 -0.24045858663E+02  0.35856356493E+01  0.18722414816E+02  0.30685320895E+02  0.00000000000E+00 0.  1.
<mgrwt>
<rscale>  0 0.14833155E+04</rscale>
<asrwt>0</asrwt>
<pdfrwt beam="1">  1        1 0.12900943E+00 0.14833155E+04</pdfrwt>
<pdfrwt beam="2">  1       -2 0.10091574E+00 0.14833155E+04</pdfrwt>
<totfact> 0.14049717E+01</totfact>
</mgrwt>
</event>
<event>
12    4  0.4381187E-008  0.1589079E+04  0.7818608E-02  0.8827286E-01
         -2   -1    0    0    0  501 -0.00000000000E+00  0.00000000000E+00  0.95801075463E+03  0.95801075463E+03  0.00000000000E+00 0.  1.
          1   -1    0    0  501    0  0.00000000000E+00 -0.00000000000E+00 -0.65896219789E+03  0.65896219789E+03  0.00000000000E+00 0. -1.
        -24    2    1    2    0    0 -0.75210355688E+02  0.40546372022E+03  0.44415806740E+03  0.61123693415E+03  0.79226099391E+02 0.  0.
        254    2    1    2    0    0  0.75210355688E+02 -0.40546372022E+03 -0.14510951065E+03  0.10057360184E+04  0.90575423960E+03 0.  0.
         23    2    4    4    0    0 -0.19949798875E+03  0.11110162910E+03 -0.30697759197E+03  0.39188275463E+03  0.84816460102E+02 0.  0.
         23    2    4    4    0    0  0.27470834444E+03 -0.51656534932E+03  0.16186808131E+03  0.61385326374E+03  0.91159854281E+02 0.  0.
          1    1    3    3  502    0 -0.27202980514E+02  0.22498373389E+03  0.18933452866E+03  0.29530534436E+03  0.00000000000E+00 0. -1.
         -2    1    3    3    0  502 -0.48007375174E+02  0.18047998633E+03  0.25482353874E+03  0.31593158980E+03  0.00000000000E+00 0.  1.
         11    1    5    5    0    0 -0.13118659269E+03  0.84848128606E+02 -0.14085624097E+03  0.21035590709E+03  0.00000000000E+00 0.  1.
        -11    1    5    5    0    0 -0.68311396061E+02  0.26253500495E+02 -0.16612135100E+03  0.18152684754E+03  0.00000000000E+00 0. -1.
          4    1    6    6  503    0  0.10934076187E+03 -0.16325606864E+03  0.94315768919E+02  0.21795277108E+03  0.00000000000E+00 0. -1.
         -4    1    6    6    0  503  0.16536758257E+03 -0.35330928068E+03  0.67552312394E+02  0.39590049266E+03  0.00000000000E+00 0.  1.
<mgrwt>
<rscale>  0 0.15890788E+04</rscale>
<asrwt>0</asrwt>
<pdfrwt beam="1">  1        1 0.10137880E+00 0.15890788E+04</pdfrwt>
<pdfrwt beam="2">  1       -2 0.14738627E+00 0.15890788E+04</pdfrwt>
<totfact> 0.78708228E+00</totfact>
</mgrwt>
</event>
<event>
12    4  0.4381187E-008  0.2199131E+04  0.7818608E-02  0.8518790E-01
         -2   -1    0    0    0  501 -0.00000000000E+00  0.00000000000E+00  0.43621022681E+03  0.43621022681E+03  0.00000000000E+00 0.  1.
          1   -1    0    0  501    0  0.00000000000E+00 -0.00000000000E+00 -0.27717000694E+04  0.27717000694E+04  0.00000000000E+00 0. -1.
        -24    2    1    2    0    0 -0.45230868555E+03 -0.72993867233E+03 -0.14174971299E+04  0.16592088554E+04  0.79260962044E+02 0.  0.
        254    2    1    2    0    0  0.45230868555E+03  0.72993867233E+03 -0.91799271266E+03  0.15487014408E+04  0.90463911028E+03 0.  0.
         23    2    4    4    0    0  0.39674258861E+03  0.85149431968E+03 -0.98977912720E+03  0.13684474514E+04  0.10265694566E+03 0.  0.
         23    2    4    4    0    0  0.55566096943E+02 -0.12155564734E+03  0.71786414540E+02  0.18025398942E+03  0.97338814764E+02 0.  0.
          3    1    3    3  502    0 -0.53964429590E+02 -0.60550442370E+02 -0.17241669458E+03  0.19054141886E+03  0.00000000000E+00 0. -1.
         -4    1    3    3    0  502 -0.39834425596E+03 -0.66938822996E+03 -0.12450804353E+04  0.14686674365E+04  0.00000000000E+00 0.  1.
         11    1    5    5    0    0  0.22897012699E+03  0.37147339197E+03 -0.46765003958E+03  0.63962204427E+03  0.00000000000E+00 0. -1.
        -11    1    5    5    0    0  0.16777246162E+03  0.48002092770E+03 -0.52212908761E+03  0.72882540710E+03  0.00000000000E+00 0.  1.
          1    1    6    6  503    0 -0.69401708163E+01 -0.82947239643E+02  0.66601040442E+02  0.10660257559E+03  0.00000000000E+00 0. -1.
         -1    1    6    6    0  503  0.62506267759E+02 -0.38608407699E+02  0.51853740975E+01  0.73651413827E+02  0.00000000000E+00 0.  1.
<mgrwt>
<rscale>  0 0.21991307E+04</rscale>
<asrwt>0</asrwt>
<pdfrwt beam="1">  1        1 0.42641538E+00 0.21991307E+04</pdfrwt>
<pdfrwt beam="2">  1       -2 0.67109268E-01 0.21991307E+04</pdfrwt>
<totfact> 0.14259816E+00</totfact>
</mgrwt>
</event>
<event>
12    4  0.4381187E-008  0.2135666E+04  0.7818608E-02  0.8545693E-01
         -2   -1    0    0    0  501 -0.00000000000E+00  0.00000000000E+00  0.13911269095E+04  0.13911269095E+04  0.00000000000E+00 0.  1.
          1   -1    0    0  501    0  0.00000000000E+00 -0.00000000000E+00 -0.81967160076E+03  0.81967160076E+03  0.00000000000E+00 0. -1.
        -24    2    1    2    0    0 -0.22025598491E+03 -0.22366495425E+03  0.10766729873E+04  0.11242908610E+04  0.79161278907E+02 0.  0.
        254    2    1    2    0    0  0.22025598491E+03  0.22366495425E+03 -0.50521767849E+03  0.10865076493E+04  0.90923883473E+03 0.  0.
         23    2    4    4    0    0  0.18417713417E+03  0.51753981660E+03 -0.53926820533E+03  0.77528089814E+03  0.92095576572E+02 0.  0.
         23    2    4    4    0    0  0.36078850741E+02 -0.29387486235E+03  0.34050526844E+02  0.31122675111E+03  0.89657872141E+02 0.  0.
          1    1    3    3  502    0 -0.97628697742E+02 -0.56257062245E+02  0.30305691648E+03  0.32332601860E+03  0.00000000000E+00 0. -1.
         -2    1    3    3    0  502 -0.12262728717E+03 -0.16740789200E+03  0.77361607078E+03  0.80096484244E+03  0.00000000000E+00 0.  1.
         11    1    5    5    0    0  0.17960638192E+03  0.45891327610E+03 -0.51141039539E+03  0.71021154589E+03  0.00000000000E+00 0. -1.
        -11    1    5    5    0    0  0.45707522516E+01  0.58626540505E+02 -0.27857809942E+02  0.65069352252E+02  0.00000000000E+00 0.  1.
          2    1    6    6  503    0 -0.21202795815E+02 -0.14805827002E+03 -0.54199076849E+01  0.14966691442E+03  0.00000000000E+00 0.  1.
         -2    1    6    6    0  503  0.57281646556E+02 -0.14581659233E+03  0.39470434529E+02  0.16155983670E+03  0.00000000000E+00 0. -1.
<mgrwt>
<rscale>  0 0.21356659E+04</rscale>
<asrwt>0</asrwt>
<pdfrwt beam="1">  1        1 0.12610332E+00 0.21356659E+04</pdfrwt>
<pdfrwt beam="2">  1       -2 0.21401952E+00 0.21356659E+04</pdfrwt>
<totfact> 0.18422323E+00</totfact>
</mgrwt>
</event>
<event>
12    4  0.4381187E-008  0.2578699E+04  0.7818608E-02  0.8375473E-01
          1   -1    0    0  501    0  0.00000000000E+00  0.00000000000E+00  0.31618622630E+04  0.31618622630E+04  0.00000000000E+00 0. -1.
         -2   -1    0    0    0  501 -0.00000000000E+00 -0.00000000000E+00 -0.52577320085E+03  0.52577320085E+03  0.00000000000E+00 0.  1.
        -24    2    1    2    0    0  0.78728254431E+03 -0.78987967336E+03  0.90415691406E+03  0.14378922167E+04  0.79439275950E+02 0.  0.
        254    2    1    2    0    0 -0.78728254431E+03  0.78987967336E+03  0.17319321481E+04  0.22497432472E+04  0.90445122017E+03 0.  0.
         23    2    4    4    0    0 -0.67756038628E+03  0.19756461138E+03  0.48326631993E+03  0.86041171878E+03  0.92963095407E+02 0.  0.
         23    2    4    4    0    0 -0.10972215803E+03  0.59231506198E+03  0.12486658281E+04  0.13893315284E+04  0.90551978338E+02 0.  0.
          1    1    3    3  502    0  0.65438441084E+03 -0.65840872309E+03  0.71288360537E+03  0.11704375415E+04  0.00000000000E+00 0. -1.
         -2    1    3    3    0  502  0.13289813347E+03 -0.13147095027E+03  0.19127330869E+03  0.26745467515E+03  0.00000000000E+00 0.  1.
         11    1    5    5    0    0 -0.37705254946E+03  0.14946681280E+03  0.24447533899E+03  0.47357907951E+03  0.00000000000E+00 0. -1.
        -11    1    5    5    0    0 -0.30050783683E+03  0.48097798577E+02  0.23879098095E+03  0.38683263927E+03  0.00000000000E+00 0.  1.
          1    1    6    6  503    0 -0.10367472415E+03  0.53629349106E+03  0.11815494661E+04  0.13016982361E+04  0.00000000000E+00 0. -1.
         -1    1    6    6    0  503 -0.60474338731E+01  0.56021570927E+02  0.67116362018E+02  0.87633292282E+02  0.00000000000E+00 0.  1.
<mgrwt>
<rscale>  0 0.25786992E+04</rscale>
<asrwt>0</asrwt>
<pdfrwt beam="1">  1        1 0.48644033E+00 0.25786992E+04</pdfrwt>
<pdfrwt beam="2">  1       -2 0.80888187E-01 0.25786992E+04</pdfrwt>
<totfact> 0.47497489E-01</totfact>
</mgrwt>
</event>
<event>
12    4  0.4381187E-008  0.1799027E+04  0.7818608E-02  0.8706817E-01
          1   -1    0    0  501    0  0.00000000000E+00  0.00000000000E+00  0.13914570753E+04  0.13914570753E+04  0.00000000000E+00 0. -1.
         -2   -1    0    0    0  501 -0.00000000000E+00 -0.00000000000E+00 -0.58149412861E+03  0.58149412861E+03  0.00000000000E+00 0.  1.
        -24    2    1    2    0    0  0.26552736178E+02 -0.51673544696E+03  0.78134206831E+03  0.94051897767E+03  0.79749292852E+02 0.  0.
        254    2    1    2    0    0 -0.26552736178E+02  0.51673544696E+03  0.28620878391E+02  0.10324322262E+04  0.89295944878E+03 0.  0.
         23    2    4    4    0    0 -0.28970616716E+03  0.65262737652E+03  0.50936392531E+02  0.72205912067E+03  0.94460053914E+02 0.  0.
         23    2    4    4    0    0  0.26315343098E+03 -0.13589192956E+03 -0.22315514141E+02  0.31037310558E+03  0.90095159349E+02 0.  0.
          1    1    3    3  502    0  0.42092095634E+02 -0.39157988208E+03  0.63623181745E+03  0.74826297122E+03  0.00000000000E+00 0. -1.
         -2    1    3    3    0  502 -0.15539359456E+02 -0.12515556488E+03  0.14511025086E+03  0.19225600645E+03  0.00000000000E+00 0.  1.
         11    1    5    5    0    0 -0.28012996104E+03  0.62459398369E+03  0.67943786213E+02  0.68790028174E+03  0.00000000000E+00 0.  1.
        -11    1    5    5    0    0 -0.95762061224E+01  0.28033392829E+02 -0.17007393681E+02  0.34158838930E+02  0.00000000000E+00 0. -1.
          1    1    6    6  503    0  0.17866856945E+03 -0.82246531951E+02 -0.56456801032E+02  0.20463215805E+03  0.00000000000E+00 0.  1.
         -1    1    6    6    0  503  0.84484861531E+02 -0.53645397610E+02  0.34141286891E+02  0.10574094752E+03  0.00000000000E+00 0. -1.
<mgrwt>
<rscale>  0 0.17990265E+04</rscale>
<asrwt>0</asrwt>
<pdfrwt beam="1">  1        1 0.21407032E+00 0.17990265E+04</pdfrwt>
<pdfrwt beam="2">  1       -2 0.89460635E-01 0.17990265E+04</pdfrwt>
<totfact> 0.69120286E+00</totfact>
</mgrwt>
</event>
<event>
12    4  0.4381187E-008  0.2838523E+04  0.7818608E-02  0.8291407E-01
          1   -1    0    0  501    0  0.00000000000E+00  0.00000000000E+00  0.21870677977E+04  0.21870677977E+04  0.00000000000E+00 0. -1.
         -2   -1    0    0    0  501 -0.00000000000E+00 -0.00000000000E+00 -0.92100608926E+03  0.92100608926E+03  0.00000000000E+00 0.  1.
        -24    2    1    2    0    0  0.63930509823E+03 -0.44701278024E+03 -0.52204071371E+03  0.94225733525E+03  0.82407188659E+02 0.  0.
        254    2    1    2    0    0 -0.63930509823E+03  0.44701278024E+03  0.17881024221E+04  0.21658165517E+04  0.94070166854E+03 0.  0.
         23    2    4    4    0    0 -0.78996739955E+02  0.22275668653E+03  0.14416086751E+04  0.14636821557E+04  0.90933242216E+02 0.  0.
         23    2    4    4    0    0 -0.56030835828E+03  0.22425609372E+03  0.34649374704E+03  0.70213439598E+03  0.93265970999E+02 0.  0.
          3    1    3    3  502    0  0.20015495586E+03 -0.10846069059E+03 -0.18514964561E+03  0.29343844164E+03  0.00000000000E+00 0. -1.
         -4    1    3    3    0  502  0.43915014237E+03 -0.33855208965E+03 -0.33689106810E+03  0.64881889362E+03  0.00000000000E+00 0.  1.
         11    1    5    5    0    0 -0.80531825568E+02  0.12111345138E+03  0.68465067116E+03  0.69992884249E+03  0.00000000000E+00 0.  1.
        -11    1    5    5    0    0  0.15350856129E+01  0.10164323514E+03  0.75695800391E+03  0.76375331320E+03  0.00000000000E+00 0. -1.
          1    1    6    6  503    0 -0.47913631068E+03  0.17611298698E+03  0.32559014620E+03  0.60547199085E+03  0.00000000000E+00 0. -1.
         -1    1    6    6    0  503 -0.81172047599E+02  0.48143106733E+02  0.20903600843E+02  0.96662405130E+02  0.00000000000E+00 0.  1.
<mgrwt>
<rscale>  0 0.28385227E+04</rscale>
<asrwt>0</asrwt>
<pdfrwt beam="1">  1        1 0.33647197E+00 0.28385227E+04</pdfrwt>
<pdfrwt beam="2">  1       -2 0.14169325E+00 0.28385227E+04</pdfrwt>
<totfact> 0.58708537E-01</totfact>
</mgrwt>
</event>
<event>
12    4  0.4381187E-008  0.1657782E+04  0.7818608E-02  0.8785816E-01
         -2   -1    0    0    0  501 -0.00000000000E+00  0.00000000000E+00  0.38215601415E+03  0.38215601415E+03  0.00000000000E+00 0.  1.
          1   -1    0    0  501    0  0.00000000000E+00 -0.00000000000E+00 -0.17978534871E+04  0.17978534871E+04  0.00000000000E+00 0. -1.
        -24    2    1    2    0    0  0.12685349314E+03 -0.37257973774E+03  0.60421815396E+02  0.40611580517E+03  0.79823441017E+02 0.  0.
        254    2    1    2    0    0 -0.12685349314E+03  0.37257973774E+03 -0.14761192883E+04  0.17738936961E+04  0.90158927560E+03 0.  0.
         23    2    4    4    0    0 -0.22561348120E+03 -0.13359381507E+03 -0.10858228531E+04  0.11205619429E+04  0.88876594642E+02 0.  0.
         23    2    4    4    0    0  0.98759988066E+02  0.50617355281E+03 -0.39029643516E+03  0.65333175318E+03  0.92443883501E+02 0.  0.
          3    1    3    3  502    0  0.18648786900E+02 -0.53756424132E+02 -0.19368720407E+02  0.60105554806E+02  0.00000000000E+00 0. -1.
         -4    1    3    3    0  502  0.10820470624E+03 -0.31882331361E+03  0.79790535803E+02  0.34601025036E+03  0.00000000000E+00 0.  1.
         11    1    5    5    0    0 -0.13161466745E+02  0.43607024652E+01 -0.16061457290E+02  0.21218160692E+02  0.00000000000E+00 0. -1.
        -11    1    5    5    0    0 -0.21245201446E+03 -0.13795451754E+03 -0.10697613959E+04  0.10993437822E+04  0.00000000000E+00 0.  1.
          3    1    6    6  503    0  0.52976943939E+02  0.30551621914E+03 -0.28928249457E+03  0.42406494599E+03  0.00000000000E+00 0. -1.
         -3    1    6    6    0  503  0.45783044126E+02  0.20065733367E+03 -0.10101394059E+03  0.22926680719E+03  0.00000000000E+00 0.  1.
<mgrwt>
<rscale>  0 0.16577823E+04</rscale>
<asrwt>0</asrwt>
<pdfrwt beam="1">  1        1 0.27659284E+00 0.16577823E+04</pdfrwt>
<pdfrwt beam="2">  1       -2 0.58793233E-01 0.16577823E+04</pdfrwt>
<totfact> 0.92650373E+00</totfact>
</mgrwt>
</event>
<event>
12    4  0.4381187E-008  0.2086705E+04  0.7818608E-02  0.8567123E-01
         -2   -1    0    0    0  501 -0.00000000000E+00  0.00000000000E+00  0.37911250929E+03  0.37911250929E+03  0.00000000000E+00 0.  1.
          1   -1    0    0  501    0  0.00000000000E+00 -0.00000000000E+00 -0.28714009958E+04  0.28714009958E+04  0.00000000000E+00 0. -1.
        -24    2    1    2    0    0 -0.33078787437E+03 -0.10011531865E+03 -0.20807425416E+04  0.21107429261E+04  0.79388164211E+02 0.  0.
        254    2    1    2    0    0  0.33078787437E+03  0.10011531865E+03 -0.41154594489E+03  0.11397705790E+04  0.10051185070E+04 0.  0.
         23    2    4    4    0    0 -0.17844514819E+03 -0.63630940709E+02  0.22198046001E+03  0.30573599229E+03  0.91146063154E+02 0.  0.
         23    2    4    4    0    0  0.50923302257E+03  0.16374625936E+03 -0.63352640490E+03  0.83403458671E+03  0.90149195200E+02 0.  0.
          1    1    3    3  502    0 -0.29225797928E+03 -0.10988088118E+03 -0.19159426555E+04  0.19412173483E+04  0.00000000000E+00 0. -1.
         -2    1    3    3    0  502 -0.38529895093E+02  0.97655625243E+01 -0.16479988614E+03  0.16952557771E+03  0.00000000000E+00 0.  1.
         11    1    5    5    0    0 -0.69033570549E+02 -0.68951922573E+02  0.13097967713E+03  0.16332690320E+03  0.00000000000E+00 0.  1.
        -11    1    5    5    0    0 -0.10941157764E+03  0.53209818641E+01  0.91000782881E+02  0.14240908909E+03  0.00000000000E+00 0. -1.
          3    1    6    6  503    0  0.16494876751E+03  0.12530754825E+02 -0.17065565009E+03  0.23767302461E+03  0.00000000000E+00 0. -1.
         -3    1    6    6    0  503  0.34428425506E+03  0.15121550453E+03 -0.46287075481E+03  0.59636156210E+03  0.00000000000E+00 0.  1.
<mgrwt>
<rscale>  0 0.20867046E+04</rscale>
<asrwt>0</asrwt>
<pdfrwt beam="1">  1        1 0.44175399E+00 0.20867046E+04</pdfrwt>
<pdfrwt beam="2">  1       -2 0.58325003E-01 0.20867046E+04</pdfrwt>
<totfact> 0.16495731E+00</totfact>
</mgrwt>
</event>
<event>
12    4  0.4381187E-008  0.2824767E+04  0.7818608E-02  0.8295620E-01
          1   -1    0    0  501    0  0.00000000000E+00  0.00000000000E+00  0.17929191155E+04  0.17929191155E+04  0.00000000000E+00 0. -1.
         -2   -1    0    0    0  501 -0.00000000000E+00 -0.00000000000E+00 -0.11126141272E+04  0.11126141272E+04  0.00000000000E+00 0.  1.
        -24    2    1    2    0    0 -0.86655660885E+03 -0.31088328408E+02  0.12566274121E+04  0.15289872853E+04  0.82479242189E+02 0.  0.
        254    2    1    2    0    0  0.86655660885E+03  0.31088328408E+02 -0.57632242373E+03  0.13765459574E+04  0.90046898685E+03 0.  0.
         23    2    4    4    0    0  0.79146388569E+03 -0.27431963296E+03 -0.61964578103E+03  0.10458657880E+04  0.90598064012E+02 0.  0.
         23    2    4    4    0    0  0.75092723158E+02  0.30540796137E+03  0.43323357304E+02  0.33068016940E+03  0.92517680517E+02 0.  0.
          1    1    3    3  502    0 -0.55025368900E+03 -0.31234490369E+02  0.86374397178E+03  0.10246015637E+04  0.00000000000E+00 0. -1.
         -2    1    3    3    0  502 -0.31630291985E+03  0.14616196177E+00  0.39288344027E+03  0.50438572156E+03  0.00000000000E+00 0.  1.
         11    1    5    5    0    0  0.72528397212E+03 -0.22405852131E+03 -0.56709712118E+03  0.94754324758E+03  0.00000000000E+00 0. -1.
        -11    1    5    5    0    0  0.66179913571E+02 -0.50261111649E+02 -0.52548659851E+02  0.98322540430E+02  0.00000000000E+00 0.  1.
          4    1    6    6  503    0  0.94961575967E+02  0.23905613968E+03  0.21792992828E+02  0.25814816165E+03  0.00000000000E+00 0. -1.
         -4    1    6    6    0  503 -0.19868852809E+02  0.66351821690E+02  0.21530364476E+02  0.72532007749E+02  0.00000000000E+00 0.  1.
<mgrwt>
<rscale>  0 0.28247670E+04</rscale>
<asrwt>0</asrwt>
<pdfrwt beam="1">  1        1 0.27583371E+00 0.28247670E+04</pdfrwt>
<pdfrwt beam="2">  1       -2 0.17117140E+00 0.28247670E+04</pdfrwt>
<totfact> 0.65389609E-01</totfact>
</mgrwt>
</event>
<event>
12    4  0.4381187E-008  0.1658861E+04  0.7818608E-02  0.8785181E-01
          1   -1    0    0  501    0  0.00000000000E+00  0.00000000000E+00  0.18599799923E+04  0.18599799923E+04  0.00000000000E+00 0. -1.
         -2   -1    0    0    0  501 -0.00000000000E+00 -0.00000000000E+00 -0.36987241352E+03  0.36987241352E+03  0.00000000000E+00 0.  1.
        -24    2    1    2    0    0  0.93744987784E+02  0.22207562623E+03 -0.18115396541E+03  0.31159756056E+03  0.78553001607E+02 0.  0.
        254    2    1    2    0    0 -0.93744987784E+02 -0.22207562623E+03  0.16712615442E+04  0.19182548452E+04  0.91020920440E+03 0.  0.
         23    2    4    4    0    0 -0.20023477439E+03  0.28855392073E+03  0.39667527991E+03  0.53801976830E+03  0.93577044957E+02 0.  0.
         23    2    4    4    0    0  0.10648978660E+03 -0.51062954696E+03  0.12745862643E+04  0.13802350769E+04  0.91630310035E+02 0.  0.
          1    1    3    3  502    0 -0.82178106987E+01  0.66646483993E+02 -0.56771791016E+02  0.87933625516E+02  0.00000000000E+00 0. -1.
         -2    1    3    3    0  502  0.10196279848E+03  0.15542914224E+03 -0.12438217440E+03  0.22366393504E+03  0.00000000000E+00 0.  1.
         11    1    5    5    0    0 -0.19641961081E+03  0.27122674003E+03  0.39810122383E+03  0.52022033066E+03  0.00000000000E+00 0.  1.
        -11    1    5    5    0    0 -0.38151635776E+01  0.17327180698E+02 -0.14259439188E+01  0.17799437635E+02  0.00000000000E+00 0. -1.
          1    1    6    6  503    0  0.94967944390E+01 -0.68126851883E+02  0.26302014153E+03  0.27186587116E+03  0.00000000000E+00 0. -1.
         -1    1    6    6    0  503  0.96992992162E+02 -0.44250269508E+03  0.10115661227E+04  0.11083692058E+04  0.00000000000E+00 0.  1.
<mgrwt>
<rscale>  0 0.16588614E+04</rscale>
<asrwt>0</asrwt>
<pdfrwt beam="1">  1        1 0.28615076E+00 0.16588614E+04</pdfrwt>
<pdfrwt beam="2">  1       -2 0.56903449E-01 0.16588614E+04</pdfrwt>
<totfact> 0.90045058E+00</totfact>
</mgrwt>
</event>
<event>
12    4  0.4381187E-008  0.1480942E+04  0.7818608E-02  0.8897226E-01
          1   -1    0    0  501    0  0.00000000000E+00  0.00000000000E+00  0.33462739202E+04  0.33462739202E+04  0.00000000000E+00 0. -1.
         -2   -1    0    0    0  501 -0.00000000000E+00 -0.00000000000E+00 -0.16385315764E+03  0.16385315764E+03  0.00000000000E+00 0.  1.
        -24    2    1    2    0    0 -0.25433777429E+03 -0.34039285530E+03  0.17904428824E+04  0.18419066903E+04  0.79872031077E+02 0.  0.
        254    2    1    2    0    0  0.25433777429E+03  0.34039285530E+03  0.13919778802E+04  0.16682203875E+04  0.81535381468E+03 0.  0.
         23    2    4    4    0    0  0.10230797634E+03  0.57144948243E+03  0.67701309409E+03  0.89654157568E+03  0.91753116328E+02 0.  0.
         23    2    4    4    0    0  0.15202979795E+03 -0.23105662713E+03  0.71496478609E+03  0.77167881186E+03  0.88392980016E+02 0.  0.
          1    1    3    3  502    0 -0.12433787022E+03 -0.17235821748E+03  0.10648275930E+04  0.10858292057E+04  0.00000000000E+00 0. -1.
         -2    1    3    3    0  502 -0.12999990407E+03 -0.16803463782E+03  0.72561528942E+03  0.75607748465E+03  0.00000000000E+00 0.  1.
         11    1    5    5    0    0  0.67339324756E+02  0.35040416529E+03  0.34637808351E+03  0.49728808597E+03  0.00000000000E+00 0.  1.
        -11    1    5    5    0    0  0.34968651583E+02  0.22104531714E+03  0.33063501058E+03  0.39925348971E+03  0.00000000000E+00 0. -1.
          3    1    6    6  503    0  0.13168176729E+03 -0.17981028157E+03  0.46429159372E+03  0.51501311556E+03  0.00000000000E+00 0. -1.
         -3    1    6    6    0  503  0.20348030659E+02 -0.51246345555E+02  0.25067319237E+03  0.25666569630E+03  0.00000000000E+00 0.  1.
<mgrwt>
<rscale>  0 0.14809423E+04</rscale>
<asrwt>0</asrwt>
<pdfrwt beam="1">  1        1 0.51481132E+00 0.14809423E+04</pdfrwt>
<pdfrwt beam="2">  1       -2 0.25208181E-01 0.14809423E+04</pdfrwt>
<totfact> 0.39982585E+00</totfact>
</mgrwt>
</event>
<event>
12    4  0.4381187E-008  0.1529172E+04  0.7818608E-02  0.8865282E-01
         -4   -1    0    0    0  501 -0.00000000000E+00  0.00000000000E+00  0.73953795637E+03  0.73953795637E+03  0.00000000000E+00 0.  1.
          1   -1    0    0  501    0  0.00000000000E+00 -0.00000000000E+00 -0.79048267354E+03  0.79048267354E+03  0.00000000000E+00 0. -1.
        -24    2    1    2    0    0  0.46976796481E+03  0.14645205395E+03  0.72051294147E+01  0.49858631308E+03  0.80039070675E+02 0.  0.
        254    2    1    2    0    0 -0.46976796481E+03 -0.14645205395E+03 -0.58149846589E+02  0.10314343168E+04  0.90462434214E+03 0.  0.
         23    2    4    4    0    0 -0.25982407412E+03  0.10852470028E+02 -0.46410946290E+03  0.53908835056E+03  0.87133980487E+02 0.  0.
         23    2    4    4    0    0 -0.20994389069E+03 -0.15730452398E+03  0.40595961632E+03  0.49234596626E+03  0.93702667596E+02 0.  0.
          3    1    3    3  502    0  0.45174887311E+03  0.12572207736E+03 -0.39687917375E+01  0.46893372282E+03  0.00000000000E+00 0. -1.
         -4    1    3    3    0  502  0.18019091702E+02  0.20729976595E+02  0.11173921152E+02  0.29652590263E+02  0.00000000000E+00 0.  1.
         11    1    5    5    0    0 -0.24677945224E+03  0.83940649191E+01 -0.37498916385E+03  0.44898488993E+03  0.00000000000E+00 0. -1.
        -11    1    5    5    0    0 -0.13044621880E+02  0.24584051090E+01 -0.89120299051E+02  0.90103460636E+02  0.00000000000E+00 0.  1.
          1    1    6    6  503    0 -0.84934991163E+00  0.23376000178E+01 -0.43112401026E+01  0.49772040683E+01  0.00000000000E+00 0.  1.
         -1    1    6    6    0  503 -0.20909454078E+03 -0.15964212400E+03  0.41027085642E+03  0.48736876220E+03  0.00000000000E+00 0. -1.
<mgrwt>
<rscale>  0 0.15291722E+04</rscale>
<asrwt>0</asrwt>
<pdfrwt beam="1">  1        1 0.12161272E+00 0.15291722E+04</pdfrwt>
<pdfrwt beam="2">  1       -4 0.11377507E+00 0.15291722E+04</pdfrwt>
<totfact> 0.63544496E+00</totfact>
</mgrwt>
</event>
<event>
12    4  0.4381187E-008  0.1511092E+04  0.7818608E-02  0.8877110E-01
          1   -1    0    0  501    0  0.00000000000E+00  0.00000000000E+00  0.11576120783E+04  0.11576120783E+04  0.00000000000E+00 0. -1.
         -2   -1    0    0    0  501 -0.00000000000E+00 -0.00000000000E+00 -0.49312684796E+03  0.49312684796E+03  0.00000000000E+00 0.  1.
        -24    2    1    2    0    0 -0.43471500364E+03  0.20205181446E+03  0.30795061320E+03  0.57538383416E+03  0.80192931864E+02 0.  0.
        254    2    1    2    0    0  0.43471500364E+03 -0.20205181446E+03  0.35653461715E+03  0.10753550921E+04  0.89413062289E+03 0.  0.
         23    2    4    4    0    0  0.49475783506E+03  0.23352332047E+03  0.27787615600E+03  0.61987663820E+03  0.87826146231E+02 0.  0.
         23    2    4    4    0    0 -0.60042831416E+02 -0.43557513493E+03  0.78658461153E+02  0.45547845391E+03  0.89121426686E+02 0.  0.
          3    1    3    3  502    0 -0.30231670288E+03  0.12377313659E+03  0.24865620960E+03  0.41054243234E+03  0.00000000000E+00 0. -1.
         -4    1    3    3    0  502 -0.13239830077E+03  0.78278677874E+02  0.59294403605E+02  0.16484140182E+03  0.00000000000E+00 0.  1.
         11    1    5    5    0    0  0.42792001012E+03  0.23292520553E+03  0.24140727213E+03  0.54373445493E+03  0.00000000000E+00 0.  1.
        -11    1    5    5    0    0  0.66837824933E+02  0.59811493635E+00  0.36468883865E+02  0.76142183274E+02  0.00000000000E+00 0. -1.
          4    1    6    6  503    0  0.18257725614E+02 -0.26872861941E+02  0.65435374431E+01  0.33140807711E+02  0.00000000000E+00 0. -1.
         -4    1    6    6    0  503 -0.78300557030E+02 -0.40870227299E+03  0.72114923710E+02  0.42233764620E+03  0.00000000000E+00 0.  1.
<mgrwt>
<rscale>  0 0.15110918E+04</rscale>
<asrwt>0</asrwt>
<pdfrwt beam="1">  1        1 0.17809416E+00 0.15110918E+04</pdfrwt>
<pdfrwt beam="2">  1       -2 0.75865669E-01 0.15110918E+04</pdfrwt>
<totfact> 0.15149361E+01</totfact>
</mgrwt>
</event>
<event>
12    4  0.4381187E-008  0.1200754E+04  0.7818608E-02  0.9112197E-01
         -2   -1    0    0    0  501 -0.00000000000E+00  0.00000000000E+00  0.88379650383E+03  0.88379650383E+03  0.00000000000E+00 0.  1.
          1   -1    0    0  501    0  0.00000000000E+00 -0.00000000000E+00 -0.40784548170E+03  0.40784548170E+03  0.00000000000E+00 0. -1.
        -24    2    1    2    0    0  0.71147324448E+02  0.11901049637E+03  0.38175388408E+03  0.41498340428E+03  0.85145509553E+02 0.  0.
        254    2    1    2    0    0 -0.71147324448E+02 -0.11901049637E+03  0.94197138050E+02  0.87665858126E+03  0.86048342648E+03 0.  0.
         23    2    4    4    0    0  0.22195017978E+03  0.23444342017E+02 -0.28164392716E+03  0.37067534670E+03  0.90914198390E+02 0.  0.
         23    2    4    4    0    0 -0.29309750423E+03 -0.14245483838E+03  0.37584106521E+03  0.50598323456E+03  0.92536476008E+02 0.  0.
          1    1    3    3  502    0  0.36812318464E+02  0.61765361825E+02  0.87502576986E+02  0.11325549740E+03  0.00000000000E+00 0. -1.
         -2    1    3    3    0  502  0.34335005984E+02  0.57245134540E+02  0.29425130709E+03  0.30172790688E+03  0.00000000000E+00 0.  1.
         11    1    5    5    0    0  0.16011989090E+03 -0.49225265413E+01 -0.13682345825E+03  0.21067337150E+03  0.00000000000E+00 0. -1.
        -11    1    5    5    0    0  0.61830288879E+02  0.28366868558E+02 -0.14482046891E+03  0.16000197520E+03  0.00000000000E+00 0.  1.
          3    1    6    6  503    0 -0.17404203498E+02 -0.14679200488E+02  0.12421231958E+00  0.22768413538E+02  0.00000000000E+00 0.  1.
         -3    1    6    6    0  503 -0.27569330073E+03 -0.12777563789E+03  0.37571685289E+03  0.48321482102E+03  0.00000000000E+00 0. -1.
<mgrwt>
<rscale>  0 0.12007538E+04</rscale>
<asrwt>0</asrwt>
<pdfrwt beam="1">  1        1 0.62745459E-01 0.12007538E+04</pdfrwt>
<pdfrwt beam="2">  1       -2 0.13596869E+00 0.12007538E+04</pdfrwt>
<totfact> 0.19566175E+01</totfact>
</mgrwt>
</event>
<event>
12    4  0.4381187E-008  0.1182011E+04  0.7818608E-02  0.9128750E-01
          1   -1    0    0  501    0  0.00000000000E+00  0.00000000000E+00  0.12084013885E+04  0.12084013885E+04  0.00000000000E+00 0. -1.
         -2   -1    0    0    0  501 -0.00000000000E+00 -0.00000000000E+00 -0.28904925786E+03  0.28904925786E+03  0.00000000000E+00 0.  1.
        -24    2    1    2    0    0  0.95368051486E+02  0.17430234947E+03  0.36470721885E+03  0.42278448093E+03  0.79113763397E+02 0.  0.
        254    2    1    2    0    0 -0.95368051486E+02 -0.17430234947E+03  0.55464491180E+03  0.10746661654E+04  0.89877695490E+03 0.  0.
         23    2    4    4    0    0 -0.31604424524E+02  0.80985390265E+02  0.73329410750E+03  0.74399084334E+03  0.90800075927E+02 0.  0.
         23    2    4    4    0    0 -0.63763626962E+02 -0.25528773974E+03 -0.17864919571E+03  0.33067532209E+03  0.90515210489E+02 0.  0.
          1    1    3    3  502    0  0.10197882618E+03  0.11889538841E+03  0.28920810610E+03  0.32890290817E+03  0.00000000000E+00 0. -1.
         -2    1    3    3    0  502 -0.66107746979E+01  0.55406961064E+02  0.75499112758E+02  0.93881572758E+02  0.00000000000E+00 0.  1.
         11    1    5    5    0    0  0.15338943890E+02  0.46882853875E+02  0.53807617197E+03  0.54033253838E+03  0.00000000000E+00 0. -1.
        -11    1    5    5    0    0 -0.46943368414E+02  0.34102536391E+02  0.19521793553E+03  0.20365830496E+03  0.00000000000E+00 0.  1.
          4    1    6    6  503    0  0.11582116260E+02 -0.46399118436E+01  0.20290034769E+01  0.12640848630E+02  0.00000000000E+00 0.  1.
         -4    1    6    6    0  503 -0.75345743222E+02 -0.25064782789E+03 -0.18067819918E+03  0.31803447346E+03  0.00000000000E+00 0. -1.
<mgrwt>
<rscale>  0 0.11820110E+04</rscale>
<asrwt>0</asrwt>
<pdfrwt beam="1">  1        1 0.18590790E+00 0.11820110E+04</pdfrwt>
<pdfrwt beam="2">  1       -2 0.44469117E-01 0.11820110E+04</pdfrwt>
<totfact> 0.43902754E+01</totfact>
</mgrwt>
</event>
<event>
12    4  0.4381187E-008  0.1779848E+04  0.7818608E-02  0.8717090E-01
         -2   -1    0    0    0  501 -0.00000000000E+00  0.00000000000E+00  0.44087941635E+03  0.44087941635E+03  0.00000000000E+00 0.  1.
          1   -1    0    0  501    0  0.00000000000E+00 -0.00000000000E+00 -0.17963301575E+04  0.17963301575E+04  0.00000000000E+00 0. -1.
        -24    2    1    2    0    0 -0.82819277701E+02 -0.44671041558E+03  0.95420464457E+02  0.47101434410E+03  0.79625493211E+02 0.  0.
        254    2    1    2    0    0  0.82819277701E+02  0.44671041558E+03 -0.14508712056E+04  0.17661952297E+04  0.89889326739E+03 0.  0.
         23    2    4    4    0    0 -0.16981265333E+03 -0.20858877764E+03 -0.56736898728E+03  0.63446277234E+03  0.91048483631E+02 0.  0.
         23    2    4    4    0    0  0.25263193103E+03  0.65529919322E+03 -0.88350221828E+03  0.11317324574E+04  0.83679508504E+02 0.  0.
          1    1    3    3  502    0 -0.14200855441E+02 -0.17155390952E+03  0.71582060395E+02  0.18643068293E+03  0.00000000000E+00 0. -1.
         -2    1    3    3    0  502 -0.68618422261E+02 -0.27515650605E+03  0.23838404063E+02  0.28458366117E+03  0.00000000000E+00 0.  1.
         11    1    5    5    0    0 -0.91690599742E+00 -0.56313327655E+02 -0.10257204613E+03  0.11701733305E+03  0.00000000000E+00 0. -1.
        -11    1    5    5    0    0 -0.16889574733E+03 -0.15227544998E+03 -0.46479694115E+03  0.51744543929E+03  0.00000000000E+00 0.  1.
          3    1    6    6  503    0  0.45609241145E+02  0.10219356517E+03 -0.96412310320E+02  0.14771276594E+03  0.00000000000E+00 0. -1.
         -3    1    6    6    0  503  0.20702268988E+03  0.55310562805E+03 -0.78708990796E+03  0.98401969143E+03  0.00000000000E+00 0.  1.
<mgrwt>
<rscale>  0 0.17798483E+04</rscale>
<asrwt>0</asrwt>
<pdfrwt beam="1">  1        1 0.27635849E+00 0.17798483E+04</pdfrwt>
<pdfrwt beam="2">  1       -2 0.67827602E-01 0.17798483E+04</pdfrwt>
<totfact> 0.67700769E+00</totfact>
</mgrwt>
</event>
<event>
12    4  0.4381187E-008  0.1456936E+04  0.7818608E-02  0.8913606E-01
         -2   -1    0    0    0  501 -0.00000000000E+00  0.00000000000E+00  0.47699318573E+03  0.47699318573E+03  0.00000000000E+00 0.  1.
          1   -1    0    0  501    0  0.00000000000E+00 -0.00000000000E+00 -0.11125224578E+04  0.11125224578E+04  0.00000000000E+00 0. -1.
        -24    2    1    2    0    0 -0.20990108114E+03 -0.28641328713E+02  0.22792211346E+03  0.32065365159E+03  0.77404682662E+02 0.  0.
        254    2    1    2    0    0  0.20990108114E+03  0.28641328713E+02 -0.86345138557E+03  0.12688619920E+04  0.90530860477E+03 0.  0.
         23    2    4    4    0    0 -0.27718504240E+03 -0.21529672338E+03 -0.23335494584E+03  0.43140775554E+03  0.92053755829E+02 0.  0.
         23    2    4    4    0    0  0.48708612355E+03  0.24393805209E+03 -0.63009643973E+03  0.83745423644E+03  0.86887339476E+02 0.  0.
          1    1    3    3  502    0 -0.23704126977E+02 -0.30477859227E+02  0.49356580802E+02  0.62664643996E+02  0.00000000000E+00 0. -1.
         -2    1    3    3    0  502 -0.18619695417E+03  0.18365305136E+01  0.17856553266E+03  0.25798900759E+03  0.00000000000E+00 0.  1.
         11    1    5    5    0    0 -0.92737610330E+02 -0.23430644683E+02 -0.76486635183E+02  0.12247230234E+03  0.00000000000E+00 0.  1.
        -11    1    5    5    0    0 -0.18444743207E+03 -0.19186607870E+03 -0.15686831066E+03  0.30893545320E+03  0.00000000000E+00 0. -1.
          1    1    6    6  503    0  0.38891062739E+03  0.21695760612E+03 -0.55136434114E+03  0.70874869709E+03  0.00000000000E+00 0. -1.
         -1    1    6    6    0  503  0.98175496156E+02  0.26980445977E+02 -0.78732098590E+02  0.12870553935E+03  0.00000000000E+00 0.  1.
<mgrwt>
<rscale>  0 0.14569360E+04</rscale>
<asrwt>0</asrwt>
<pdfrwt beam="1">  1        1 0.17115730E+00 0.14569360E+04</pdfrwt>
<pdfrwt beam="2">  1       -2 0.73383568E-01 0.14569360E+04</pdfrwt>
<totfact> 0.17697168E+01</totfact>
</mgrwt>
</event>
<event>
12    4  0.4381187E-008  0.1794200E+04  0.7818608E-02  0.8709390E-01
          1   -1    0    0  501    0  0.00000000000E+00  0.00000000000E+00  0.26226290386E+04  0.26226290386E+04  0.00000000000E+00 0. -1.
         -2   -1    0    0    0  501 -0.00000000000E+00 -0.00000000000E+00 -0.30686312328E+03  0.30686312328E+03  0.00000000000E+00 0.  1.
        -24    2    1    2    0    0  0.56763663829E+03  0.32147332734E+02  0.14427542405E+04  0.15527245663E+04  0.78542830323E+02 0.  0.
        254    2    1    2    0    0 -0.56763663829E+03 -0.32147332734E+02  0.87301167486E+03  0.13767675956E+04  0.90005267832E+03 0.  0.
         23    2    4    4    0    0 -0.11398091888E+03  0.38368807633E+03  0.18757473709E+03  0.45089530178E+03  0.88961235290E+02 0.  0.
         23    2    4    4    0    0 -0.45365571941E+03 -0.41583540907E+03  0.68543693777E+03  0.92587229382E+03  0.93236846963E+02 0.  0.
          1    1    3    3  502    0  0.48942595662E+03  0.29308835502E+02  0.13082367762E+04  0.13970970752E+04  0.00000000000E+00 0. -1.
         -2    1    3    3    0  502  0.78210681672E+02  0.28384972316E+01  0.13451746426E+03  0.15562749110E+03  0.00000000000E+00 0.  1.
         11    1    5    5    0    0 -0.51957114912E+02  0.56482940885E+02  0.41345637402E+02  0.87174113894E+02  0.00000000000E+00 0. -1.
        -11    1    5    5    0    0 -0.62023803970E+02  0.32720513545E+03  0.14622909969E+03  0.36372118789E+03  0.00000000000E+00 0.  1.
          3    1    6    6  503    0 -0.35016442333E+02 -0.31487714007E+02  0.96858639609E+02  0.10769969096E+03  0.00000000000E+00 0. -1.
         -3    1    6    6    0  503 -0.41863927707E+03 -0.38434769506E+03  0.58857829816E+03  0.81817260286E+03  0.00000000000E+00 0.  1.
<mgrwt>
<rscale>  0 0.17941997E+04</rscale>
<asrwt>0</asrwt>
<pdfrwt beam="1">  1        1 0.40348138E+00 0.17941997E+04</pdfrwt>
<pdfrwt beam="2">  1       -2 0.47209713E-01 0.17941997E+04</pdfrwt>
<totfact> 0.39287622E+00</totfact>
</mgrwt>
</event>
<event>
12    4  0.4381187E-008  0.1525035E+04  0.7818608E-02  0.8867974E-01
          1   -1    0    0  501    0  0.00000000000E+00  0.00000000000E+00  0.10084865601E+04  0.10084865601E+04  0.00000000000E+00 0. -1.
         -2   -1    0    0    0  501 -0.00000000000E+00 -0.00000000000E+00 -0.57653973208E+03  0.57653973208E+03  0.00000000000E+00 0.  1.
        -24    2    1    2    0    0  0.18485948282E+03 -0.14224932508E+03  0.60978887748E+03  0.65771221681E+03  0.79592626359E+02 0.  0.
        254    2    1    2    0    0 -0.18485948282E+03  0.14224932508E+03 -0.17784204951E+03  0.92731407532E+03  0.87970205231E+03 0.  0.
         23    2    4    4    0    0  0.19284629526E+03  0.16693158059E+03  0.23553199666E+03  0.35888062226E+03  0.90907279050E+02 0.  0.
         23    2    4    4    0    0 -0.37770577808E+03 -0.24682255508E+02 -0.41337404617E+03  0.56843345306E+03  0.94697518317E+02 0.  0.
          1    1    3    3  502    0  0.11206886156E+03 -0.10560748039E+03  0.48335022180E+03  0.50728671041E+03  0.00000000000E+00 0. -1.
         -2    1    3    3    0  502  0.72790621262E+02 -0.36641844687E+02  0.12643865569E+03  0.15042550641E+03  0.00000000000E+00 0.  1.
         11    1    5    5    0    0  0.56850617005E+02  0.16971322227E+02  0.18636505102E+02  0.62187922898E+02  0.00000000000E+00 0. -1.
        -11    1    5    5    0    0  0.13599567826E+03  0.14996025836E+03  0.21689549156E+03  0.29669269936E+03  0.00000000000E+00 0.  1.
          3    1    6    6  503    0 -0.34323896437E+03  0.60751241743E+01 -0.35283865319E+03  0.49228549540E+03  0.00000000000E+00 0. -1.
         -3    1    6    6    0  503 -0.34466813711E+02 -0.30757379682E+02 -0.60535392981E+02  0.76147957659E+02  0.00000000000E+00 0.  1.
<mgrwt>
<rscale>  0 0.15250345E+04</rscale>
<asrwt>0</asrwt>
<pdfrwt beam="1">  1        1 0.15515178E+00 0.15250345E+04</pdfrwt>
<pdfrwt beam="2">  1       -2 0.88698420E-01 0.15250345E+04</pdfrwt>
<totfact> 0.13784231E+01</totfact>
</mgrwt>
</event>
<event>
12    4  0.4381187E-008  0.1957068E+04  0.7818608E-02  0.8626960E-01
         -2   -1    0    0    0  501 -0.00000000000E+00  0.00000000000E+00  0.15256343644E+04  0.15256343644E+04  0.00000000000E+00 0.  1.
          1   -1    0    0  501    0  0.00000000000E+00 -0.00000000000E+00 -0.62762659172E+03  0.62762659172E+03  0.00000000000E+00 0. -1.
        -24    2    1    2    0    0  0.12800383029E+03  0.75322142476E+03  0.27535316751E+03  0.81600539425E+03  0.79485478551E+02 0.  0.
        254    2    1    2    0    0 -0.12800383029E+03 -0.75322142476E+03  0.62265460515E+03  0.13372555619E+04  0.90378436871E+03 0.  0.
         23    2    4    4    0    0 -0.92411993361E+02  0.13788648775E+03  0.35264929183E+03  0.40117489207E+03  0.95011109744E+02 0.  0.
         23    2    4    4    0    0 -0.35591836931E+02 -0.89110791251E+03  0.27000531332E+03  0.93608066979E+03  0.89465415285E+02 0.  0.
          3    1    3    3  502    0  0.83995262566E+01  0.20762985719E+02  0.23030768939E+02  0.32125845284E+02  0.00000000000E+00 0. -1.
         -4    1    3    3    0  502  0.11960430403E+03  0.73245843904E+03  0.25232239857E+03  0.78387954896E+03  0.00000000000E+00 0.  1.
         11    1    5    5    0    0 -0.10324398553E+03  0.13929609775E+03  0.29238778293E+03  0.33993137396E+03  0.00000000000E+00 0.  1.
        -11    1    5    5    0    0  0.10831992174E+02 -0.14096099961E+01  0.60261508905E+02  0.61243518108E+02  0.00000000000E+00 0. -1.
          4    1    6    6  503    0 -0.11862629030E+02 -0.75748715014E+02  0.48908855522E+02  0.90943201738E+02  0.00000000000E+00 0. -1.
         -4    1    6    6    0  503 -0.23729207901E+02 -0.81535919750E+03  0.22109645780E+03  0.84513746805E+03  0.00000000000E+00 0.  1.
<mgrwt>
<rscale>  0 0.19570679E+04</rscale>
<asrwt>0</asrwt>
<pdfrwt beam="1">  1        1 0.96557938E-01 0.19570679E+04</pdfrwt>
<pdfrwt beam="2">  1       -2 0.23471298E+00 0.19570679E+04</pdfrwt>
<totfact> 0.20884288E+00</totfact>
</mgrwt>
</event>
<event>
12    4  0.4381187E-008  0.2698353E+04  0.7818608E-02  0.8335540E-01
         -2   -1    0    0    0  501 -0.00000000000E+00  0.00000000000E+00  0.15078930017E+04  0.15078930017E+04  0.00000000000E+00 0.  1.
          1   -1    0    0  501    0  0.00000000000E+00 -0.00000000000E+00 -0.12071656195E+04  0.12071656195E+04  0.00000000000E+00 0. -1.
        -24    2    1    2    0    0  0.85210758107E+03 -0.24237281997E+02 -0.70714497230E+03  0.11104971101E+04  0.80467659231E+02 0.  0.
        254    2    1    2    0    0 -0.85210758107E+03  0.24237281997E+02  0.10078723545E+04  0.16045615111E+04  0.91221498803E+03 0.  0.
         23    2    4    4    0    0 -0.64636055900E+03  0.42822861520E+03  0.70415352822E+03  0.10512237821E+04  0.89875078023E+02 0.  0.
         23    2    4    4    0    0 -0.20574702207E+03 -0.40399133320E+03  0.30371882625E+03  0.55333772898E+03  0.91633413657E+02 0.  0.
          1    1    3    3  502    0  0.79696405865E+03 -0.74417856072E+01 -0.67541144022E+03  0.10446950294E+04  0.00000000000E+00 0. -1.
         -2    1    3    3    0  502  0.55143522422E+02 -0.16795496390E+02 -0.31733532080E+02  0.65802080684E+02  0.00000000000E+00 0.  1.
         11    1    5    5    0    0 -0.26526935918E+03  0.21531897017E+03  0.34983790863E+03  0.48899555637E+03  0.00000000000E+00 0. -1.
        -11    1    5    5    0    0 -0.38109119982E+03  0.21290964502E+03  0.35431561959E+03  0.56222822573E+03  0.00000000000E+00 0.  1.
          1    1    6    6  503    0 -0.13362359665E+02 -0.18602429801E+02  0.45998116254E+02  0.51385112136E+02  0.00000000000E+00 0. -1.
         -1    1    6    6    0  503 -0.19238466240E+03 -0.38538890340E+03  0.25772070999E+03  0.50195261684E+03  0.00000000000E+00 0.  1.
<mgrwt>
<rscale>  0 0.26983525E+04</rscale>
<asrwt>0</asrwt>
<pdfrwt beam="1">  1        1 0.18571779E+00 0.26983525E+04</pdfrwt>
<pdfrwt beam="2">  1       -2 0.23198354E+00 0.26983525E+04</pdfrwt>
<totfact> 0.67227663E-01</totfact>
</mgrwt>
</event>
<event>
12    4  0.4381187E-008  0.1281786E+04  0.7818608E-02  0.9044135E-01
         -2   -1    0    0    0  501 -0.00000000000E+00  0.00000000000E+00  0.41754361982E+03  0.41754361982E+03  0.00000000000E+00 0.  1.
          1   -1    0    0  501    0  0.00000000000E+00 -0.00000000000E+00 -0.98371543796E+03  0.98371543796E+03  0.00000000000E+00 0. -1.
        -24    2    1    2    0    0 -0.25467423835E+02  0.31295399219E+03 -0.17243557036E+03  0.36658957434E+03  0.77878746654E+02 0.  0.
        254    2    1    2    0    0  0.25467423835E+02 -0.31295399219E+03 -0.39373624778E+03  0.10346694834E+04  0.90383843482E+03 0.  0.
         23    2    4    4    0    0  0.17055955279E+03  0.43318558783E+02  0.22508747810E+03  0.30069755417E+03  0.93742134101E+02 0.  0.
         23    2    4    4    0    0 -0.14509212896E+03 -0.35627255098E+03 -0.61882372587E+03  0.73397192927E+03  0.88261728914E+02 0.  0.
          3    1    3    3  502    0 -0.25288457743E+02  0.68367782543E+02 -0.71145075136E+02  0.10185912576E+03  0.00000000000E+00 0. -1.
         -4    1    3    3    0  502 -0.17896609181E+00  0.24458620965E+03 -0.10129049523E+03  0.26473044857E+03  0.00000000000E+00 0.  1.
         11    1    5    5    0    0  0.10978226552E+03  0.56693527216E+02  0.19672375572E+03  0.23230699067E+03  0.00000000000E+00 0. -1.
        -11    1    5    5    0    0  0.60777287276E+02 -0.13374968433E+02  0.28363722380E+02  0.68390563505E+02  0.00000000000E+00 0.  1.
          4    1    6    6  503    0 -0.13003718372E+03 -0.20790576612E+03 -0.39918369224E+03  0.46848916411E+03  0.00000000000E+00 0. -1.
         -4    1    6    6    0  503 -0.15054945237E+02 -0.14836678486E+03 -0.21964003363E+03  0.26548276516E+03  0.00000000000E+00 0.  1.
<mgrwt>
<rscale>  0 0.12817864E+04</rscale>
<asrwt>0</asrwt>
<pdfrwt beam="1">  1        1 0.15134084E+00 0.12817864E+04</pdfrwt>
<pdfrwt beam="2">  1       -2 0.64237480E-01 0.12817864E+04</pdfrwt>
<totfact> 0.30098610E+01</totfact>
</mgrwt>
</event>
<event>
12    4  0.4381187E-008  0.2960402E+04  0.7818608E-02  0.8255130E-01
         -2   -1    0    0    0  501 -0.00000000000E+00  0.00000000000E+00  0.32241861345E+04  0.32241861345E+04  0.00000000000E+00 0.  1.
          1   -1    0    0  501    0  0.00000000000E+00 -0.00000000000E+00 -0.67954962287E+03  0.67954962287E+03  0.00000000000E+00 0. -1.
        -24    2    1    2    0    0 -0.25432277129E+03 -0.92184197216E+03  0.24047801159E+04  0.25892608244E+04  0.82652994544E+02 0.  0.
        254    2    1    2    0    0  0.25432277129E+03  0.92184197216E+03  0.13985639570E+03  0.13144749329E+04  0.89096119119E+03 0.  0.
         23    2    4    4    0    0  0.35119827647E+03  0.10520273452E+04  0.16376194574E+03  0.11256739908E+04  0.10110486750E+03 0.  0.
         23    2    4    4    0    0 -0.96875505176E+02 -0.13018537307E+03 -0.23905550038E+02  0.18880094210E+03  0.93494521500E+02 0.  0.
          3    1    3    3  502    0  0.31401841456E+01 -0.62777725367E+02  0.14568469584E+03  0.15866610905E+03  0.00000000000E+00 0. -1.
         -4    1    3    3    0  502 -0.25746295544E+03 -0.85906424679E+03  0.22590954201E+04  0.24305947154E+04  0.00000000000E+00 0.  1.
         11    1    5    5    0    0  0.32691546400E+03  0.99210037006E+03  0.12971523957E+03  0.10525981704E+04  0.00000000000E+00 0. -1.
        -11    1    5    5    0    0  0.24282812468E+02  0.59926975161E+02  0.34046706168E+02  0.73075820449E+02  0.00000000000E+00 0.  1.
          1    1    6    6  503    0 -0.11358870698E+03 -0.10915467088E+03 -0.83424287412E+01  0.15775529355E+03  0.00000000000E+00 0. -1.
         -1    1    6    6    0  503  0.16713201800E+02 -0.21030702186E+02 -0.15563121297E+02  0.31045648541E+02  0.00000000000E+00 0.  1.
<mgrwt>
<rscale>  0 0.29604016E+04</rscale>
<asrwt>0</asrwt>
<pdfrwt beam="1">  1        1 0.10454610E+00 0.29604016E+04</pdfrwt>
<pdfrwt beam="2">  1       -2 0.49602863E+00 0.29604016E+04</pdfrwt>
<totfact> 0.37152480E-02</totfact>
</mgrwt>
</event>
<event>
12    4  0.4381187E-008  0.2783461E+04  0.7818608E-02  0.8308422E-01
          1   -1    0    0  501    0  0.00000000000E+00  0.00000000000E+00  0.24339668030E+04  0.24339668030E+04  0.00000000000E+00 0. -1.
         -2   -1    0    0    0  501 -0.00000000000E+00 -0.00000000000E+00 -0.79578473944E+03  0.79578473944E+03  0.00000000000E+00 0.  1.
        -24    2    1    2    0    0 -0.11549308054E+04 -0.32128129983E+03  0.11215595101E+04  0.16435867320E+04  0.79967318818E+02 0.  0.
        254    2    1    2    0    0  0.11549308054E+04  0.32128129983E+03  0.51662255349E+03  0.15861648105E+04  0.90107330685E+03 0.  0.
         23    2    4    4    0    0  0.34861779647E+03  0.21202475590E+03  0.63343870951E+03  0.75876075993E+03  0.89355620847E+02 0.  0.
         23    2    4    4    0    0  0.80631300892E+03  0.10925654392E+03 -0.11681615602E+03  0.82740405053E+03  0.94200784387E+02 0.  0.
          3    1    3    3  502    0 -0.80924568297E+03 -0.22020207283E+03  0.73388663925E+03  0.11144313023E+04  0.00000000000E+00 0. -1.
         -2    1    3    3    0  502 -0.34568512242E+03 -0.10107922699E+03  0.38767287085E+03  0.52915542970E+03  0.00000000000E+00 0.  1.
         11    1    5    5    0    0  0.28767941048E+03  0.16483236214E+03  0.44313920846E+03  0.55344512727E+03  0.00000000000E+00 0. -1.
        -11    1    5    5    0    0  0.60938385985E+02  0.47192393760E+02  0.19029950105E+03  0.20531563266E+03  0.00000000000E+00 0.  1.
          3    1    6    6  503    0  0.23507933692E+03  0.15038402687E+02 -0.73829596732E+02  0.24685878059E+03  0.00000000000E+00 0. -1.
         -3    1    6    6    0  503  0.57123367201E+03  0.94218141237E+02 -0.42986559289E+02  0.58054526994E+03  0.00000000000E+00 0.  1.
<mgrwt>
<rscale>  0 0.27834609E+04</rscale>
<asrwt>0</asrwt>
<pdfrwt beam="1">  1        1 0.37445643E+00 0.27834609E+04</pdfrwt>
<pdfrwt beam="2">  1       -2 0.12242842E+00 0.27834609E+04</pdfrwt>
<totfact> 0.57953626E-01</totfact>
</mgrwt>
</event>
<event>
12    4  0.4381187E-008  0.2001797E+04  0.7818608E-02  0.8605781E-01
          1   -1    0    0  501    0  0.00000000000E+00  0.00000000000E+00  0.15105603761E+04  0.15105603761E+04  0.00000000000E+00 0. -1.
         -2   -1    0    0    0  501 -0.00000000000E+00 -0.00000000000E+00 -0.66319622727E+03  0.66319622727E+03  0.00000000000E+00 0.  1.
        -24    2    1    2    0    0 -0.25632836493E+03  0.42739280398E+03 -0.33854233855E+03  0.60739698819E+03  0.77144972009E+02 0.  0.
        254    2    1    2    0    0  0.25632836493E+03 -0.42739280398E+03  0.11859064874E+04  0.15663596152E+04  0.89372222065E+03 0.  0.
         23    2    4    4    0    0  0.60267718967E+02  0.12524097560E+03  0.88506521025E+03  0.90075466585E+03  0.93279374618E+02 0.  0.
         23    2    4    4    0    0  0.19606064596E+03 -0.55263377958E+03  0.30084127711E+03  0.66560494932E+03  0.93169755365E+02 0.  0.
          1    1    3    3  502    0 -0.76777543736E+02  0.19548750606E+03 -0.12263466290E+03  0.24320653114E+03  0.00000000000E+00 0. -1.
         -2    1    3    3    0  502 -0.17955082119E+03  0.23190529792E+03 -0.21590767565E+03  0.36419045704E+03  0.00000000000E+00 0.  1.
         11    1    5    5    0    0  0.26938678589E+02  0.50709204589E+02  0.63735682588E+03  0.63993815273E+03  0.00000000000E+00 0.  1.
        -11    1    5    5    0    0  0.33329040378E+02  0.74531771010E+02  0.24770838438E+03  0.26081651311E+03  0.00000000000E+00 0. -1.
          3    1    6    6  503    0  0.48700929364E+02 -0.26530947575E+03  0.11693180969E+03  0.29399650774E+03  0.00000000000E+00 0. -1.
         -3    1    6    6    0  503  0.14735971660E+03 -0.28732430382E+03  0.18390946742E+03  0.37160844158E+03  0.00000000000E+00 0.  1.
<mgrwt>
<rscale>  0 0.20017971E+04</rscale>
<asrwt>0</asrwt>
<pdfrwt beam="1">  1        1 0.23239390E+00 0.20017971E+04</pdfrwt>
<pdfrwt beam="2">  1       -2 0.10203019E+00 0.20017971E+04</pdfrwt>
<totfact> 0.41232474E+00</totfact>
</mgrwt>
</event>
<event>
12    4  0.4381187E-008  0.2467958E+04  0.7818608E-02  0.8414490E-01
          1   -1    0    0  501    0  0.00000000000E+00  0.00000000000E+00  0.41880278544E+03  0.41880278544E+03  0.00000000000E+00 0. -1.
         -2   -1    0    0    0  501 -0.00000000000E+00 -0.00000000000E+00 -0.36358500446E+04  0.36358500446E+04  0.00000000000E+00 0.  1.
        -24    2    1    2    0    0 -0.18105405619E+03 -0.81817734377E+03 -0.30919383531E+03  0.89673418327E+03  0.79602955537E+02 0.  0.
        254    2    1    2    0    0  0.18105405619E+03  0.81817734377E+03 -0.29078534238E+04  0.31579186467E+04  0.90257626151E+03 0.  0.
         23    2    4    4    0    0  0.22637411582E+03  0.18774832401E+03 -0.18239771921E+03  0.35855523586E+03  0.93799017621E+02 0.  0.
         23    2    4    4    0    0 -0.45320059632E+02  0.63042901976E+03 -0.27254557046E+04  0.27993634109E+04  0.93978995492E+02 0.  0.
          3    1    3    3  502    0 -0.11610030035E+03 -0.62956721840E+03 -0.20850630106E+03  0.67328228835E+03  0.00000000000E+00 0. -1.
         -4    1    3    3    0  502 -0.64953755844E+02 -0.18861012537E+03 -0.10068753425E+03  0.22345189492E+03  0.00000000000E+00 0.  1.
         11    1    5    5    0    0  0.15324311304E+03  0.17652393167E+03 -0.15026439244E+03  0.27789123372E+03  0.00000000000E+00 0. -1.
        -11    1    5    5    0    0  0.73131002782E+02  0.11224392342E+02 -0.32133326775E+02  0.80664002138E+02  0.00000000000E+00 0.  1.
          3    1    6    6  503    0 -0.17121626154E+02  0.14617683906E+02 -0.10157185492E+03  0.10403686114E+03  0.00000000000E+00 0. -1.
         -3    1    6    6    0  503 -0.28198433477E+02  0.61581133586E+03 -0.26238838497E+04  0.26953265497E+04  0.00000000000E+00 0.  1.
<mgrwt>
<rscale>  0 0.24679580E+04</rscale>
<asrwt>0</asrwt>
<pdfrwt beam="1">  1        1 0.64431199E-01 0.24679580E+04</pdfrwt>
<pdfrwt beam="2">  1       -2 0.55936153E+00 0.24679580E+04</pdfrwt>
<totfact> 0.33297391E-02</totfact>
</mgrwt>
</event>
<event>
12    4  0.4381187E-008  0.2038322E+04  0.7818608E-02  0.8588910E-01
          1   -1    0    0  501    0  0.00000000000E+00  0.00000000000E+00  0.55626990178E+03  0.55626990178E+03  0.00000000000E+00 0. -1.
         -2   -1    0    0    0  501 -0.00000000000E+00 -0.00000000000E+00 -0.18672399912E+04  0.18672399912E+04  0.00000000000E+00 0.  1.
        -24    2    1    2    0    0  0.13919340439E+03 -0.72648649309E+03 -0.11460602249E+03  0.75259369873E+03  0.78136460817E+02 0.  0.
        254    2    1    2    0    0 -0.13919340439E+03  0.72648649309E+03 -0.11963640669E+04  0.16709161942E+04  0.90195150596E+03 0.  0.
         23    2    4    4    0    0  0.18717953138E+03 -0.96966069056E+01 -0.67685400696E+03  0.70819515572E+03  0.90988079943E+02 0.  0.
         23    2    4    4    0    0 -0.32637293577E+03  0.73618310000E+03 -0.51951005997E+03  0.96272103853E+03  0.91957847418E+02 0.  0.
          3    1    3    3  502    0  0.97045350385E+02 -0.47698158167E+03 -0.38107417784E+02  0.48824318180E+03  0.00000000000E+00 0. -1.
         -4    1    3    3    0  502  0.42148054007E+02 -0.24950491142E+03 -0.76498604709E+02  0.26435051693E+03  0.00000000000E+00 0.  1.
         11    1    5    5    0    0  0.34058806502E+02 -0.29962709119E+02 -0.25391271784E+03  0.25793300394E+03  0.00000000000E+00 0. -1.
        -11    1    5    5    0    0  0.15312072487E+03  0.20266102213E+02 -0.42294128912E+03  0.45026215178E+03  0.00000000000E+00 0.  1.
          4    1    6    6  503    0 -0.70733710943E+02  0.11979713677E+03 -0.12803384957E+03  0.18906950701E+03  0.00000000000E+00 0. -1.
         -4    1    6    6    0  503 -0.25563922482E+03  0.61638596322E+03 -0.39147621039E+03  0.77365153153E+03  0.00000000000E+00 0.  1.
<mgrwt>
<rscale>  0 0.20383223E+04</rscale>
<asrwt>0</asrwt>
<pdfrwt beam="1">  1        1 0.85579983E-01 0.20383223E+04</pdfrwt>
<pdfrwt beam="2">  1       -2 0.28726770E+00 0.20383223E+04</pdfrwt>
<totfact> 0.11757869E+00</totfact>
</mgrwt>
</event>
<event>
12    4  0.4381187E-008  0.1080282E+04  0.7818608E-02  0.9224627E-01
         -4   -1    0    0    0  501 -0.00000000000E+00  0.00000000000E+00  0.11985351384E+03  0.11985351384E+03  0.00000000000E+00 0.  1.
          3   -1    0    0  501    0  0.00000000000E+00 -0.00000000000E+00 -0.24342395587E+04  0.24342395587E+04  0.00000000000E+00 0. -1.
        -24    2    1    2    0    0 -0.24227776035E+02  0.12987710478E+03 -0.54924701237E+03  0.57044565429E+03  0.79252232934E+02 0.  0.
        254    2    1    2    0    0  0.24227776035E+02 -0.12987710478E+03 -0.17651390325E+04  0.19836474182E+04  0.89536932514E+03 0.  0.
         23    2    4    4    0    0 -0.36042801469E+03  0.32294774136E+01 -0.13294210344E+04  0.13803807662E+04  0.90399057991E+02 0.  0.
         23    2    4    4    0    0  0.38465579072E+03 -0.13310658219E+03 -0.43571799810E+03  0.60326665206E+03  0.91668097253E+02 0.  0.
          1    1    3    3  502    0  0.64435540791E+01  0.11137508232E+03 -0.33141401979E+03  0.34968726152E+03  0.00000000000E+00 0. -1.
         -2    1    3    3    0  502 -0.30671330114E+02  0.18502022461E+02 -0.21783299257E+03  0.22075839277E+03  0.00000000000E+00 0.  1.
         11    1    5    5    0    0 -0.16878649996E+03  0.15209817427E+02 -0.46580209621E+03  0.49567309182E+03  0.00000000000E+00 0. -1.
        -11    1    5    5    0    0 -0.19164151473E+03 -0.11980340013E+02 -0.86361893814E+03  0.88470767434E+03  0.00000000000E+00 0.  1.
          4    1    6    6  503    0  0.23422734985E+03 -0.80075758036E+02 -0.32746925879E+03  0.41050054067E+03  0.00000000000E+00 0. -1.
         -4    1    6    6    0  503  0.15042844088E+03 -0.53030824157E+02 -0.10824873932E+03  0.19276611139E+03  0.00000000000E+00 0.  1.
<mgrwt>
<rscale>  0 0.10802817E+04</rscale>
<asrwt>0</asrwt>
<pdfrwt beam="1">  1        3 0.37449835E+00 0.10802817E+04</pdfrwt>
<pdfrwt beam="2">  1       -4 0.18439004E-01 0.10802817E+04</pdfrwt>
<totfact> 0.94955412E-01</totfact>
</mgrwt>
</event>
<event>
12    4  0.4381187E-008  0.2310306E+04  0.7818608E-02  0.8473869E-01
         -2   -1    0    0    0  501 -0.00000000000E+00  0.00000000000E+00  0.32213395857E+03  0.32213395857E+03  0.00000000000E+00 0.  1.
          1   -1    0    0  501    0  0.00000000000E+00 -0.00000000000E+00 -0.41423100891E+04  0.41423100891E+04  0.00000000000E+00 0. -1.
        -24    2    1    2    0    0 -0.23698773463E+02  0.79385443819E+03 -0.27068022518E+04  0.28220374974E+04  0.79691313559E+02 0.  0.
        254    2    1    2    0    0  0.23698773463E+02 -0.79385443819E+03 -0.11133738787E+04  0.16424065503E+04  0.90946763638E+03 0.  0.
         23    2    4    4    0    0  0.20712957304E+03 -0.20214749769E+03  0.63790972053E+02  0.30964145175E+03  0.89678702464E+02 0.  0.
         23    2    4    4    0    0 -0.18343079958E+03 -0.59170694050E+03 -0.11771648508E+04  0.13327650985E+04  0.82351443427E+02 0.  0.
          3    1    3    3  502    0 -0.22295785194E+02  0.60802127091E+03 -0.21850175133E+04  0.22681464903E+04  0.00000000000E+00 0. -1.
         -4    1    3    3    0  502 -0.14029882683E+01  0.18583316728E+03 -0.52178473848E+03  0.55389100710E+03  0.00000000000E+00 0.  1.
         11    1    5    5    0    0  0.13883214622E+03 -0.12235792504E+03 -0.31701080942E+01  0.18508343046E+03  0.00000000000E+00 0. -1.
        -11    1    5    5    0    0  0.68297426823E+02 -0.79789572641E+02  0.66961080147E+02  0.12455802129E+03  0.00000000000E+00 0.  1.
          3    1    6    6  503    0 -0.71610781248E+02 -0.26444975423E+03 -0.43682447886E+03  0.51563301081E+03  0.00000000000E+00 0. -1.
         -3    1    6    6    0  503 -0.11182001833E+03 -0.32725718627E+03 -0.74034037192E+03  0.81713208771E+03  0.00000000000E+00 0.  1.
<mgrwt>
<rscale>  0 0.23103063E+04</rscale>
<asrwt>0</asrwt>
<pdfrwt beam="1">  1        1 0.63727847E+00 0.23103063E+04</pdfrwt>
<pdfrwt beam="2">  1       -2 0.49559071E-01 0.23103063E+04</pdfrwt>
<totfact> 0.21984425E-01</totfact>
</mgrwt>
</event>
<event>
12    4  0.4381187E-008  0.3599861E+04  0.7818608E-02  0.8090523E-01
         -2   -1    0    0    0  501 -0.00000000000E+00  0.00000000000E+00  0.18365778194E+04  0.18365778194E+04  0.00000000000E+00 0.  1.
          1   -1    0    0  501    0  0.00000000000E+00 -0.00000000000E+00 -0.17640148193E+04  0.17640148193E+04  0.00000000000E+00 0. -1.
        -24    2    1    2    0    0  0.53205838967E+03 -0.15156268590E+04  0.49713063821E+03  0.16833729780E+04  0.79967529043E+02 0.  0.
        254    2    1    2    0    0 -0.53205838967E+03  0.15156268590E+04 -0.42456763814E+03  0.19172196608E+04  0.95669359905E+03 0.  0.
         23    2    4    4    0    0 -0.76225001702E+03  0.11522338170E+04 -0.49967357604E+03  0.14720833123E+04  0.93208036932E+02 0.  0.
         23    2    4    4    0    0  0.23019162735E+03  0.36339304200E+03  0.75105937896E+02  0.44513634849E+03  0.86387375026E+02 0.  0.
          1    1    3    3  502    0  0.10791006078E+03 -0.37249487470E+03  0.92344116670E+02  0.39865329395E+03  0.00000000000E+00 0. -1.
         -2    1    3    3    0  502  0.42414832888E+03 -0.11431319843E+04  0.40478652154E+03  0.12847196840E+04  0.00000000000E+00 0.  1.
         11    1    5    5    0    0 -0.36553083313E+03  0.58331929320E+03 -0.20276206686E+03  0.71762569877E+03  0.00000000000E+00 0. -1.
        -11    1    5    5    0    0 -0.39671918389E+03  0.56891452382E+03 -0.29691150917E+03  0.75445761350E+03  0.00000000000E+00 0.  1.
          1    1    6    6  503    0  0.60207273665E+02  0.41445385153E+02 -0.14471220963E+01  0.73107659756E+02  0.00000000000E+00 0. -1.
         -1    1    6    6    0  503  0.16998435369E+03  0.32194765685E+03  0.76553059992E+02  0.37202868874E+03  0.00000000000E+00 0.  1.
<mgrwt>
<rscale>  0 0.35998614E+04</rscale>
<asrwt>0</asrwt>
<pdfrwt beam="1">  1        1 0.27138689E+00 0.35998614E+04</pdfrwt>
<pdfrwt beam="2">  1       -2 0.28255044E+00 0.35998614E+04</pdfrwt>
<totfact> 0.12450932E-01</totfact>
</mgrwt>
</event>
<event>
12    4  0.4381187E-008  0.1544218E+04  0.7818608E-02  0.8855569E-01
         -2   -1    0    0    0  501 -0.00000000000E+00  0.00000000000E+00  0.32498935368E+03  0.32498935368E+03  0.00000000000E+00 0.  1.
          1   -1    0    0  501    0  0.00000000000E+00 -0.00000000000E+00 -0.18343751466E+04  0.18343751466E+04  0.00000000000E+00 0. -1.
        -24    2    1    2    0    0 -0.17187722103E+03 -0.40164009613E+03 -0.84971711665E+03  0.95869993160E+03  0.78929301215E+02 0.  0.
        254    2    1    2    0    0  0.17187722103E+03  0.40164009613E+03 -0.65966867624E+03  0.12006645686E+04  0.90309251911E+03 0.  0.
         23    2    4    4    0    0 -0.18181878815E+03  0.34109394226E+03 -0.72141579707E+03  0.82478195985E+03  0.10208515986E+03 0.  0.
         23    2    4    4    0    0  0.35369600919E+03  0.60546153864E+02  0.61747120833E+02  0.37588260879E+03  0.93318406547E+02 0.  0.
          1    1    3    3  502    0 -0.17178057660E+03 -0.32817994484E+03 -0.71507702228E+03  0.80532340739E+03  0.00000000000E+00 0. -1.
         -2    1    3    3    0  502 -0.96644434957E-01 -0.73460151282E+02 -0.13464009437E+03  0.15337652421E+03  0.00000000000E+00 0.  1.
         11    1    5    5    0    0 -0.10745044862E+03  0.11421034686E+03 -0.34596107477E+03  0.37984031842E+03  0.00000000000E+00 0. -1.
        -11    1    5    5    0    0 -0.74368339531E+02  0.22688359540E+03 -0.37545472230E+03  0.44494164143E+03  0.00000000000E+00 0.  1.
          1    1    6    6  503    0  0.17340444535E+02 -0.18381014609E+02  0.50593294266E+01  0.25771098715E+02  0.00000000000E+00 0. -1.
         -1    1    6    6    0  503  0.33635556465E+03  0.78927168473E+02  0.56687791406E+02  0.35011151008E+03  0.00000000000E+00 0.  1.
<mgrwt>
<rscale>  0 0.15442181E+04</rscale>
<asrwt>0</asrwt>
<pdfrwt beam="1">  1        1 0.28221156E+00 0.15442181E+04</pdfrwt>
<pdfrwt beam="2">  1       -2 0.49998362E-01 0.15442181E+04</pdfrwt>
<totfact> 0.12364834E+01</totfact>
</mgrwt>
</event>
<event>
12    4  0.4381187E-008  0.2006497E+04  0.7818608E-02  0.8603589E-01
          1   -1    0    0  501    0  0.00000000000E+00  0.00000000000E+00  0.31657002618E+03  0.31657002618E+03  0.00000000000E+00 0. -1.
         -2   -1    0    0    0  501 -0.00000000000E+00 -0.00000000000E+00 -0.31794157793E+04  0.31794157793E+04  0.00000000000E+00 0.  1.
        -24    2    1    2    0    0  0.61139642696E+03 -0.36679314335E+03 -0.53448918829E+03  0.89464907516E+03  0.79846567670E+02 0.  0.
        254    2    1    2    0    0 -0.61139642696E+03  0.36679314335E+03 -0.23283565648E+04  0.26013367303E+04  0.91507687692E+03 0.  0.
         23    2    4    4    0    0  0.20778641836E+03 -0.12734019000E+01 -0.27110969167E+03  0.35466890867E+03  0.95460738791E+02 0.  0.
         23    2    4    4    0    0 -0.81918284532E+03  0.36806654525E+03 -0.20572468731E+04  0.22466678216E+04  0.93370702001E+02 0.  0.
          1    1    3    3  502    0  0.27644501389E+03 -0.18826596231E+03 -0.29404645167E+03  0.44534170477E+03  0.00000000000E+00 0. -1.
         -2    1    3    3    0  502  0.33495141307E+03 -0.17852718104E+03 -0.24044273662E+03  0.44930737038E+03  0.00000000000E+00 0.  1.
         11    1    5    5    0    0  0.16879787255E+03  0.29839247426E+02 -0.16743963531E+03  0.23962289944E+03  0.00000000000E+00 0.  1.
        -11    1    5    5    0    0  0.38988545807E+02 -0.31112649326E+02 -0.10367005637E+03  0.11504600923E+03  0.00000000000E+00 0. -1.
          1    1    6    6  503    0 -0.25100101241E+02  0.27484673570E+02 -0.61117343460E+02  0.71559430093E+02  0.00000000000E+00 0. -1.
         -1    1    6    6    0  503 -0.79408274408E+03  0.34058187168E+03 -0.19961295297E+04  0.21751083915E+04  0.00000000000E+00 0.  1.
<mgrwt>
<rscale>  0 0.20064972E+04</rscale>
<asrwt>0</asrwt>
<pdfrwt beam="1">  1        1 0.48703079E-01 0.20064972E+04</pdfrwt>
<pdfrwt beam="2">  1       -2 0.48914091E+00 0.20064972E+04</pdfrwt>
<totfact> 0.12764146E-01</totfact>
</mgrwt>
</event>
<event>
12    4  0.4381187E-008  0.1617263E+04  0.7818608E-02  0.8810012E-01
          1   -1    0    0  501    0  0.00000000000E+00  0.00000000000E+00  0.83831483327E+03  0.83831483327E+03  0.00000000000E+00 0. -1.
         -2   -1    0    0    0  501 -0.00000000000E+00 -0.00000000000E+00 -0.77999934190E+03  0.77999934190E+03  0.00000000000E+00 0.  1.
        -24    2    1    2    0    0 -0.24636876725E+03  0.74967854854E+02  0.52027374343E+03  0.58614329813E+03  0.81002772146E+02 0.  0.
        254    2    1    2    0    0  0.24636876725E+03 -0.74967854854E+02 -0.46195825206E+03  0.10321708770E+04  0.88637099683E+03 0.  0.
         23    2    4    4    0    0 -0.26248094384E+03  0.11907967275E+03  0.17992615280E+02  0.30043789807E+03  0.82843117116E+02 0.  0.
         23    2    4    4    0    0  0.50884971109E+03 -0.19404752760E+03 -0.47995086734E+03  0.73173297897E+03  0.92183762155E+02 0.  0.
          1    1    3    3  502    0 -0.23966776799E+03  0.85835672051E+02  0.50899078337E+03  0.56910457665E+03  0.00000000000E+00 0. -1.
         -2    1    3    3    0  502 -0.67009992635E+01 -0.10867817197E+02  0.11282960059E+02  0.17038721473E+02  0.00000000000E+00 0.  1.
         11    1    5    5    0    0 -0.12158966869E+03  0.67209759640E+02  0.48655839467E+02  0.14720254766E+03  0.00000000000E+00 0. -1.
        -11    1    5    5    0    0 -0.14089127515E+03  0.51869913107E+02 -0.30663224187E+02  0.15323535041E+03  0.00000000000E+00 0.  1.
          2    1    6    6  503    0  0.49555553259E+03 -0.20331510283E+03 -0.46019809828E+03  0.70618312539E+03  0.00000000000E+00 0. -1.
         -2    1    6    6    0  503  0.13294178497E+02  0.92675752271E+01 -0.19752769054E+02  0.25549853577E+02  0.00000000000E+00 0.  1.
<mgrwt>
<rscale>  0 0.16172631E+04</rscale>
<asrwt>0</asrwt>
<pdfrwt beam="1">  1        1 0.12897151E+00 0.16172631E+04</pdfrwt>
<pdfrwt beam="2">  1       -2 0.11999990E+00 0.16172631E+04</pdfrwt>
<totfact> 0.91326941E+00</totfact>
</mgrwt>
</event>
<event>
12    4  0.4381187E-008  0.1289102E+04  0.7818608E-02  0.9038252E-01
          1   -1    0    0  501    0  0.00000000000E+00  0.00000000000E+00  0.11651754868E+04  0.11651754868E+04  0.00000000000E+00 0. -1.
         -2   -1    0    0    0  501 -0.00000000000E+00 -0.00000000000E+00 -0.35655247909E+03  0.35655247909E+03  0.00000000000E+00 0.  1.
        -24    2    1    2    0    0 -0.17776024582E+03  0.22175819160E+03  0.35345073322E+02  0.29750092268E+03  0.80511640459E+02 0.  0.
        254    2    1    2    0    0  0.17776024582E+03 -0.22175819160E+03  0.77327793442E+03  0.12242270432E+04  0.90553723779E+03 0.  0.
         23    2    4    4    0    0  0.22725131042E+03 -0.78233773548E+02  0.94522284074E+03  0.97960027655E+03  0.91688613039E+02 0.  0.
         23    2    4    4    0    0 -0.49491064596E+02 -0.14352441805E+03 -0.17194490632E+03  0.24462676669E+03  0.85021056937E+02 0.  0.
          1    1    3    3  502    0 -0.79748020861E+01  0.47503374574E+02  0.24315044122E+02  0.53957292694E+02  0.00000000000E+00 0. -1.
         -2    1    3    3    0  502 -0.16978544374E+03  0.17425481703E+03  0.11030029201E+02  0.24354362998E+03  0.00000000000E+00 0.  1.
         11    1    5    5    0    0  0.22553697328E+03 -0.67465605030E+02  0.93650529299E+03  0.96564004576E+03  0.00000000000E+00 0.  1.
        -11    1    5    5    0    0  0.17143371368E+01 -0.10768168518E+02  0.87175477485E+01  0.13960230793E+02  0.00000000000E+00 0. -1.
          4    1    6    6  503    0  0.61347149658E+01 -0.10685474504E+03 -0.11341412566E+03  0.15594337166E+03  0.00000000000E+00 0. -1.
         -4    1    6    6    0  503 -0.55625779562E+02 -0.36669673016E+02 -0.58530780652E+02  0.88683395033E+02  0.00000000000E+00 0.  1.
<mgrwt>
<rscale>  0 0.12891023E+04</rscale>
<asrwt>0</asrwt>
<pdfrwt beam="1">  1        1 0.17925777E+00 0.12891023E+04</pdfrwt>
<pdfrwt beam="2">  1       -2 0.54854228E-01 0.12891023E+04</pdfrwt>
<totfact> 0.30556506E+01</totfact>
</mgrwt>
</event>
<event>
12    4  0.4381187E-008  0.1621939E+04  0.7818608E-02  0.8807182E-01
         -2   -1    0    0    0  501 -0.00000000000E+00  0.00000000000E+00  0.10792292126E+04  0.10792292126E+04  0.00000000000E+00 0.  1.
          1   -1    0    0  501    0  0.00000000000E+00 -0.00000000000E+00 -0.60938988536E+03  0.60938988536E+03  0.00000000000E+00 0. -1.
        -24    2    1    2    0    0 -0.45877754702E+03 -0.24002363023E+03 -0.49016277465E+02  0.52607973348E+03  0.79177710289E+02 0.  0.
        254    2    1    2    0    0  0.45877754702E+03  0.24002363023E+03  0.51885560466E+03  0.11625393644E+04  0.90232946015E+03 0.  0.
         23    2    4    4    0    0  0.22606268774E+03  0.55418132679E+03  0.16333628098E+03  0.62689466318E+03  0.89982755505E+02 0.  0.
         23    2    4    4    0    0  0.23271485927E+03 -0.31415769656E+03  0.35551932368E+03  0.53564470125E+03  0.87578492995E+02 0.  0.
          3    1    3    3  502    0 -0.43352990617E+03 -0.24408264444E+03 -0.40659458124E+02  0.49917703112E+03  0.00000000000E+00 0. -1.
         -4    1    3    3    0  502 -0.25247640845E+02  0.40590142166E+01 -0.83568193415E+01  0.26902702358E+02  0.00000000000E+00 0.  1.
         11    1    5    5    0    0  0.17167882590E+03  0.49718225533E+03  0.15030882507E+03  0.54704346918E+03  0.00000000000E+00 0. -1.
        -11    1    5    5    0    0  0.54383861839E+02  0.56999071457E+02  0.13027455912E+02  0.79851193999E+02  0.00000000000E+00 0.  1.
          2    1    6    6  503    0  0.23754124140E+03 -0.31460993821E+03  0.34421274702E+03  0.52334278422E+03  0.00000000000E+00 0. -1.
         -2    1    6    6    0  503 -0.48263821276E+01  0.45224164436E+00  0.11306576656E+02  0.12301917030E+02  0.00000000000E+00 0.  1.
<mgrwt>
<rscale>  0 0.16219388E+04</rscale>
<asrwt>0</asrwt>
<pdfrwt beam="1">  1        1 0.93752290E-01 0.16219388E+04</pdfrwt>
<pdfrwt beam="2">  1       -2 0.16603526E+00 0.16219388E+04</pdfrwt>
<totfact> 0.63825720E+00</totfact>
</mgrwt>
</event>
<event>
12    4  0.4381187E-008  0.2150964E+04  0.7818608E-02  0.8539120E-01
         -2   -1    0    0    0  501 -0.00000000000E+00  0.00000000000E+00  0.16817953059E+04  0.16817953059E+04  0.00000000000E+00 0.  1.
          1   -1    0    0  501    0  0.00000000000E+00 -0.00000000000E+00 -0.68775427051E+03  0.68775427051E+03  0.00000000000E+00 0. -1.
        -24    2    1    2    0    0  0.12527467651E+03  0.23481149710E+03 -0.52316915136E+03  0.59211218846E+03  0.77850491599E+02 0.  0.
        254    2    1    2    0    0 -0.12527467651E+03 -0.23481149710E+03  0.15172101867E+04  0.17774373879E+04  0.88686342439E+03 0.  0.
         23    2    4    4    0    0 -0.18402199205E+03 -0.76566077887E+01  0.15123643419E+04  0.15264978588E+04  0.95011014992E+02 0.  0.
         23    2    4    4    0    0  0.58747315541E+02 -0.22715488932E+03  0.48458448090E+01  0.25093952914E+03  0.88862670725E+02 0.  0.
          1    1    3    3  502    0  0.10627330968E+03  0.23207561393E+03 -0.50417340819E+03  0.56510524016E+03  0.00000000000E+00 0. -1.
         -2    1    3    3    0  502  0.19001366823E+02  0.27358831760E+01 -0.18995743173E+02  0.27006948303E+02  0.00000000000E+00 0.  1.
         11    1    5    5    0    0 -0.17798368093E+03  0.19309262116E+02  0.13460575639E+04  0.13579108968E+04  0.00000000000E+00 0. -1.
        -11    1    5    5    0    0 -0.60383111147E+01 -0.26965869904E+02  0.16630677804E+03  0.16858696202E+03  0.00000000000E+00 0.  1.
          1    1    6    6  503    0  0.41383803536E+02 -0.15980498827E+03  0.44378148697E+02  0.17093763059E+03  0.00000000000E+00 0. -1.
         -1    1    6    6    0  503  0.17363512006E+02 -0.67349901051E+02 -0.39532303888E+02  0.80001898549E+02  0.00000000000E+00 0.  1.
<mgrwt>
<rscale>  0 0.21509643E+04</rscale>
<asrwt>0</asrwt>
<pdfrwt beam="1">  1        1 0.10580835E+00 0.21509643E+04</pdfrwt>
<pdfrwt beam="2">  1       -2 0.25873774E+00 0.21509643E+04</pdfrwt>
<totfact> 0.12748693E+00</totfact>
</mgrwt>
</event>
<event>
12    4  0.4381187E-008  0.1579868E+04  0.7818608E-02  0.8833013E-01
          1   -1    0    0  501    0  0.00000000000E+00  0.00000000000E+00  0.14333114821E+04  0.14333114821E+04  0.00000000000E+00 0. -1.
         -2   -1    0    0    0  501 -0.00000000000E+00 -0.00000000000E+00 -0.43535221735E+03  0.43535221735E+03  0.00000000000E+00 0.  1.
        -24    2    1    2    0    0  0.29050301750E+03  0.43448490418E+03  0.22074015448E+03  0.57300023493E+03  0.80211709186E+02 0.  0.
        254    2    1    2    0    0 -0.29050301750E+03 -0.43448490418E+03  0.77721911028E+03  0.12956634645E+04  0.89526819043E+03 0.  0.
         23    2    4    4    0    0 -0.14370010054E+03  0.19606567587E+03  0.54199654276E+03  0.60080255658E+03  0.90066594710E+02 0.  0.
         23    2    4    4    0    0 -0.14680291695E+03 -0.63055058005E+03  0.23522256753E+03  0.69486090796E+03  0.91416052781E+02 0.  0.
          3    1    3    3  502    0  0.24340294749E+03  0.34253727741E+03  0.20811389651E+03  0.46892235518E+03  0.00000000000E+00 0. -1.
         -4    1    3    3    0  502  0.47100070002E+02  0.91947626773E+02  0.12626257974E+02  0.10407787975E+03  0.00000000000E+00 0.  1.
         11    1    5    5    0    0 -0.11100537602E+03  0.15280859462E+03  0.31382691523E+03  0.36627857270E+03  0.00000000000E+00 0. -1.
        -11    1    5    5    0    0 -0.32694724519E+02  0.43257081246E+02  0.22816962752E+03  0.23452398388E+03  0.00000000000E+00 0.  1.
          2    1    6    6  503    0 -0.10881821654E+03 -0.57169433360E+03  0.22558877903E+03  0.62415231518E+03  0.00000000000E+00 0. -1.
         -2    1    6    6    0  503 -0.37984700413E+02 -0.58856246453E+02  0.96337884963E+01  0.70708592779E+02  0.00000000000E+00 0.  1.
<mgrwt>
<rscale>  0 0.15798675E+04</rscale>
<asrwt>0</asrwt>
<pdfrwt beam="1">  1        1 0.22050946E+00 0.15798675E+04</pdfrwt>
<pdfrwt beam="2">  1       -2 0.66977265E-01 0.15798675E+04</pdfrwt>
<totfact> 0.12563231E+01</totfact>
</mgrwt>
</event>
<event>
12    4  0.4381187E-008  0.1637702E+04  0.7818608E-02  0.8797716E-01
          1   -1    0    0  501    0  0.00000000000E+00  0.00000000000E+00  0.10182593088E+04  0.10182593088E+04  0.00000000000E+00 0. -1.
         -2   -1    0    0    0  501 -0.00000000000E+00 -0.00000000000E+00 -0.65849294671E+03  0.65849294671E+03  0.00000000000E+00 0.  1.
        -24    2    1    2    0    0  0.11915958735E+03  0.14119079947E+03 -0.40518975305E+03  0.45231654169E+03  0.79231741117E+02 0.  0.
        254    2    1    2    0    0 -0.11915958735E+03 -0.14119079947E+03  0.76495611518E+03  0.12244357139E+04  0.93805709319E+03 0.  0.
         23    2    4    4    0    0 -0.37780480646E+03 -0.38333403664E+03  0.26936512607E+03  0.60842620026E+03  0.89125835643E+02 0.  0.
         23    2    4    4    0    0  0.25864521911E+03  0.24214323718E+03  0.49559098911E+03  0.61600951359E+03  0.91250181801E+02 0.  0.
          1    1    3    3  502    0  0.10951077988E+03  0.71931900431E+02 -0.27007497810E+03  0.30017878506E+03  0.00000000000E+00 0. -1.
         -2    1    3    3    0  502  0.96488074774E+01  0.69258899037E+02 -0.13511477495E+03  0.15213775663E+03  0.00000000000E+00 0.  1.
         11    1    5    5    0    0 -0.10653045361E+03 -0.11710649831E+03  0.35797254700E+02  0.16230869643E+03  0.00000000000E+00 0. -1.
        -11    1    5    5    0    0 -0.27127435285E+03 -0.26622753833E+03  0.23356787137E+03  0.44611750382E+03  0.00000000000E+00 0.  1.
          3    1    6    6  503    0  0.14646967910E+03  0.13867823631E+03  0.20389968017E+03  0.28681021547E+03  0.00000000000E+00 0. -1.
         -3    1    6    6    0  503  0.11217554001E+03  0.10346500086E+03  0.29169130893E+03  0.32919929813E+03  0.00000000000E+00 0.  1.
<mgrwt>
<rscale>  0 0.16377015E+04</rscale>
<asrwt>0</asrwt>
<pdfrwt beam="1">  1        1 0.15665528E+00 0.16377015E+04</pdfrwt>
<pdfrwt beam="2">  1       -2 0.10130661E+00 0.16377015E+04</pdfrwt>
<totfact> 0.98345527E+00</totfact>
</mgrwt>
</event>
<event>
12    4  0.4381187E-008  0.2091926E+04  0.7818608E-02  0.8564808E-01
          1   -1    0    0  501    0  0.00000000000E+00  0.00000000000E+00  0.17993569964E+04  0.17993569964E+04  0.00000000000E+00 0. -1.
         -4   -1    0    0    0  501 -0.00000000000E+00 -0.00000000000E+00 -0.60801648374E+03  0.60801648374E+03  0.00000000000E+00 0.  1.
        -24    2    1    2    0    0  0.77402927730E+03 -0.32928905654E+03  0.60301834446E+03  0.10379800182E+04  0.78859302333E+02 0.  0.
        254    2    1    2    0    0 -0.77402927730E+03  0.32928905654E+03  0.58832216819E+03  0.13693934619E+04  0.90640105644E+03 0.  0.
         23    2    4    4    0    0 -0.86405088470E+03  0.39680104463E+03  0.70167890702E+03  0.11852846533E+04  0.92257359219E+02 0.  0.
         23    2    4    4    0    0  0.90021607393E+02 -0.67511988092E+02 -0.11335673883E+03  0.18410880867E+03  0.91567160371E+02 0.  0.
          3    1    3    3  502    0  0.56399591527E+03 -0.27584932832E+03  0.45992889690E+03  0.77827940650E+03  0.00000000000E+00 0. -1.
         -4    1    3    3    0  502  0.21003336203E+03 -0.53439728215E+02  0.14308944757E+03  0.25970061171E+03  0.00000000000E+00 0.  1.
         11    1    5    5    0    0 -0.35292685082E+03  0.11663285535E+03  0.29545297789E+03  0.47481896247E+03  0.00000000000E+00 0.  1.
        -11    1    5    5    0    0 -0.51112403387E+03  0.28016818928E+03  0.40622592913E+03  0.71046569079E+03  0.00000000000E+00 0. -1.
          2    1    6    6  503    0  0.88503450227E+02 -0.83551123306E+02 -0.76167243577E+02  0.14357959431E+03  0.00000000000E+00 0. -1.
         -2    1    6    6    0  503  0.15181571664E+01  0.16039135214E+02 -0.37189495255E+02  0.40529214364E+02  0.00000000000E+00 0.  1.
<mgrwt>
<rscale>  0 0.20919261E+04</rscale>
<asrwt>0</asrwt>
<pdfrwt beam="1">  1        1 0.27682415E+00 0.20919261E+04</pdfrwt>
<pdfrwt beam="2">  1       -4 0.93540999E-01 0.20919261E+04</pdfrwt>
<totfact> 0.17824383E+00</totfact>
</mgrwt>
</event>
<event>
12    4  0.4381187E-008  0.1776508E+04  0.7818608E-02  0.8718893E-01
          1   -1    0    0  501    0  0.00000000000E+00  0.00000000000E+00  0.78077110237E+03  0.78077110237E+03  0.00000000000E+00 0. -1.
         -2   -1    0    0    0  501 -0.00000000000E+00 -0.00000000000E+00 -0.10105330840E+04  0.10105330840E+04  0.00000000000E+00 0.  1.
        -24    2    1    2    0    0  0.54209128902E+01 -0.62288525839E+03 -0.16850141290E+03  0.65007889088E+03  0.78704553920E+02 0.  0.
        254    2    1    2    0    0 -0.54209128902E+01  0.62288525839E+03 -0.61260568685E+02  0.11412252954E+04  0.95426772254E+03 0.  0.
         23    2    4    4    0    0  0.39273645090E+03  0.57396349599E+03  0.79757621912E+02  0.70604398705E+03  0.91982709253E+02 0.  0.
         23    2    4    4    0    0 -0.39815736379E+03  0.48921762401E+02 -0.14101819060E+03  0.43518130840E+03  0.92595982193E+02 0.  0.
          3    1    3    3  502    0 -0.30189922965E+02 -0.22511588294E+03 -0.40553967432E+02  0.23072324650E+03  0.00000000000E+00 0. -1.
         -4    1    3    3    0  502  0.35610835855E+02 -0.39776937545E+03 -0.12794744547E+03  0.41935564439E+03  0.00000000000E+00 0.  1.
         11    1    5    5    0    0  0.63992613311E+02  0.84654442096E+02  0.45792597845E+02  0.11557850640E+03  0.00000000000E+00 0.  1.
        -11    1    5    5    0    0  0.32874383759E+03  0.48930905389E+03  0.33965024066E+02  0.59046548065E+03  0.00000000000E+00 0. -1.
          3    1    6    6  503    0 -0.39872811731E+03  0.55281087319E+02 -0.13103762349E+03  0.42333316539E+03  0.00000000000E+00 0. -1.
         -3    1    6    6    0  503  0.57075351549E+00 -0.63593249184E+01 -0.99805671029E+01  0.11848143006E+02  0.00000000000E+00 0.  1.
<mgrwt>
<rscale>  0 0.17765078E+04</rscale>
<asrwt>0</asrwt>
<pdfrwt beam="1">  1        1 0.12011863E+00 0.17765078E+04</pdfrwt>
<pdfrwt beam="2">  1       -2 0.15546663E+00 0.17765078E+04</pdfrwt>
<totfact> 0.51821157E+00</totfact>
</mgrwt>
</event>
<event>
12    4  0.4381187E-008  0.1147273E+04  0.7818608E-02  0.9160303E-01
          1   -1    0    0  501    0  0.00000000000E+00  0.00000000000E+00  0.99523434445E+03  0.99523434445E+03  0.00000000000E+00 0. -1.
         -2   -1    0    0    0  501 -0.00000000000E+00 -0.00000000000E+00 -0.33063469789E+03  0.33063469789E+03  0.00000000000E+00 0.  1.
        -24    2    1    2    0    0 -0.18792073775E+03  0.12357992333E+02  0.23157968866E+03  0.30935135147E+03  0.81253817174E+02 0.  0.
        254    2    1    2    0    0  0.18792073775E+03 -0.12357992333E+02  0.43301995790E+03  0.10165176909E+04  0.90018609647E+03 0.  0.
         23    2    4    4    0    0  0.50872760944E+03  0.92067590373E+02  0.10126028110E+03  0.53455388208E+03  0.90631046108E+02 0.  0.
         23    2    4    4    0    0 -0.32080687169E+03 -0.10442558271E+03  0.33175967680E+03  0.48196380879E+03  0.91667216545E+02 0.  0.
          1    1    3    3  502    0 -0.93177886216E+02  0.28271838668E+02  0.16790118179E+03  0.19409333370E+03  0.00000000000E+00 0. -1.
         -4    1    3    3    0  502 -0.94742851538E+02 -0.15913846336E+02  0.63678506868E+02  0.11525801777E+03  0.00000000000E+00 0.  1.
         11    1    5    5    0    0  0.41417898092E+03  0.51893338724E+02  0.10936010652E+03  0.43150524880E+03  0.00000000000E+00 0. -1.
        -11    1    5    5    0    0  0.94548628517E+02  0.40174251649E+02 -0.80998254228E+01  0.10304863328E+03  0.00000000000E+00 0.  1.
          1    1    6    6  503    0 -0.20740748103E+03 -0.10667000041E+03  0.19287555063E+03  0.30265050835E+03  0.00000000000E+00 0. -1.
         -1    1    6    6    0  503 -0.11339939065E+03  0.22444177065E+01  0.13888412617E+03  0.17931330044E+03  0.00000000000E+00 0.  1.
<mgrwt>
<rscale>  0 0.11472733E+04</rscale>
<asrwt>0</asrwt>
<pdfrwt beam="1">  1        1 0.15311297E+00 0.11472733E+04</pdfrwt>
<pdfrwt beam="2">  1       -2 0.50866877E-01 0.11472733E+04</pdfrwt>
<totfact> 0.48551395E+01</totfact>
</mgrwt>
</event>
<event>
12    4  0.4381187E-008  0.1404866E+04  0.7818608E-02  0.8950303E-01
         -2   -1    0    0    0  501 -0.00000000000E+00  0.00000000000E+00  0.90516900564E+03  0.90516900564E+03  0.00000000000E+00 0.  1.
          1   -1    0    0  501    0  0.00000000000E+00 -0.00000000000E+00 -0.54510535109E+03  0.54510535109E+03  0.00000000000E+00 0. -1.
        -24    2    1    2    0    0  0.20137156798E+03 -0.28980337881E+03 -0.11019165055E+03  0.37851528876E+03  0.81210327029E+02 0.  0.
        254    2    1    2    0    0 -0.20137156798E+03  0.28980337881E+03  0.47025530510E+03  0.10717590680E+04  0.89609761804E+03 0.  0.
         23    2    4    4    0    0 -0.45440486401E+02  0.59499952465E+03  0.34758001585E+03  0.69659643725E+03  0.91353471890E+02 0.  0.
         23    2    4    4    0    0 -0.15593108158E+03 -0.30519614584E+03  0.12267528925E+03  0.37516263073E+03  0.90766641790E+02 0.  0.
          1    1    3    3  502    0  0.19618361171E+03 -0.23892011388E+03 -0.10748084625E+03  0.32729644458E+03  0.00000000000E+00 0. -1.
         -2    1    3    3    0  502  0.51879562641E+01 -0.50883264921E+02 -0.27108043032E+01  0.51218844180E+02  0.00000000000E+00 0.  1.
         11    1    5    5    0    0 -0.43645835087E+02  0.54871132638E+03  0.34617754352E+03  0.65025223588E+03  0.00000000000E+00 0. -1.
        -11    1    5    5    0    0 -0.17946513134E+01  0.46288198265E+02  0.14024723304E+01  0.46344201369E+02  0.00000000000E+00 0.  1.
          4    1    6    6  503    0 -0.91563738270E+02 -0.21598524744E+03  0.40996784977E+02  0.23814760477E+03  0.00000000000E+00 0. -1.
         -4    1    6    6    0  503 -0.64367343307E+02 -0.89210898400E+02  0.81678504272E+02  0.13701502596E+03  0.00000000000E+00 0.  1.
<mgrwt>
<rscale>  0 0.14048665E+04</rscale>
<asrwt>0</asrwt>
<pdfrwt beam="1">  1        1 0.83862362E-01 0.14048665E+04</pdfrwt>
<pdfrwt beam="2">  1       -2 0.13925677E+00 0.14048665E+04</pdfrwt>
<totfact> 0.12190068E+01</totfact>
</mgrwt>
</event>
<event>
12    4  0.4381187E-008  0.1199220E+04  0.7818608E-02  0.9113540E-01
          1   -1    0    0  501    0  0.00000000000E+00  0.00000000000E+00  0.29808314118E+03  0.29808314118E+03  0.00000000000E+00 0. -1.
         -2   -1    0    0    0  501 -0.00000000000E+00 -0.00000000000E+00 -0.12061462282E+04  0.12061462282E+04  0.00000000000E+00 0.  1.
        -24    2    1    2    0    0  0.51111687587E+02  0.16054707747E+03 -0.38299231097E+03  0.42593009020E+03  0.79659040831E+02 0.  0.
        254    2    1    2    0    0 -0.51111687587E+02 -0.16054707747E+03 -0.52507077609E+03  0.10782992792E+04  0.92662950901E+03 0.  0.
         23    2    4    4    0    0 -0.10002079687E+03 -0.40063026363E+03 -0.65930430600E+03  0.78327821666E+03  0.91289806943E+02 0.  0.
         23    2    4    4    0    0  0.48909109286E+02  0.24008318616E+03  0.13423352991E+03  0.29502106255E+03  0.94798468076E+02 0.  0.
          3    1    3    3  502    0  0.89457074210E+01  0.18792749508E+02 -0.13949023492E+03  0.14103445946E+03  0.00000000000E+00 0. -1.
         -4    1    3    3    0  502  0.42165980166E+02  0.14175432796E+03 -0.24350207604E+03  0.28489563074E+03  0.00000000000E+00 0.  1.
         11    1    5    5    0    0  0.34097869577E+01 -0.14747321788E+03 -0.26744295256E+03  0.30542709361E+03  0.00000000000E+00 0.  1.
        -11    1    5    5    0    0 -0.10343058383E+03 -0.25315704575E+03 -0.39186135344E+03  0.47785112305E+03  0.00000000000E+00 0. -1.
          3    1    6    6  503    0  0.71151430834E+02  0.21153205672E+03  0.97798724748E+02  0.24366560630E+03  0.00000000000E+00 0. -1.
         -3    1    6    6    0  503 -0.22242321547E+02  0.28551129442E+02  0.36434805159E+02  0.51355456255E+02  0.00000000000E+00 0.  1.
<mgrwt>
<rscale>  0 0.11992195E+04</rscale>
<asrwt>0</asrwt>
<pdfrwt beam="1">  1        1 0.45858945E-01 0.11992195E+04</pdfrwt>
<pdfrwt beam="2">  1       -2 0.18556096E+00 0.11992195E+04</pdfrwt>
<totfact> 0.12671560E+01</totfact>
</mgrwt>
</event>
<event>
12    4  0.4818052E-008  0.2066132E+04  0.7818608E-02  0.8576311E-01
         -2   -1    0    0    0  501 -0.00000000000E+00  0.00000000000E+00  0.36800280396E+03  0.36800280396E+03  0.00000000000E+00 0.  1.
          1   -1    0    0  501    0  0.00000000000E+00 -0.00000000000E+00 -0.29000470309E+04  0.29000470309E+04  0.00000000000E+00 0. -1.
        -24    2    1    2    0    0 -0.64592420210E+02  0.31227232776E+03 -0.22565068223E+04  0.22804031665E+04  0.82032770708E+02 0.  0.
        254    2    1    2    0    0  0.64592420210E+02 -0.31227232776E+03 -0.27553740467E+03  0.98764666835E+03  0.89321827830E+03 0.  0.
         23    2    4    4    0    0 -0.39568085359E+03 -0.12795530714E+03 -0.22056705965E+03  0.48052513113E+03  0.96533286067E+02 0.  0.
         23    2    4    4    0    0  0.46027327380E+03 -0.18431702062E+03 -0.54970345021E+02  0.50712153722E+03  0.91248364482E+02 0.  0.
          3    1    3    3  502    0 -0.84421538619E+02  0.25370168182E+03 -0.18169362018E+04  0.18365044789E+04  0.00000000000E+00 0. -1.
         -4    1    3    3    0  502  0.19829118409E+02  0.58570645941E+02 -0.43957062049E+03  0.44389868766E+03  0.00000000000E+00 0.  1.
         11    1    5    5    0    0 -0.38677585513E+03 -0.11736810947E+03 -0.18927959697E+03  0.44631558461E+03  0.00000000000E+00 0. -1.
        -11    1    5    5    0    0 -0.89049984580E+01 -0.10587197669E+02 -0.31287462684E+02  0.34209546522E+02  0.00000000000E+00 0.  1.
          3    1    6    6  503    0  0.44340011465E+03 -0.19465243535E+03 -0.54780045822E+02  0.48733364924E+03  0.00000000000E+00 0. -1.
         -3    1    6    6    0  503  0.16873159148E+02  0.10335414726E+02 -0.19029919976E+00  0.19787887987E+02  0.00000000000E+00 0.  1.
<mgrwt>
<rscale>  0 0.20661321E+04</rscale>
<asrwt>0</asrwt>
<pdfrwt beam="1">  1        1 0.44616111E+00 0.20661321E+04</pdfrwt>
<pdfrwt beam="2">  1       -2 0.56615813E-01 0.20661321E+04</pdfrwt>
<totfact> 0.16775982E+00</totfact>
</mgrwt>
</event>
<event>
12    4  0.4381187E-008  0.1689255E+04  0.7818608E-02  0.8767516E-01
         -2   -1    0    0    0  501 -0.00000000000E+00  0.00000000000E+00  0.10930897521E+04  0.10930897521E+04  0.00000000000E+00 0.  1.
          1   -1    0    0  501    0  0.00000000000E+00 -0.00000000000E+00 -0.65264168062E+03  0.65264168062E+03  0.00000000000E+00 0. -1.
        -24    2    1    2    0    0 -0.70796804856E+02  0.24761295520E+03  0.73804594474E+03  0.78580963457E+03  0.80377870541E+02 0.  0.
        254    2    1    2    0    0  0.70796804856E+02 -0.24761295520E+03 -0.29759787324E+03  0.95992179817E+03  0.87553469450E+03 0.  0.
         23    2    4    4    0    0  0.43794748437E+03 -0.15035472167E+03 -0.52677459633E+01  0.47219671261E+03  0.92398294668E+02 0.  0.
         23    2    4    4    0    0 -0.36715067951E+03 -0.97258233530E+02 -0.29233012728E+03  0.48772508556E+03  0.90333107496E+02 0.  0.
          1    1    3    3  502    0 -0.27489553198E+02  0.27076562159E+02  0.58647656333E+02  0.70202303001E+02  0.00000000000E+00 0. -1.
         -2    1    3    3    0  502 -0.43307251657E+02  0.22053639304E+03  0.67939828841E+03  0.71560733157E+03  0.00000000000E+00 0.  1.
         11    1    5    5    0    0  0.64851949196E+02 -0.53599804270E+02 -0.19994659237E+02  0.86478325205E+02  0.00000000000E+00 0.  1.
        -11    1    5    5    0    0  0.37309553517E+03 -0.96754917403E+02  0.14726913273E+02  0.38571838741E+03  0.00000000000E+00 0. -1.
          2    1    6    6  503    0 -0.16860253959E+03 -0.91156218040E+02 -0.13804712619E+03  0.23620601494E+03  0.00000000000E+00 0. -1.
         -2    1    6    6    0  503 -0.19854813992E+03 -0.61020154904E+01 -0.15428300109E+03  0.25151907062E+03  0.00000000000E+00 0.  1.
<mgrwt>
<rscale>  0 0.16892554E+04</rscale>
<asrwt>0</asrwt>
<pdfrwt beam="1">  1        1 0.10040641E+00 0.16892554E+04</pdfrwt>
<pdfrwt beam="2">  1       -2 0.16816765E+00 0.16892554E+04</pdfrwt>
<totfact> 0.55408562E+00</totfact>
</mgrwt>
</event>
<event>
12    4  0.4381187E-008  0.1304350E+04  0.7818608E-02  0.9026123E-01
         -2   -1    0    0    0  501 -0.00000000000E+00  0.00000000000E+00  0.18816661317E+03  0.18816661317E+03  0.00000000000E+00 0.  1.
          1   -1    0    0  501    0  0.00000000000E+00 -0.00000000000E+00 -0.22604021144E+04  0.22604021144E+04  0.00000000000E+00 0. -1.
        -24    2    1    2    0    0  0.23938139604E+02 -0.70902281747E+02  0.67816567620E+02  0.12884790871E+03  0.80015802501E+02 0.  0.
        254    2    1    2    0    0 -0.23938139604E+02  0.70902281747E+02 -0.21400520689E+04  0.23197208189E+04  0.89200989456E+03 0.  0.
         23    2    4    4    0    0  0.77907961870E+02 -0.11892780083E+03 -0.17206551811E+01  0.16856168567E+03  0.90535125168E+02 0.  0.
         23    2    4    4    0    0 -0.10184610147E+03  0.18983008258E+03 -0.21383314137E+04  0.21511591332E+04  0.92823989203E+02 0.  0.
          3    1    3    3  502    0 -0.90770686698E+01  0.14877484790E+02  0.79418356950E+01  0.19152166549E+02  0.00000000000E+00 0. -1.
         -4    1    3    3    0  502  0.33015208274E+02 -0.85779766537E+02  0.59874731925E+02  0.10969574216E+03  0.00000000000E+00 0.  1.
         11    1    5    5    0    0  0.19235562527E+02 -0.10047719735E+02  0.33542356226E+02  0.39950634524E+02  0.00000000000E+00 0. -1.
        -11    1    5    5    0    0  0.58672399343E+02 -0.10888008110E+03 -0.35263011407E+02  0.12861105115E+03  0.00000000000E+00 0.  1.
          4    1    6    6  503    0  0.13562903078E+02  0.22329627148E+02 -0.42363987923E+03  0.42444471002E+03  0.00000000000E+00 0. -1.
         -4    1    6    6    0  503 -0.11540900455E+03  0.16750045543E+03 -0.17146915345E+04  0.17267144232E+04  0.00000000000E+00 0.  1.
<mgrwt>
<rscale>  0 0.13043500E+04</rscale>
<asrwt>0</asrwt>
<pdfrwt beam="1">  1        1 0.34775414E+00 0.13043500E+04</pdfrwt>
<pdfrwt beam="2">  1       -2 0.28948712E-01 0.13043500E+04</pdfrwt>
<totfact> 0.18773401E+01</totfact>
</mgrwt>
</event>
<event>
12    4  0.4381187E-008  0.3024968E+04  0.7818608E-02  0.8236637E-01
         -2   -1    0    0    0  501 -0.00000000000E+00  0.00000000000E+00  0.13785601101E+04  0.13785601101E+04  0.00000000000E+00 0.  1.
          1   -1    0    0  501    0  0.00000000000E+00 -0.00000000000E+00 -0.16594183503E+04  0.16594183503E+04  0.00000000000E+00 0. -1.
        -24    2    1    2    0    0  0.28915470091E+03 -0.85946628193E+03  0.91795825420E+03  0.12927979850E+04  0.79915847330E+02 0.  0.
        254    2    1    2    0    0 -0.28915470091E+03  0.85946628193E+03 -0.11988164944E+04  0.17451804754E+04  0.88667985983E+03 0.  0.
         23    2    4    4    0    0 -0.52572426246E+02  0.55153384007E+03 -0.93226125290E+02  0.56907331364E+03  0.90553239135E+02 0.  0.
         23    2    4    4    0    0 -0.23658227467E+03  0.30793244186E+03 -0.11055903691E+04  0.11761071618E+04  0.10052079575E+03 0.  0.
          3    1    3    3  502    0  0.80306500996E+02 -0.21656314888E+03  0.28391786181E+03  0.36600284672E+03  0.00000000000E+00 0. -1.
         -4    1    3    3    0  502  0.20884819992E+03 -0.64290313306E+03  0.63404039238E+03  0.92679513825E+03  0.00000000000E+00 0.  1.
         11    1    5    5    0    0 -0.67723294004E+02  0.47880996566E+03 -0.58596747993E+02  0.48711293007E+03  0.00000000000E+00 0. -1.
        -11    1    5    5    0    0  0.15150867758E+02  0.72723874406E+02 -0.34629377297E+02  0.81960383567E+02  0.00000000000E+00 0.  1.
          2    1    6    6  503    0 -0.24034433212E+03  0.28913599099E+03 -0.10833814618E+04  0.11467695545E+04  0.00000000000E+00 0. -1.
         -2    1    6    6    0  503  0.37620574528E+01  0.18796450869E+02 -0.22208907308E+02  0.29337607355E+02  0.00000000000E+00 0.  1.
<mgrwt>
<rscale>  0 0.30249681E+04</rscale>
<asrwt>0</asrwt>
<pdfrwt beam="1">  1        1 0.25529513E+00 0.30249681E+04</pdfrwt>
<pdfrwt beam="2">  1       -2 0.21208617E+00 0.30249681E+04</pdfrwt>
<totfact> 0.42086718E-01</totfact>
</mgrwt>
</event>
<event>
12    4  0.4381187E-008  0.1728222E+04  0.7818608E-02  0.8745430E-01
         -2   -1    0    0    0  501 -0.00000000000E+00  0.00000000000E+00  0.43533704634E+03  0.43533704634E+03  0.00000000000E+00 0.  1.
          1   -1    0    0  501    0  0.00000000000E+00 -0.00000000000E+00 -0.17151944336E+04  0.17151944336E+04  0.00000000000E+00 0. -1.
        -24    2    1    2    0    0  0.58460033685E+03  0.20498628123E+03 -0.27970866297E+03  0.68440560022E+03  0.79982248895E+02 0.  0.
        254    2    1    2    0    0 -0.58460033685E+03 -0.20498628123E+03 -0.10001487243E+04  0.14661258797E+04  0.87490039156E+03 0.  0.
         23    2    4    4    0    0  0.40779036036E+02 -0.39040504261E+03 -0.27548171306E+03  0.48683319662E+03  0.83888974419E+02 0.  0.
         23    2    4    4    0    0 -0.62537937289E+03  0.18541876138E+03 -0.72466701124E+03  0.97929268311E+03  0.91610069923E+02 0.  0.
          1    1    3    3  502    0  0.11633935336E+03  0.63449296363E+02 -0.87591085608E+02  0.15884853360E+03  0.00000000000E+00 0. -1.
         -2    1    3    3    0  502  0.46826098349E+03  0.14153698487E+03 -0.19211757736E+03  0.52555706662E+03  0.00000000000E+00 0.  1.
         11    1    5    5    0    0  0.38572440102E+02 -0.34059171271E+03 -0.27064484187E+03  0.43673696699E+03  0.00000000000E+00 0. -1.
        -11    1    5    5    0    0  0.22065959331E+01 -0.49813329891E+02 -0.48368711950E+01  0.50096229633E+02  0.00000000000E+00 0.  1.
          4    1    6    6  503    0 -0.28550193637E+03  0.53075246494E+02 -0.37218376516E+03  0.47206894890E+03  0.00000000000E+00 0.  1.
         -4    1    6    6    0  503 -0.33987743651E+03  0.13234351488E+03 -0.35248324607E+03  0.50722373421E+03  0.00000000000E+00 0. -1.
<mgrwt>
<rscale>  0 0.17282218E+04</rscale>
<asrwt>0</asrwt>
<pdfrwt beam="1">  1        1 0.26387607E+00 0.17282218E+04</pdfrwt>
<pdfrwt beam="2">  1       -2 0.66974931E-01 0.17282218E+04</pdfrwt>
<totfact> 0.79362053E+00</totfact>
</mgrwt>
</event>
<event>
12    4  0.4381187E-008  0.1354847E+04  0.7818608E-02  0.8987167E-01
         -2   -1    0    0    0  501 -0.00000000000E+00  0.00000000000E+00  0.79353198081E+03  0.79353198081E+03  0.00000000000E+00 0.  1.
          1   -1    0    0  501    0  0.00000000000E+00 -0.00000000000E+00 -0.57830394723E+03  0.57830394723E+03  0.00000000000E+00 0. -1.
        -24    2    1    2    0    0 -0.21049766023E+03 -0.23975579757E+02  0.35836415756E+03  0.42497360709E+03  0.85402598962E+02 0.  0.
        254    2    1    2    0    0  0.21049766023E+03  0.23975579757E+02 -0.14313612398E+03  0.94686232094E+03  0.91168865927E+03 0.  0.
         23    2    4    4    0    0 -0.25889742563E+03 -0.25878107708E+03 -0.94038021255E+02  0.38983842003E+03  0.95578875507E+02 0.  0.
         23    2    4    4    0    0  0.46939508586E+03  0.28275665684E+03 -0.49098102725E+02  0.55702390091E+03  0.87074272195E+02 0.  0.
          3    1    3    3  502    0  0.74290385586E+01 -0.63721920840E+01  0.15204836914E+02  0.18082657754E+02  0.00000000000E+00 0. -1.
         -4    1    3    3    0  502 -0.21792669879E+03 -0.17603387673E+02  0.34315932065E+03  0.40689094934E+03  0.00000000000E+00 0.  1.
         11    1    5    5    0    0 -0.94976269848E+02 -0.15941260148E+03 -0.31560724082E+02  0.18822579167E+03  0.00000000000E+00 0. -1.
        -11    1    5    5    0    0 -0.16392115578E+03 -0.99368475602E+02 -0.62477297173E+02  0.20161262837E+03  0.00000000000E+00 0.  1.
          3    1    6    6  503    0  0.29503119438E+02  0.31782309066E+02  0.16383119317E+02  0.46356831478E+02  0.00000000000E+00 0. -1.
         -3    1    6    6    0  503  0.43989196642E+03  0.25097434777E+03 -0.65481222042E+02  0.51066706943E+03  0.00000000000E+00 0.  1.
<mgrwt>
<rscale>  0 0.13548471E+04</rscale>
<asrwt>0</asrwt>
<pdfrwt beam="1">  1        1 0.88969838E-01 0.13548471E+04</pdfrwt>
<pdfrwt beam="2">  1       -2 0.12208184E+00 0.13548471E+04</pdfrwt>
<totfact> 0.15724123E+01</totfact>
</mgrwt>
</event>
<event>
12    4  0.4381187E-008  0.1604273E+04  0.7818608E-02  0.8817927E-01
          1   -1    0    0  501    0  0.00000000000E+00  0.00000000000E+00  0.10721107023E+04  0.10721107023E+04  0.00000000000E+00 0. -1.
         -2   -1    0    0    0  501 -0.00000000000E+00 -0.00000000000E+00 -0.60014580406E+03  0.60014580406E+03  0.00000000000E+00 0.  1.
        -24    2    1    2    0    0 -0.43278077013E+03  0.54320963824E+01  0.48548017020E+03  0.65581222668E+03  0.84083163270E+02 0.  0.
        254    2    1    2    0    0  0.43278077013E+03 -0.54320963824E+01 -0.13515271977E+02  0.10164442797E+04  0.91959100060E+03 0.  0.
         23    2    4    4    0    0 -0.70990815051E+02 -0.36807061296E+03 -0.42710501456E+02  0.38826324976E+03  0.91697831124E+02 0.  0.
         23    2    4    4    0    0  0.50377158518E+03  0.36263851658E+03  0.29195229478E+02  0.62818102989E+03  0.92013809524E+02 0.  0.
          3    1    3    3  502    0 -0.20384695363E+03 -0.90584513382E+01  0.28901450995E+03  0.35378669139E+03  0.00000000000E+00 0. -1.
         -4    1    3    3    0  502 -0.22893381650E+03  0.14490547721E+02  0.19646566025E+03  0.30202553529E+03  0.00000000000E+00 0.  1.
         11    1    5    5    0    0 -0.36977770761E+01 -0.10001607812E+03 -0.49822239480E+02  0.11179957506E+03  0.00000000000E+00 0.  1.
        -11    1    5    5    0    0 -0.67293037975E+02 -0.26805453484E+03  0.71117380237E+01  0.27646367470E+03  0.00000000000E+00 0. -1.
          4    1    6    6  503    0  0.21456657843E+03  0.21107433730E+03  0.15225790614E+02  0.30136857359E+03  0.00000000000E+00 0. -1.
         -4    1    6    6    0  503  0.28920500676E+03  0.15156417928E+03  0.13969438865E+02  0.32681245630E+03  0.00000000000E+00 0.  1.
<mgrwt>
<rscale>  0 0.16042727E+04</rscale>
<asrwt>0</asrwt>
<pdfrwt beam="1">  1        1 0.16494011E+00 0.16042727E+04</pdfrwt>
<pdfrwt beam="2">  1       -2 0.92330124E-01 0.16042727E+04</pdfrwt>
<totfact> 0.11151183E+01</totfact>
</mgrwt>
</event>
<event>
12    4  0.4381187E-008  0.3056398E+04  0.7818608E-02  0.8227807E-01
         -2   -1    0    0    0  501 -0.00000000000E+00  0.00000000000E+00  0.22272791524E+04  0.22272791524E+04  0.00000000000E+00 0.  1.
          1   -1    0    0  501    0  0.00000000000E+00 -0.00000000000E+00 -0.10485404203E+04  0.10485404203E+04  0.00000000000E+00 0. -1.
        -24    2    1    2    0    0  0.44987813225E+03  0.94757158492E+03  0.15224763079E+04  0.18506382081E+04  0.81519484901E+02 0.  0.
        254    2    1    2    0    0 -0.44987813225E+03 -0.94757158492E+03 -0.34373757587E+03  0.14251813647E+04  0.90150105872E+03 0.  0.
         23    2    4    4    0    0 -0.71853869589E+02  0.14488047602E+03  0.62690392756E+02  0.19641404276E+03  0.92168649462E+02 0.  0.
         23    2    4    4    0    0 -0.37802426266E+03 -0.10924520609E+04 -0.40642796862E+03  0.12287673220E+04  0.91277539513E+02 0.  0.
          1    1    3    3  502    0  0.39389974110E+02  0.40605054864E+02  0.82185180540E+02  0.99773465618E+02  0.00000000000E+00 0. -1.
         -2    1    3    3    0  502  0.41048815814E+03  0.90696653005E+03  0.14402911274E+04  0.17508647424E+04  0.00000000000E+00 0.  1.
         11    1    5    5    0    0 -0.83758455696E+02  0.66954840609E+02  0.33274479515E+02  0.11227475481E+03  0.00000000000E+00 0. -1.
        -11    1    5    5    0    0  0.11904586106E+02  0.77925635414E+02  0.29415913242E+02  0.84139287951E+02  0.00000000000E+00 0.  1.
          4    1    6    6  503    0 -0.11489639018E+03 -0.46646958629E+03 -0.15841722166E+03  0.50585676978E+03  0.00000000000E+00 0. -1.
         -4    1    6    6    0  503 -0.26312787248E+03 -0.62598247465E+03 -0.24801074697E+03  0.72291055218E+03  0.00000000000E+00 0.  1.
<mgrwt>
<rscale>  0 0.30563980E+04</rscale>
<asrwt>0</asrwt>
<pdfrwt beam="1">  1        1 0.16131391E+00 0.30563980E+04</pdfrwt>
<pdfrwt beam="2">  1       -2 0.34265833E+00 0.30563980E+04</pdfrwt>
<totfact> 0.17840513E-01</totfact>
</mgrwt>
</event>
<event>
12    4  0.4381187E-008  0.1712762E+04  0.7818608E-02  0.8754119E-01
         -2   -1    0    0    0  501 -0.00000000000E+00  0.00000000000E+00  0.39960483409E+03  0.39960483409E+03  0.00000000000E+00 0.  1.
          1   -1    0    0  501    0  0.00000000000E+00 -0.00000000000E+00 -0.18352832899E+04  0.18352832899E+04  0.00000000000E+00 0. -1.
        -24    2    1    2    0    0  0.17462151839E+03 -0.71593561391E+02 -0.12973618383E+04  0.13134069853E+04  0.79195054932E+02 0.  0.
        254    2    1    2    0    0 -0.17462151839E+03  0.71593561391E+02 -0.13831661747E+03  0.92148113869E+03  0.89127868233E+03 0.  0.
         23    2    4    4    0    0  0.19730309523E+03  0.69457571511E+02  0.27537443696E+03  0.35799632196E+03  0.92614363783E+02 0.  0.
         23    2    4    4    0    0 -0.37192461362E+03  0.21359898800E+01 -0.41369105443E+03  0.56348481673E+03  0.89679258987E+02 0.  0.
          3    1    3    3  502    0  0.57791189529E+02 -0.29714940166E+02 -0.71613565415E+03  0.71907793347E+03  0.00000000000E+00 0. -1.
         -4    1    3    3    0  502  0.11683032886E+03 -0.41878621225E+02 -0.58122618416E+03  0.59432905179E+03  0.00000000000E+00 0.  1.
         11    1    5    5    0    0  0.11319139047E+03 -0.92233127951E+01  0.13882321484E+03  0.17935786951E+03  0.00000000000E+00 0. -1.
        -11    1    5    5    0    0  0.84111704761E+02  0.78680884306E+02  0.13655122212E+03  0.17863845245E+03  0.00000000000E+00 0.  1.
          1    1    6    6  503    0 -0.18739477409E+03  0.22775396268E+02 -0.15069189137E+03  0.24154412880E+03  0.00000000000E+00 0. -1.
         -1    1    6    6    0  503 -0.18452983954E+03 -0.20639406388E+02 -0.26299916306E+03  0.32194068793E+03  0.00000000000E+00 0.  1.
<mgrwt>
<rscale>  0 0.17127616E+04</rscale>
<asrwt>0</asrwt>
<pdfrwt beam="1">  1        1 0.28235127E+00 0.17127616E+04</pdfrwt>
<pdfrwt beam="2">  1       -2 0.61477667E-01 0.17127616E+04</pdfrwt>
<totfact> 0.79134409E+00</totfact>
</mgrwt>
</event>
<event>
12    4  0.4381187E-008  0.1545784E+04  0.7818608E-02  0.8854565E-01
          1   -1    0    0  501    0  0.00000000000E+00  0.00000000000E+00  0.20696784237E+04  0.20696784237E+04  0.00000000000E+00 0. -1.
         -2   -1    0    0    0  501 -0.00000000000E+00 -0.00000000000E+00 -0.28862556312E+03  0.28862556312E+03  0.00000000000E+00 0.  1.
        -24    2    1    2    0    0  0.24705703359E+03 -0.43650694847E+03  0.44712023121E+03  0.67677437224E+03  0.80818041615E+02 0.  0.
        254    2    1    2    0    0 -0.24705703359E+03  0.43650694847E+03  0.13339326294E+04  0.16815296146E+04  0.89251895842E+03 0.  0.
         23    2    4    4    0    0 -0.47968449180E+03  0.54074612727E+03  0.11179526756E+04  0.13343512735E+04  0.90396627657E+02 0.  0.
         23    2    4    4    0    0  0.23262745820E+03 -0.10423917879E+03  0.21597995377E+03  0.34717834113E+03  0.94361641634E+02 0.  0.
          1    1    3    3  502    0  0.62408393239E+02 -0.14141825807E+03  0.18466168900E+03  0.24081916586E+03  0.00000000000E+00 0. -1.
         -2    1    3    3    0  502  0.18464864036E+03 -0.29508869040E+03  0.26245854221E+03  0.43595520638E+03  0.00000000000E+00 0.  1.
         11    1    5    5    0    0 -0.21447911225E+03  0.17637174778E+03  0.41441637973E+03  0.49884789144E+03  0.00000000000E+00 0. -1.
        -11    1    5    5    0    0 -0.26520537954E+03  0.36437437948E+03  0.70353629589E+03  0.83550338204E+03  0.00000000000E+00 0.  1.
          3    1    6    6  503    0  0.17590269774E+03 -0.33919299584E+02  0.16439460803E+03  0.24314165646E+03  0.00000000000E+00 0. -1.
         -3    1    6    6    0  503  0.56724760459E+02 -0.70319879210E+02  0.51585345748E+02  0.10403668467E+03  0.00000000000E+00 0.  1.
<mgrwt>
<rscale>  0 0.15457841E+04</rscale>
<asrwt>0</asrwt>
<pdfrwt beam="1">  1        1 0.31841206E+00 0.15457841E+04</pdfrwt>
<pdfrwt beam="2">  1       -2 0.44403934E-01 0.15457841E+04</pdfrwt>
<totfact> 0.10883370E+01</totfact>
</mgrwt>
</event>
<event>
12    4  0.4381187E-008  0.2792911E+04  0.7818608E-02  0.8305473E-01
         -2   -1    0    0    0  501 -0.00000000000E+00  0.00000000000E+00  0.16412291286E+04  0.16412291286E+04  0.00000000000E+00 0.  1.
          1   -1    0    0  501    0  0.00000000000E+00 -0.00000000000E+00 -0.11881873405E+04  0.11881873405E+04  0.00000000000E+00 0. -1.
        -24    2    1    2    0    0  0.27534275164E+03 -0.26835302374E+03 -0.10011075167E+04  0.10754651392E+04  0.81129707380E+02 0.  0.
        254    2    1    2    0    0 -0.27534275164E+03  0.26835302374E+03  0.14541493048E+04  0.17539513300E+04  0.90220180166E+03 0.  0.
         23    2    4    4    0    0 -0.20185197227E+03 -0.30703116334E+03  0.42456075760E+03  0.56882226749E+03  0.91074590998E+02 0.  0.
         23    2    4    4    0    0 -0.73490779375E+02  0.57538418708E+03  0.10295885472E+04  0.11851290625E+04  0.89501177331E+02 0.  0.
          3    1    3    3  502    0  0.22494162926E+03 -0.20229221713E+03 -0.86063313771E+03  0.91225559764E+03  0.00000000000E+00 0. -1.
         -4    1    3    3    0  502  0.50401122387E+02 -0.66060806606E+02 -0.14047437896E+03  0.16320954154E+03  0.00000000000E+00 0.  1.
         11    1    5    5    0    0 -0.78681967720E+02 -0.53232261551E+02  0.12940738154E+03  0.16053285057E+03  0.00000000000E+00 0.  1.
        -11    1    5    5    0    0 -0.12317000455E+03 -0.25379890179E+03  0.29515337606E+03  0.40828941692E+03  0.00000000000E+00 0. -1.
          3    1    6    6  503    0 -0.27227787647E+02  0.48131211443E+03  0.84319473785E+03  0.97127754522E+03  0.00000000000E+00 0. -1.
         -3    1    6    6    0  503 -0.46262991728E+02  0.94072072656E+02  0.18639380938E+03  0.21385151726E+03  0.00000000000E+00 0.  1.
<mgrwt>
<rscale>  0 0.27929108E+04</rscale>
<asrwt>0</asrwt>
<pdfrwt beam="1">  1        1 0.18279805E+00 0.27929108E+04</pdfrwt>
<pdfrwt beam="2">  1       -2 0.25249679E+00 0.27929108E+04</pdfrwt>
<totfact> 0.51404532E-01</totfact>
</mgrwt>
</event>
<event>
12    4  0.4381187E-008  0.2250262E+04  0.7818608E-02  0.8497794E-01
          1   -1    0    0  501    0  0.00000000000E+00  0.00000000000E+00  0.23567333825E+04  0.23567333825E+04  0.00000000000E+00 0. -1.
         -2   -1    0    0    0  501 -0.00000000000E+00 -0.00000000000E+00 -0.53715037702E+03  0.53715037702E+03  0.00000000000E+00 0.  1.
        -24    2    1    2    0    0 -0.65918765788E+02  0.57113229434E+03 -0.19387584204E+03  0.61201063847E+03  0.80198492248E+02 0.  0.
        254    2    1    2    0    0  0.65918765788E+02 -0.57113229434E+03  0.20134588475E+04  0.22818731210E+04  0.90685777747E+03 0.  0.
         23    2    4    4    0    0 -0.81730346538E+02  0.17272716098E+03  0.94531401681E+03  0.96871419467E+03  0.90961964005E+02 0.  0.
         23    2    4    4    0    0  0.14764911233E+03 -0.74385945532E+03  0.10681448307E+04  0.13131589264E+04  0.91246024000E+02 0.  0.
          1    1    3    3  502    0  0.14132091444E+02  0.36557384243E+02 -0.54298900632E+01  0.39568195023E+02  0.00000000000E+00 0. -1.
         -2    1    3    3    0  502 -0.80050857233E+02  0.53457491009E+03 -0.18844595198E+03  0.57244244345E+03  0.00000000000E+00 0.  1.
         11    1    5    5    0    0 -0.15658170658E+02  0.11081336845E+03  0.37798631820E+03  0.39420608529E+03  0.00000000000E+00 0. -1.
        -11    1    5    5    0    0 -0.66072175881E+02  0.61913792527E+02  0.56732769861E+03  0.57450810938E+03  0.00000000000E+00 0.  1.
          2    1    6    6  503    0 -0.82824326498E+01 -0.12069525505E+02  0.31104572767E+02  0.34376832076E+02  0.00000000000E+00 0.  1.
         -2    1    6    6    0  503  0.15593154498E+03 -0.73178992981E+03  0.10370402579E+04  0.12787820943E+04  0.00000000000E+00 0. -1.
<mgrwt>
<rscale>  0 0.22502624E+04</rscale>
<asrwt>0</asrwt>
<pdfrwt beam="1">  1        1 0.36257436E+00 0.22502624E+04</pdfrwt>
<pdfrwt beam="2">  1       -2 0.82638521E-01 0.22502624E+04</pdfrwt>
<totfact> 0.17433889E+00</totfact>
</mgrwt>
</event>
<event>
12    4  0.4381187E-008  0.2368531E+04  0.7818608E-02  0.8451380E-01
          1   -1    0    0  501    0  0.00000000000E+00  0.00000000000E+00  0.13392268415E+04  0.13392268415E+04  0.00000000000E+00 0. -1.
         -2   -1    0    0    0  501 -0.00000000000E+00 -0.00000000000E+00 -0.10472349425E+04  0.10472349425E+04  0.00000000000E+00 0.  1.
        -24    2    1    2    0    0  0.77363500597E+03  0.45134203963E+03 -0.35438931775E+03  0.96646066166E+03  0.78953548307E+02 0.  0.
        254    2    1    2    0    0 -0.77363500597E+03 -0.45134203963E+03  0.64638121669E+03  0.14200011223E+04  0.89239775376E+03 0.  0.
         23    2    4    4    0    0 -0.19621566901E+03 -0.39413970000E+02 -0.20994641150E+03  0.30442621438E+03  0.92432540268E+02 0.  0.
         23    2    4    4    0    0 -0.57741933696E+03 -0.41192806964E+03  0.85632762819E+03  0.11155749080E+04  0.90069657479E+02 0.  0.
          3    1    3    3  502    0  0.31294417049E+02  0.38764367255E+02 -0.21549458966E+02  0.54280713784E+02  0.00000000000E+00 0. -1.
         -4    1    3    3    0  502  0.74234058892E+03  0.41257767238E+03 -0.33283985878E+03  0.91217994787E+03  0.00000000000E+00 0.  1.
         11    1    5    5    0    0 -0.13086252228E+03 -0.69222145478E+02 -0.15148865850E+03  0.21181482200E+03  0.00000000000E+00 0. -1.
        -11    1    5    5    0    0 -0.65353146727E+02  0.29808175479E+02 -0.58457752998E+02  0.92611392377E+02  0.00000000000E+00 0.  1.
          1    1    6    6  503    0 -0.45705347719E+03 -0.36774425904E+03  0.71113923811E+03  0.92187457772E+03  0.00000000000E+00 0. -1.
         -1    1    6    6    0  503 -0.12036585977E+03 -0.44183810597E+02  0.14518839008E+03  0.19370033023E+03  0.00000000000E+00 0.  1.
<mgrwt>
<rscale>  0 0.23685313E+04</rscale>
<asrwt>0</asrwt>
<pdfrwt beam="1">  1        1 0.20603490E+00 0.23685313E+04</pdfrwt>
<pdfrwt beam="2">  1       -2 0.16111307E+00 0.23685313E+04</pdfrwt>
<totfact> 0.16533455E+00</totfact>
</mgrwt>
</event>
<event>
12    4  0.4381187E-008  0.1329243E+04  0.7818608E-02  0.9006691E-01
          1   -1    0    0  501    0  0.00000000000E+00  0.00000000000E+00  0.18360551738E+04  0.18360551738E+04  0.00000000000E+00 0. -1.
         -2   -1    0    0    0  501 -0.00000000000E+00 -0.00000000000E+00 -0.24058193713E+03  0.24058193713E+03  0.00000000000E+00 0.  1.
        -24    2    1    2    0    0  0.13872655153E+03  0.24117840263E+03  0.95490258154E+02  0.30684322205E+03  0.87305758820E+02 0.  0.
        254    2    1    2    0    0 -0.13872655153E+03 -0.24117840263E+03  0.14999829785E+04  0.17697938889E+04  0.89711169611E+03 0.  0.
         23    2    4    4    0    0 -0.12158932339E+02 -0.53587708233E+03  0.12124989215E+04  0.13295924884E+04  0.10173722850E+03 0.  0.
         23    2    4    4    0    0 -0.12656761919E+03  0.29469867971E+03  0.28748405704E+03  0.44020140047E+03  0.90903882619E+02 0.  0.
          3    1    3    3  502    0  0.26156554434E+02  0.28714286841E+02  0.48013609639E+02  0.61757447479E+02  0.00000000000E+00 0. -1.
         -4    1    3    3    0  502  0.11256999710E+03  0.21246411578E+03  0.47476648515E+02  0.24508577457E+03  0.00000000000E+00 0.  1.
         11    1    5    5    0    0  0.18997683111E+02 -0.46326798053E+03  0.10800585311E+04  0.11753742231E+04  0.00000000000E+00 0.  1.
        -11    1    5    5    0    0 -0.31156615450E+02 -0.72609101803E+02  0.13244039038E+03  0.15421826531E+03  0.00000000000E+00 0. -1.
          3    1    6    6  503    0 -0.78065255122E+02  0.10002169998E+03  0.72452035368E+02  0.14610893865E+03  0.00000000000E+00 0. -1.
         -3    1    6    6    0  503 -0.48502364069E+02  0.19467697973E+03  0.21503202167E+03  0.29409246183E+03  0.00000000000E+00 0.  1.
<mgrwt>
<rscale>  0 0.13292430E+04</rscale>
<asrwt>0</asrwt>
<pdfrwt beam="1">  1        1 0.28247002E+00 0.13292430E+04</pdfrwt>
<pdfrwt beam="2">  1       -2 0.37012607E-01 0.13292430E+04</pdfrwt>
<totfact> 0.22806975E+01</totfact>
</mgrwt>
</event>
<event>
12    4  0.4381187E-008  0.1562949E+04  0.7818608E-02  0.8843639E-01
          1   -1    0    0  501    0  0.00000000000E+00  0.00000000000E+00  0.13091368422E+04  0.13091368422E+04  0.00000000000E+00 0. -1.
         -2   -1    0    0    0  501 -0.00000000000E+00 -0.00000000000E+00 -0.46649218427E+03  0.46649218427E+03  0.00000000000E+00 0.  1.
        -24    2    1    2    0    0 -0.11077955468E+02 -0.47760897426E+03  0.51768901897E+03  0.70857950550E+03  0.76484912623E+02 0.  0.
        254    2    1    2    0    0  0.11077955468E+02  0.47760897426E+03  0.32495563899E+03  0.10670495210E+04  0.89708720845E+03 0.  0.
         23    2    4    4    0    0  0.39230557699E+03  0.45988241471E+03  0.11363195546E+03  0.62091884566E+03  0.85044050324E+02 0.  0.
         23    2    4    4    0    0 -0.38122762152E+03  0.17726559549E+02  0.21132368353E+03  0.44613067534E+03  0.93413863690E+02 0.  0.
          3    1    3    3  502    0  0.15784105529E+02 -0.41626784271E+03  0.43730151259E+03  0.60395419344E+03  0.00000000000E+00 0. -1.
         -4    1    3    3    0  502 -0.26862060997E+02 -0.61341131543E+02  0.80387506388E+02  0.10462531206E+03  0.00000000000E+00 0.  1.
         11    1    5    5    0    0  0.68009383425E+01  0.12496127336E+02  0.17542799452E+02  0.22586628198E+02  0.00000000000E+00 0. -1.
        -11    1    5    5    0    0  0.38550463865E+03  0.44738628737E+03  0.96089156008E+02  0.59833221746E+03  0.00000000000E+00 0.  1.
          2    1    6    6  503    0 -0.31734230210E+03  0.29131990284E+02  0.13539130755E+03  0.34624502266E+03  0.00000000000E+00 0.  1.
         -2    1    6    6    0  503 -0.63885319426E+02 -0.11405430735E+02  0.75932375975E+02  0.99885652671E+02  0.00000000000E+00 0. -1.
<mgrwt>
<rscale>  0 0.15629486E+04</rscale>
<asrwt>0</asrwt>
<pdfrwt beam="1">  1        1 0.20140567E+00 0.15629486E+04</pdfrwt>
<pdfrwt beam="2">  1       -2 0.71768029E-01 0.15629486E+04</pdfrwt>
<totfact> 0.13240326E+01</totfact>
</mgrwt>
</event>
<event>
12    4  0.4381187E-008  0.1101751E+04  0.7818608E-02  0.9203487E-01
         -4   -1    0    0    0  501 -0.00000000000E+00  0.00000000000E+00  0.29130615575E+03  0.29130615575E+03  0.00000000000E+00 0.  1.
          3   -1    0    0  501    0  0.00000000000E+00 -0.00000000000E+00 -0.10417341468E+04  0.10417341468E+04  0.00000000000E+00 0. -1.
        -24    2    1    2    0    0 -0.15590959047E+02 -0.17531808861E+03 -0.80319631550E+02  0.21002001195E+03  0.81716901603E+02 0.  0.
        254    2    1    2    0    0  0.15590959047E+02  0.17531808861E+03 -0.67010835946E+03  0.11230202906E+04  0.88382682092E+03 0.  0.
         23    2    4    4    0    0 -0.15747207983E+02 -0.32879095993E+02 -0.83544710726E+03  0.84103949141E+03  0.89702550438E+02 0.  0.
         23    2    4    4    0    0  0.31338167030E+02  0.20819718460E+03  0.16533874781E+03  0.28198079915E+03  0.88589622260E+02 0.  0.
          1    1    3    3  502    0 -0.99408553449E+01 -0.86292461695E+02 -0.83869340211E+02  0.12074467184E+03  0.00000000000E+00 0. -1.
         -2    1    3    3    0  502 -0.56501037021E+01 -0.89025626916E+02  0.35497086604E+01  0.89275340107E+02  0.00000000000E+00 0.  1.
         11    1    5    5    0    0  0.75745251996E+01 -0.28161464043E+02 -0.78877062450E+02  0.84095377220E+02  0.00000000000E+00 0.  1.
        -11    1    5    5    0    0 -0.23321733182E+02 -0.47176319501E+01 -0.75657004481E+03  0.75694411419E+03  0.00000000000E+00 0. -1.
          4    1    6    6  503    0  0.20267052584E+02  0.19507022452E+03  0.11178468464E+03  0.22574091706E+03  0.00000000000E+00 0. -1.
         -4    1    6    6    0  503  0.11071114445E+02  0.13126960087E+02  0.53554063163E+02  0.56239882090E+02  0.00000000000E+00 0.  1.
<mgrwt>
<rscale>  0 0.11017506E+04</rscale>
<asrwt>0</asrwt>
<pdfrwt beam="1">  1        3 0.16026679E+00 0.11017506E+04</pdfrwt>
<pdfrwt beam="2">  1       -4 0.44816332E-01 0.11017506E+04</pdfrwt>
<totfact> 0.29910743E+00</totfact>
</mgrwt>
</event>
<event>
12    4  0.4381187E-008  0.1200875E+04  0.7818608E-02  0.9112091E-01
         -2   -1    0    0    0  501 -0.00000000000E+00  0.00000000000E+00  0.22700022903E+03  0.22700022903E+03  0.00000000000E+00 0.  1.
          1   -1    0    0  501    0  0.00000000000E+00 -0.00000000000E+00 -0.15882143732E+04  0.15882143732E+04  0.00000000000E+00 0. -1.
        -24    2    1    2    0    0 -0.19251283215E+03  0.14586942569E+03 -0.23131530637E+03  0.34270258001E+03  0.74827852370E+02 0.  0.
        254    2    1    2    0    0  0.19251283215E+03 -0.14586942569E+03 -0.11298988378E+04  0.14725120222E+04  0.91284236975E+03 0.  0.
         23    2    4    4    0    0  0.22671390163E+03 -0.43596341075E+03 -0.10387505151E+04  0.11526681636E+04  0.90432151971E+02 0.  0.
         23    2    4    4    0    0 -0.34201069482E+02  0.29009398506E+03 -0.91148322712E+02  0.31984385860E+03  0.93101255806E+02 0.  0.
          1    1    3    3  502    0 -0.10407273471E+03  0.10483859461E+03 -0.17891303472E+03  0.23201754033E+03  0.00000000000E+00 0. -1.
         -2    1    3    3    0  502 -0.88440097437E+02  0.41030831087E+02 -0.52402271653E+02  0.11068503968E+03  0.00000000000E+00 0.  1.
         11    1    5    5    0    0  0.80507360045E+02 -0.98006882187E+02 -0.20257643617E+03  0.23900626868E+03  0.00000000000E+00 0.  1.
        -11    1    5    5    0    0  0.14620654159E+03 -0.33795652856E+03 -0.83617407889E+03  0.91366189491E+03  0.00000000000E+00 0. -1.
          2    1    6    6  503    0 -0.65243762619E+02  0.15928705971E+03 -0.52472808282E+02  0.17995141444E+03  0.00000000000E+00 0. -1.
         -2    1    6    6    0  503  0.31042693137E+02  0.13080692535E+03 -0.38675514431E+02  0.13989244416E+03  0.00000000000E+00 0.  1.
<mgrwt>
<rscale>  0 0.12008747E+04</rscale>
<asrwt>0</asrwt>
<pdfrwt beam="1">  1        1 0.24434067E+00 0.12008747E+04</pdfrwt>
<pdfrwt beam="2">  1       -2 0.34923112E-01 0.12008747E+04</pdfrwt>
<totfact> 0.37987862E+01</totfact>
</mgrwt>
</event>
<event>
12    4  0.4381187E-008  0.1788156E+04  0.7818608E-02  0.8712623E-01
         -2   -1    0    0    0  501 -0.00000000000E+00  0.00000000000E+00  0.77995063031E+03  0.77995063031E+03  0.00000000000E+00 0.  1.
          1   -1    0    0  501    0  0.00000000000E+00 -0.00000000000E+00 -0.10249050948E+04  0.10249050948E+04  0.00000000000E+00 0. -1.
        -24    2    1    2    0    0  0.30097976519E+03  0.42070245998E+03 -0.51262857397E+03  0.73310853882E+03  0.84146871392E+02 0.  0.
        254    2    1    2    0    0 -0.30097976519E+03 -0.42070245998E+03  0.26767410946E+03  0.10717471863E+04  0.89967395405E+03 0.  0.
         23    2    4    4    0    0 -0.34416505695E+03 -0.65539105271E+03  0.70855875936E+02  0.74922242040E+03  0.91250543426E+02 0.  0.
         23    2    4    4    0    0  0.43185291760E+02  0.23468859273E+03  0.19681823353E+03  0.32252476591E+03  0.91329636987E+02 0.  0.
          3    1    3    3  502    0  0.24565789658E+03  0.38859558007E+03 -0.45892497351E+03  0.64958945366E+03  0.00000000000E+00 0. -1.
         -4    1    3    3    0  502  0.55321868607E+02  0.32106879905E+02 -0.53703600462E+02  0.83519085160E+02  0.00000000000E+00 0.  1.
         11    1    5    5    0    0 -0.32622461311E+03 -0.55414478883E+03  0.60477563771E+02  0.64587652141E+03  0.00000000000E+00 0.  1.
        -11    1    5    5    0    0 -0.17940443839E+02 -0.10124626388E+03  0.10378312165E+02  0.10334589899E+03  0.00000000000E+00 0. -1.
          4    1    6    6  503    0  0.11924760942E+02  0.40023316860E+02  0.87814524082E+02  0.97239171406E+02  0.00000000000E+00 0. -1.
         -4    1    6    6    0  503  0.31260530818E+02  0.19466527587E+03  0.10900370945E+03  0.22528559450E+03  0.00000000000E+00 0.  1.
<mgrwt>
<rscale>  0 0.17881559E+04</rscale>
<asrwt>0</asrwt>
<pdfrwt beam="1">  1        1 0.15767771E+00 0.17881559E+04</pdfrwt>
<pdfrwt beam="2">  1       -2 0.11999240E+00 0.17881559E+04</pdfrwt>
<totfact> 0.63636119E+00</totfact>
</mgrwt>
</event>
<event>
12    4  0.4381187E-008  0.1620052E+04  0.7818608E-02  0.8808323E-01
         -2   -1    0    0    0  501 -0.00000000000E+00  0.00000000000E+00  0.41161580468E+03  0.41161580468E+03  0.00000000000E+00 0.  1.
          1   -1    0    0  501    0  0.00000000000E+00 -0.00000000000E+00 -0.15940641856E+04  0.15940641856E+04  0.00000000000E+00 0. -1.
        -24    2    1    2    0    0 -0.42963436802E+03  0.66249989516E+02 -0.83138255353E+03  0.94111053400E+03  0.74278769451E+02 0.  0.
        254    2    1    2    0    0  0.42963436802E+03 -0.66249989516E+02 -0.35106582735E+03  0.10645694563E+04  0.90613804729E+03 0.  0.
         23    2    4    4    0    0  0.52019041553E+03  0.14504565069E+03  0.92625470992E+02  0.55618349712E+03  0.95521177765E+02 0.  0.
         23    2    4    4    0    0 -0.90556047501E+02 -0.21129564021E+03 -0.44369129835E+03  0.50838595913E+03  0.93531117314E+02 0.  0.
          3    1    3    3  502    0 -0.42385649208E+03  0.71568698788E+02 -0.82718044200E+03  0.93220378038E+03  0.00000000000E+00 0. -1.
         -4    1    3    3    0  502 -0.57778759402E+01 -0.53187092726E+01 -0.42021115293E+01  0.89067536180E+01  0.00000000000E+00 0.  1.
         11    1    5    5    0    0  0.49008172864E+02 -0.13266293750E+02  0.12475930792E+01  0.50787321703E+02  0.00000000000E+00 0. -1.
        -11    1    5    5    0    0  0.47118224266E+03  0.15831194444E+03  0.91377877913E+02  0.50539617542E+03  0.00000000000E+00 0.  1.
          1    1    6    6  503    0 -0.27911376619E+02 -0.13485678735E+03 -0.17899859922E+03  0.22584485065E+03  0.00000000000E+00 0. -1.
         -1    1    6    6    0  503 -0.62644670882E+02 -0.76438852857E+02 -0.26469269912E+03  0.28254110849E+03  0.00000000000E+00 0.  1.
<mgrwt>
<rscale>  0 0.16200519E+04</rscale>
<asrwt>0</asrwt>
<pdfrwt beam="1">  1        1 0.24524065E+00 0.16200519E+04</pdfrwt>
<pdfrwt beam="2">  1       -2 0.63325507E-01 0.16200519E+04</pdfrwt>
<totfact> 0.10933968E+01</totfact>
</mgrwt>
</event>
<event>
12    4  0.4381187E-008  0.1506596E+04  0.7818608E-02  0.8880079E-01
          3   -1    0    0  501    0  0.00000000000E+00  0.00000000000E+00  0.13429455304E+04  0.13429455304E+04  0.00000000000E+00 0. -1.
         -4   -1    0    0    0  501 -0.00000000000E+00 -0.00000000000E+00 -0.42254713775E+03  0.42254713775E+03  0.00000000000E+00 0.  1.
        -24    2    1    2    0    0 -0.21685217439E+03 -0.35332278010E+03  0.14402645911E+02  0.42352897543E+03  0.85483942026E+02 0.  0.
        254    2    1    2    0    0  0.21685217439E+03  0.35332278010E+03  0.90599574671E+03  0.13419636927E+04  0.89898632191E+03 0.  0.
         23    2    4    4    0    0  0.12062258768E+03  0.60736147399E+03  0.35094749283E+03  0.71747600726E+03  0.90387551864E+02 0.  0.
         23    2    4    4    0    0  0.96229586710E+02 -0.25403869389E+03  0.55504825389E+03  0.62448768543E+03  0.90058390870E+02 0.  0.
          1    1    3    3  502    0 -0.52606574968E+02 -0.82324766440E+02  0.40091519404E+02  0.10560373491E+03  0.00000000000E+00 0. -1.
         -2    1    3    3    0  502 -0.16424559942E+03 -0.27099801366E+03 -0.25688873492E+02  0.31792524052E+03  0.00000000000E+00 0.  1.
         11    1    5    5    0    0  0.11286718773E+01 -0.33127814678E+01  0.25084385148E+01  0.43058895762E+01  0.00000000000E+00 0. -1.
        -11    1    5    5    0    0  0.11949391580E+03  0.61067425546E+03  0.34843905431E+03  0.71317011769E+03  0.00000000000E+00 0.  1.
          2    1    6    6  503    0  0.14040089895E+02 -0.22274344665E+02  0.13675824281E+03  0.13926983712E+03  0.00000000000E+00 0. -1.
         -2    1    6    6    0  503  0.82189496815E+02 -0.23176434923E+03  0.41829001107E+03  0.48521784831E+03  0.00000000000E+00 0.  1.
<mgrwt>
<rscale>  0 0.15065959E+04</rscale>
<asrwt>0</asrwt>
<pdfrwt beam="1">  1        3 0.20660700E+00 0.15065959E+04</pdfrwt>
<pdfrwt beam="2">  1       -4 0.65007253E-01 0.15065959E+04</pdfrwt>
<totfact> 0.65350867E-01</totfact>
</mgrwt>
</event>
<event>
12    4  0.4381187E-008  0.1547360E+04  0.7818608E-02  0.8853556E-01
         -2   -1    0    0    0  501 -0.00000000000E+00  0.00000000000E+00  0.39364057591E+03  0.39364057591E+03  0.00000000000E+00 0.  1.
          1   -1    0    0  501    0  0.00000000000E+00 -0.00000000000E+00 -0.15206273478E+04  0.15206273478E+04  0.00000000000E+00 0. -1.
        -24    2    1    2    0    0 -0.14946359151E+03  0.21546128541E+03  0.16145276997E+03  0.31829589705E+03  0.80513045229E+02 0.  0.
        254    2    1    2    0    0  0.14946359151E+03 -0.21546128541E+03 -0.12884395418E+04  0.15959720266E+04  0.90459235357E+03 0.  0.
         23    2    4    4    0    0  0.52168180717E+03 -0.15841171824E+03 -0.79677244005E+03  0.96994156602E+03  0.93242371530E+02 0.  0.
         23    2    4    4    0    0 -0.37221821566E+03 -0.57049567167E+02 -0.49166710179E+03  0.62603046062E+03  0.91523469440E+02 0.  0.
          1    1    3    3  502    0 -0.88394063099E+02  0.76302022954E+02  0.38939258244E+02  0.12309254620E+03  0.00000000000E+00 0. -1.
         -2    1    3    3    0  502 -0.61069528410E+02  0.13915926246E+03  0.12251351173E+03  0.19520335085E+03  0.00000000000E+00 0.  1.
         11    1    5    5    0    0  0.24014397744E+03 -0.89665031632E+02 -0.29796660483E+03  0.39305603340E+03  0.00000000000E+00 0. -1.
        -11    1    5    5    0    0  0.28153782973E+03 -0.68746686610E+02 -0.49880583522E+03  0.57688553262E+03  0.00000000000E+00 0.  1.
          3    1    6    6  503    0 -0.27113824533E+03 -0.33017436079E+02 -0.41535967523E+03  0.49712147306E+03  0.00000000000E+00 0. -1.
         -3    1    6    6    0  503 -0.10107997033E+03 -0.24032131088E+02 -0.76307426563E+02  0.12890898757E+03  0.00000000000E+00 0.  1.
<mgrwt>
<rscale>  0 0.15473598E+04</rscale>
<asrwt>0</asrwt>
<pdfrwt beam="1">  1        1 0.23394267E+00 0.15473598E+04</pdfrwt>
<pdfrwt beam="2">  1       -2 0.60560088E-01 0.15473598E+04</pdfrwt>
<totfact> 0.13592149E+01</totfact>
</mgrwt>
</event>
<event>
12    4  0.4381187E-008  0.1698663E+04  0.7818608E-02  0.8762127E-01
          1   -1    0    0  501    0  0.00000000000E+00  0.00000000000E+00  0.78193925444E+03  0.78193925444E+03  0.00000000000E+00 0. -1.
         -2   -1    0    0    0  501 -0.00000000000E+00 -0.00000000000E+00 -0.92253183485E+03  0.92253183485E+03  0.00000000000E+00 0.  1.
        -24    2    1    2    0    0  0.57503774465E+03 -0.14090399951E+03 -0.14125608157E+03  0.61376732436E+03  0.78960135637E+02 0.  0.
        254    2    1    2    0    0 -0.57503774465E+03  0.14090399951E+03  0.66350116682E+00  0.10907037649E+04  0.91603052228E+03 0.  0.
         23    2    4    4    0    0 -0.64913134708E+03  0.42581861394E+03  0.20239972784E+02  0.78195260738E+03  0.91363154188E+02 0.  0.
         23    2    4    4    0    0  0.74093602432E+02 -0.28491461443E+03 -0.19576471617E+02  0.30875115755E+03  0.90982633565E+02 0.  0.
          1    1    3    3  502    0  0.59622008856E+02  0.87858924099E+01 -0.83289642206E+01  0.60838700598E+02  0.00000000000E+00 0. -1.
         -2    1    3    3    0  502  0.51541573580E+03 -0.14968989192E+03 -0.13292711735E+03  0.55292862376E+03  0.00000000000E+00 0.  1.
         11    1    5    5    0    0 -0.29051256929E+03  0.15156178353E+03  0.39680587400E+02  0.33006526045E+03  0.00000000000E+00 0.  1.
        -11    1    5    5    0    0 -0.35861877779E+03  0.27425683042E+03 -0.19440614616E+02  0.45188734693E+03  0.00000000000E+00 0. -1.
          1    1    6    6  503    0  0.14739150738E+02 -0.16125968763E+03  0.26438792992E+02  0.16407601651E+03  0.00000000000E+00 0. -1.
         -1    1    6    6    0  503  0.59354451694E+02 -0.12365492680E+03 -0.46015264609E+02  0.14467514104E+03  0.00000000000E+00 0.  1.
<mgrwt>
<rscale>  0 0.16986628E+04</rscale>
<asrwt>0</asrwt>
<pdfrwt beam="1">  1        1 0.12029835E+00 0.16986628E+04</pdfrwt>
<pdfrwt beam="2">  1       -2 0.14192797E+00 0.16986628E+04</pdfrwt>
<totfact> 0.66235295E+00</totfact>
</mgrwt>
</event>
<event>
12    4  0.4381187E-008  0.1716097E+04  0.7818608E-02  0.8752236E-01
          1   -1    0    0  501    0  0.00000000000E+00  0.00000000000E+00  0.80115937449E+03  0.80115937449E+03  0.00000000000E+00 0. -1.
         -2   -1    0    0    0  501 -0.00000000000E+00 -0.00000000000E+00 -0.91897759355E+03  0.91897759355E+03  0.00000000000E+00 0.  1.
        -24    2    1    2    0    0  0.24597098291E+03  0.51604932612E+03 -0.28236206939E+03  0.64213836229E+03  0.76188625596E+02 0.  0.
        254    2    1    2    0    0 -0.24597098291E+03 -0.51604932612E+03  0.16454385033E+03  0.10779986058E+04  0.89899815567E+03 0.  0.
         23    2    4    4    0    0 -0.47704646143E+03 -0.14255209314E+02  0.17563175029E+03  0.51673414259E+03  0.91603084292E+02 0.  0.
         23    2    4    4    0    0  0.23107547852E+03 -0.50179411681E+03 -0.11087899958E+02  0.56126446316E+03  0.98496921994E+02 0.  0.
          3    1    3    3  502    0  0.15262600383E+03  0.27942966323E+03 -0.11939668570E+03  0.34004588263E+03  0.00000000000E+00 0. -1.
         -4    1    3    3    0  502  0.93344979084E+02  0.23661966289E+03 -0.16296538369E+03  0.30209247966E+03  0.00000000000E+00 0.  1.
         11    1    5    5    0    0 -0.12623573458E+03  0.14565073710E+02  0.92787377686E+01  0.12741152629E+03  0.00000000000E+00 0.  1.
        -11    1    5    5    0    0 -0.35081072685E+03 -0.28820283024E+02  0.16635301252E+03  0.38932261630E+03  0.00000000000E+00 0. -1.
          4    1    6    6  503    0  0.18489798368E+03 -0.45078491558E+03 -0.34836522016E+02  0.48847506359E+03  0.00000000000E+00 0. -1.
         -4    1    6    6    0  503  0.46177494842E+02 -0.51009201225E+02  0.23748622058E+02  0.72789399566E+02  0.00000000000E+00 0.  1.
<mgrwt>
<rscale>  0 0.17160973E+04</rscale>
<asrwt>0</asrwt>
<pdfrwt beam="1">  1        1 0.12325529E+00 0.17160973E+04</pdfrwt>
<pdfrwt beam="2">  1       -2 0.14138117E+00 0.17160973E+04</pdfrwt>
<totfact> 0.64267275E+00</totfact>
</mgrwt>
</event>
<event>
12    4  0.4381187E-008  0.5692423E+04  0.7818608E-02  0.7729753E-01
          1   -1    0    0  501    0  0.00000000000E+00  0.00000000000E+00  0.22082596422E+04  0.22082596422E+04  0.00000000000E+00 0. -1.
         -2   -1    0    0    0  501 -0.00000000000E+00 -0.00000000000E+00 -0.36684629860E+04  0.36684629860E+04  0.00000000000E+00 0.  1.
        -24    2    1    2    0    0  0.48427742060E+03  0.27111766686E+04 -0.10657493257E+04  0.29541475252E+04  0.78501129838E+02 0.  0.
        254    2    1    2    0    0 -0.48427742060E+03 -0.27111766686E+04 -0.39445401814E+03  0.29225751030E+04  0.89490095094E+03 0.  0.
         23    2    4    4    0    0 -0.53078646821E+03 -0.10171134579E+04  0.99145460082E+02  0.11550882314E+04  0.90249316508E+02 0.  0.
         23    2    4    4    0    0  0.46509047619E+02 -0.16940632107E+04 -0.49359947822E+03  0.17674868716E+04  0.91411940707E+02 0.  0.
          3    1    3    3  502    0  0.42178537540E+03  0.21967837315E+04 -0.85436144864E+03  0.23945135520E+04  0.00000000000E+00 0. -1.
         -4    1    3    3    0  502  0.62492045196E+02  0.51439293706E+03 -0.21138787706E+03  0.55963397322E+03  0.00000000000E+00 0.  1.
         11    1    5    5    0    0 -0.15659066944E+03 -0.39039718222E+03  0.48202422964E+02  0.42338407058E+03  0.00000000000E+00 0.  1.
        -11    1    5    5    0    0 -0.37419579877E+03 -0.62671627564E+03  0.50943037118E+02  0.73170416085E+03  0.00000000000E+00 0. -1.
          4    1    6    6  503    0  0.18710815773E+00 -0.12082669698E+04 -0.37751857909E+03  0.12658709977E+04  0.00000000000E+00 0. -1.
         -4    1    6    6    0  503  0.46321939461E+02 -0.48579624095E+03 -0.11608089913E+03  0.50161587389E+03  0.00000000000E+00 0.  1.
<mgrwt>
<rscale>  0 0.56924226E+04</rscale>
<asrwt>0</asrwt>
<pdfrwt beam="1">  1        1 0.33973226E+00 0.56924226E+04</pdfrwt>
<pdfrwt beam="2">  1       -2 0.56437892E+00 0.56924226E+04</pdfrwt>
<totfact> 0.95030479E-04</totfact>
</mgrwt>
</event>
<event>
12    4  0.4381187E-008  0.2351888E+04  0.7818608E-02  0.8457739E-01
          1   -1    0    0  501    0  0.00000000000E+00  0.00000000000E+00  0.96051815119E+03  0.96051815119E+03  0.00000000000E+00 0. -1.
         -2   -1    0    0    0  501 -0.00000000000E+00 -0.00000000000E+00 -0.14396855539E+04  0.14396855539E+04  0.00000000000E+00 0.  1.
        -24    2    1    2    0    0 -0.90781449170E+02 -0.78899646471E+03 -0.82891340610E+03  0.11507094822E+04  0.79234997348E+02 0.  0.
        254    2    1    2    0    0  0.90781449170E+02  0.78899646471E+03  0.34974600344E+03  0.12494942228E+04  0.89897544634E+03 0.  0.
         23    2    4    4    0    0  0.81015222425E+02  0.77977693853E+03  0.59408725986E+03  0.98857900648E+03  0.98657182238E+02 0.  0.
         23    2    4    4    0    0  0.97662267447E+01  0.92195261839E+01 -0.24434125642E+03  0.26091521635E+03  0.90519178558E+02 0.  0.
          3    1    3    3  502    0 -0.67962453894E+02 -0.40866678022E+03 -0.48021914648E+03  0.63422224893E+03  0.00000000000E+00 0. -1.
         -4    1    3    3    0  502 -0.22818995276E+02 -0.38032968449E+03 -0.34869425962E+03  0.51648723328E+03  0.00000000000E+00 0.  1.
         11    1    5    5    0    0  0.56518225460E+02  0.73586102636E+03  0.53837116898E+03  0.91352573884E+03  0.00000000000E+00 0.  1.
        -11    1    5    5    0    0  0.24496996966E+02  0.43915912165E+02  0.55716090872E+02  0.75053267642E+02  0.00000000000E+00 0. -1.
          4    1    6    6  503    0  0.33129679585E+02  0.28205020571E+02 -0.59907207055E+02  0.74040342463E+02  0.00000000000E+00 0. -1.
         -4    1    6    6    0  503 -0.23363452841E+02 -0.18985494387E+02 -0.18443404936E+03  0.18687487389E+03  0.00000000000E+00 0.  1.
<mgrwt>
<rscale>  0 0.23518878E+04</rscale>
<asrwt>0</asrwt>
<pdfrwt beam="1">  1        1 0.14777202E+00 0.23518878E+04</pdfrwt>
<pdfrwt beam="2">  1       -2 0.22149008E+00 0.23518878E+04</pdfrwt>
<totfact> 0.12403525E+00</totfact>
</mgrwt>
</event>
<event>
12    4  0.4381187E-008  0.1830906E+04  0.7818608E-02  0.8690035E-01
         -2   -1    0    0    0  501 -0.00000000000E+00  0.00000000000E+00  0.78055414922E+03  0.78055414922E+03  0.00000000000E+00 0.  1.
          1   -1    0    0  501    0  0.00000000000E+00 -0.00000000000E+00 -0.10736653842E+04  0.10736653842E+04  0.00000000000E+00 0. -1.
        -24    2    1    2    0    0  0.20889300604E+03  0.26647194796E+03  0.49610319628E+03  0.60532527466E+03  0.75211167787E+02 0.  0.
        254    2    1    2    0    0 -0.20889300604E+03 -0.26647194796E+03 -0.78921443123E+03  0.12488942587E+04  0.90677111998E+03 0.  0.
         23    2    4    4    0    0  0.21331188143E+03  0.18649887434E+03 -0.44219004495E+03  0.53329538619E+03  0.92672240676E+02 0.  0.
         23    2    4    4    0    0 -0.42220488747E+03 -0.45297082231E+03 -0.34702438629E+03  0.71559887256E+03  0.90643746964E+02 0.  0.
          3    1    3    3  502    0 -0.44107741758E+01  0.28201742956E+01  0.11929096681E+01  0.53694827837E+01  0.00000000000E+00 0. -1.
         -4    1    3    3    0  502  0.21330378021E+03  0.26365177367E+03  0.49491028661E+03  0.59995579187E+03  0.00000000000E+00 0.  1.
         11    1    5    5    0    0  0.19952404630E+03  0.13499795177E+03 -0.32500482329E+03  0.40455213162E+03  0.00000000000E+00 0. -1.
        -11    1    5    5    0    0  0.13787835127E+02  0.51500922570E+02 -0.11718522165E+03  0.12874325457E+03  0.00000000000E+00 0.  1.
          2    1    6    6  503    0 -0.30477051795E+03 -0.33965818586E+03 -0.29867415332E+03  0.54539802135E+03  0.00000000000E+00 0. -1.
         -2    1    6    6    0  503 -0.11743436952E+03 -0.11331263645E+03 -0.48350232965E+02  0.17020085121E+03  0.00000000000E+00 0.  1.
<mgrwt>
<rscale>  0 0.18309058E+04</rscale>
<asrwt>0</asrwt>
<pdfrwt beam="1">  1        1 0.16517929E+00 0.18309058E+04</pdfrwt>
<pdfrwt beam="2">  1       -2 0.12008525E+00 0.18309058E+04</pdfrwt>
<totfact> 0.58065563E+00</totfact>
</mgrwt>
</event>
<event>
12    4  0.4381187E-008  0.2113312E+04  0.7818608E-02  0.8555402E-01
         -2   -1    0    0    0  501 -0.00000000000E+00  0.00000000000E+00  0.23641861927E+04  0.23641861927E+04  0.00000000000E+00 0.  1.
          1   -1    0    0  501    0  0.00000000000E+00 -0.00000000000E+00 -0.47226494554E+03  0.47226494554E+03  0.00000000000E+00 0. -1.
        -24    2    1    2    0    0 -0.43253342301E+03 -0.62343127762E+02 -0.22108337425E+03  0.49627008161E+03  0.80214138019E+02 0.  0.
        254    2    1    2    0    0  0.43253342301E+03  0.62343127762E+02  0.21130046214E+04  0.23401810567E+04  0.90591777782E+03 0.  0.
         23    2    4    4    0    0  0.57621353634E+03 -0.17989596027E+03  0.87502692765E+03  0.10672917330E+04  0.95157360791E+02 0.  0.
         23    2    4    4    0    0 -0.14368011334E+03  0.24223908803E+03  0.12379776938E+04  0.12728893236E+04  0.91294628271E+02 0.  0.
          1    1    3    3  502    0 -0.22242491533E+03 -0.83140213464E+01 -0.75632674236E+02  0.23507927881E+03  0.00000000000E+00 0. -1.
         -2    1    3    3    0  502 -0.21010850767E+03 -0.54029106416E+02 -0.14545070001E+03  0.26119080281E+03  0.00000000000E+00 0.  1.
         11    1    5    5    0    0  0.44207977489E+03 -0.13110239424E+03  0.73272486497E+03  0.86574135450E+03  0.00000000000E+00 0.  1.
        -11    1    5    5    0    0  0.13413376145E+03 -0.48793566027E+02  0.14230206269E+03  0.20155037854E+03  0.00000000000E+00 0. -1.
          1    1    6    6  503    0 -0.49398872766E+02  0.20430565291E+02  0.28011746311E+03  0.28517266658E+03  0.00000000000E+00 0. -1.
         -1    1    6    6    0  503 -0.94281240570E+02  0.22180852274E+03  0.95786023068E+03  0.98771665705E+03  0.00000000000E+00 0.  1.
<mgrwt>
<rscale>  0 0.21133123E+04</rscale>
<asrwt>0</asrwt>
<pdfrwt beam="1">  1        1 0.72656147E-01 0.21133123E+04</pdfrwt>
<pdfrwt beam="2">  1       -2 0.36372095E+00 0.21133123E+04</pdfrwt>
<totfact> 0.49194442E-01</totfact>
</mgrwt>
</event>
<event>
12    4  0.4381187E-008  0.2606866E+04  0.7818608E-02  0.8365873E-01
          1   -1    0    0  501    0  0.00000000000E+00  0.00000000000E+00  0.89138493562E+03  0.89138493562E+03  0.00000000000E+00 0. -1.
         -2   -1    0    0    0  501 -0.00000000000E+00 -0.00000000000E+00 -0.19059525440E+04  0.19059525440E+04  0.00000000000E+00 0.  1.
        -24    2    1    2    0    0 -0.33730576877E+03  0.24880385963E+03  0.69845486658E+03  0.81856168751E+03  0.80780526055E+02 0.  0.
        254    2    1    2    0    0  0.33730576877E+03 -0.24880385963E+03 -0.17130224750E+04  0.19787757922E+04  0.89745701487E+03 0.  0.
         23    2    4    4    0    0  0.18402191187E+02 -0.19833192870E+03  0.13763671981E+02  0.21942271031E+03  0.91009299244E+02 0.  0.
         23    2    4    4    0    0  0.31890357758E+03 -0.50471930933E+02 -0.17267861470E+04  0.17593530819E+04  0.96363694298E+02 0.  0.
          1    1    3    3  502    0 -0.27928255851E+03  0.18699573585E+03  0.60712314374E+03  0.69394860356E+03  0.00000000000E+00 0. -1.
         -2    1    3    3    0  502 -0.58023210258E+02  0.61808123784E+02  0.91331722843E+02  0.12461308395E+03  0.00000000000E+00 0.  1.
         11    1    5    5    0    0  0.28291868563E+02 -0.10856853001E+02 -0.51449484186E+01  0.30737136791E+02  0.00000000000E+00 0.  1.
        -11    1    5    5    0    0 -0.98896773765E+01 -0.18747507570E+03  0.18908620400E+02  0.18868557352E+03  0.00000000000E+00 0. -1.
          1    1    6    6  503    0  0.26829414527E+03 -0.46062932664E+01 -0.14059455331E+04  0.14313230972E+04  0.00000000000E+00 0. -1.
         -1    1    6    6    0  503  0.50609432309E+02 -0.45865637667E+02 -0.32084061385E+03  0.32802998469E+03  0.00000000000E+00 0.  1.
<mgrwt>
<rscale>  0 0.26068658E+04</rscale>
<asrwt>0</asrwt>
<pdfrwt beam="1">  1        1 0.13713615E+00 0.26068658E+04</pdfrwt>
<pdfrwt beam="2">  1       -2 0.29322346E+00 0.26068658E+04</pdfrwt>
<totfact> 0.49930679E-01</totfact>
</mgrwt>
</event>
<event>
12    4  0.4381187E-008  0.1227267E+04  0.7818608E-02  0.9089319E-01
         -2   -1    0    0    0  501 -0.00000000000E+00  0.00000000000E+00  0.15794146865E+04  0.15794146865E+04  0.00000000000E+00 0.  1.
          1   -1    0    0  501    0  0.00000000000E+00 -0.00000000000E+00 -0.23840859753E+03  0.23840859753E+03  0.00000000000E+00 0. -1.
        -24    2    1    2    0    0  0.19069540859E+03  0.48895144254E+02  0.54552725816E+02  0.21864049130E+03  0.77924261631E+02 0.  0.
        254    2    1    2    0    0 -0.19069540859E+03 -0.48895144254E+02  0.12864533631E+04  0.15991827927E+04  0.92933733110E+03 0.  0.
         23    2    4    4    0    0 -0.43769845116E+02 -0.41697386719E+03  0.27642488169E+03  0.51028974268E+03  0.90564347345E+02 0.  0.
         23    2    4    4    0    0 -0.14692556348E+03  0.36807872294E+03  0.10100284814E+04  0.10888930500E+04  0.91986268434E+02 0.  0.
          3    1    3    3  502    0  0.11288516366E+03  0.41777261760E+01  0.61515810152E+02  0.12862623554E+03  0.00000000000E+00 0. -1.
         -2    1    3    3    0  502  0.77810244933E+02  0.44717418078E+02 -0.69630843361E+01  0.90014255757E+02  0.00000000000E+00 0.  1.
         11    1    5    5    0    0  0.23901850071E+02 -0.80921668197E+02  0.36862977512E+02  0.92078737674E+02  0.00000000000E+00 0.  1.
        -11    1    5    5    0    0 -0.67671695187E+02 -0.33605219899E+03  0.23956190418E+03  0.41821100501E+03  0.00000000000E+00 0. -1.
          4    1    6    6  503    0 -0.14432822114E+03  0.36519555061E+03  0.10112573899E+04  0.10848225358E+04  0.00000000000E+00 0. -1.
         -4    1    6    6    0  503 -0.25973423403E+01  0.28831723268E+01 -0.12289084529E+01  0.40705142040E+01  0.00000000000E+00 0.  1.
<mgrwt>
<rscale>  0 0.12272669E+04</rscale>
<asrwt>0</asrwt>
<pdfrwt beam="1">  1        1 0.36678247E-01 0.12272669E+04</pdfrwt>
<pdfrwt beam="2">  1       -2 0.24298687E+00 0.12272669E+04</pdfrwt>
<totfact> 0.72488574E+00</totfact>
</mgrwt>
</event>
<event>
12    4  0.4381187E-008  0.1793035E+04  0.7818608E-02  0.8710012E-01
          1   -1    0    0  501    0  0.00000000000E+00  0.00000000000E+00  0.11874909755E+04  0.11874909755E+04  0.00000000000E+00 0. -1.
         -2   -1    0    0    0  501 -0.00000000000E+00 -0.00000000000E+00 -0.67684191811E+03  0.67684191811E+03  0.00000000000E+00 0.  1.
        -24    2    1    2    0    0  0.73440494711E+02  0.27709887994E+03 -0.43599839063E+03  0.52808653710E+03  0.81261913008E+02 0.  0.
        254    2    1    2    0    0 -0.73440494711E+02 -0.27709887994E+03  0.94664744800E+03  0.13362463565E+04  0.89846293128E+03 0.  0.
         23    2    4    4    0    0 -0.27787209063E+03 -0.14319685849E+03 -0.29517285309E+02  0.32569920686E+03  0.86547467820E+02 0.  0.
         23    2    4    4    0    0  0.20443159592E+03 -0.13390202145E+03  0.97616473331E+03  0.10105471496E+04  0.92660273528E+02 0.  0.
          1    1    3    3  502    0 -0.15060983548E+02  0.47812786313E+02 -0.52477134569E+02  0.72572346062E+02  0.00000000000E+00 0. -1.
         -2    1    3    3    0  502  0.88501478259E+02  0.22928609363E+03 -0.38352125606E+03  0.45551419104E+03  0.00000000000E+00 0.  1.
         11    1    5    5    0    0 -0.15557945717E+03 -0.12578319405E+03 -0.73582145861E+01  0.20020120560E+03  0.00000000000E+00 0. -1.
        -11    1    5    5    0    0 -0.12229263345E+03 -0.17413664443E+02 -0.22159070723E+02  0.12549800127E+03  0.00000000000E+00 0.  1.
          1    1    6    6  503    0  0.20812367420E+02 -0.36870630085E+02  0.30671411973E+03  0.30962259162E+03  0.00000000000E+00 0. -1.
         -1    1    6    6    0  503  0.18361922850E+03 -0.97031391363E+02  0.66945061358E+03  0.70092455800E+03  0.00000000000E+00 0.  1.
<mgrwt>
<rscale>  0 0.17930350E+04</rscale>
<asrwt>0</asrwt>
<pdfrwt beam="1">  1        1 0.18269092E+00 0.17930350E+04</pdfrwt>
<pdfrwt beam="2">  1       -2 0.10412953E+00 0.17930350E+04</pdfrwt>
<totfact> 0.67780250E+00</totfact>
</mgrwt>
</event>
<event>
12    4  0.4381187E-008  0.1644102E+04  0.7818608E-02  0.8793904E-01
         -2   -1    0    0    0  501 -0.00000000000E+00  0.00000000000E+00  0.20071257401E+03  0.20071257401E+03  0.00000000000E+00 0.  1.
          1   -1    0    0  501    0  0.00000000000E+00 -0.00000000000E+00 -0.33668418983E+04  0.33668418983E+04  0.00000000000E+00 0. -1.
        -24    2    1    2    0    0 -0.77953431622E+02  0.51335607404E+03 -0.16229335736E+04  0.17055423443E+04  0.73144430337E+02 0.  0.
        254    2    1    2    0    0  0.77953431622E+02 -0.51335607404E+03 -0.15431957507E+04  0.18620121280E+04  0.90334093431E+03 0.  0.
         23    2    4    4    0    0 -0.26528592755E+03 -0.14562547995E+02 -0.10636810034E+03  0.29994923054E+03  0.89814681262E+02 0.  0.
         23    2    4    4    0    0  0.34323935917E+03 -0.49879352604E+03 -0.14368276504E+04  0.15620628975E+04  0.94649667221E+02 0.  0.
          1    1    3    3  502    0 -0.64512510590E+02  0.42695817685E+03 -0.12494710706E+04  0.13219807507E+04  0.00000000000E+00 0. -1.
         -4    1    3    3    0  502 -0.13440921032E+02  0.86397897184E+02 -0.37346250296E+03  0.38356159364E+03  0.00000000000E+00 0.  1.
         11    1    5    5    0    0 -0.13828431049E+03 -0.52215720043E+02 -0.61393074873E+02  0.16005668243E+03  0.00000000000E+00 0. -1.
        -11    1    5    5    0    0 -0.12700161706E+03  0.37653172048E+02 -0.44975025469E+02  0.13989254811E+03  0.00000000000E+00 0.  1.
          1    1    6    6  503    0  0.12332850842E+03 -0.10580633904E+03 -0.38412023323E+03  0.41707703839E+03  0.00000000000E+00 0. -1.
         -1    1    6    6    0  503  0.21991085075E+03 -0.39298718700E+03 -0.10527074171E+04  0.11449858591E+04  0.00000000000E+00 0.  1.
<mgrwt>
<rscale>  0 0.16441016E+04</rscale>
<asrwt>0</asrwt>
<pdfrwt beam="1">  1        1 0.51797571E+00 0.16441016E+04</pdfrwt>
<pdfrwt beam="2">  1       -2 0.30878856E-01 0.16441016E+04</pdfrwt>
<totfact> 0.26086356E+00</totfact>
</mgrwt>
</event>
<event>
12    4  0.4381187E-008  0.1334661E+04  0.7818608E-02  0.9002521E-01
         -2   -1    0    0    0  501 -0.00000000000E+00  0.00000000000E+00  0.30661924374E+03  0.30661924374E+03  0.00000000000E+00 0.  1.
          1   -1    0    0  501    0  0.00000000000E+00 -0.00000000000E+00 -0.14523879555E+04  0.14523879555E+04  0.00000000000E+00 0. -1.
        -24    2    1    2    0    0  0.14820864065E+03 -0.25115283204E+03 -0.57175571892E+03  0.64693231738E+03  0.81075735892E+02 0.  0.
        254    2    1    2    0    0 -0.14820864065E+03  0.25115283204E+03 -0.57401299281E+03  0.11120748818E+04  0.90673925726E+03 0.  0.
         23    2    4    4    0    0 -0.26874627421E+03  0.47951231383E+02 -0.75096833026E+03  0.80430666294E+03  0.91825347808E+02 0.  0.
         23    2    4    4    0    0  0.12053763356E+03  0.20320160066E+03  0.17695533746E+03  0.30776821887E+03  0.87108400739E+02 0.  0.
          3    1    3    3  502    0  0.12380664196E+03 -0.16821432419E+03 -0.46354177418E+03  0.50842415350E+03  0.00000000000E+00 0. -1.
         -4    1    3    3    0  502  0.24401998689E+02 -0.82938507853E+02 -0.10821394474E+03  0.13850816388E+03  0.00000000000E+00 0.  1.
         11    1    5    5    0    0 -0.24804150156E+03  0.16083568902E+02 -0.62105203030E+03  0.66894610547E+03  0.00000000000E+00 0. -1.
        -11    1    5    5    0    0 -0.20704772651E+02  0.31867662481E+02 -0.12991629997E+03  0.13536055747E+03  0.00000000000E+00 0.  1.
          2    1    6    6  503    0  0.87989069773E+02  0.78327602826E+02  0.54238054155E+02  0.12968830434E+03  0.00000000000E+00 0. -1.
         -2    1    6    6    0  503  0.32548563790E+02  0.12487399783E+03  0.12271728330E+03  0.17807991453E+03  0.00000000000E+00 0.  1.
<mgrwt>
<rscale>  0 0.13346612E+04</rscale>
<asrwt>0</asrwt>
<pdfrwt beam="1">  1        1 0.22344431E+00 0.13346612E+04</pdfrwt>
<pdfrwt beam="2">  1       -2 0.47172190E-01 0.13346612E+04</pdfrwt>
<totfact> 0.25855613E+01</totfact>
</mgrwt>
</event>
<event>
12    4  0.4381187E-008  0.1846542E+04  0.7818608E-02  0.8681933E-01
         -2   -1    0    0    0  501 -0.00000000000E+00  0.00000000000E+00  0.21812945945E+03  0.21812945945E+03  0.00000000000E+00 0.  1.
          1   -1    0    0  501    0  0.00000000000E+00 -0.00000000000E+00 -0.39079060767E+04  0.39079060767E+04  0.00000000000E+00 0. -1.
        -24    2    1    2    0    0  0.58396543782E+03 -0.13096135968E+03 -0.22408808629E+04  0.23207890255E+04  0.79675269823E+02 0.  0.
        254    2    1    2    0    0 -0.58396543782E+03  0.13096135968E+03 -0.14488957543E+04  0.18052465106E+04  0.89523714572E+03 0.  0.
         23    2    4    4    0    0 -0.66810497224E+03  0.27488504213E+03 -0.62369304387E+03  0.95872199461E+03  0.90712786587E+02 0.  0.
         23    2    4    4    0    0  0.84139534416E+02 -0.14392368245E+03 -0.82520271040E+03  0.84652451602E+03  0.88604488314E+02 0.  0.
          1    1    3    3  502    0  0.52655131552E+03 -0.13720811973E+03 -0.20742489845E+04  0.21444326070E+04  0.00000000000E+00 0. -1.
         -2    1    3    3    0  502  0.57414122297E+02  0.62467600427E+01 -0.16663187842E+03  0.17635641853E+03  0.00000000000E+00 0.  1.
         11    1    5    5    0    0 -0.24061184421E+03  0.59184961891E+02 -0.24230598928E+03  0.34656761494E+03  0.00000000000E+00 0. -1.
        -11    1    5    5    0    0 -0.42749312803E+03  0.21570008024E+03 -0.38138705459E+03  0.61215437966E+03  0.00000000000E+00 0.  1.
          3    1    6    6  503    0  0.83294918699E+02 -0.71036082611E+02 -0.38235572253E+03  0.39771857773E+03  0.00000000000E+00 0. -1.
         -3    1    6    6    0  503  0.84461571729E+00 -0.72887599840E+02 -0.44284698786E+03  0.44880593829E+03  0.00000000000E+00 0.  1.
<mgrwt>
<rscale>  0 0.18465421E+04</rscale>
<asrwt>0</asrwt>
<pdfrwt beam="1">  1        1 0.60121630E+00 0.18465421E+04</pdfrwt>
<pdfrwt beam="2">  1       -2 0.33558379E-01 0.18465421E+04</pdfrwt>
<totfact> 0.79865564E-01</totfact>
</mgrwt>
</event>
<event>
12    4  0.4381187E-008  0.2529092E+04  0.7818608E-02  0.8392694E-01
          1   -1    0    0  501    0  0.00000000000E+00  0.00000000000E+00  0.21373963336E+04  0.21373963336E+04  0.00000000000E+00 0. -1.
         -2   -1    0    0    0  501 -0.00000000000E+00 -0.00000000000E+00 -0.74814215019E+03  0.74814215019E+03  0.00000000000E+00 0.  1.
        -24    2    1    2    0    0  0.11386471545E+03 -0.67758423277E+03 -0.37707391429E+03  0.78781752297E+03  0.79913370166E+02 0.  0.
        254    2    1    2    0    0 -0.11386471545E+03  0.67758423277E+03  0.17663280977E+04  0.20977209608E+04  0.89912886440E+03 0.  0.
         23    2    4    4    0    0  0.96598569465E+02  0.82423950639E+03  0.11279699081E+04  0.14035570303E+04  0.94626508903E+02 0.  0.
         23    2    4    4    0    0 -0.21046328491E+03 -0.14665527362E+03  0.63835818961E+03  0.69416393053E+03  0.92519298702E+02 0.  0.
          3    1    3    3  502    0  0.81957369648E+01 -0.12166510922E+02 -0.21397809814E+02  0.25943406816E+02  0.00000000000E+00 0. -1.
         -4    1    3    3    0  502  0.10566897848E+03 -0.66541772185E+03 -0.35567610448E+03  0.76187411615E+03  0.00000000000E+00 0.  1.
         11    1    5    5    0    0  0.10435607039E+03  0.77894475083E+03  0.10322384298E+04  0.12973670607E+04  0.00000000000E+00 0. -1.
        -11    1    5    5    0    0 -0.77575009260E+01  0.45294755557E+02  0.95731478269E+02  0.10618996955E+03  0.00000000000E+00 0.  1.
          4    1    6    6  503    0 -0.13808676048E+03 -0.47990262554E+02  0.28660959664E+03  0.32173914838E+03  0.00000000000E+00 0. -1.
         -4    1    6    6    0  503 -0.72376524433E+02 -0.98665011063E+02  0.35174859297E+03  0.37242478215E+03  0.00000000000E+00 0.  1.
<mgrwt>
<rscale>  0 0.25290918E+04</rscale>
<asrwt>0</asrwt>
<pdfrwt beam="1">  1        1 0.32883020E+00 0.25290918E+04</pdfrwt>
<pdfrwt beam="2">  1       -2 0.11509879E+00 0.25290918E+04</pdfrwt>
<totfact> 0.11013702E+00</totfact>
</mgrwt>
</event>
<event>
12    4  0.4381187E-008  0.1581212E+04  0.7818608E-02  0.8832174E-01
         -2   -1    0    0    0  501 -0.00000000000E+00  0.00000000000E+00  0.42346615998E+03  0.42346615998E+03  0.00000000000E+00 0.  1.
          1   -1    0    0  501    0  0.00000000000E+00 -0.00000000000E+00 -0.14760523750E+04  0.14760523750E+04  0.00000000000E+00 0. -1.
        -24    2    1    2    0    0  0.53588348465E+03  0.66715321041E+02 -0.34696192031E+03  0.64693259900E+03  0.80728993055E+02 0.  0.
        254    2    1    2    0    0 -0.53588348465E+03 -0.66715321041E+02 -0.70562429468E+03  0.12525859360E+04  0.88286116606E+03 0.  0.
         23    2    4    4    0    0 -0.14495288134E+03 -0.98039041872E+01 -0.81485088497E+03  0.83279938556E+03  0.92007594878E+02 0.  0.
         23    2    4    4    0    0 -0.39093060332E+03 -0.56911416853E+02  0.10922659028E+03  0.41978655040E+03  0.90689877561E+02 0.  0.
          1    1    3    3  502    0  0.39297425971E+02 -0.74416047123E+01 -0.48366147004E+02  0.62761049582E+02  0.00000000000E+00 0. -1.
         -2    1    3    3    0  502  0.49658605868E+03  0.74156925753E+02 -0.29859577330E+03  0.58417154942E+03  0.00000000000E+00 0.  1.
         11    1    5    5    0    0 -0.44440516727E+02  0.31819782058E+02 -0.16266797657E+03  0.17160515336E+03  0.00000000000E+00 0.  1.
        -11    1    5    5    0    0 -0.10051236461E+03 -0.41623686245E+02 -0.65218290839E+03  0.66119423220E+03  0.00000000000E+00 0. -1.
          1    1    6    6  503    0 -0.32818968756E+03 -0.28218865439E+02  0.59471388474E+02  0.33472618875E+03  0.00000000000E+00 0. -1.
         -1    1    6    6    0  503 -0.62740915753E+02 -0.28692551414E+02  0.49755201809E+02  0.85060361645E+02  0.00000000000E+00 0.  1.
<mgrwt>
<rscale>  0 0.15812125E+04</rscale>
<asrwt>0</asrwt>
<pdfrwt beam="1">  1        1 0.22708498E+00 0.15812125E+04</pdfrwt>
<pdfrwt beam="2">  1       -2 0.65148640E-01 0.15812125E+04</pdfrwt>
<totfact> 0.12451440E+01</totfact>
</mgrwt>
</event>
<event>
12    4  0.4381187E-008  0.1716833E+04  0.7818608E-02  0.8751822E-01
          1   -1    0    0  501    0  0.00000000000E+00  0.00000000000E+00  0.99350546065E+03  0.99350546065E+03  0.00000000000E+00 0. -1.
         -2   -1    0    0    0  501 -0.00000000000E+00 -0.00000000000E+00 -0.74169547146E+03  0.74169547146E+03  0.00000000000E+00 0.  1.
        -24    2    1    2    0    0 -0.40738246391E+03  0.46626331128E+03  0.12594687615E+03  0.63732962141E+03  0.83453480248E+02 0.  0.
        254    2    1    2    0    0  0.40738246391E+03 -0.46626331128E+03  0.12586311303E+03  0.10978713107E+04  0.89784071209E+03 0.  0.
         23    2    4    4    0    0  0.51247184355E+03  0.63813288741E+02  0.15907600916E+03  0.54812006930E+03  0.91819972918E+02 0.  0.
         23    2    4    4    0    0 -0.10508937964E+03 -0.53007660002E+03 -0.33212896125E+02  0.54975124140E+03  0.95385278470E+02 0.  0.
          1    1    3    3  502    0 -0.79317535325E+02  0.11788530132E+03 -0.15850965522E+01  0.14209408224E+03  0.00000000000E+00 0. -1.
         -2    1    3    3    0  502 -0.32806492859E+03  0.34837800996E+03  0.12753197271E+03  0.49523553917E+03  0.00000000000E+00 0.  1.
         11    1    5    5    0    0  0.57910159915E+02 -0.40569613225E+01 -0.90105532959E+01  0.58747218038E+02  0.00000000000E+00 0. -1.
        -11    1    5    5    0    0  0.45456168364E+03  0.67870250064E+02  0.16808656245E+03  0.48937285126E+03  0.00000000000E+00 0.  1.
          4    1    6    6  503    0 -0.65090832797E+02 -0.34910559748E+03 -0.66920953209E+02  0.36137231312E+03  0.00000000000E+00 0. -1.
         -4    1    6    6    0  503 -0.39998546841E+02 -0.18097100254E+03  0.33708057084E+02  0.18837892828E+03  0.00000000000E+00 0.  1.
<mgrwt>
<rscale>  0 0.17168325E+04</rscale>
<asrwt>0</asrwt>
<pdfrwt beam="1">  1        1 0.15284699E+00 0.17168325E+04</pdfrwt>
<pdfrwt beam="2">  1       -2 0.11410700E+00 0.17168325E+04</pdfrwt>
<totfact> 0.76642109E+00</totfact>
</mgrwt>
</event>
<event>
12    4  0.4381187E-008  0.1675371E+04  0.7818608E-02  0.8775537E-01
         -2   -1    0    0    0  501 -0.00000000000E+00  0.00000000000E+00  0.41888300522E+03  0.41888300522E+03  0.00000000000E+00 0.  1.
          1   -1    0    0  501    0  0.00000000000E+00 -0.00000000000E+00 -0.16752098873E+04  0.16752098873E+04  0.00000000000E+00 0. -1.
        -24    2    1    2    0    0  0.24712792642E+03 -0.46717250399E+03 -0.75898838558E+03  0.92780001432E+03  0.73669102230E+02 0.  0.
        254    2    1    2    0    0 -0.24712792642E+03  0.46717250399E+03 -0.49733849646E+03  0.11662928782E+04  0.91300117036E+03 0.  0.
         23    2    4    4    0    0  0.29810711751E+03  0.72410016481E+02 -0.34679714784E+03  0.47059187113E+03  0.84127186068E+02 0.  0.
         23    2    4    4    0    0 -0.54523504393E+03  0.39476248751E+03 -0.15054134863E+03  0.69570100703E+03  0.90656047016E+02 0.  0.
          3    1    3    3  502    0  0.19699549711E+03 -0.42355579324E+03 -0.66829301689E+03  0.81536635465E+03  0.00000000000E+00 0. -1.
         -4    1    3    3    0  502  0.50132429310E+02 -0.43616710755E+02 -0.90695368685E+02  0.11243365967E+03  0.00000000000E+00 0.  1.
         11    1    5    5    0    0  0.20515586308E+03  0.59892598052E+02 -0.18082768584E+03  0.27995482390E+03  0.00000000000E+00 0. -1.
        -11    1    5    5    0    0  0.92951254422E+02  0.12517418428E+02 -0.16596946199E+03  0.19063704723E+03  0.00000000000E+00 0.  1.
          4    1    6    6  503    0 -0.38058215262E+03  0.31768439853E+03 -0.88365784642E+02  0.50356197618E+03  0.00000000000E+00 0. -1.
         -4    1    6    6    0  503 -0.16465289131E+03  0.77078088980E+02 -0.62175563984E+02  0.19213903085E+03  0.00000000000E+00 0.  1.
<mgrwt>
<rscale>  0 0.16753709E+04</rscale>
<asrwt>0</asrwt>
<pdfrwt beam="1">  1        1 0.25772459E+00 0.16753709E+04</pdfrwt>
<pdfrwt beam="2">  1       -2 0.64443540E-01 0.16753709E+04</pdfrwt>
<totfact> 0.92238531E+00</totfact>
</mgrwt>
</event>
<event>
12    4  0.4381187E-008  0.1441400E+04  0.7818608E-02  0.8924385E-01
          1   -1    0    0  501    0  0.00000000000E+00  0.00000000000E+00  0.15745705783E+04  0.15745705783E+04  0.00000000000E+00 0. -1.
         -2   -1    0    0    0  501 -0.00000000000E+00 -0.00000000000E+00 -0.32987296777E+03  0.32987296777E+03  0.00000000000E+00 0.  1.
        -24    2    1    2    0    0  0.23199316033E+03  0.19589880671E+02 -0.99175428773E+02  0.26488303399E+03  0.78247467407E+02 0.  0.
        254    2    1    2    0    0 -0.23199316033E+03 -0.19589880671E+02  0.13438730393E+04  0.16395605121E+04  0.90992270945E+03 0.  0.
         23    2    4    4    0    0 -0.46109317930E+03  0.13371065514E+03  0.12349443426E+04  0.13281405403E+04  0.91565857418E+02 0.  0.
         23    2    4    4    0    0  0.22910001897E+03 -0.15330053581E+03  0.10892869675E+03  0.31141997180E+03  0.95546140106E+02 0.  0.
          1    1    3    3  502    0  0.31121050967E+02 -0.24146018889E+02 -0.90446580908E+01  0.40414797804E+02  0.00000000000E+00 0. -1.
         -2    1    3    3    0  502  0.20087210936E+03  0.43735899561E+02 -0.90130770683E+02  0.22446823618E+03  0.00000000000E+00 0.  1.
         11    1    5    5    0    0 -0.19391382223E+03  0.84271716747E+02  0.64160749609E+03  0.67554753477E+03  0.00000000000E+00 0. -1.
        -11    1    5    5    0    0 -0.26717935707E+03  0.49438938397E+02  0.59333684649E+03  0.65259300554E+03  0.00000000000E+00 0.  1.
          2    1    6    6  503    0  0.11622262385E+03 -0.12681827401E+03  0.40257424348E+02  0.17666701201E+03  0.00000000000E+00 0. -1.
         -2    1    6    6    0  503  0.11287739512E+03 -0.26482261803E+02  0.68671272401E+02  0.13475295979E+03  0.00000000000E+00 0.  1.
<mgrwt>
<rscale>  0 0.14413997E+04</rscale>
<asrwt>0</asrwt>
<pdfrwt beam="1">  1        1 0.24224162E+00 0.14413997E+04</pdfrwt>
<pdfrwt beam="2">  1       -2 0.50749688E-01 0.14413997E+04</pdfrwt>
<totfact> 0.18188188E+01</totfact>
</mgrwt>
</event>
<event>
12    4  0.4381187E-008  0.1595496E+04  0.7818608E-02  0.8823320E-01
         -2   -1    0    0    0  501 -0.00000000000E+00  0.00000000000E+00  0.41004466637E+03  0.41004466637E+03  0.00000000000E+00 0.  1.
          1   -1    0    0  501    0  0.00000000000E+00 -0.00000000000E+00 -0.15520302922E+04  0.15520302922E+04  0.00000000000E+00 0. -1.
        -24    2    1    2    0    0  0.49107742181E+03 -0.20521214908E+03 -0.47380347899E+03  0.71706645293E+03  0.80159222036E+02 0.  0.
        254    2    1    2    0    0 -0.49107742181E+03  0.20521214908E+03 -0.66818214687E+03  0.12450085057E+04  0.90570952156E+03 0.  0.
         23    2    4    4    0    0  0.52223539598E+02 -0.28632270656E+03 -0.24512693985E+03  0.39346188804E+03  0.10008521532E+03 0.  0.
         23    2    4    4    0    0 -0.54330096141E+03  0.49153485564E+03 -0.42305520702E+03  0.85154661762E+03  0.96816758968E+02 0.  0.
          3    1    3    3  502    0  0.37007894697E+03 -0.16286445202E+03 -0.40185126889E+03  0.57005938202E+03  0.00000000000E+00 0. -1.
         -4    1    3    3    0  502  0.12099847484E+03 -0.42347697067E+02 -0.71952210102E+02  0.14700707092E+03  0.00000000000E+00 0.  1.
         11    1    5    5    0    0 -0.12569769819E+02 -0.17822500029E+03 -0.17065921038E+03  0.24707633624E+03  0.00000000000E+00 0. -1.
        -11    1    5    5    0    0  0.64793309418E+02 -0.10809770626E+03 -0.74467729467E+02  0.14638555180E+03  0.00000000000E+00 0.  1.
          2    1    6    6  503    0 -0.50434932392E+03  0.48409073294E+03 -0.39483584038E+03  0.80287447282E+03  0.00000000000E+00 0. -1.
         -2    1    6    6    0  503 -0.38951637488E+02  0.74441226992E+01 -0.28219366649E+02  0.48672144804E+02  0.00000000000E+00 0.  1.
<mgrwt>
<rscale>  0 0.15954958E+04</rscale>
<asrwt>0</asrwt>
<pdfrwt beam="1">  1        1 0.23877389E+00 0.15954958E+04</pdfrwt>
<pdfrwt beam="2">  1       -2 0.63083795E-01 0.15954958E+04</pdfrwt>
<totfact> 0.11806880E+01</totfact>
</mgrwt>
</event>
<event>
12    4  0.4381187E-008  0.1600857E+04  0.7818608E-02  0.8820021E-01
          1   -1    0    0  501    0  0.00000000000E+00  0.00000000000E+00  0.17840772242E+04  0.17840772242E+04  0.00000000000E+00 0. -1.
         -2   -1    0    0    0  501 -0.00000000000E+00 -0.00000000000E+00 -0.35911340713E+03  0.35911340713E+03  0.00000000000E+00 0.  1.
        -24    2    1    2    0    0  0.12873833363E+03 -0.25223522511E+03  0.11421711337E+04  0.11794097587E+04  0.79096857939E+02 0.  0.
        254    2    1    2    0    0 -0.12873833363E+03  0.25223522511E+03  0.28279268334E+03  0.96378087259E+03  0.87675863343E+03 0.  0.
         23    2    4    4    0    0 -0.25212489942E+03  0.52035451199E+03  0.29236095457E+03  0.65442031800E+03  0.91952388808E+02 0.  0.
         23    2    4    4    0    0  0.12338656579E+03 -0.26811928688E+03 -0.95682712316E+01  0.30936055459E+03  0.92196552584E+02 0.  0.
          1    1    3    3  502    0  0.12663729946E+03 -0.25370067572E+03  0.11421779568E+04  0.11768481310E+04  0.00000000000E+00 0. -1.
         -2    1    3    3    0  502  0.21010341706E+01  0.14654506112E+01 -0.68230550994E-02  0.25616277314E+01  0.00000000000E+00 0.  1.
         11    1    5    5    0    0 -0.19368314209E+03  0.35593680659E+03  0.16111349555E+03  0.43607536994E+03  0.00000000000E+00 0. -1.
        -11    1    5    5    0    0 -0.58441757326E+02  0.16441770539E+03  0.13124745902E+03  0.21834494807E+03  0.00000000000E+00 0.  1.
          2    1    6    6  503    0  0.77994451557E+02 -0.23196796683E+03  0.17449405434E+02  0.24535026770E+03  0.00000000000E+00 0. -1.
         -2    1    6    6    0  503  0.45392114231E+02 -0.36151320047E+02 -0.27017676666E+02  0.64010286891E+02  0.00000000000E+00 0.  1.
<mgrwt>
<rscale>  0 0.16008573E+04</rscale>
<asrwt>0</asrwt>
<pdfrwt beam="1">  1        1 0.27447341E+00 0.16008573E+04</pdfrwt>
<pdfrwt beam="2">  1       -2 0.55248218E-01 0.16008573E+04</pdfrwt>
<totfact> 0.10835871E+01</totfact>
</mgrwt>
</event>
<event>
12    4  0.4381187E-008  0.3150233E+04  0.7818608E-02  0.8202085E-01
         -2   -1    0    0    0  501 -0.00000000000E+00  0.00000000000E+00  0.94671240785E+03  0.94671240785E+03  0.00000000000E+00 0.  1.
          1   -1    0    0  501    0  0.00000000000E+00 -0.00000000000E+00 -0.26206402018E+04  0.26206402018E+04  0.00000000000E+00 0. -1.
        -24    2    1    2    0    0  0.32185207008E+03  0.13871200446E+04 -0.48905887168E+03  0.15077206413E+04  0.79700558964E+02 0.  0.
        254    2    1    2    0    0 -0.32185207008E+03 -0.13871200446E+04 -0.11848689222E+04  0.20596319683E+04  0.90026590996E+03 0.  0.
         23    2    4    4    0    0  0.96107421630E+01  0.23609567561E+02  0.88530192369E+02  0.12828566773E+03  0.89273957789E+02 0.  0.
         23    2    4    4    0    0 -0.33146281225E+03 -0.14107296122E+04 -0.12733991146E+04  0.19313463005E+04  0.92344967112E+02 0.  0.
          3    1    3    3  502    0  0.79125886460E+02  0.36621642212E+03 -0.92401618996E+02  0.38589303301E+03  0.00000000000E+00 0. -1.
         -4    1    3    3    0  502  0.24272618362E+03  0.10209036225E+04 -0.39665725269E+03  0.11218276083E+04  0.00000000000E+00 0.  1.
         11    1    5    5    0    0 -0.34425481233E+02 -0.10108418638E+02  0.23851938514E+02  0.43083742367E+02  0.00000000000E+00 0. -1.
        -11    1    5    5    0    0  0.44036223396E+02  0.33717986198E+02  0.64678253855E+02  0.85201925365E+02  0.00000000000E+00 0.  1.
          3    1    6    6  503    0 -0.67050904597E+02 -0.32712226652E+03 -0.34486971860E+03  0.48004158556E+03  0.00000000000E+00 0. -1.
         -3    1    6    6    0  503 -0.26441190765E+03 -0.10836073457E+04 -0.92852939599E+03  0.14513047150E+04  0.00000000000E+00 0.  1.
<mgrwt>
<rscale>  0 0.31502334E+04</rscale>
<asrwt>0</asrwt>
<pdfrwt beam="1">  1        1 0.40317542E+00 0.31502334E+04</pdfrwt>
<pdfrwt beam="2">  1       -2 0.14564806E+00 0.31502334E+04</pdfrwt>
<totfact> 0.26713470E-01</totfact>
</mgrwt>
</event>
<event>
12    4  0.4381187E-008  0.2088163E+04  0.7818608E-02  0.8566476E-01
         -2   -1    0    0    0  501 -0.00000000000E+00  0.00000000000E+00  0.21387993741E+04  0.21387993741E+04  0.00000000000E+00 0.  1.
          1   -1    0    0  501    0  0.00000000000E+00 -0.00000000000E+00 -0.50968136123E+03  0.50968136123E+03  0.00000000000E+00 0. -1.
        -24    2    1    2    0    0  0.65405382999E+03  0.25358797781E+03  0.12648781867E+04  0.14485530838E+04  0.79346925199E+02 0.  0.
        254    2    1    2    0    0 -0.65405382999E+03 -0.25358797781E+03  0.36423982621E+03  0.11999276515E+04  0.90280808749E+03 0.  0.
         23    2    4    4    0    0 -0.27590170334E+03 -0.52902465155E+03  0.39666313784E+03  0.72214787608E+03  0.90371888080E+02 0.  0.
         23    2    4    4    0    0 -0.37815212665E+03  0.27543667374E+03 -0.32423311625E+02  0.47777977542E+03  0.91421280539E+02 0.  0.
          3    1    3    3  502    0  0.42924551677E+03  0.14325084369E+03  0.74855371094E+03  0.87470290731E+03  0.00000000000E+00 0. -1.
         -4    1    3    3    0  502  0.22480831322E+03  0.11033713412E+03  0.51632447571E+03  0.57385017651E+03  0.00000000000E+00 0.  1.
         11    1    5    5    0    0 -0.25058702399E+03 -0.43115978642E+03  0.29827603288E+03  0.58108623268E+03  0.00000000000E+00 0.  1.
        -11    1    5    5    0    0 -0.25314679350E+02 -0.97864865134E+02  0.98387104956E+02  0.14106164340E+03  0.00000000000E+00 0. -1.
          4    1    6    6  503    0 -0.15328927769E+03  0.15836211777E+03 -0.40716260393E+02  0.22412937527E+03  0.00000000000E+00 0.  1.
         -4    1    6    6    0  503 -0.22486284896E+03  0.11707455597E+03  0.82929487686E+01  0.25365040015E+03  0.00000000000E+00 0. -1.
<mgrwt>
<rscale>  0 0.20881630E+04</rscale>
<asrwt>0</asrwt>
<pdfrwt beam="1">  1        1 0.78412518E-01 0.20881630E+04</pdfrwt>
<pdfrwt beam="2">  1       -2 0.32904605E+00 0.20881630E+04</pdfrwt>
<totfact> 0.73318116E-01</totfact>
</mgrwt>
</event>
<event>
12    4  0.4381187E-008  0.1389921E+04  0.7818608E-02  0.8961147E-01
          1   -1    0    0  501    0  0.00000000000E+00  0.00000000000E+00  0.28445617722E+04  0.28445617722E+04  0.00000000000E+00 0. -1.
         -2   -1    0    0    0  501 -0.00000000000E+00 -0.00000000000E+00 -0.16978711963E+03  0.16978711963E+03  0.00000000000E+00 0.  1.
        -24    2    1    2    0    0  0.30119539576E+02  0.34824257932E+03  0.12048653858E+04  0.12570197533E+04  0.78854179743E+02 0.  0.
        254    2    1    2    0    0 -0.30119539576E+02 -0.34824257932E+03  0.14699092668E+04  0.17573291385E+04  0.89743655362E+03 0.  0.
         23    2    4    4    0    0  0.17446195340E+02 -0.87000837290E+02  0.14709794906E+04  0.14765272295E+04  0.92078674159E+02 0.  0.
         23    2    4    4    0    0 -0.47565734916E+02 -0.26124174203E+03 -0.10702238149E+01  0.28080190902E+03  0.91317138658E+02 0.  0.
          1    1    3    3  502    0  0.10885088063E+02  0.32952704981E+03  0.10756326707E+04  0.11250298681E+04  0.00000000000E+00 0. -1.
         -2    1    3    3    0  502  0.19234451513E+02  0.18715529517E+02  0.12923271503E+03  0.13198988523E+03  0.00000000000E+00 0.  1.
         11    1    5    5    0    0  0.56220140214E+01 -0.55082592812E+02  0.13416968625E+04  0.13428388473E+04  0.00000000000E+00 0.  1.
        -11    1    5    5    0    0  0.11824181319E+02 -0.31918244478E+02  0.12928262814E+03  0.13368838219E+03  0.00000000000E+00 0. -1.
          2    1    6    6  503    0 -0.31642401042E+02 -0.64146132108E+02 -0.35884271959E+02  0.80022801639E+02  0.00000000000E+00 0. -1.
         -2    1    6    6    0  503 -0.15923333874E+02 -0.19709560993E+03  0.34814048144E+02  0.20077910738E+03  0.00000000000E+00 0.  1.
<mgrwt>
<rscale>  0 0.13899208E+04</rscale>
<asrwt>0</asrwt>
<pdfrwt beam="1">  1        1 0.43762485E+00 0.13899208E+04</pdfrwt>
<pdfrwt beam="2">  1       -2 0.26121097E-01 0.13899208E+04</pdfrwt>
<totfact> 0.88457557E+00</totfact>
</mgrwt>
</event>
<event>
12    4  0.4381187E-008  0.1945342E+04  0.7818608E-02  0.8632610E-01
          1   -1    0    0  501    0  0.00000000000E+00  0.00000000000E+00  0.12895342845E+04  0.12895342845E+04  0.00000000000E+00 0. -1.
         -2   -1    0    0    0  501 -0.00000000000E+00 -0.00000000000E+00 -0.73366747167E+03  0.73366747167E+03  0.00000000000E+00 0.  1.
        -24    2    1    2    0    0  0.14731595331E+03  0.24570496776E+03 -0.47306854238E+03  0.55872020128E+03  0.79381964242E+02 0.  0.
        254    2    1    2    0    0 -0.14731595331E+03 -0.24570496776E+03  0.10289353552E+04  0.14644815549E+04  0.10019607468E+04 0.  0.
         23    2    4    4    0    0 -0.16094030650E+02  0.35959588376E+03  0.18850796199E+03  0.41646253554E+03  0.91310318884E+02 0.  0.
         23    2    4    4    0    0 -0.13122192266E+03 -0.60530085151E+03  0.84042739320E+03  0.10480190193E+04  0.91746105066E+02 0.  0.
          1    1    3    3  502    0  0.95866810540E+02  0.99712708245E+02 -0.17709421769E+03  0.22471188551E+03  0.00000000000E+00 0. -1.
         -2    1    3    3    0  502  0.51449142770E+02  0.14599225951E+03 -0.29597432469E+03  0.33400831577E+03  0.00000000000E+00 0.  1.
         11    1    5    5    0    0  0.26013672533E+01  0.13128878967E+02  0.34200600351E+02  0.36726225492E+02  0.00000000000E+00 0.  1.
        -11    1    5    5    0    0 -0.18695397903E+02  0.34646700479E+03  0.15430736164E+03  0.37973631005E+03  0.00000000000E+00 0. -1.
          1    1    6    6  503    0 -0.11371174778E+03 -0.44741006078E+03  0.56024032608E+03  0.72593067646E+03  0.00000000000E+00 0. -1.
         -1    1    6    6    0  503 -0.17510174877E+02 -0.15789079074E+03  0.28018706713E+03  0.32208834287E+03  0.00000000000E+00 0.  1.
<mgrwt>
<rscale>  0 0.19453425E+04</rscale>
<asrwt>0</asrwt>
<pdfrwt beam="1">  1        1 0.19838989E+00 0.19453425E+04</pdfrwt>
<pdfrwt beam="2">  1       -2 0.11287192E+00 0.19453425E+04</pdfrwt>
<totfact> 0.46443695E+00</totfact>
</mgrwt>
</event>
<event>
12    4  0.4381187E-008  0.1229084E+04  0.7818608E-02  0.9087773E-01
          3   -1    0    0  501    0  0.00000000000E+00  0.00000000000E+00  0.75282408932E+03  0.75282408932E+03  0.00000000000E+00 0. -1.
         -4   -1    0    0    0  501 -0.00000000000E+00 -0.00000000000E+00 -0.50166058884E+03  0.50166058884E+03  0.00000000000E+00 0.  1.
        -24    2    1    2    0    0  0.10424341793E+03  0.12076878941E+03 -0.15507655046E+03  0.23522217265E+03  0.76347516836E+02 0.  0.
        254    2    1    2    0    0 -0.10424341793E+03 -0.12076878941E+03  0.40624005095E+03  0.10192625055E+04  0.92109352699E+03 0.  0.
         23    2    4    4    0    0  0.15560869324E+03  0.34605323690E+03  0.12252884180E+03  0.40834401524E+03  0.88117021763E+02 0.  0.
         23    2    4    4    0    0 -0.25985211118E+03 -0.46682202631E+03  0.28371120915E+03  0.61091849027E+03  0.85342999838E+02 0.  0.
          3    1    3    3  502    0  0.25032535203E+02  0.53654825948E+02 -0.10363761460E+03  0.11935754407E+03  0.00000000000E+00 0. -1.
         -4    1    3    3    0  502  0.79210882728E+02  0.67113963464E+02 -0.51438935860E+02  0.11586462858E+03  0.00000000000E+00 0.  1.
         11    1    5    5    0    0  0.14401680400E+03  0.34243020654E+03  0.10325978062E+03  0.38556694422E+03  0.00000000000E+00 0.  1.
        -11    1    5    5    0    0  0.11591889247E+02  0.36230303648E+01  0.19269061180E+02  0.22777071016E+02  0.00000000000E+00 0. -1.
          4    1    6    6  503    0 -0.53464048511E+02 -0.14908314899E+03  0.51532436156E+02  0.16655263964E+03  0.00000000000E+00 0. -1.
         -4    1    6    6    0  503 -0.20638806267E+03 -0.31773887732E+03  0.23217877299E+03  0.44436585062E+03  0.00000000000E+00 0.  1.
<mgrwt>
<rscale>  0 0.12290845E+04</rscale>
<asrwt>0</asrwt>
<pdfrwt beam="1">  1        3 0.11581909E+00 0.12290845E+04</pdfrwt>
<pdfrwt beam="2">  1       -4 0.77178552E-01 0.12290845E+04</pdfrwt>
<totfact> 0.20939794E+00</totfact>
</mgrwt>
</event>
<event>
12    4  0.4381187E-008  0.2075033E+04  0.7818608E-02  0.8572322E-01
         -2   -1    0    0    0  501 -0.00000000000E+00  0.00000000000E+00  0.12069008163E+04  0.12069008163E+04  0.00000000000E+00 0.  1.
          1   -1    0    0  501    0  0.00000000000E+00 -0.00000000000E+00 -0.89190431012E+03  0.89190431012E+03  0.00000000000E+00 0. -1.
        -24    2    1    2    0    0  0.23567392395E+03  0.78456690174E+03  0.30959926504E+03  0.87931639114E+03  0.79108716836E+02 0.  0.
        254    2    1    2    0    0 -0.23567392395E+03 -0.78456690174E+03  0.53972410940E+01  0.12194887352E+04  0.90334723302E+03 0.  0.
         23    2    4    4    0    0 -0.38010820716E+03 -0.85295415133E+03 -0.18468353532E+03  0.95655119977E+03  0.94176197319E+02 0.  0.
         23    2    4    4    0    0  0.14443428321E+03  0.68387249587E+02  0.19008077641E+03  0.26293753546E+03  0.86413933605E+02 0.  0.
          3    1    3    3  502    0  0.24221744090E+01  0.94717826471E+02  0.32703505104E+02  0.10023399037E+03  0.00000000000E+00 0. -1.
         -4    1    3    3    0  502  0.23325174954E+03  0.68984907527E+03  0.27689575993E+03  0.77908240077E+03  0.00000000000E+00 0.  1.
         11    1    5    5    0    0 -0.22733812970E+03 -0.40142697894E+03 -0.74448846819E+02  0.46729955642E+03  0.00000000000E+00 0. -1.
        -11    1    5    5    0    0 -0.15277007746E+03 -0.45152717239E+03 -0.11023468850E+03  0.48925164335E+03  0.00000000000E+00 0.  1.
          3    1    6    6  503    0  0.57332999545E+02 -0.12098553660E+02  0.91827925069E+02  0.10893032480E+03  0.00000000000E+00 0. -1.
         -3    1    6    6    0  503  0.87101283664E+02  0.80485803248E+02  0.98252851344E+02  0.15400721067E+03  0.00000000000E+00 0.  1.
<mgrwt>
<rscale>  0 0.20750326E+04</rscale>
<asrwt>0</asrwt>
<pdfrwt beam="1">  1        1 0.13721605E+00 0.20750326E+04</pdfrwt>
<pdfrwt beam="2">  1       -2 0.18567705E+00 0.20750326E+04</pdfrwt>
<totfact> 0.24738034E+00</totfact>
</mgrwt>
</event>
<event>
12    4  0.4919061E-008  0.1373437E+04  0.7818608E-02  0.8973274E-01
          1   -1    0    0  501    0  0.00000000000E+00  0.00000000000E+00  0.10913272502E+04  0.10913272502E+04  0.00000000000E+00 0. -1.
         -2   -1    0    0    0  501 -0.00000000000E+00 -0.00000000000E+00 -0.43211829738E+03  0.43211829738E+03  0.00000000000E+00 0.  1.
        -24    2    1    2    0    0  0.18565825634E+03 -0.15021430774E+03  0.54791704460E+03  0.60288327877E+03  0.78878600773E+02 0.  0.
        254    2    1    2    0    0 -0.18565825634E+03  0.15021430774E+03  0.11129190818E+03  0.92056226879E+03  0.88205196870E+03 0.  0.
         23    2    4    4    0    0  0.33973684698E+03  0.61897098988E+02  0.12735487067E+03  0.37948493422E+03  0.92396840603E+02 0.  0.
         23    2    4    4    0    0 -0.52539510332E+03  0.88317208750E+02 -0.16062962490E+02  0.54107733457E+03  0.93095216113E+02 0.  0.
          1    1    3    3  502    0  0.17834043620E+03 -0.15552455044E+03  0.48863394086E+03  0.54291465732E+03  0.00000000000E+00 0. -1.
         -2    1    3    3    0  502  0.73178201382E+01  0.53102427048E+01  0.59283103745E+02  0.59968621452E+02  0.00000000000E+00 0.  1.
         11    1    5    5    0    0  0.28963990417E+03  0.79114616143E+02  0.86127371553E+02  0.31235928145E+03  0.00000000000E+00 0. -1.
        -11    1    5    5    0    0  0.50096942811E+02 -0.17217517155E+02  0.41227499122E+02  0.67125652770E+02  0.00000000000E+00 0.  1.
          4    1    6    6  503    0 -0.39423588416E+03  0.33489968619E+02  0.13467744503E+02  0.39588494604E+03  0.00000000000E+00 0. -1.
         -4    1    6    6    0  503 -0.13115921916E+03  0.54827240131E+02 -0.29530706993E+02  0.14519238853E+03  0.00000000000E+00 0.  1.
<mgrwt>
<rscale>  0 0.13734373E+04</rscale>
<asrwt>0</asrwt>
<pdfrwt beam="1">  1        1 0.16789650E+00 0.13734373E+04</pdfrwt>
<pdfrwt beam="2">  1       -2 0.66479739E-01 0.13734373E+04</pdfrwt>
<totfact> 0.22934311E+01</totfact>
</mgrwt>
</event>
<event>
12    4  0.4381187E-008  0.2019295E+04  0.7818608E-02  0.8597652E-01
         -2   -1    0    0    0  501 -0.00000000000E+00  0.00000000000E+00  0.20823717172E+04  0.20823717172E+04  0.00000000000E+00 0.  1.
          1   -1    0    0  501    0  0.00000000000E+00 -0.00000000000E+00 -0.48953215762E+03  0.48953215762E+03  0.00000000000E+00 0. -1.
        -24    2    1    2    0    0  0.29315150360E+03 -0.71744432919E+03  0.35400607062E+03  0.85592745003E+03  0.81408427903E+02 0.  0.
        254    2    1    2    0    0 -0.29315150360E+03  0.71744432919E+03  0.12388334890E+04  0.17159764248E+04  0.89955683950E+03 0.  0.
         23    2    4    4    0    0 -0.36657987089E+02 -0.12862792655E+03 -0.32362057607E+02  0.16482599924E+03  0.90726819336E+02 0.  0.
         23    2    4    4    0    0 -0.25649351651E+03  0.84607225574E+03  0.12711955466E+04  0.15511504256E+04  0.92208129182E+02 0.  0.
          1    1    3    3  502    0  0.15396960993E+03 -0.32443763527E+03  0.20284047496E+03  0.41244475780E+03  0.00000000000E+00 0. -1.
         -2    1    3    3    0  502  0.13918189367E+03 -0.39300669392E+03  0.15116559566E+03  0.44348269223E+03  0.00000000000E+00 0.  1.
         11    1    5    5    0    0 -0.21719850595E+01 -0.58771429092E+02  0.29079133103E+02  0.65607883510E+02  0.00000000000E+00 0. -1.
        -11    1    5    5    0    0 -0.34486002030E+02 -0.69856497460E+02 -0.61441190710E+02  0.99218115731E+02  0.00000000000E+00 0.  1.
          3    1    6    6  503    0 -0.55145688533E+02  0.25555570431E+03  0.31418778853E+03  0.40873430420E+03  0.00000000000E+00 0. -1.
         -3    1    6    6    0  503 -0.20134782798E+03  0.59051655143E+03  0.95700775806E+03  0.11424161214E+04  0.00000000000E+00 0.  1.
<mgrwt>
<rscale>  0 0.20192948E+04</rscale>
<asrwt>0</asrwt>
<pdfrwt beam="1">  1        1 0.75312641E-01 0.20192948E+04</pdfrwt>
<pdfrwt beam="2">  1       -2 0.32036487E+00 0.20192948E+04</pdfrwt>
<totfact> 0.88261912E-01</totfact>
</mgrwt>
</event>
<event>
12    4  0.4381187E-008  0.1335119E+04  0.7818608E-02  0.9002170E-01
         -2   -1    0    0    0  501 -0.00000000000E+00  0.00000000000E+00  0.50588169699E+03  0.50588169699E+03  0.00000000000E+00 0.  1.
          1   -1    0    0  501    0  0.00000000000E+00 -0.00000000000E+00 -0.88090861472E+03  0.88090861472E+03  0.00000000000E+00 0. -1.
        -24    2    1    2    0    0  0.14207598863E+03 -0.71631362100E+02 -0.43169945019E+03  0.46802746944E+03  0.85840889284E+02 0.  0.
        254    2    1    2    0    0 -0.14207598863E+03  0.71631362100E+02  0.56672532461E+02  0.91876284227E+03  0.90310395073E+03 0.  0.
         23    2    4    4    0    0 -0.20454290817E+03  0.45790080192E+03  0.84488623099E+02  0.51659727512E+03  0.90683358698E+02 0.  0.
         23    2    4    4    0    0  0.62466919544E+02 -0.38626943982E+03 -0.27816090637E+02  0.40216556715E+03  0.88640917900E+02 0.  0.
          3    1    3    3  502    0  0.11893624093E+03 -0.20205919957E+02 -0.24659194199E+03  0.27452084522E+03  0.00000000000E+00 0. -1.
         -4    1    3    3    0  502  0.23139747702E+02 -0.51425442143E+02 -0.18510750821E+03  0.19350662422E+03  0.00000000000E+00 0.  1.
         11    1    5    5    0    0 -0.11137240496E+03  0.32462286496E+03  0.27545039425E+02  0.34430008167E+03  0.00000000000E+00 0.  1.
        -11    1    5    5    0    0 -0.93170503209E+02  0.13327793696E+03  0.56943583674E+02  0.17229719345E+03  0.00000000000E+00 0. -1.
          1    1    6    6  503    0  0.55392713896E+02 -0.28601444074E+03 -0.58371380525E+02  0.29711922040E+03  0.00000000000E+00 0. -1.
         -1    1    6    6    0  503  0.70742056487E+01 -0.10025499908E+03  0.30555289888E+02  0.10504634676E+03  0.00000000000E+00 0.  1.
<mgrwt>
<rscale>  0 0.13351188E+04</rscale>
<asrwt>0</asrwt>
<pdfrwt beam="1">  1        1 0.13552440E+00 0.13351188E+04</pdfrwt>
<pdfrwt beam="2">  1       -2 0.77827953E-01 0.13351188E+04</pdfrwt>
<totfact> 0.23829779E+01</totfact>
</mgrwt>
</event>
<event>
12    4  0.4381187E-008  0.1314772E+04  0.7818608E-02  0.9017932E-01
         -2   -1    0    0    0  501 -0.00000000000E+00  0.00000000000E+00  0.89541665629E+03  0.89541665629E+03  0.00000000000E+00 0.  1.
          1   -1    0    0  501    0  0.00000000000E+00 -0.00000000000E+00 -0.48263179345E+03  0.48263179345E+03  0.00000000000E+00 0. -1.
        -24    2    1    2    0    0 -0.25158573582E+03 -0.35437106035E+01 -0.12962913973E+03  0.29474983590E+03  0.82254553330E+02 0.  0.
        254    2    1    2    0    0  0.25158573582E+03  0.35437106035E+01  0.54241400257E+03  0.10832986138E+04  0.90333548374E+03 0.  0.
         23    2    4    4    0    0  0.56037318061E+03 -0.13012950146E+03  0.27629821930E+03  0.64451024035E+03  0.90005306671E+02 0.  0.
         23    2    4    4    0    0 -0.30878744479E+03  0.13367321206E+03  0.26611578327E+03  0.43878837348E+03  0.92192260611E+02 0.  0.
          3    1    3    3  502    0 -0.25328943370E+03  0.61425537257E+01 -0.13027357577E+03  0.28489379202E+03  0.00000000000E+00 0. -1.
         -4    1    3    3    0  502  0.17036978743E+01 -0.96862643292E+01  0.64443604720E+00  0.98560438778E+01  0.00000000000E+00 0.  1.
         11    1    5    5    0    0  0.26270023913E+03 -0.10694053747E+03  0.12945023203E+03  0.31177725505E+03  0.00000000000E+00 0. -1.
        -11    1    5    5    0    0  0.29767294148E+03 -0.23188963983E+02  0.14684798728E+03  0.33273298530E+03  0.00000000000E+00 0.  1.
          1    1    6    6  503    0 -0.27582087057E+03  0.82333986095E+02  0.22138876867E+03  0.36313774908E+03  0.00000000000E+00 0.  1.
         -1    1    6    6    0  503 -0.32966574214E+02  0.51339225964E+02  0.44727014590E+02  0.75650624400E+02  0.00000000000E+00 0. -1.
<mgrwt>
<rscale>  0 0.13147723E+04</rscale>
<asrwt>0</asrwt>
<pdfrwt beam="1">  1        1 0.74251045E-01 0.13147723E+04</pdfrwt>
<pdfrwt beam="2">  1       -2 0.13775641E+00 0.13147723E+04</pdfrwt>
<totfact> 0.14946586E+01</totfact>
</mgrwt>
</event>
<event>
12    4  0.4381187E-008  0.2163725E+04  0.7818608E-02  0.8533680E-01
         -2   -1    0    0    0  501 -0.00000000000E+00  0.00000000000E+00  0.59353864493E+03  0.59353864493E+03  0.00000000000E+00 0.  1.
          1   -1    0    0  501    0  0.00000000000E+00 -0.00000000000E+00 -0.19719464103E+04  0.19719464103E+04  0.00000000000E+00 0. -1.
        -24    2    1    2    0    0 -0.84195730453E+03 -0.21465679404E+03 -0.36133112576E+03  0.94350605208E+03  0.68365532188E+02 0.  0.
        254    2    1    2    0    0  0.84195730453E+03  0.21465679404E+03 -0.10170766396E+04  0.16219790032E+04  0.91727932170E+03 0.  0.
         23    2    4    4    0    0  0.72897598808E+03  0.42054064096E+03 -0.10714304867E+04  0.13656765750E+04  0.94068048346E+02 0.  0.
         23    2    4    4    0    0  0.11298131645E+03 -0.20588384692E+03  0.54353847073E+02  0.25630242820E+03  0.87084199022E+02 0.  0.
          3    1    3    3  502    0 -0.37185123173E+03 -0.12238524375E+03 -0.18529433130E+03  0.43311138941E+03  0.00000000000E+00 0. -1.
         -4    1    3    3    0  502 -0.47010607280E+03 -0.92271550289E+02 -0.17603679446E+03  0.51039466267E+03  0.00000000000E+00 0.  1.
         11    1    5    5    0    0  0.31340786256E+03  0.12814627505E+03 -0.43894530225E+03  0.55436354001E+03  0.00000000000E+00 0. -1.
        -11    1    5    5    0    0  0.41556812552E+03  0.29239436591E+03 -0.63248518445E+03  0.81131303497E+03  0.00000000000E+00 0.  1.
          2    1    6    6  503    0  0.21715382573E+02 -0.13095614396E+02 -0.17964015584E+02  0.31076660255E+02  0.00000000000E+00 0.  1.
         -2    1    6    6    0  503  0.91265933872E+02 -0.19278823253E+03  0.72317862657E+02  0.22522576794E+03  0.00000000000E+00 0. -1.
<mgrwt>
<rscale>  0 0.21637249E+04</rscale>
<asrwt>0</asrwt>
<pdfrwt beam="1">  1        1 0.30337637E+00 0.21637249E+04</pdfrwt>
<pdfrwt beam="2">  1       -2 0.91313638E-01 0.21637249E+04</pdfrwt>
<totfact> 0.25561392E+00</totfact>
</mgrwt>
</event>
<event>
12    4  0.4381187E-008  0.1292047E+04  0.7818608E-02  0.9035896E-01
         -2   -1    0    0    0  501 -0.00000000000E+00  0.00000000000E+00  0.35884447924E+03  0.35884447924E+03  0.00000000000E+00 0.  1.
          1   -1    0    0  501    0  0.00000000000E+00 -0.00000000000E+00 -0.11630276817E+04  0.11630276817E+04  0.00000000000E+00 0. -1.
        -24    2    1    2    0    0  0.22690984949E+02 -0.12469942626E+03  0.15237935975E+03  0.21397646991E+03  0.80632702372E+02 0.  0.
        254    2    1    2    0    0 -0.22690984949E+02  0.12469942626E+03 -0.95656256225E+03  0.13078956911E+04  0.88290111311E+03 0.  0.
         23    2    4    4    0    0 -0.19757580557E+03 -0.33124304865E+03 -0.42699860603E+03  0.58245600528E+03  0.90382699198E+02 0.  0.
         23    2    4    4    0    0  0.17488482062E+03  0.45594247491E+03 -0.52956395622E+03  0.72543968579E+03  0.85770117695E+02 0.  0.
          3    1    3    3  502    0  0.10596102453E+01 -0.67307138313E+02  0.13398434673E+03  0.14994391888E+03  0.00000000000E+00 0. -1.
         -4    1    3    3    0  502  0.21631374703E+02 -0.57392287946E+02  0.18395013017E+02  0.64032551028E+02  0.00000000000E+00 0.  1.
         11    1    5    5    0    0 -0.17140755190E+03 -0.27165467967E+03 -0.39733780362E+03  0.51093457901E+03  0.00000000000E+00 0.  1.
        -11    1    5    5    0    0 -0.26168253670E+02 -0.59588368976E+02 -0.29660802409E+02  0.71521426278E+02  0.00000000000E+00 0. -1.
          3    1    6    6  503    0  0.24767358742E+02  0.49450991938E+02 -0.10561192423E+03  0.11921703402E+03  0.00000000000E+00 0. -1.
         -3    1    6    6    0  503  0.15011746187E+03  0.40649148297E+03 -0.42395203199E+03  0.60622265177E+03  0.00000000000E+00 0.  1.
<mgrwt>
<rscale>  0 0.12920465E+04</rscale>
<asrwt>0</asrwt>
<pdfrwt beam="1">  1        1 0.17892734E+00 0.12920465E+04</pdfrwt>
<pdfrwt beam="2">  1       -2 0.55206842E-01 0.12920465E+04</pdfrwt>
<totfact> 0.30255461E+01</totfact>
</mgrwt>
</event>
<event>
12    4  0.4381187E-008  0.1517898E+04  0.7818608E-02  0.8872637E-01
          1   -1    0    0  501    0  0.00000000000E+00  0.00000000000E+00  0.69199705206E+03  0.69199705206E+03  0.00000000000E+00 0. -1.
         -2   -1    0    0    0  501 -0.00000000000E+00 -0.00000000000E+00 -0.83237907419E+03  0.83237907419E+03  0.00000000000E+00 0.  1.
        -24    2    1    2    0    0  0.14482143762E+03 -0.33288261080E+03 -0.36029405638E+03  0.51769344726E+03  0.80066328199E+02 0.  0.
        254    2    1    2    0    0 -0.14482143762E+03  0.33288261080E+03  0.21991203425E+03  0.10066826790E+04  0.91283329913E+03 0.  0.
         23    2    4    4    0    0 -0.31223836830E+03  0.52611607018E+03 -0.54582176462E+02  0.62052535526E+03  0.88213290351E+02 0.  0.
         23    2    4    4    0    0  0.16741693068E+03 -0.19323345939E+03  0.27449421071E+03  0.38615732372E+03  0.91666833951E+02 0.  0.
          1    1    3    3  502    0 -0.59907967387E+01 -0.51562472182E+02 -0.61407056623E+02  0.80407740835E+02  0.00000000000E+00 0. -1.
         -2    1    3    3    0  502  0.15081223436E+03 -0.28132013861E+03 -0.29888699975E+03  0.43728570643E+03  0.00000000000E+00 0.  1.
         11    1    5    5    0    0 -0.10593633461E+03  0.16418810520E+03  0.23066901576E+02  0.19675447346E+03  0.00000000000E+00 0. -1.
        -11    1    5    5    0    0 -0.20630203369E+03  0.36192796498E+03 -0.77649078038E+02  0.42377088180E+03  0.00000000000E+00 0.  1.
          3    1    6    6  503    0  0.10825246014E+03 -0.13530046115E+03  0.11968174159E+03  0.21059090479E+03  0.00000000000E+00 0. -1.
         -3    1    6    6    0  503  0.59164470540E+02 -0.57932998241E+02  0.15481246913E+03  0.17556641893E+03  0.00000000000E+00 0.  1.
<mgrwt>
<rscale>  0 0.15178984E+04</rscale>
<asrwt>0</asrwt>
<pdfrwt beam="1">  1        1 0.10646109E+00 0.15178984E+04</pdfrwt>
<pdfrwt beam="2">  1       -2 0.12805832E+00 0.15178984E+04</pdfrwt>
<totfact> 0.10575446E+01</totfact>
</mgrwt>
</event>
<event>
12    4  0.4381187E-008  0.1444912E+04  0.7818608E-02  0.8921935E-01
          1   -1    0    0  501    0  0.00000000000E+00  0.00000000000E+00  0.80100652703E+03  0.80100652703E+03  0.00000000000E+00 0. -1.
         -2   -1    0    0    0  501 -0.00000000000E+00 -0.00000000000E+00 -0.65160876979E+03  0.65160876979E+03  0.00000000000E+00 0.  1.
        -24    2    1    2    0    0  0.31067227843E+03  0.27799244766E+03 -0.75094569780E+02  0.43599281589E+03  0.10321567495E+03 0.  0.
        254    2    1    2    0    0 -0.31067227843E+03 -0.27799244766E+03  0.22449232702E+03  0.10166224809E+04  0.89962625479E+03 0.  0.
         23    2    4    4    0    0  0.11444111757E+03 -0.31043834758E+03 -0.20855011627E+03  0.40179192098E+03  0.92059001350E+02 0.  0.
         23    2    4    4    0    0 -0.42511339600E+03  0.32445899925E+02  0.43304244328E+03  0.61483055995E+03  0.93363396929E+02 0.  0.
          3    1    3    3  502    0  0.20152243502E+03  0.18349681142E+03 -0.98370687737E+02  0.28975707727E+03  0.00000000000E+00 0. -1.
         -2    1    3    3    0  502  0.10914984341E+03  0.94495636237E+02  0.23276117957E+02  0.14623573862E+03  0.00000000000E+00 0.  1.
         11    1    5    5    0    0  0.36793311825E+02 -0.12042367913E+03 -0.13276469148E+03  0.18298107442E+03  0.00000000000E+00 0. -1.
        -11    1    5    5    0    0  0.77647805744E+02 -0.19001466845E+03 -0.75785424783E+02  0.21881084656E+03  0.00000000000E+00 0.  1.
          1    1    6    6  503    0 -0.38620560330E+03  0.40220870449E+02  0.34982174012E+03  0.52263537605E+03  0.00000000000E+00 0. -1.
         -1    1    6    6    0  503 -0.38907792699E+02 -0.77749705238E+01  0.83220703165E+02  0.92195183901E+02  0.00000000000E+00 0.  1.
<mgrwt>
<rscale>  0 0.14449123E+04</rscale>
<asrwt>0</asrwt>
<pdfrwt beam="1">  1        1 0.12323177E+00 0.14449123E+04</pdfrwt>
<pdfrwt beam="2">  1       -2 0.10024750E+00 0.14449123E+04</pdfrwt>
<totfact> 0.15423105E+01</totfact>
</mgrwt>
</event>
<event>
12    4  0.4381187E-008  0.1630032E+04  0.7818608E-02  0.8802308E-01
          1   -1    0    0  501    0  0.00000000000E+00  0.00000000000E+00  0.10467335382E+04  0.10467335382E+04  0.00000000000E+00 0. -1.
         -2   -1    0    0    0  501 -0.00000000000E+00 -0.00000000000E+00 -0.63459397700E+03  0.63459397700E+03  0.00000000000E+00 0.  1.
        -24    2    1    2    0    0 -0.80655479800E+02  0.54330870576E+03  0.28767826618E+03  0.62380860216E+03  0.68474309955E+02 0.  0.
        254    2    1    2    0    0  0.80655479800E+02 -0.54330870576E+03  0.12446129502E+03  0.10575189130E+04  0.89507875703E+03 0.  0.
         23    2    4    4    0    0 -0.16261863569E+02  0.22739982250E+03 -0.61799164135E+02  0.25381757494E+03  0.92892933974E+02 0.  0.
         23    2    4    4    0    0  0.96917343369E+02 -0.77070852826E+03  0.18626045915E+03  0.80370133809E+03  0.88646913239E+02 0.  0.
          3    1    3    3  502    0 -0.37904521705E+02  0.40807651838E+03  0.23556117427E+03  0.47270737718E+03  0.00000000000E+00 0. -1.
         -4    1    3    3    0  502 -0.42750958095E+02  0.13523218738E+03  0.52117091911E+02  0.15110122498E+03  0.00000000000E+00 0.  1.
         11    1    5    5    0    0 -0.46705498526E+02  0.94264111088E+02 -0.33223073218E+01  0.10525285724E+03  0.00000000000E+00 0.  1.
        -11    1    5    5    0    0  0.30443634957E+02  0.13313571141E+03 -0.58476856813E+02  0.14856471770E+03  0.00000000000E+00 0. -1.
          3    1    6    6  503    0  0.89042081213E+02 -0.76849904557E+03  0.18420839101E+03  0.79526851226E+03  0.00000000000E+00 0. -1.
         -3    1    6    6    0  503  0.78752621566E+01 -0.22094826821E+01  0.20520681428E+01  0.84328258265E+01  0.00000000000E+00 0.  1.
<mgrwt>
<rscale>  0 0.16300317E+04</rscale>
<asrwt>0</asrwt>
<pdfrwt beam="1">  1        1 0.16103593E+00 0.16300317E+04</pdfrwt>
<pdfrwt beam="2">  1       -2 0.97629842E-01 0.16300317E+04</pdfrwt>
<totfact> 0.10211456E+01</totfact>
</mgrwt>
</event>
<event>
12    4  0.4381187E-008  0.1440967E+04  0.7818608E-02  0.8924687E-01
         -2   -1    0    0    0  501 -0.00000000000E+00  0.00000000000E+00  0.57724769962E+03  0.57724769962E+03  0.00000000000E+00 0.  1.
          1   -1    0    0  501    0  0.00000000000E+00 -0.00000000000E+00 -0.89926147545E+03  0.89926147545E+03  0.00000000000E+00 0. -1.
        -24    2    1    2    0    0  0.85972788680E+02 -0.10635415563E+03  0.31937422912E+03  0.35628047798E+03  0.78951592438E+02 0.  0.
        254    2    1    2    0    0 -0.85972788680E+02  0.10635415563E+03 -0.64138800495E+03  0.11202286971E+04  0.90820219889E+03 0.  0.
         23    2    4    4    0    0 -0.26967893038E+03 -0.67578342337E+02 -0.76960612578E+03  0.82352397189E+03  0.92760905584E+02 0.  0.
         23    2    4    4    0    0  0.18370614170E+03  0.17393249797E+03  0.12821812083E+03  0.29670472520E+03  0.87139813516E+02 0.  0.
          3    1    3    3  502    0  0.37849475251E+02  0.23666656786E+01  0.96329119581E+02  0.10352527789E+03  0.00000000000E+00 0. -1.
         -4    1    3    3    0  502  0.48123313429E+02 -0.10872082131E+03  0.22304510954E+03  0.25275520008E+03  0.00000000000E+00 0.  1.
         11    1    5    5    0    0 -0.41888715120E+02 -0.81038314764E+01 -0.46731994067E+02  0.63278873319E+02  0.00000000000E+00 0. -1.
        -11    1    5    5    0    0 -0.22779021526E+03 -0.59474510861E+02 -0.72287413171E+03  0.76024509857E+03  0.00000000000E+00 0.  1.
          1    1    6    6  503    0  0.22425496671E+02  0.64991020229E+02  0.11340345169E+02  0.69680262915E+02  0.00000000000E+00 0. -1.
         -1    1    6    6    0  503  0.16128064503E+03  0.10894147774E+03  0.11687777566E+03  0.22702446228E+03  0.00000000000E+00 0.  1.
<mgrwt>
<rscale>  0 0.14409672E+04</rscale>
<asrwt>0</asrwt>
<pdfrwt beam="1">  1        1 0.13834792E+00 0.14409672E+04</pdfrwt>
<pdfrwt beam="2">  1       -2 0.88807338E-01 0.14409672E+04</pdfrwt>
<totfact> 0.16916734E+01</totfact>
</mgrwt>
</event>
<event>
12    4  0.4381187E-008  0.1361510E+04  0.7818608E-02  0.8982161E-01
          1   -1    0    0  501    0  0.00000000000E+00  0.00000000000E+00  0.13192334061E+04  0.13192334061E+04  0.00000000000E+00 0. -1.
         -2   -1    0    0    0  501 -0.00000000000E+00 -0.00000000000E+00 -0.35128523321E+03  0.35128523321E+03  0.00000000000E+00 0.  1.
        -24    2    1    2    0    0 -0.18242060196E+03 -0.12585453579E+03 -0.10005651080E+03  0.25589502832E+03  0.79713988542E+02 0.  0.
        254    2    1    2    0    0  0.18242060196E+03  0.12585453579E+03  0.10680046837E+04  0.14146236110E+04  0.90078261317E+03 0.  0.
         23    2    4    4    0    0  0.89696210759E+02  0.29992241962E+03  0.15466891781E+01  0.32636983838E+03  0.92282236333E+02 0.  0.
         23    2    4    4    0    0  0.92724391200E+02 -0.17406788383E+03  0.10664579945E+04  0.10882537726E+04  0.89811907035E+02 0.  0.
          1    1    3    3  502    0 -0.12409184358E+03 -0.86258631573E+02 -0.25460413367E+02  0.15325654900E+03  0.00000000000E+00 0. -1.
         -2    1    3    3    0  502 -0.58328758379E+02 -0.39595904217E+02 -0.74596097431E+02  0.10263847932E+03  0.00000000000E+00 0.  1.
         11    1    5    5    0    0  0.83564353269E+02  0.29168215162E+03  0.21239978120E+02  0.30415886536E+03  0.00000000000E+00 0.  1.
        -11    1    5    5    0    0  0.61318574899E+01  0.82402680031E+01 -0.19693288942E+02  0.22210973017E+02  0.00000000000E+00 0. -1.
          1    1    6    6  503    0  0.41547661028E+02 -0.15235337887E+02  0.34048028144E+03  0.34334406316E+03  0.00000000000E+00 0. -1.
         -1    1    6    6    0  503  0.51176730172E+02 -0.15883254594E+03  0.72597771305E+03  0.74490970943E+03  0.00000000000E+00 0.  1.
<mgrwt>
<rscale>  0 0.13615098E+04</rscale>
<asrwt>0</asrwt>
<pdfrwt beam="1">  1        1 0.20295898E+00 0.13615098E+04</pdfrwt>
<pdfrwt beam="2">  1       -2 0.54043882E-01 0.13615098E+04</pdfrwt>
<totfact> 0.24240994E+01</totfact>
</mgrwt>
</event>
<event>
12    4  0.4381187E-008  0.1345844E+04  0.7818608E-02  0.8993980E-01
         -2   -1    0    0    0  501 -0.00000000000E+00  0.00000000000E+00  0.60089201222E+03  0.60089201222E+03  0.00000000000E+00 0.  1.
          1   -1    0    0  501    0  0.00000000000E+00 -0.00000000000E+00 -0.75358615740E+03  0.75358615740E+03  0.00000000000E+00 0. -1.
        -24    2    1    2    0    0  0.26424165127E+03  0.15343808089E+03 -0.23451097052E+03  0.39345968643E+03  0.80300900483E+02 0.  0.
        254    2    1    2    0    0 -0.26424165127E+03 -0.15343808089E+03  0.81816825343E+02  0.96101848318E+03  0.90746660389E+03 0.  0.
         23    2    4    4    0    0 -0.38130947619E+03 -0.41333952193E+03  0.24432489365E+03  0.62010805683E+03  0.92697742514E+02 0.  0.
         23    2    4    4    0    0  0.11706782492E+03  0.25990144104E+03 -0.16250806830E+03  0.34091042636E+03  0.92506280059E+02 0.  0.
          1    1    3    3  502    0  0.19363829464E+03  0.13894915575E+03 -0.20903611537E+03  0.31701538538E+03  0.00000000000E+00 0. -1.
         -2    1    3    3    0  502  0.70603356632E+02  0.14488925142E+02 -0.25474855151E+02  0.76444301059E+02  0.00000000000E+00 0.  1.
         11    1    5    5    0    0 -0.37007486565E+03 -0.36754642273E+03  0.23485079313E+03  0.57201457506E+03  0.00000000000E+00 0.  1.
        -11    1    5    5    0    0 -0.11234610542E+02 -0.45793099193E+02  0.94741005171E+01  0.48093481765E+02  0.00000000000E+00 0. -1.
          1    1    6    6  503    0 -0.14107209376E+02  0.51825611876E+02 -0.29486829294E+02  0.61272999800E+02  0.00000000000E+00 0. -1.
         -1    1    6    6    0  503  0.13117503429E+03  0.20807582916E+03 -0.13302123901E+03  0.27963742656E+03  0.00000000000E+00 0.  1.
<mgrwt>
<rscale>  0 0.13458438E+04</rscale>
<asrwt>0</asrwt>
<pdfrwt beam="1">  1        1 0.11593633E+00 0.13458438E+04</pdfrwt>
<pdfrwt beam="2">  1       -2 0.92444925E-01 0.13458438E+04</pdfrwt>
<totfact> 0.20709163E+01</totfact>
</mgrwt>
</event>
<event>
12    4  0.4381187E-008  0.2027489E+04  0.7818608E-02  0.8593875E-01
         -2   -1    0    0    0  501 -0.00000000000E+00  0.00000000000E+00  0.17531018387E+04  0.17531018387E+04  0.00000000000E+00 0.  1.
          1   -1    0    0  501    0  0.00000000000E+00 -0.00000000000E+00 -0.58620572205E+03  0.58620572205E+03  0.00000000000E+00 0. -1.
        -24    2    1    2    0    0 -0.74947278915E+02 -0.23818781913E+03  0.13484764639E+04  0.13737995993E+04  0.81154380531E+02 0.  0.
        254    2    1    2    0    0  0.74947278915E+02  0.23818781913E+03 -0.18158034722E+03  0.96550796151E+03  0.91481346155E+03 0.  0.
         23    2    4    4    0    0  0.18000727532E+03 -0.22162462302E+03  0.19298787353E+03  0.35627363065E+03  0.90368622154E+02 0.  0.
         23    2    4    4    0    0 -0.10505999641E+03  0.45981244215E+03 -0.37456822074E+03  0.60923433086E+03  0.91651694541E+02 0.  0.
          3    1    3    3  502    0 -0.16841725257E+02 -0.18518600945E+02  0.53844762621E+02  0.59378790425E+02  0.00000000000E+00 0. -1.
         -4    1    3    3    0  502 -0.58105553658E+02 -0.21966921818E+03  0.12946317013E+04  0.13144208089E+04  0.00000000000E+00 0.  1.
         11    1    5    5    0    0  0.17077925724E+03 -0.21829080715E+03  0.20199429105E+03  0.34295498948E+03  0.00000000000E+00 0. -1.
        -11    1    5    5    0    0  0.92280180793E+01 -0.33338158667E+01 -0.90064175264E+01  0.13318641168E+02  0.00000000000E+00 0.  1.
          1    1    6    6  503    0 -0.40281586128E+02  0.23776480414E+03 -0.24649760818E+03  0.34484167252E+03  0.00000000000E+00 0. -1.
         -1    1    6    6    0  503 -0.64778410281E+02  0.22204763801E+03 -0.12807061257E+03  0.26439265834E+03  0.00000000000E+00 0.  1.
<mgrwt>
<rscale>  0 0.20274894E+04</rscale>
<asrwt>0</asrwt>
<pdfrwt beam="1">  1        1 0.90185497E-01 0.20274894E+04</pdfrwt>
<pdfrwt beam="2">  1       -2 0.26970797E+00 0.20274894E+04</pdfrwt>
<totfact> 0.13971505E+00</totfact>
</mgrwt>
</event>
<event>
12    4  0.4381187E-008  0.1915509E+04  0.7818608E-02  0.8647175E-01
         -2   -1    0    0    0  501 -0.00000000000E+00  0.00000000000E+00  0.96384814061E+03  0.96384814061E+03  0.00000000000E+00 0.  1.
          1   -1    0    0  501    0  0.00000000000E+00 -0.00000000000E+00 -0.95169922104E+03  0.95169922104E+03  0.00000000000E+00 0. -1.
        -24    2    1    2    0    0  0.62267143006E+03  0.39136213601E+03  0.95046709225E+02  0.74705293716E+03  0.90389062818E+02 0.  0.
        254    2    1    2    0    0 -0.62267143006E+03 -0.39136213601E+03 -0.82897789661E+02  0.11684944245E+04  0.90422516290E+03 0.  0.
         23    2    4    4    0    0  0.67922762848E+02 -0.12952701605E+03  0.28994968447E+03  0.33695562248E+03  0.89875037702E+02 0.  0.
         23    2    4    4    0    0 -0.69059419291E+03 -0.26183511996E+03 -0.37284747413E+03  0.83153880200E+03  0.83448013449E+02 0.  0.
          3    1    3    3  502    0  0.40031366678E+02  0.32672237029E+02 -0.15577270828E+02  0.53968849877E+02  0.00000000000E+00 0. -1.
         -4    1    3    3    0  502  0.58264006338E+03  0.35868989898E+03  0.11062398005E+03  0.69308408729E+03  0.00000000000E+00 0.  1.
         11    1    5    5    0    0  0.88195877389E+02 -0.96767815942E+02  0.24471371637E+03  0.27753797213E+03  0.00000000000E+00 0.  1.
        -11    1    5    5    0    0 -0.20273114541E+02 -0.32759200105E+02  0.45235968095E+02  0.59417650359E+02  0.00000000000E+00 0. -1.
          2    1    6    6  503    0 -0.29684569630E+03 -0.11174919781E+03 -0.11424292170E+03  0.33713008733E+03  0.00000000000E+00 0.  1.
         -2    1    6    6    0  503 -0.39374849660E+03 -0.15008592215E+03 -0.25860455243E+03  0.49440871467E+03  0.00000000000E+00 0. -1.
<mgrwt>
<rscale>  0 0.19155088E+04</rscale>
<asrwt>0</asrwt>
<pdfrwt beam="1">  1        1 0.14641527E+00 0.19155088E+04</pdfrwt>
<pdfrwt beam="2">  1       -2 0.14828433E+00 0.19155088E+04</pdfrwt>
<totfact> 0.41793124E+00</totfact>
</mgrwt>
</event>
<event>
12    4  0.4381187E-008  0.1734378E+04  0.7818608E-02  0.8741996E-01
         -2   -1    0    0    0  501 -0.00000000000E+00  0.00000000000E+00  0.10180236893E+04  0.10180236893E+04  0.00000000000E+00 0.  1.
          1   -1    0    0  501    0  0.00000000000E+00 -0.00000000000E+00 -0.73870288712E+03  0.73870288712E+03  0.00000000000E+00 0. -1.
        -24    2    1    2    0    0  0.59307369712E+03  0.20566936574E+03  0.91128287335E+01  0.63281052727E+03  0.79560175676E+02 0.  0.
        254    2    1    2    0    0 -0.59307369712E+03 -0.20566936574E+03  0.27020797342E+03  0.11239160491E+04  0.89226601322E+03 0.  0.
         23    2    4    4    0    0  0.58178857219E+02  0.14206791571E+03  0.33240526868E+03  0.37766827455E+03  0.92585046634E+02 0.  0.
         23    2    4    4    0    0 -0.65125255434E+03 -0.34773728145E+03 -0.62197295260E+02  0.74624777456E+03  0.89253185146E+02 0.  0.
          3    1    3    3  502    0  0.46803029217E+03  0.12679017870E+03  0.64967131543E+01  0.48494361640E+03  0.00000000000E+00 0. -1.
         -4    1    3    3    0  502  0.12504340495E+03  0.78879187036E+02  0.26161155792E+01  0.14786691087E+03  0.00000000000E+00 0.  1.
         11    1    5    5    0    0  0.43395888848E+02  0.88306853525E+02  0.10654666813E+03  0.14502929372E+03  0.00000000000E+00 0. -1.
        -11    1    5    5    0    0  0.14782968371E+02  0.53761062181E+02  0.22585860055E+03  0.23263898083E+03  0.00000000000E+00 0.  1.
          2    1    6    6  503    0 -0.53209040423E+03 -0.24332996936E+03 -0.54661611358E+02  0.58763727249E+03  0.00000000000E+00 0. -1.
         -2    1    6    6    0  503 -0.11916215011E+03 -0.10440731208E+03 -0.75356839016E+01  0.15861050207E+03  0.00000000000E+00 0.  1.
<mgrwt>
<rscale>  0 0.17343783E+04</rscale>
<asrwt>0</asrwt>
<pdfrwt beam="1">  1        1 0.11364660E+00 0.17343783E+04</pdfrwt>
<pdfrwt beam="2">  1       -2 0.15661903E+00 0.17343783E+04</pdfrwt>
<totfact> 0.55602943E+00</totfact>
</mgrwt>
</event>
<event>
12    4  0.4381187E-008  0.1142408E+04  0.7818608E-02  0.9164816E-01
          1   -1    0    0  501    0  0.00000000000E+00  0.00000000000E+00  0.49077512721E+03  0.49077512721E+03  0.00000000000E+00 0. -1.
         -2   -1    0    0    0  501 -0.00000000000E+00 -0.00000000000E+00 -0.66481327606E+03  0.66481327606E+03  0.00000000000E+00 0.  1.
        -24    2    1    2    0    0  0.19746962670E+03 -0.75543642960E+02 -0.80742250610E+02  0.23973098262E+03  0.79060341103E+02 0.  0.
        254    2    1    2    0    0 -0.19746962670E+03  0.75543642960E+02 -0.93295898241E+02  0.91585742064E+03  0.88622209116E+03 0.  0.
         23    2    4    4    0    0  0.10143908902E+03 -0.13435128073E+03  0.31035789208E+03  0.36393462095E+03  0.88239626776E+02 0.  0.
         23    2    4    4    0    0 -0.29890871572E+03  0.20989492369E+03 -0.40365379032E+03  0.55192279969E+03  0.90995027614E+02 0.  0.
          1    1    3    3  502    0  0.44976486734E+02 -0.34816337472E+02  0.98772746753E+01  0.57728868592E+02  0.00000000000E+00 0. -1.
         -2    1    3    3    0  502  0.15249313997E+03 -0.40727305488E+02 -0.90619525285E+02  0.18200211403E+03  0.00000000000E+00 0.  1.
         11    1    5    5    0    0  0.90554949362E+02 -0.88212927789E+02  0.28112314988E+03  0.30824007670E+03  0.00000000000E+00 0.  1.
        -11    1    5    5    0    0  0.10884139660E+02 -0.46138352939E+02  0.29234742202E+02  0.55694544254E+02  0.00000000000E+00 0. -1.
          1    1    6    6  503    0 -0.15373091726E+03  0.60431295644E+02 -0.14511810639E+03  0.21987360282E+03  0.00000000000E+00 0. -1.
         -1    1    6    6    0  503 -0.14517779846E+03  0.14946362804E+03 -0.25853568394E+03  0.33204919687E+03  0.00000000000E+00 0.  1.
<mgrwt>
<rscale>  0 0.11424077E+04</rscale>
<asrwt>0</asrwt>
<pdfrwt beam="1">  1        1 0.75503865E-01 0.11424077E+04</pdfrwt>
<pdfrwt beam="2">  1       -2 0.10227897E+00 0.11424077E+04</pdfrwt>
<totfact> 0.30936075E+01</totfact>
</mgrwt>
</event>
<event>
12    4  0.4381187E-008  0.1894122E+04  0.7818608E-02  0.8657788E-01
          1   -1    0    0  501    0  0.00000000000E+00  0.00000000000E+00  0.15787555916E+04  0.15787555916E+04  0.00000000000E+00 0. -1.
         -2   -1    0    0    0  501 -0.00000000000E+00 -0.00000000000E+00 -0.56812137919E+03  0.56812137919E+03  0.00000000000E+00 0.  1.
        -24    2    1    2    0    0  0.59578806890E+03 -0.31188098941E+03  0.61517753930E+02  0.67990994262E+03  0.79119665236E+02 0.  0.
        254    2    1    2    0    0 -0.59578806890E+03  0.31188098941E+03  0.94911645852E+03  0.14669670282E+04  0.89383277823E+03 0.  0.
         23    2    4    4    0    0 -0.41097352596E+03 -0.22947321372E+03  0.66989572883E+03  0.82390878117E+03  0.92239890084E+02 0.  0.
         23    2    4    4    0    0 -0.18481454294E+03  0.54135420313E+03  0.27922072969E+03  0.64305824705E+03  0.91317603317E+02 0.  0.
          1    1    3    3  502    0  0.49863151047E+02 -0.16893752578E+02 -0.14854193929E+02  0.54702648801E+02  0.00000000000E+00 0. -1.
         -2    1    3    3    0  502  0.54592491785E+03 -0.29498723683E+03  0.76371947859E+02  0.62520729382E+03  0.00000000000E+00 0.  1.
         11    1    5    5    0    0 -0.37171905356E+03 -0.22819783187E+03  0.57913742035E+03  0.72501686663E+03  0.00000000000E+00 0.  1.
        -11    1    5    5    0    0 -0.39254472395E+02 -0.12753818531E+01  0.90758308482E+02  0.98891914535E+02  0.00000000000E+00 0. -1.
          2    1    6    6  503    0 -0.13234982885E+03  0.41181531994E+03  0.16646913423E+03  0.46348711696E+03  0.00000000000E+00 0.  1.
         -2    1    6    6    0  503 -0.52464714090E+02  0.12953888319E+03  0.11275159545E+03  0.17957113008E+03  0.00000000000E+00 0. -1.
<mgrwt>
<rscale>  0 0.18941223E+04</rscale>
<asrwt>0</asrwt>
<pdfrwt beam="1">  1        1 0.24288547E+00 0.18941223E+04</pdfrwt>
<pdfrwt beam="2">  1       -2 0.87403290E-01 0.18941223E+04</pdfrwt>
<totfact> 0.53603849E+00</totfact>
</mgrwt>
</event>
<event>
12    4  0.4381187E-008  0.1170616E+04  0.7818608E-02  0.9138973E-01
         -2   -1    0    0    0  501 -0.00000000000E+00  0.00000000000E+00  0.51784617378E+03  0.51784617378E+03  0.00000000000E+00 0.  1.
          1   -1    0    0  501    0  0.00000000000E+00 -0.00000000000E+00 -0.66155785207E+03  0.66155785207E+03  0.00000000000E+00 0. -1.
        -24    2    1    2    0    0  0.14562936638E+03  0.18156624841E+03 -0.62807108115E+02  0.25448670593E+03  0.81514021814E+02 0.  0.
        254    2    1    2    0    0 -0.14562936638E+03 -0.18156624841E+03 -0.80904570179E+02  0.92491731992E+03  0.89148880211E+03 0.  0.
         23    2    4    4    0    0  0.23924893998E+03 -0.85876324394E+02  0.27390194804E+03  0.38502144945E+03  0.92760126275E+02 0.  0.
         23    2    4    4    0    0 -0.38487830636E+03 -0.95689924019E+02 -0.35480651822E+03  0.53989587047E+03  0.91170243587E+02 0.  0.
          1    1    3    3  502    0  0.11013700659E+03  0.11739936583E+03 -0.79116654071E+02  0.17936615140E+03  0.00000000000E+00 0. -1.
         -2    1    3    3    0  502  0.35492359796E+02  0.64166882581E+02  0.16309545956E+02  0.75120554533E+02  0.00000000000E+00 0.  1.
         11    1    5    5    0    0 -0.44659904123E+00 -0.77258957324E+01  0.41231668219E+02  0.41951631430E+02  0.00000000000E+00 0. -1.
        -11    1    5    5    0    0  0.23969553902E+03 -0.78150428661E+02  0.23267027982E+03  0.34306981802E+03  0.00000000000E+00 0.  1.
          4    1    6    6  503    0 -0.45998415703E+02  0.11100374488E+02 -0.70179384121E+02  0.84641706721E+02  0.00000000000E+00 0. -1.
         -4    1    6    6    0  503 -0.33887989066E+03 -0.10679029851E+03 -0.28462713409E+03  0.45525416375E+03  0.00000000000E+00 0.  1.
<mgrwt>
<rscale>  0 0.11706156E+04</rscale>
<asrwt>0</asrwt>
<pdfrwt beam="1">  1        1 0.10177813E+00 0.11706156E+04</pdfrwt>
<pdfrwt beam="2">  1       -2 0.79668642E-01 0.11706156E+04</pdfrwt>
<totfact> 0.35954908E+01</totfact>
</mgrwt>
</event>
<event>
12    4  0.4381187E-008  0.3655412E+04  0.7818608E-02  0.8077916E-01
          1   -1    0    0  501    0  0.00000000000E+00  0.00000000000E+00  0.22855004938E+04  0.22855004938E+04  0.00000000000E+00 0. -1.
         -2   -1    0    0    0  501 -0.00000000000E+00 -0.00000000000E+00 -0.14616093885E+04  0.14616093885E+04  0.00000000000E+00 0.  1.
        -24    2    1    2    0    0 -0.55087849698E+03 -0.12290846129E+04 -0.70247029016E+03  0.15212340139E+04  0.81069799354E+02 0.  0.
        254    2    1    2    0    0  0.55087849698E+03  0.12290846129E+04  0.15263613955E+04  0.22258758684E+04  0.90034891431E+03 0.  0.
         23    2    4    4    0    0 -0.23964657970E+03  0.33916809719E+03  0.36988041698E+03  0.56391259461E+03  0.93383136452E+02 0.  0.
         23    2    4    4    0    0  0.79052507668E+03  0.88991651573E+03  0.11564809785E+04  0.16619632737E+04  0.88274389224E+02 0.  0.
          1    1    3    3  502    0 -0.15036705789E+02 -0.55473207717E+02 -0.46306505471E+02  0.73808344680E+02  0.00000000000E+00 0. -1.
         -4    1    3    3    0  502 -0.53584179119E+03 -0.11736114052E+04 -0.65616378469E+03  0.14474256692E+04  0.00000000000E+00 0.  1.
         11    1    5    5    0    0 -0.11506341884E+03  0.89711000177E+02  0.10970750212E+03  0.18254695267E+03  0.00000000000E+00 0.  1.
        -11    1    5    5    0    0 -0.12458316086E+03  0.24945709701E+03  0.26017291487E+03  0.38136564194E+03  0.00000000000E+00 0. -1.
          1    1    6    6  503    0  0.31849932468E+03  0.31348265792E+03  0.39152687244E+03  0.59414349149E+03  0.00000000000E+00 0. -1.
         -1    1    6    6    0  503  0.47202575200E+03  0.57643385780E+03  0.76495410608E+03  0.10678197823E+04  0.00000000000E+00 0.  1.
<mgrwt>
<rscale>  0 0.36554119E+04</rscale>
<asrwt>0</asrwt>
<pdfrwt beam="1">  1        1 0.35161546E+00 0.36554119E+04</pdfrwt>
<pdfrwt beam="2">  1       -2 0.22486298E+00 0.36554119E+04</pdfrwt>
<totfact> 0.12421975E-01</totfact>
</mgrwt>
</event>
<event>
12    4  0.4381187E-008  0.1303753E+04  0.7818608E-02  0.9026594E-01
          1   -1    0    0  501    0  0.00000000000E+00  0.00000000000E+00  0.46490182030E+03  0.46490182030E+03  0.00000000000E+00 0. -1.
         -2   -1    0    0    0  501 -0.00000000000E+00 -0.00000000000E+00 -0.91404897311E+03  0.91404897311E+03  0.00000000000E+00 0.  1.
        -24    2    1    2    0    0  0.84094091317E+02  0.12877528968E+03  0.19369801174E+03  0.26063681248E+03  0.82205455067E+02 0.  0.
        254    2    1    2    0    0 -0.84094091317E+02 -0.12877528968E+03 -0.64284516455E+03  0.11183139809E+04  0.90206505471E+03 0.  0.
         23    2    4    4    0    0 -0.44019780222E+03  0.12048906332E+03 -0.26883451682E+03  0.53751379925E+03  0.91418638625E+02 0.  0.
         23    2    4    4    0    0  0.35610371091E+03 -0.24926435300E+03 -0.37401064773E+03  0.58080018168E+03  0.92208003019E+02 0.  0.
          3    1    3    3  502    0  0.86530039497E+02  0.70335534897E+02  0.97866944007E+02  0.14836601341E+03  0.00000000000E+00 0. -1.
         -4    1    3    3    0  502 -0.24359481799E+01  0.58439754785E+02  0.95831067733E+02  0.11227079908E+03  0.00000000000E+00 0.  1.
         11    1    5    5    0    0 -0.24597448423E+03  0.43272176041E+02 -0.10077134996E+03  0.26931541561E+03  0.00000000000E+00 0.  1.
        -11    1    5    5    0    0 -0.19422331800E+03  0.77216887277E+02 -0.16806316686E+03  0.26819838365E+03  0.00000000000E+00 0. -1.
          3    1    6    6  503    0  0.34929954153E+03 -0.25726452033E+03 -0.36410860673E+03  0.56636585405E+03  0.00000000000E+00 0. -1.
         -3    1    6    6    0  503  0.68041693747E+01  0.80001673278E+01 -0.99020410049E+01  0.14434327633E+02  0.00000000000E+00 0.  1.
<mgrwt>
<rscale>  0 0.13037531E+04</rscale>
<asrwt>0</asrwt>
<pdfrwt beam="1">  1        1 0.71523357E-01 0.13037531E+04</pdfrwt>
<pdfrwt beam="2">  1       -2 0.14062292E+00 0.13037531E+04</pdfrwt>
<totfact> 0.14922422E+01</totfact>
</mgrwt>
</event>
<event>
12    4  0.4381187E-008  0.3392408E+04  0.7818608E-02  0.8139772E-01
         -2   -1    0    0    0  501 -0.00000000000E+00  0.00000000000E+00  0.14726288625E+04  0.14726288625E+04  0.00000000000E+00 0.  1.
          1   -1    0    0  501    0  0.00000000000E+00 -0.00000000000E+00 -0.19537221585E+04  0.19537221585E+04  0.00000000000E+00 0. -1.
        -24    2    1    2    0    0  0.63090966477E+03  0.13549559507E+04 -0.73133170778E+03  0.16658932715E+04  0.80010573265E+02 0.  0.
        254    2    1    2    0    0 -0.63090966477E+03 -0.13549559507E+04  0.25023841178E+03  0.17604577495E+04  0.89590155233E+03 0.  0.
         23    2    4    4    0    0 -0.52299599508E+01 -0.10254538968E+04  0.16887499830E+03  0.10431469570E+04  0.89742754421E+02 0.  0.
         23    2    4    4    0    0 -0.62567970482E+03 -0.32950205393E+03  0.81363413485E+02  0.71731079245E+03  0.88702149595E+02 0.  0.
          3    1    3    3  502    0  0.16792716359E+03  0.35419148101E+03 -0.23135934401E+03  0.45516841230E+03  0.00000000000E+00 0. -1.
         -4    1    3    3    0  502  0.46298250118E+03  0.10007644697E+04 -0.49997236377E+03  0.12107248592E+04  0.00000000000E+00 0.  1.
         11    1    5    5    0    0  0.42713653251E+00 -0.76960727253E+03  0.87259877203E+02  0.77453845776E+03  0.00000000000E+00 0. -1.
        -11    1    5    5    0    0 -0.56570964833E+01 -0.25584662428E+03  0.81615121094E+02  0.26860849928E+03  0.00000000000E+00 0.  1.
          3    1    6    6  503    0 -0.32429951055E+03 -0.15463709512E+03  0.83550046339E+02  0.36886774592E+03  0.00000000000E+00 0. -1.
         -3    1    6    6    0  503 -0.30138019427E+03 -0.17486495881E+03 -0.21866328545E+01  0.34844304654E+03  0.00000000000E+00 0.  1.
<mgrwt>
<rscale>  0 0.33924078E+04</rscale>
<asrwt>0</asrwt>
<pdfrwt beam="1">  1        1 0.30057264E+00 0.33924078E+04</pdfrwt>
<pdfrwt beam="2">  1       -2 0.22655829E+00 0.33924078E+04</pdfrwt>
<totfact> 0.20833460E-01</totfact>
</mgrwt>
</event>
<event>
12    4  0.4381187E-008  0.1604106E+04  0.7818608E-02  0.8818029E-01
         -2   -1    0    0    0  501 -0.00000000000E+00  0.00000000000E+00  0.15872644173E+04  0.15872644173E+04  0.00000000000E+00 0.  1.
          1   -1    0    0  501    0  0.00000000000E+00 -0.00000000000E+00 -0.40528169133E+03  0.40528169133E+03  0.00000000000E+00 0. -1.
        -24    2    1    2    0    0  0.39570123124E+03 -0.15332698268E+03  0.77441876726E+03  0.88647440208E+03  0.77613210466E+02 0.  0.
        254    2    1    2    0    0 -0.39570123124E+03  0.15332698268E+03  0.40756395866E+03  0.11060717065E+04  0.93658828281E+03 0.  0.
         23    2    4    4    0    0  0.19524890378E+03 -0.23196746842E+03  0.11165500312E+03  0.33578116880E+03  0.91384422985E+02 0.  0.
         23    2    4    4    0    0 -0.59095013503E+03  0.38529445110E+03  0.29590895555E+03  0.77029053770E+03  0.90064012571E+02 0.  0.
          1    1    3    3  502    0  0.11151354866E+03 -0.73739660614E+01  0.18980162118E+03  0.22025962479E+03  0.00000000000E+00 0. -1.
         -2    1    3    3    0  502  0.28418768258E+03 -0.14595301662E+03  0.58461714608E+03  0.66621477729E+03  0.00000000000E+00 0.  1.
         11    1    5    5    0    0  0.13871744382E+03 -0.11643281599E+03  0.30392903548E+02  0.18363784590E+03  0.00000000000E+00 0. -1.
        -11    1    5    5    0    0  0.56531459967E+02 -0.11553465243E+03  0.81262099568E+02  0.15214332291E+03  0.00000000000E+00 0.  1.
          1    1    6    6  503    0 -0.15069686054E+03  0.61606289983E+02  0.92313571566E+02  0.18715414566E+03  0.00000000000E+00 0. -1.
         -1    1    6    6    0  503 -0.44025327449E+03  0.32368816112E+03  0.20359538398E+03  0.58313639204E+03  0.00000000000E+00 0.  1.
<mgrwt>
<rscale>  0 0.16041062E+04</rscale>
<asrwt>0</asrwt>
<pdfrwt beam="1">  1        1 0.62351030E-01 0.16041062E+04</pdfrwt>
<pdfrwt beam="2">  1       -2 0.24419452E+00 0.16041062E+04</pdfrwt>
<totfact> 0.34501687E+00</totfact>
</mgrwt>
</event>
<event>
12    4  0.4381187E-008  0.2104307E+04  0.7818608E-02  0.8559348E-01
         -2   -1    0    0    0  501 -0.00000000000E+00  0.00000000000E+00  0.20272203340E+04  0.20272203340E+04  0.00000000000E+00 0.  1.
          1   -1    0    0  501    0  0.00000000000E+00 -0.00000000000E+00 -0.54608123215E+03  0.54608123215E+03  0.00000000000E+00 0. -1.
        -24    2    1    2    0    0  0.82592867066E+03 -0.20745745989E+03  0.48737522205E+03  0.98440437696E+03  0.79502224042E+02 0.  0.
        254    2    1    2    0    0 -0.82592867066E+03  0.20745745989E+03  0.99376387978E+03  0.15888971892E+04  0.90101657161E+03 0.  0.
         23    2    4    4    0    0 -0.40386765369E+03  0.43298272374E+03  0.15464586605E+03  0.61844365351E+03  0.89297748699E+02 0.  0.
         23    2    4    4    0    0 -0.42206101698E+03 -0.22552526385E+03  0.83911801373E+03  0.97045353567E+03  0.93079950789E+02 0.  0.
          1    1    3    3  502    0  0.17461334817E+03 -0.47589748997E+02  0.14204805404E+03  0.23007010937E+03  0.00000000000E+00 0. -1.
         -2    1    3    3    0  502  0.65131532249E+03 -0.15986771090E+03  0.34532716802E+03  0.75433426759E+03  0.00000000000E+00 0.  1.
         11    1    5    5    0    0 -0.31532252463E+03  0.28591003622E+03  0.12972944411E+03  0.44497479931E+03  0.00000000000E+00 0. -1.
        -11    1    5    5    0    0 -0.88545129056E+02  0.14707268752E+03  0.24916421943E+02  0.17346885420E+03  0.00000000000E+00 0.  1.
          1    1    6    6  503    0 -0.32260559485E+03 -0.20340894958E+03  0.71033532362E+03  0.80624180156E+03  0.00000000000E+00 0. -1.
         -1    1    6    6    0  503 -0.99455422128E+02 -0.22116314273E+02  0.12878269010E+03  0.16421173411E+03  0.00000000000E+00 0.  1.
<mgrwt>
<rscale>  0 0.21043070E+04</rscale>
<asrwt>0</asrwt>
<pdfrwt beam="1">  1        1 0.84012498E-01 0.21043070E+04</pdfrwt>
<pdfrwt beam="2">  1       -2 0.31188005E+00 0.21043070E+04</pdfrwt>
<totfact> 0.84852325E-01</totfact>
</mgrwt>
</event>
<event>
12    4  0.4381187E-008  0.1085853E+04  0.7818608E-02  0.9219091E-01
          1   -1    0    0  501    0  0.00000000000E+00  0.00000000000E+00  0.17118603430E+04  0.17118603430E+04  0.00000000000E+00 0. -1.
         -2   -1    0    0    0  501 -0.00000000000E+00 -0.00000000000E+00 -0.17219230399E+03  0.17219230399E+03  0.00000000000E+00 0.  1.
        -24    2    1    2    0    0  0.12140313299E+03  0.46754103599E+02  0.17441635743E+02  0.15286322831E+03  0.78347233563E+02 0.  0.
        254    2    1    2    0    0 -0.12140313299E+03 -0.46754103599E+02  0.15222264033E+04  0.17311894187E+04  0.81419832576E+03 0.  0.
         23    2    4    4    0    0  0.14122645808E+03  0.31265001400E+03  0.83600961920E+03  0.90838275939E+03  0.92478162014E+02 0.  0.
         23    2    4    4    0    0 -0.26262959107E+03 -0.35940411760E+03  0.68621678408E+03  0.82280665930E+03  0.89284388304E+02 0.  0.
          3    1    3    3  502    0  0.39001831681E+02 -0.36448955345E+01 -0.25934240296E+02  0.46978856496E+02  0.00000000000E+00 0. -1.
         -4    1    3    3    0  502  0.82401301312E+02  0.50398999133E+02  0.43375876039E+02  0.10588437181E+03  0.00000000000E+00 0.  1.
         11    1    5    5    0    0  0.55003975220E+02  0.78708544437E+02  0.33906872791E+03  0.35240328390E+03  0.00000000000E+00 0.  1.
        -11    1    5    5    0    0  0.86222482858E+02  0.23394146956E+03  0.49694089130E+03  0.55597947550E+03  0.00000000000E+00 0. -1.
          2    1    6    6  503    0 -0.13315349129E+01 -0.36730927659E+02  0.79914395948E+02  0.87961609306E+02  0.00000000000E+00 0. -1.
         -2    1    6    6    0  503 -0.26129805616E+03 -0.32267318994E+03  0.60630238813E+03  0.73484505000E+03  0.00000000000E+00 0.  1.
<mgrwt>
<rscale>  0 0.10858530E+04</rscale>
<asrwt>0</asrwt>
<pdfrwt beam="1">  1        1 0.26336312E+00 0.10858530E+04</pdfrwt>
<pdfrwt beam="2">  1       -2 0.26491125E-01 0.10858530E+04</pdfrwt>
<totfact> 0.52904649E+01</totfact>
</mgrwt>
</event>
<event>
12    4  0.4381187E-008  0.1637990E+04  0.7818608E-02  0.8797543E-01
          1   -1    0    0  501    0  0.00000000000E+00  0.00000000000E+00  0.10854247627E+04  0.10854247627E+04  0.00000000000E+00 0. -1.
         -2   -1    0    0    0  501 -0.00000000000E+00 -0.00000000000E+00 -0.61796357284E+03  0.61796357284E+03  0.00000000000E+00 0.  1.
        -24    2    1    2    0    0 -0.13587492137E+03  0.51540798152E+03 -0.40774142036E+02  0.54059346383E+03  0.80444893007E+02 0.  0.
        254    2    1    2    0    0  0.13587492137E+03 -0.51540798152E+03  0.50823533192E+03  0.11627948717E+04  0.89982297117E+03 0.  0.
         23    2    4    4    0    0 -0.26849577883E+03 -0.43707279346E+03  0.24602248167E+02  0.52123159798E+03  0.89187992906E+02 0.  0.
         23    2    4    4    0    0  0.40437070020E+03 -0.78335188055E+02  0.48363308376E+03  0.64156327376E+03  0.89724075206E+02 0.  0.
          1    1    3    3  502    0 -0.51612176571E+02  0.31903929745E+03 -0.48303210132E+02  0.32677682016E+03  0.00000000000E+00 0. -1.
         -2    1    3    3    0  502 -0.84262744796E+02  0.19636868407E+03  0.75290680962E+01  0.21381664367E+03  0.00000000000E+00 0.  1.
         11    1    5    5    0    0 -0.14837639271E+02 -0.80063274921E+02  0.17189149328E+02  0.83221093389E+02  0.00000000000E+00 0. -1.
        -11    1    5    5    0    0 -0.25365813956E+03 -0.35700951854E+03  0.74130988383E+01  0.43801050459E+03  0.00000000000E+00 0.  1.
          1    1    6    6  503    0  0.16470801778E+02 -0.16494711293E+02  0.78716347406E+01  0.24603362480E+02  0.00000000000E+00 0. -1.
         -1    1    6    6    0  503  0.38789989842E+03 -0.61840476762E+02  0.47576144902E+03  0.61695991128E+03  0.00000000000E+00 0.  1.
<mgrwt>
<rscale>  0 0.16379902E+04</rscale>
<asrwt>0</asrwt>
<pdfrwt beam="1">  1        1 0.16698843E+00 0.16379902E+04</pdfrwt>
<pdfrwt beam="2">  1       -2 0.95071319E-01 0.16379902E+04</pdfrwt>
<totfact> 0.10148236E+01</totfact>
</mgrwt>
</event>
<event>
12    4  0.4381187E-008  0.1980866E+04  0.7818608E-02  0.8615619E-01
          1   -1    0    0  501    0  0.00000000000E+00  0.00000000000E+00  0.18569618542E+04  0.18569618542E+04  0.00000000000E+00 0. -1.
         -2   -1    0    0    0  501 -0.00000000000E+00 -0.00000000000E+00 -0.52825963148E+03  0.52825963148E+03  0.00000000000E+00 0.  1.
        -24    2    1    2    0    0  0.51277761750E+02  0.53051677406E+03  0.12262824811E+04  0.13394272520E+04  0.78861799962E+02 0.  0.
        254    2    1    2    0    0 -0.51277761750E+02 -0.53051677406E+03  0.10241974158E+03  0.10457942337E+04  0.89393418063E+03 0.  0.
         23    2    4    4    0    0 -0.63369243303E+02 -0.19494730933E+03  0.48193302894E+03  0.53165344763E+03  0.91519558443E+02 0.  0.
         23    2    4    4    0    0  0.12091481553E+02 -0.33556946473E+03 -0.37951328736E+03  0.51414078604E+03  0.86932979937E+02 0.  0.
          3    1    3    3  502    0 -0.16446443190E+01  0.36096594197E+03  0.83903537183E+03  0.91338900327E+03  0.00000000000E+00 0. -1.
         -4    1    3    3    0  502  0.52922406069E+02  0.16955083209E+03  0.38724710928E+03  0.42603824872E+03  0.00000000000E+00 0.  1.
         11    1    5    5    0    0 -0.31465712845E+02 -0.79562684560E+01  0.46619456080E+02  0.56804638700E+02  0.00000000000E+00 0. -1.
        -11    1    5    5    0    0 -0.31903530458E+02 -0.18699104087E+03  0.43531357286E+03  0.47484880893E+03  0.00000000000E+00 0.  1.
          3    1    6    6  503    0 -0.10050764671E+02 -0.23379489481E+03 -0.20598769566E+03  0.31175631746E+03  0.00000000000E+00 0. -1.
         -3    1    6    6    0  503  0.22142246224E+02 -0.10177456993E+03 -0.17352559169E+03  0.20238446859E+03  0.00000000000E+00 0.  1.
<mgrwt>
<rscale>  0 0.19808665E+04</rscale>
<asrwt>0</asrwt>
<pdfrwt beam="1">  1        1 0.28568644E+00 0.19808665E+04</pdfrwt>
<pdfrwt beam="2">  1       -2 0.81270713E-01 0.19808665E+04</pdfrwt>
<totfact> 0.40560438E+00</totfact>
</mgrwt>
</event>
<event>
12    4  0.4381187E-008  0.1478689E+04  0.7818608E-02  0.8898749E-01
          1   -1    0    0  501    0  0.00000000000E+00  0.00000000000E+00  0.25771505272E+04  0.25771505272E+04  0.00000000000E+00 0. -1.
         -2   -1    0    0    0  501 -0.00000000000E+00 -0.00000000000E+00 -0.21210646901E+03  0.21210646901E+03  0.00000000000E+00 0.  1.
        -24    2    1    2    0    0  0.36205139407E+03 -0.36594084805E+02  0.22168429272E+03  0.43366094870E+03  0.80607405333E+02 0.  0.
        254    2    1    2    0    0 -0.36205139407E+03  0.36594084805E+02  0.21433597655E+04  0.23555960475E+04  0.90687447632E+03 0.  0.
         23    2    4    4    0    0 -0.60866257902E+03  0.95471508504E+02  0.98304210605E+03  0.11643514437E+04  0.98780352904E+02 0.  0.
         23    2    4    4    0    0  0.24661118495E+03 -0.58877423699E+02  0.11603176594E+04  0.11912446038E+04  0.91885841113E+02 0.  0.
          1    1    3    3  502    0  0.22368172399E+03 -0.31055904611E+02  0.18075587735E+03  0.28925882883E+03  0.00000000000E+00 0. -1.
         -2    1    3    3    0  502  0.13836967008E+03 -0.55381801942E+01  0.40928415375E+02  0.14440211987E+03  0.00000000000E+00 0.  1.
         11    1    5    5    0    0 -0.26118575297E+03  0.43879676622E+01  0.47587353999E+03  0.54285622210E+03  0.00000000000E+00 0.  1.
        -11    1    5    5    0    0 -0.34747682605E+03  0.91083540842E+02  0.50716856606E+03  0.62149522159E+03  0.00000000000E+00 0. -1.
          1    1    6    6  503    0  0.23766929861E+02  0.37945945255E+01  0.27886081703E+03  0.27989751906E+03  0.00000000000E+00 0. -1.
         -1    1    6    6    0  503  0.22284425509E+03 -0.62672018225E+02  0.88145684240E+03  0.91134708476E+03  0.00000000000E+00 0.  1.
<mgrwt>
<rscale>  0 0.14786890E+04</rscale>
<asrwt>0</asrwt>
<pdfrwt beam="1">  1        1 0.39648467E+00 0.14786890E+04</pdfrwt>
<pdfrwt beam="2">  1       -2 0.32631766E-01 0.14786890E+04</pdfrwt>
<totfact> 0.89462469E+00</totfact>
</mgrwt>
</event>
<event>
12    4  0.4381187E-008  0.1587321E+04  0.7818608E-02  0.8828375E-01
         -2   -1    0    0    0  501 -0.00000000000E+00  0.00000000000E+00  0.36808942743E+03  0.36808942743E+03  0.00000000000E+00 0.  1.
          1   -1    0    0  501    0  0.00000000000E+00 -0.00000000000E+00 -0.17112599915E+04  0.17112599915E+04  0.00000000000E+00 0. -1.
        -24    2    1    2    0    0 -0.23317228534E+02  0.49945583021E+03 -0.21818327551E+03  0.55130624147E+03  0.79591523976E+02 0.  0.
        254    2    1    2    0    0  0.23317228534E+02 -0.49945583021E+03 -0.11249872886E+04  0.15280431775E+04  0.90516282146E+03 0.  0.
         23    2    4    4    0    0  0.39024227377E+03  0.67869684885E+01 -0.47243688570E+03  0.61957363879E+03  0.91322438302E+02 0.  0.
         23    2    4    4    0    0 -0.36692504524E+03 -0.50624279870E+03 -0.65255040290E+03  0.90846953872E+03  0.92623508856E+02 0.  0.
          1    1    3    3  502    0 -0.57479302690E+01  0.40690939423E+02  0.39597407238E+01  0.41285237072E+02  0.00000000000E+00 0. -1.
         -2    1    3    3    0  502 -0.17569298265E+02  0.45876489079E+03 -0.22214301624E+03  0.51002100439E+03  0.00000000000E+00 0.  1.
         11    1    5    5    0    0  0.38630333936E+03 -0.68403821125E+01 -0.45098194443E+03  0.59385332788E+03  0.00000000000E+00 0.  1.
        -11    1    5    5    0    0  0.39389344106E+01  0.13627350601E+02 -0.21454941272E+02  0.25720310917E+02  0.00000000000E+00 0. -1.
          1    1    6    6  503    0 -0.89265938495E+02 -0.19361030549E+03 -0.24121116102E+03  0.32192574045E+03  0.00000000000E+00 0. -1.
         -1    1    6    6    0  503 -0.27765910675E+03 -0.31263249321E+03 -0.41133924189E+03  0.58654379827E+03  0.00000000000E+00 0.  1.
<mgrwt>
<rscale>  0 0.15873206E+04</rscale>
<asrwt>0</asrwt>
<pdfrwt beam="1">  1        1 0.26327077E+00 0.15873206E+04</pdfrwt>
<pdfrwt beam="2">  1       -2 0.56629142E-01 0.15873206E+04</pdfrwt>
<totfact> 0.11547941E+01</totfact>
</mgrwt>
</event>
<event>
12    4  0.4381187E-008  0.2031049E+04  0.7818608E-02  0.8592241E-01
         -2   -1    0    0    0  501 -0.00000000000E+00  0.00000000000E+00  0.13623773346E+04  0.13623773346E+04  0.00000000000E+00 0.  1.
          1   -1    0    0  501    0  0.00000000000E+00 -0.00000000000E+00 -0.75697787751E+03  0.75697787751E+03  0.00000000000E+00 0. -1.
        -24    2    1    2    0    0 -0.20100091620E+02  0.44997791364E+03  0.94857563106E+03  0.10529694274E+04  0.77876509312E+02 0.  0.
        254    2    1    2    0    0  0.20100091620E+02 -0.44997791364E+03 -0.34317617399E+03  0.10663857847E+04  0.90361751810E+03 0.  0.
         23    2    4    4    0    0  0.15089455978E+03  0.22483860970E+03 -0.22357032401E+03  0.36289695609E+03  0.91591169728E+02 0.  0.
         23    2    4    4    0    0 -0.13079446816E+03 -0.67481652334E+03 -0.11960584998E+03  0.70348882864E+03  0.90035768427E+02 0.  0.
          3    1    3    3  502    0 -0.16140975753E+02  0.12544201711E+03  0.19440330954E+03  0.23192429264E+03  0.00000000000E+00 0. -1.
         -2    1    3    3    0  502 -0.39591158675E+01  0.32453589653E+03  0.75417232152E+03  0.82104513474E+03  0.00000000000E+00 0.  1.
         11    1    5    5    0    0  0.11343586937E+03  0.21637855547E+03 -0.21002234931E+03  0.32217505014E+03  0.00000000000E+00 0. -1.
        -11    1    5    5    0    0  0.37458690410E+02  0.84600542346E+01 -0.13547974706E+02  0.40721905942E+02  0.00000000000E+00 0.  1.
          1    1    6    6  503    0 -0.29124081303E+02 -0.36386487834E+03 -0.82545091570E+02  0.37424531252E+03  0.00000000000E+00 0. -1.
         -1    1    6    6    0  503 -0.10167038686E+03 -0.31095164500E+03 -0.37060758407E+02  0.32924351611E+03  0.00000000000E+00 0.  1.
<mgrwt>
<rscale>  0 0.20310485E+04</rscale>
<asrwt>0</asrwt>
<pdfrwt beam="1">  1        1 0.11645814E+00 0.20310485E+04</pdfrwt>
<pdfrwt beam="2">  1       -2 0.20959651E+00 0.20310485E+04</pdfrwt>
<totfact> 0.22529000E+00</totfact>
</mgrwt>
</event>
<event>
12    4  0.4381187E-008  0.2199300E+04  0.7818608E-02  0.8518719E-01
          1   -1    0    0  501    0  0.00000000000E+00  0.00000000000E+00  0.90309172416E+03  0.90309172416E+03  0.00000000000E+00 0. -1.
         -2   -1    0    0    0  501 -0.00000000000E+00 -0.00000000000E+00 -0.13389898486E+04  0.13389898486E+04  0.00000000000E+00 0.  1.
        -24    2    1    2    0    0 -0.59742421348E+03 -0.68084427829E+03 -0.20529727369E+03  0.93216192769E+03  0.79462360361E+02 0.  0.
        254    2    1    2    0    0  0.59742421348E+03  0.68084427829E+03 -0.23060085078E+03  0.13099196451E+04  0.91774075977E+03 0.  0.
         23    2    4    4    0    0  0.78782666704E+03  0.50977898756E+03  0.15590722236E+02  0.94333050811E+03  0.95309513921E+02 0.  0.
         23    2    4    4    0    0 -0.19040245357E+03  0.17106529073E+03 -0.24619157302E+03  0.36658913701E+03  0.90889365340E+02 0.  0.
          1    1    3    3  502    0 -0.26486147020E+03 -0.33031228155E+03 -0.13171369882E+03  0.44340308997E+03  0.00000000000E+00 0. -1.
         -2    1    3    3    0  502 -0.33256274327E+03 -0.35053199674E+03 -0.73583574874E+02  0.48875883772E+03  0.00000000000E+00 0.  1.
         11    1    5    5    0    0  0.39728786390E+03  0.22876748477E+03  0.48904808519E+02  0.46104651521E+03  0.00000000000E+00 0.  1.
        -11    1    5    5    0    0  0.39053880315E+03  0.28101150279E+03 -0.33314086282E+02  0.48228399290E+03  0.00000000000E+00 0. -1.
          1    1    6    6  503    0 -0.78834993223E+02  0.17968569441E+02 -0.90717933472E+02  0.12152188732E+03  0.00000000000E+00 0. -1.
         -1    1    6    6    0  503 -0.11156746034E+03  0.15309672129E+03 -0.15547363954E+03  0.24506724969E+03  0.00000000000E+00 0.  1.
<mgrwt>
<rscale>  0 0.21993005E+04</rscale>
<asrwt>0</asrwt>
<pdfrwt beam="1">  1        1 0.13893719E+00 0.21993005E+04</pdfrwt>
<pdfrwt beam="2">  1       -2 0.20599844E+00 0.21993005E+04</pdfrwt>
<totfact> 0.17567725E+00</totfact>
</mgrwt>
</event>
<event>
12    4  0.4381187E-008  0.1865727E+04  0.7818608E-02  0.8672107E-01
          1   -1    0    0  501    0  0.00000000000E+00  0.00000000000E+00  0.52842191216E+03  0.52842191216E+03  0.00000000000E+00 0. -1.
         -2   -1    0    0    0  501 -0.00000000000E+00 -0.00000000000E+00 -0.16468543382E+04  0.16468543382E+04  0.00000000000E+00 0.  1.
        -24    2    1    2    0    0 -0.56813931289E+03 -0.39876871321E+03 -0.22608718736E+03  0.73429360205E+03  0.79201718610E+02 0.  0.
        254    2    1    2    0    0  0.56813931289E+03  0.39876871321E+03 -0.89234523863E+03  0.14409826483E+04  0.89350556922E+03 0.  0.
         23    2    4    4    0    0  0.69091039207E+03  0.37600176599E+03 -0.98405982462E+03  0.12631251853E+04  0.91525937835E+02 0.  0.
         23    2    4    4    0    0 -0.12277107917E+03  0.22766947217E+02  0.91714585987E+02  0.17785746302E+03  0.87353535150E+02 0.  0.
          3    1    3    3  502    0 -0.20101249815E+03 -0.11742073094E+03 -0.42430574573E+02  0.23663052662E+03  0.00000000000E+00 0. -1.
         -4    1    3    3    0  502 -0.36712681474E+03 -0.28134798226E+03 -0.18365661279E+03  0.49766307543E+03  0.00000000000E+00 0.  1.
         11    1    5    5    0    0 -0.30488268499E+00  0.16894058577E+01 -0.16117800272E+02  0.16208964532E+02  0.00000000000E+00 0. -1.
        -11    1    5    5    0    0  0.69121527475E+03  0.37431236013E+03 -0.96794202435E+03  0.12469162207E+04  0.00000000000E+00 0.  1.
          3    1    6    6  503    0 -0.10663583832E+03  0.51533333247E+02  0.79699011521E+02  0.14275440059E+03  0.00000000000E+00 0. -1.
         -3    1    6    6    0  503 -0.16135240853E+02 -0.28766386029E+02  0.12015574466E+02  0.35103062435E+02  0.00000000000E+00 0.  1.
<mgrwt>
<rscale>  0 0.18657266E+04</rscale>
<asrwt>0</asrwt>
<pdfrwt beam="1">  1        1 0.81295680E-01 0.18657266E+04</pdfrwt>
<pdfrwt beam="2">  1       -2 0.25336220E+00 0.18657266E+04</pdfrwt>
<totfact> 0.20652132E+00</totfact>
</mgrwt>
</event>
<event>
12    4  0.4381187E-008  0.1669277E+04  0.7818608E-02  0.8779083E-01
         -2   -1    0    0    0  501 -0.00000000000E+00  0.00000000000E+00  0.77781757909E+03  0.77781757909E+03  0.00000000000E+00 0.  1.
          1   -1    0    0  501    0  0.00000000000E+00 -0.00000000000E+00 -0.89561033110E+03  0.89561033110E+03  0.00000000000E+00 0. -1.
        -24    2    1    2    0    0  0.30683678225E+03 -0.33088559583E+03 -0.24405950887E+03  0.51925403654E+03  0.80159978310E+02 0.  0.
        254    2    1    2    0    0 -0.30683678225E+03  0.33088559583E+03  0.12626675686E+03  0.11541738737E+04  0.10547700926E+04 0.  0.
         23    2    4    4    0    0 -0.27559824767E+03  0.54969048832E+03 -0.28071880385E+03  0.68201837327E+03  0.90730301308E+02 0.  0.
         23    2    4    4    0    0 -0.31238534577E+02 -0.21880489250E+03  0.40698556071E+03  0.47215550038E+03  0.91881134566E+02 0.  0.
          3    1    3    3  502    0  0.27776571217E+03 -0.25992555176E+03 -0.21688436915E+03  0.43789714876E+03  0.00000000000E+00 0. -1.
         -4    1    3    3    0  502  0.29071070085E+02 -0.70960044064E+02 -0.27175139726E+02  0.81356887776E+02  0.00000000000E+00 0.  1.
         11    1    5    5    0    0 -0.57123151288E+02  0.48912877072E+02 -0.33181544182E+02  0.82198168051E+02  0.00000000000E+00 0. -1.
        -11    1    5    5    0    0 -0.21847509639E+03  0.50077761125E+03 -0.24753725967E+03  0.59982020522E+03  0.00000000000E+00 0.  1.
          4    1    6    6  503    0 -0.33948441040E+02 -0.20775761903E+03  0.40955872619E+03  0.46049329541E+03  0.00000000000E+00 0.  1.
         -4    1    6    6    0  503  0.27099064635E+01 -0.11047273469E+02 -0.25731654871E+01  0.11662204970E+02  0.00000000000E+00 0. -1.
<mgrwt>
<rscale>  0 0.16692770E+04</rscale>
<asrwt>0</asrwt>
<pdfrwt beam="1">  1        1 0.13778620E+00 0.16692770E+04</pdfrwt>
<pdfrwt beam="2">  1       -2 0.11966424E+00 0.16692770E+04</pdfrwt>
<totfact> 0.82019880E+00</totfact>
</mgrwt>
</event>
<event>
12    4  0.4381187E-008  0.1239027E+04  0.7818608E-02  0.9079366E-01
         -2   -1    0    0    0  501 -0.00000000000E+00  0.00000000000E+00  0.90120536419E+03  0.90120536419E+03  0.00000000000E+00 0.  1.
          1   -1    0    0  501    0  0.00000000000E+00 -0.00000000000E+00 -0.42587061499E+03  0.42587061499E+03  0.00000000000E+00 0. -1.
        -24    2    1    2    0    0  0.68197809153E+01  0.11794381466E+02 -0.19155873496E+03  0.20794566244E+03  0.79756082792E+02 0.  0.
        254    2    1    2    0    0 -0.68197809153E+01 -0.11794381466E+02  0.66689348416E+03  0.11191303167E+04  0.89862123822E+03 0.  0.
         23    2    4    4    0    0 -0.50529638499E+02  0.26873523956E+03  0.75503428617E+03  0.80814803013E+03  0.90854785022E+02 0.  0.
         23    2    4    4    0    0  0.43709857584E+02 -0.28052962102E+03 -0.88140802004E+02  0.31098228661E+03  0.91289439086E+02 0.  0.
          1    1    3    3  502    0 -0.14028257755E+02  0.39516432701E+02 -0.13718237524E+03  0.14344805522E+03  0.00000000000E+00 0. -1.
         -2    1    3    3    0  502  0.20848038670E+02 -0.27722051235E+02 -0.54376359718E+02  0.64497607222E+02  0.00000000000E+00 0.  1.
         11    1    5    5    0    0 -0.17227024332E+02  0.24865959696E+03  0.65412248157E+03  0.70000327601E+03  0.00000000000E+00 0. -1.
        -11    1    5    5    0    0 -0.33302614168E+02  0.20075642600E+02  0.10091180460E+03  0.10814475412E+03  0.00000000000E+00 0.  1.
          4    1    6    6  503    0  0.39544879136E+02 -0.28726898766E+03 -0.88078447385E+02  0.30305953480E+03  0.00000000000E+00 0. -1.
         -4    1    6    6    0  503  0.41649784478E+01  0.67393666417E+01 -0.62354618595E-01  0.79227518136E+01  0.00000000000E+00 0.  1.
<mgrwt>
<rscale>  0 0.12390268E+04</rscale>
<asrwt>0</asrwt>
<pdfrwt beam="1">  1        1 0.65518556E-01 0.12390268E+04</pdfrwt>
<pdfrwt beam="2">  1       -2 0.13864698E+00 0.12390268E+04</pdfrwt>
<totfact> 0.17511067E+01</totfact>
</mgrwt>
</event>
<event>
12    4  0.4381187E-008  0.1323187E+04  0.7818608E-02  0.9011377E-01
          1   -1    0    0  501    0  0.00000000000E+00  0.00000000000E+00  0.24822092067E+04  0.24822092067E+04  0.00000000000E+00 0. -1.
         -2   -1    0    0    0  501 -0.00000000000E+00 -0.00000000000E+00 -0.17633713524E+03  0.17633713524E+03  0.00000000000E+00 0.  1.
        -24    2    1    2    0    0 -0.15312844078E+03  0.30285577641E+03  0.57975450025E+03  0.67657584823E+03  0.80434179097E+02 0.  0.
        254    2    1    2    0    0  0.15312844078E+03 -0.30285577641E+03  0.17261175712E+04  0.19819704937E+04  0.91299245761E+03 0.  0.
         23    2    4    4    0    0  0.72586030661E+01  0.19456175450E+03  0.45176587164E+02  0.22046597101E+03  0.93044917725E+02 0.  0.
         23    2    4    4    0    0  0.14586983772E+03 -0.49741753090E+03  0.16809409841E+04  0.17615045227E+04  0.92915994646E+02 0.  0.
          1    1    3    3  502    0 -0.36470335933E+02  0.17426567064E+02  0.67122160431E+02  0.78352760408E+02  0.00000000000E+00 0. -1.
         -4    1    3    3    0  502 -0.11665810485E+03  0.28542920934E+03  0.51263233982E+03  0.59822308782E+03  0.00000000000E+00 0.  1.
         11    1    5    5    0    0 -0.15424015617E+01  0.11508811526E+03 -0.20600966658E+02  0.11692755494E+03  0.00000000000E+00 0. -1.
        -11    1    5    5    0    0  0.88010046278E+01  0.79473639238E+02  0.65777553822E+02  0.10353841607E+03  0.00000000000E+00 0.  1.
          2    1    6    6  503    0  0.13654651452E+03 -0.31809191071E+03  0.10571240123E+04  0.11123572230E+04  0.00000000000E+00 0. -1.
         -2    1    6    6    0  503  0.93233231955E+01 -0.17932562019E+03  0.62381697179E+03  0.64914729970E+03  0.00000000000E+00 0.  1.
<mgrwt>
<rscale>  0 0.13231865E+04</rscale>
<asrwt>0</asrwt>
<pdfrwt beam="1">  1        1 0.38187831E+00 0.13231865E+04</pdfrwt>
<pdfrwt beam="2">  1       -2 0.27128792E-01 0.13231865E+04</pdfrwt>
<totfact> 0.14893957E+01</totfact>
</mgrwt>
</event>
<event>
12    4  0.4381187E-008  0.1144041E+04  0.7818608E-02  0.9163299E-01
          1   -1    0    0  501    0  0.00000000000E+00  0.00000000000E+00  0.17623038643E+04  0.17623038643E+04  0.00000000000E+00 0. -1.
         -2   -1    0    0    0  501 -0.00000000000E+00 -0.00000000000E+00 -0.18567014469E+03  0.18567014469E+03  0.00000000000E+00 0.  1.
        -24    2    1    2    0    0  0.14374445252E+02 -0.78529751096E+02 -0.24659087983E+02  0.12091694430E+03  0.87403033790E+02 0.  0.
        254    2    1    2    0    0 -0.14374445252E+02  0.78529751096E+02  0.16012928075E+04  0.18270570646E+04  0.87614229178E+03 0.  0.
         23    2    4    4    0    0  0.37164223697E+03  0.16816552498E+03  0.11297945823E+04  0.12045561663E+04  0.90123046350E+02 0.  0.
         23    2    4    4    0    0 -0.38601668222E+03 -0.89635773888E+02  0.47149822525E+03  0.62250089834E+03  0.90295853208E+02 0.  0.
          1    1    3    3  502    0  0.14923531719E+02  0.16732354571E+02 -0.99305471276E+01  0.24521404012E+02  0.00000000000E+00 0. -1.
         -2    1    3    3    0  502 -0.54908646752E+00 -0.95262105667E+02 -0.14728540855E+02  0.96395540290E+02  0.00000000000E+00 0.  1.
         11    1    5    5    0    0  0.98688848610E+01  0.19295579225E+02  0.11383687106E+03  0.11588160975E+03  0.00000000000E+00 0.  1.
        -11    1    5    5    0    0  0.36177335211E+03  0.14886994576E+03  0.10159577112E+04  0.10886745565E+04  0.00000000000E+00 0. -1.
          1    1    6    6  503    0 -0.38029465656E+03 -0.10014072248E+03  0.46460250752E+03  0.60869342045E+03  0.00000000000E+00 0. -1.
         -1    1    6    6    0  503 -0.57220256536E+01  0.10504948592E+02  0.68957177306E+01  0.13807477884E+02  0.00000000000E+00 0.  1.
<mgrwt>
<rscale>  0 0.11440406E+04</rscale>
<asrwt>0</asrwt>
<pdfrwt beam="1">  1        1 0.27112366E+00 0.11440406E+04</pdfrwt>
<pdfrwt beam="2">  1       -2 0.28564639E-01 0.11440406E+04</pdfrwt>
<totfact> 0.42377936E+01</totfact>
</mgrwt>
</event>
<event>
12    4  0.4381187E-008  0.2304654E+04  0.7818608E-02  0.8476088E-01
          1   -1    0    0  501    0  0.00000000000E+00  0.00000000000E+00  0.19988450481E+04  0.19988450481E+04  0.00000000000E+00 0. -1.
         -2   -1    0    0    0  501 -0.00000000000E+00 -0.00000000000E+00 -0.66431239107E+03  0.66431239107E+03  0.00000000000E+00 0.  1.
        -24    2    1    2    0    0 -0.47032075183E+02 -0.84638009310E+03  0.11099701507E+02  0.85150005836E+03  0.79736239773E+02 0.  0.
        254    2    1    2    0    0  0.47032075183E+02  0.84638009310E+03  0.13234329555E+04  0.18116573808E+04  0.90114172003E+03 0.  0.
         23    2    4    4    0    0  0.86566954422E+01  0.10271251582E+04  0.11192511127E+04  0.15219483063E+04  0.92425996310E+02 0.  0.
         23    2    4    4    0    0  0.38375379741E+02 -0.18074506509E+03  0.20418184284E+03  0.28970907452E+03  0.89998192171E+02 0.  0.
          3    1    3    3  502    0  0.11993623374E+02 -0.23741696860E+03 -0.22358253684E+02  0.23876883274E+03  0.00000000000E+00 0. -1.
         -4    1    3    3    0  502 -0.59025698557E+02 -0.60896312450E+03  0.33457955191E+02  0.61273122562E+03  0.00000000000E+00 0.  1.
         11    1    5    5    0    0  0.26642413906E+02  0.57050671753E+03  0.56174735739E+03  0.80109164675E+03  0.00000000000E+00 0. -1.
        -11    1    5    5    0    0 -0.17985718464E+02  0.45661844065E+03  0.55750375531E+03  0.72085665954E+03  0.00000000000E+00 0.  1.
          2    1    6    6  503    0  0.30051698074E+02 -0.12603729476E+03  0.19423315410E+03  0.23348452279E+03  0.00000000000E+00 0. -1.
         -2    1    6    6    0  503  0.83236816667E+01 -0.54707770326E+02  0.99486887318E+01  0.56224551737E+02  0.00000000000E+00 0.  1.
<mgrwt>
<rscale>  0 0.23046540E+04</rscale>
<asrwt>0</asrwt>
<pdfrwt beam="1">  1        1 0.30751462E+00 0.23046540E+04</pdfrwt>
<pdfrwt beam="2">  1       -2 0.10220191E+00 0.23046540E+04</pdfrwt>
<totfact> 0.18583289E+00</totfact>
</mgrwt>
</event>
<event>
12    4  0.4381187E-008  0.1373664E+04  0.7818608E-02  0.8973105E-01
          1   -1    0    0  501    0  0.00000000000E+00  0.00000000000E+00  0.18944657750E+04  0.18944657750E+04  0.00000000000E+00 0. -1.
         -2   -1    0    0    0  501 -0.00000000000E+00 -0.00000000000E+00 -0.24900864874E+03  0.24900864874E+03  0.00000000000E+00 0.  1.
        -24    2    1    2    0    0 -0.20133310205E+03  0.30447077057E+03  0.63275627075E+03  0.73765447418E+03  0.10254831540E+03 0.  0.
        254    2    1    2    0    0  0.20133310205E+03 -0.30447077057E+03  0.10127008556E+04  0.14058199496E+04  0.90417323549E+03 0.  0.
         23    2    4    4    0    0 -0.18413910422E+03 -0.49336975548E+03  0.51639425782E+03  0.74324178815E+03  0.91784534735E+02 0.  0.
         23    2    4    4    0    0  0.38547220627E+03  0.18889898492E+03  0.49630659773E+03  0.66257816145E+03  0.91749293037E+02 0.  0.
          3    1    3    3  502    0 -0.14621181358E+03  0.25367680791E+03  0.41923455756E+03  0.51135841789E+03  0.00000000000E+00 0. -1.
         -4    1    3    3    0  502 -0.55121288466E+02  0.50793962659E+02  0.21352171319E+03  0.22629605628E+03  0.00000000000E+00 0.  1.
         11    1    5    5    0    0 -0.97408388305E+02 -0.37546300388E+03  0.38568468060E+03  0.54700414463E+03  0.00000000000E+00 0. -1.
        -11    1    5    5    0    0 -0.86730715920E+02 -0.11790675160E+03  0.13070957722E+03  0.19623764352E+03  0.00000000000E+00 0.  1.
          4    1    6    6  503    0  0.33293693897E+03  0.18787368076E+03  0.46274032959E+03  0.60022673873E+03  0.00000000000E+00 0. -1.
         -4    1    6    6    0  503  0.52535267303E+02  0.10253041565E+01  0.33566268141E+02  0.62351422727E+02  0.00000000000E+00 0.  1.
<mgrwt>
<rscale>  0 0.13736642E+04</rscale>
<asrwt>0</asrwt>
<pdfrwt beam="1">  1        1 0.29145626E+00 0.13736642E+04</pdfrwt>
<pdfrwt beam="2">  1       -2 0.38309024E-01 0.13736642E+04</pdfrwt>
<totfact> 0.19408066E+01</totfact>
</mgrwt>
</event>
<event>
12    4  0.4381187E-008  0.1494621E+04  0.7818608E-02  0.8888038E-01
          1   -1    0    0  501    0  0.00000000000E+00  0.00000000000E+00  0.14218852720E+04  0.14218852720E+04  0.00000000000E+00 0. -1.
         -2   -1    0    0    0  501 -0.00000000000E+00 -0.00000000000E+00 -0.39276932512E+03  0.39276932512E+03  0.00000000000E+00 0.  1.
        -24    2    1    2    0    0  0.89732894446E+02  0.40116146710E+03  0.46556464192E+02  0.42124026660E+03  0.79330591954E+02 0.  0.
        254    2    1    2    0    0 -0.89732894446E+02 -0.40116146710E+03  0.98255948269E+03  0.13934143305E+04  0.89844189820E+03 0.  0.
         23    2    4    4    0    0  0.11719204030E+03 -0.15130609686E+03  0.10315018769E+04  0.10531328386E+04  0.92006219764E+02 0.  0.
         23    2    4    4    0    0 -0.20692493474E+03 -0.24985537024E+03 -0.48942394210E+02  0.34028149190E+03  0.90280125859E+02 0.  0.
          1    1    3    3  502    0  0.14238745232E+02  0.85697128155E+02 -0.22194863581E+02  0.89662431426E+02  0.00000000000E+00 0. -1.
         -2    1    3    3    0  502  0.75494149214E+02  0.31546433894E+03  0.68751327773E+02  0.33157783518E+03  0.00000000000E+00 0.  1.
         11    1    5    5    0    0  0.12398656156E+03 -0.11505869498E+03  0.72765999342E+03  0.74706106628E+03  0.00000000000E+00 0.  1.
        -11    1    5    5    0    0 -0.67945212635E+01 -0.36247401883E+02  0.30384188348E+03  0.30607177234E+03  0.00000000000E+00 0. -1.
          1    1    6    6  503    0 -0.12485354886E+03 -0.21192919339E+03 -0.42742509299E+02  0.24965839417E+03  0.00000000000E+00 0. -1.
         -1    1    6    6    0  503 -0.82071385880E+02 -0.37926176843E+02 -0.61998849103E+01  0.90623097735E+02  0.00000000000E+00 0.  1.
<mgrwt>
<rscale>  0 0.14946209E+04</rscale>
<asrwt>0</asrwt>
<pdfrwt beam="1">  1        1 0.21875158E+00 0.14946209E+04</pdfrwt>
<pdfrwt beam="2">  1       -2 0.60426051E-01 0.14946209E+04</pdfrwt>
<totfact> 0.16064999E+01</totfact>
</mgrwt>
</event>
<event>
12    4  0.4381187E-008  0.2557426E+04  0.7818608E-02  0.8382808E-01
         -4   -1    0    0    0  501 -0.00000000000E+00  0.00000000000E+00  0.11935564506E+04  0.11935564506E+04  0.00000000000E+00 0.  1.
          3   -1    0    0  501    0  0.00000000000E+00 -0.00000000000E+00 -0.13699454035E+04  0.13699454035E+04  0.00000000000E+00 0. -1.
        -24    2    1    2    0    0  0.25307267629E+03 -0.11017772593E+04  0.21459657392E+02  0.11334320885E+04  0.79049818404E+02 0.  0.
        254    2    1    2    0    0 -0.25307267629E+03  0.11017772593E+04 -0.19784861032E+03  0.14300697656E+04  0.85322714055E+03 0.  0.
         23    2    4    4    0    0 -0.45982998585E+03  0.28378643616E+03  0.36606065907E+02  0.54957628216E+03  0.93358066638E+02 0.  0.
         23    2    4    4    0    0  0.20675730957E+03  0.81799082309E+03 -0.23445467623E+03  0.88049348344E+03  0.91881485898E+02 0.  0.
          1    1    3    3  502    0  0.24425291418E+02 -0.13307550610E+03 -0.22426769420E+02  0.13714461408E+03  0.00000000000E+00 0. -1.
         -2    1    3    3    0  502  0.22864738487E+03 -0.96870175315E+03  0.43886426811E+02  0.99628747439E+03  0.00000000000E+00 0.  1.
         11    1    5    5    0    0 -0.30141967125E+03  0.16373156945E+03  0.63986183707E+02  0.34893563412E+03  0.00000000000E+00 0. -1.
        -11    1    5    5    0    0 -0.15841031460E+03  0.12005486672E+03 -0.27380117800E+02  0.20064064804E+03  0.00000000000E+00 0.  1.
          3    1    6    6  503    0  0.19732777240E+03  0.73200337261E+03 -0.23587152971E+03  0.79397894544E+03  0.00000000000E+00 0. -1.
         -3    1    6    6    0  503  0.94295371630E+01  0.85987450484E+02  0.14168534786E+01  0.86514538002E+02  0.00000000000E+00 0.  1.
<mgrwt>
<rscale>  0 0.25574262E+04</rscale>
<asrwt>0</asrwt>
<pdfrwt beam="1">  1        3 0.21076083E+00 0.25574262E+04</pdfrwt>
<pdfrwt beam="2">  1       -4 0.18362407E+00 0.25574262E+04</pdfrwt>
<totfact> 0.43354882E-02</totfact>
</mgrwt>
</event>
<event>
12    4  0.4381187E-008  0.1474608E+04  0.7818608E-02  0.8901516E-01
         -2   -1    0    0    0  501 -0.00000000000E+00  0.00000000000E+00  0.23806878052E+03  0.23806878052E+03  0.00000000000E+00 0.  1.
          1   -1    0    0  501    0  0.00000000000E+00 -0.00000000000E+00 -0.22834454223E+04  0.22834454223E+04  0.00000000000E+00 0. -1.
        -24    2    1    2    0    0  0.30734725496E+03  0.33696909739E+03 -0.62654948552E+03  0.77904116070E+03  0.79563587993E+02 0.  0.
        254    2    1    2    0    0 -0.30734725496E+03 -0.33696909739E+03 -0.14188271563E+04  0.17424730421E+04  0.90284621916E+03 0.  0.
         23    2    4    4    0    0  0.65455724709E+02  0.16996333472E+03 -0.89711003052E+03  0.91986390842E+03  0.90394779225E+02 0.  0.
         23    2    4    4    0    0 -0.37280297967E+03 -0.50693243211E+03 -0.52171712574E+03  0.82260913370E+03  0.92382223291E+02 0.  0.
          3    1    3    3  502    0  0.53005355586E+02  0.42480421175E+02 -0.14344856169E+03  0.15871875679E+03  0.00000000000E+00 0. -1.
         -4    1    3    3    0  502  0.25434189938E+03  0.29448867622E+03 -0.48310092383E+03  0.62032240392E+03  0.00000000000E+00 0.  1.
         11    1    5    5    0    0 -0.14359676357E+02  0.36883201948E+02 -0.95592240495E+02  0.10346229909E+03  0.00000000000E+00 0.  1.
        -11    1    5    5    0    0  0.79815401066E+02  0.13308013277E+03 -0.80151779003E+03  0.81640160933E+03  0.00000000000E+00 0. -1.
          1    1    6    6  503    0 -0.36001763650E+03 -0.44396083682E+03 -0.47437616967E+03  0.74279652232E+03  0.00000000000E+00 0. -1.
         -1    1    6    6    0  503 -0.12785343171E+02 -0.62971595296E+02 -0.47340956063E+02  0.79812611379E+02  0.00000000000E+00 0.  1.
<mgrwt>
<rscale>  0 0.14746078E+04</rscale>
<asrwt>0</asrwt>
<pdfrwt beam="1">  1        1 0.35129928E+00 0.14746078E+04</pdfrwt>
<pdfrwt beam="2">  1       -2 0.36625968E-01 0.14746078E+04</pdfrwt>
<totfact> 0.11433924E+01</totfact>
</mgrwt>
</event>
<event>
12    4  0.4381187E-008  0.2065442E+04  0.7818608E-02  0.8576621E-01
         -2   -1    0    0    0  501 -0.00000000000E+00  0.00000000000E+00  0.14246234493E+04  0.14246234493E+04  0.00000000000E+00 0.  1.
          1   -1    0    0  501    0  0.00000000000E+00 -0.00000000000E+00 -0.74862792522E+03  0.74862792522E+03  0.00000000000E+00 0. -1.
        -24    2    1    2    0    0  0.49387016632E+02  0.94736456373E+02  0.11478136856E+04  0.11555304044E+04  0.79750768525E+02 0.  0.
        254    2    1    2    0    0 -0.49387016632E+02 -0.94736456373E+02 -0.47181816151E+03  0.10177209701E+04  0.89539350116E+03 0.  0.
         23    2    4    4    0    0 -0.21332563486E+03 -0.44503620395E+03 -0.22209552762E+03  0.54821400572E+03  0.87447832274E+02 0.  0.
         23    2    4    4    0    0  0.16393861823E+03  0.35029974758E+03 -0.24972263390E+03  0.46950696440E+03  0.92139090717E+02 0.  0.
          1    1    3    3  502    0 -0.19741679125E+02  0.34442537248E+02  0.44242329939E+03  0.44420085334E+03  0.00000000000E+00 0. -1.
         -2    1    3    3    0  502  0.69128695757E+02  0.60293919125E+02  0.70539038619E+03  0.71132955104E+03  0.00000000000E+00 0.  1.
         11    1    5    5    0    0 -0.20315637839E+03 -0.37314525989E+03 -0.21228631280E+03  0.47494776308E+03  0.00000000000E+00 0. -1.
        -11    1    5    5    0    0 -0.10169256476E+02 -0.71890944062E+02 -0.98092148167E+01  0.73266242641E+02  0.00000000000E+00 0.  1.
          2    1    6    6  503    0  0.10591425127E+03  0.12211503220E+03 -0.11319627628E+03  0.19734058548E+03  0.00000000000E+00 0.  1.
         -2    1    6    6    0  503  0.58024366960E+02  0.22818471538E+03 -0.13652635761E+03  0.27216637892E+03  0.00000000000E+00 0. -1.
<mgrwt>
<rscale>  0 0.20654422E+04</rscale>
<asrwt>0</asrwt>
<pdfrwt beam="1">  1        1 0.11517353E+00 0.20654422E+04</pdfrwt>
<pdfrwt beam="2">  1       -2 0.21917284E+00 0.20654422E+04</pdfrwt>
<totfact> 0.19849513E+00</totfact>
</mgrwt>
</event>
<event>
12    4  0.4381187E-008  0.2273324E+04  0.7818608E-02  0.8488514E-01
          1   -1    0    0  501    0  0.00000000000E+00  0.00000000000E+00  0.11301939845E+04  0.11301939845E+04  0.00000000000E+00 0. -1.
         -2   -1    0    0    0  501 -0.00000000000E+00 -0.00000000000E+00 -0.11431672798E+04  0.11431672798E+04  0.00000000000E+00 0.  1.
        -24    2    1    2    0    0  0.85690175958E+03  0.27047632317E+03 -0.32864834783E+03  0.96074821969E+03  0.87116807402E+02 0.  0.
        254    2    1    2    0    0 -0.85690175958E+03 -0.27047632317E+03  0.31567505248E+03  0.13126130446E+04  0.90325201307E+03 0.  0.
         23    2    4    4    0    0  0.31031209783E+02  0.22274571798E+03 -0.56126784714E+01  0.24349385913E+03  0.93162043844E+02 0.  0.
         23    2    4    4    0    0 -0.88793296937E+03 -0.49322204115E+03  0.32128773096E+03  0.10691191855E+04  0.89983813576E+02 0.  0.
          1    1    3    3  502    0  0.43049935310E+03  0.13236977324E+03 -0.11850186136E+03  0.46571895069E+03  0.00000000000E+00 0. -1.
         -2    1    3    3    0  502  0.42640240648E+03  0.13810654993E+03 -0.21014648647E+03  0.49502926900E+03  0.00000000000E+00 0.  1.
         11    1    5    5    0    0  0.68348404597E+00  0.13652031220E+03  0.38711441685E+02  0.14190432873E+03  0.00000000000E+00 0. -1.
        -11    1    5    5    0    0  0.30347725737E+02  0.86225405783E+02 -0.44324120156E+02  0.10158953040E+03  0.00000000000E+00 0.  1.
          4    1    6    6  503    0 -0.49950941491E+02 -0.53108325313E+02  0.16758228076E+02  0.74809284060E+02  0.00000000000E+00 0. -1.
         -4    1    6    6    0  503 -0.83798202788E+03 -0.44011371584E+03  0.30452950288E+03  0.99430990141E+03  0.00000000000E+00 0.  1.
<mgrwt>
<rscale>  0 0.22733242E+04</rscale>
<asrwt>0</asrwt>
<pdfrwt beam="1">  1        1 0.17387600E+00 0.22733242E+04</pdfrwt>
<pdfrwt beam="2">  1       -2 0.17587189E+00 0.22733242E+04</pdfrwt>
<totfact> 0.18525954E+00</totfact>
</mgrwt>
</event>
<event>
12    4  0.4381187E-008  0.2721129E+04  0.7818608E-02  0.8328182E-01
          1   -1    0    0  501    0  0.00000000000E+00  0.00000000000E+00  0.14297297535E+04  0.14297297535E+04  0.00000000000E+00 0. -1.
         -2   -1    0    0    0  501 -0.00000000000E+00 -0.00000000000E+00 -0.12947450772E+04  0.12947450772E+04  0.00000000000E+00 0.  1.
        -24    2    1    2    0    0 -0.26754574794E+03  0.49296690078E+03  0.11316151520E+04  0.12656124467E+04  0.81393614755E+02 0.  0.
        254    2    1    2    0    0  0.26754574794E+03 -0.49296690078E+03 -0.99663047575E+03  0.14588623839E+04  0.90576490188E+03 0.  0.
         23    2    4    4    0    0  0.45732880161E+03 -0.41545061286E+03 -0.23890951659E+03  0.66887728299E+03  0.92575472317E+02 0.  0.
         23    2    4    4    0    0 -0.18978305367E+03 -0.77516287916E+02 -0.75772095916E+03  0.78998510091E+03  0.88932701305E+02 0.  0.
          3    1    3    3  502    0 -0.26773254610E+03  0.46431872830E+03  0.10458923159E+04  0.11752290560E+04  0.00000000000E+00 0. -1.
         -4    1    3    3    0  502  0.18679816018E+00  0.28648172478E+02  0.85722836155E+02  0.90383390722E+02  0.00000000000E+00 0.  1.
         11    1    5    5    0    0  0.16578158333E+03 -0.21233994207E+03 -0.10685266524E+03  0.28980903444E+03  0.00000000000E+00 0. -1.
        -11    1    5    5    0    0  0.29154721828E+03 -0.20311067079E+03 -0.13205685135E+03  0.37906824856E+03  0.00000000000E+00 0.  1.
          3    1    6    6  503    0 -0.83547925800E+02  0.11070067442E+02 -0.25398150668E+03  0.26759934237E+03  0.00000000000E+00 0. -1.
         -3    1    6    6    0  503 -0.10623512787E+03 -0.88586355358E+02 -0.50373945248E+03  0.52238575855E+03  0.00000000000E+00 0.  1.
<mgrwt>
<rscale>  0 0.27211289E+04</rscale>
<asrwt>0</asrwt>
<pdfrwt beam="1">  1        1 0.21995842E+00 0.27211289E+04</pdfrwt>
<pdfrwt beam="2">  1       -2 0.19919155E+00 0.27211289E+04</pdfrwt>
<totfact> 0.75451869E-01</totfact>
</mgrwt>
</event>
<event>
12    4  0.5527196E-008  0.1778826E+04  0.7818608E-02  0.8717641E-01
         -2   -1    0    0    0  501 -0.00000000000E+00  0.00000000000E+00  0.84674195301E+03  0.84674195301E+03  0.00000000000E+00 0.  1.
          1   -1    0    0  501    0  0.00000000000E+00 -0.00000000000E+00 -0.93423458226E+03  0.93423458226E+03  0.00000000000E+00 0. -1.
        -24    2    1    2    0    0 -0.47414771587E+03  0.33402181076E+03 -0.34532223585E+03  0.67966474082E+03  0.79436054902E+02 0.  0.
        254    2    1    2    0    0  0.47414771587E+03 -0.33402181076E+03  0.25782960660E+03  0.11013117944E+04  0.90001385323E+03 0.  0.
         23    2    4    4    0    0  0.41359931569E+03  0.23507246203E+03  0.17759797538E+03  0.51627729762E+03  0.93154446143E+02 0.  0.
         23    2    4    4    0    0  0.60548400179E+02 -0.56909427279E+03  0.80231631219E+02  0.58503449682E+03  0.91070564553E+02 0.  0.
          3    1    3    3  502    0 -0.34866030573E+03  0.22944544553E+03 -0.20839770448E+03  0.46651776439E+03  0.00000000000E+00 0. -1.
         -4    1    3    3    0  502 -0.12548741014E+03  0.10457636524E+03 -0.13692453137E+03  0.21314697643E+03  0.00000000000E+00 0.  1.
         11    1    5    5    0    0  0.38183381081E+03  0.21686431367E+03  0.18879986441E+03  0.47798805259E+03  0.00000000000E+00 0. -1.
        -11    1    5    5    0    0  0.31765504882E+02  0.18208148366E+02 -0.11201889029E+02  0.38289245032E+02  0.00000000000E+00 0.  1.
          3    1    6    6  503    0  0.52211665269E+02 -0.56092239605E+03  0.66886576561E+02  0.56730398068E+03  0.00000000000E+00 0. -1.
         -3    1    6    6    0  503  0.83367349102E+01 -0.81718767477E+01  0.13345054658E+02  0.17730516134E+02  0.00000000000E+00 0.  1.
<mgrwt>
<rscale>  0 0.17788261E+04</rscale>
<asrwt>0</asrwt>
<pdfrwt beam="1">  1        1 0.14372840E+00 0.17788261E+04</pdfrwt>
<pdfrwt beam="2">  1       -2 0.13026799E+00 0.17788261E+04</pdfrwt>
<totfact> 0.61078941E+00</totfact>
</mgrwt>
</event>
<event>
12    4  0.4381187E-008  0.1724110E+04  0.7818608E-02  0.8747732E-01
          1   -1    0    0  501    0  0.00000000000E+00  0.00000000000E+00  0.17175611953E+04  0.17175611953E+04  0.00000000000E+00 0. -1.
         -2   -1    0    0    0  501 -0.00000000000E+00 -0.00000000000E+00 -0.43267071857E+03  0.43267071857E+03  0.00000000000E+00 0.  1.
        -24    2    1    2    0    0 -0.39187832157E+03  0.43737610286E+03  0.15900236782E+03  0.61331998606E+03  0.77544684273E+02 0.  0.
        254    2    1    2    0    0  0.39187832157E+03 -0.43737610286E+03  0.11258881089E+04  0.15369119278E+04  0.86579891762E+03 0.  0.
         23    2    4    4    0    0  0.11480744024E+03 -0.55239436112E+03  0.10744381571E+04  0.12169760054E+04  0.91065722613E+02 0.  0.
         23    2    4    4    0    0  0.27707088133E+03  0.11501825826E+03  0.51449951796E+02  0.31993592236E+03  0.98561776873E+02 0.  0.
          3    1    3    3  502    0 -0.34238505761E+03  0.37400283593E+03  0.16355505776E+03  0.53278129272E+03  0.00000000000E+00 0. -1.
         -4    1    3    3    0  502 -0.49493263958E+02  0.63373266928E+02 -0.45526899357E+01  0.80538693334E+02  0.00000000000E+00 0.  1.
         11    1    5    5    0    0  0.82006285377E+02 -0.18204711635E+03  0.36867062907E+03  0.41926628311E+03  0.00000000000E+00 0. -1.
        -11    1    5    5    0    0  0.32801154858E+02 -0.37034724476E+03  0.70576752801E+03  0.79770972230E+03  0.00000000000E+00 0.  1.
          4    1    6    6  503    0  0.10561730848E+02  0.47657565092E+01 -0.19718329795E+02  0.22870835654E+02  0.00000000000E+00 0. -1.
         -4    1    6    6    0  503  0.26650915049E+03  0.11025250175E+03  0.71168281591E+02  0.29706508671E+03  0.00000000000E+00 0.  1.
<mgrwt>
<rscale>  0 0.17241096E+04</rscale>
<asrwt>0</asrwt>
<pdfrwt beam="1">  1        1 0.26424018E+00 0.17241096E+04</pdfrwt>
<pdfrwt beam="2">  1       -2 0.66564727E-01 0.17241096E+04</pdfrwt>
<totfact> 0.80153994E+00</totfact>
</mgrwt>
</event>
<event>
12    4  0.4381187E-008  0.1422558E+04  0.7818608E-02  0.8937650E-01
          1   -1    0    0  501    0  0.00000000000E+00  0.00000000000E+00  0.22671450108E+04  0.22671450108E+04  0.00000000000E+00 0. -1.
         -2   -1    0    0    0  501 -0.00000000000E+00 -0.00000000000E+00 -0.22315192413E+03  0.22315192413E+03  0.00000000000E+00 0.  1.
        -24    2    1    2    0    0  0.32024453140E+03 -0.41600567196E+02  0.14294782883E+03  0.36223856239E+03  0.80594833796E+02 0.  0.
        254    2    1    2    0    0 -0.32024453140E+03  0.41600567196E+02  0.19010452578E+04  0.21280583725E+04  0.90020675265E+03 0.  0.
         23    2    4    4    0    0 -0.29464917132E+03  0.42019139824E+03  0.13908417894E+04  0.14853420666E+04  0.91767240840E+02 0.  0.
         23    2    4    4    0    0 -0.25595360079E+02 -0.37859083105E+03  0.51020346849E+03  0.64271630594E+03  0.93757830888E+02 0.  0.
          3    1    3    3  502    0  0.15677155845E+03 -0.41114755816E+02  0.33472081066E+02  0.16549357962E+03  0.00000000000E+00 0. -1.
         -4    1    3    3    0  502  0.16347297295E+03 -0.48581138012E+00  0.10947574776E+03  0.19674498277E+03  0.00000000000E+00 0.  1.
         11    1    5    5    0    0 -0.25410665791E+02  0.83019129807E+02  0.17823660362E+03  0.19825782386E+03  0.00000000000E+00 0. -1.
        -11    1    5    5    0    0 -0.26923850553E+03  0.33717226844E+03  0.12126051857E+04  0.12870842427E+04  0.00000000000E+00 0.  1.
          2    1    6    6  503    0  0.17044523434E+01  0.20957581473E+01  0.26177528599E+02  0.26316541634E+02  0.00000000000E+00 0. -1.
         -2    1    6    6    0  503 -0.27299812423E+02 -0.38068658920E+03  0.48402593989E+03  0.61639976431E+03  0.00000000000E+00 0.  1.
<mgrwt>
<rscale>  0 0.14225579E+04</rscale>
<asrwt>0</asrwt>
<pdfrwt beam="1">  1        1 0.34879152E+00 0.14225579E+04</pdfrwt>
<pdfrwt beam="2">  1       -2 0.34331067E-01 0.14225579E+04</pdfrwt>
<totfact> 0.13341036E+01</totfact>
</mgrwt>
</event>
<event>
12    4  0.4381187E-008  0.1439645E+04  0.7818608E-02  0.8925611E-01
         -2   -1    0    0    0  501 -0.00000000000E+00  0.00000000000E+00  0.13822550739E+04  0.13822550739E+04  0.00000000000E+00 0.  1.
          1   -1    0    0  501    0  0.00000000000E+00 -0.00000000000E+00 -0.37485442763E+03  0.37485442763E+03  0.00000000000E+00 0. -1.
        -24    2    1    2    0    0  0.22578109072E+03 -0.29928126533E+03  0.43273837653E+02  0.38547841720E+03  0.78578676484E+02 0.  0.
        254    2    1    2    0    0 -0.22578109072E+03  0.29928126533E+03  0.96412680864E+03  0.13716310843E+04  0.90071357917E+03 0.  0.
         23    2    4    4    0    0  0.67026997005E+02 -0.29107607955E+03  0.27385827904E+03  0.41320296789E+03  0.80749199773E+02 0.  0.
         23    2    4    4    0    0 -0.29280808772E+03  0.59035734488E+03  0.69026852959E+03  0.95842811645E+03  0.88630923294E+02 0.  0.
          1    1    3    3  502    0  0.19262956539E+03 -0.28598772577E+03  0.51999288297E+02  0.34871056012E+03  0.00000000000E+00 0. -1.
         -2    1    3    3    0  502  0.33151525327E+02 -0.13293539562E+02 -0.87254506440E+01  0.36767857084E+02  0.00000000000E+00 0.  1.
         11    1    5    5    0    0 -0.10374927577E+02 -0.96748221356E+02  0.61410406171E+02  0.11506126822E+03  0.00000000000E+00 0.  1.
        -11    1    5    5    0    0  0.77401924582E+02 -0.19432785819E+03  0.21244787287E+03  0.29814169968E+03  0.00000000000E+00 0. -1.
          1    1    6    6  503    0 -0.16991459613E+03  0.24819255951E+03  0.33229220062E+03  0.44820600528E+03  0.00000000000E+00 0. -1.
         -1    1    6    6    0  503 -0.12289349159E+03  0.34216478537E+03  0.35797632897E+03  0.51022211117E+03  0.00000000000E+00 0.  1.
<mgrwt>
<rscale>  0 0.14396450E+04</rscale>
<asrwt>0</asrwt>
<pdfrwt beam="1">  1        1 0.57669913E-01 0.14396450E+04</pdfrwt>
<pdfrwt beam="2">  1       -2 0.21265462E+00 0.14396450E+04</pdfrwt>
<totfact> 0.61120587E+00</totfact>
</mgrwt>
</event>
<event>
12    4  0.4381187E-008  0.1717622E+04  0.7818608E-02  0.8751377E-01
          1   -1    0    0  501    0  0.00000000000E+00  0.00000000000E+00  0.11459842215E+04  0.11459842215E+04  0.00000000000E+00 0. -1.
         -2   -1    0    0    0  501 -0.00000000000E+00 -0.00000000000E+00 -0.64360068582E+03  0.64360068582E+03  0.00000000000E+00 0.  1.
        -24    2    1    2    0    0 -0.44634202332E+03  0.41579561670E+03  0.61449000432E+02  0.62009595551E+03  0.92929100563E+02 0.  0.
        254    2    1    2    0    0  0.44634202332E+03 -0.41579561670E+03  0.44093453526E+03  0.11694889518E+04  0.89508320696E+03 0.  0.
         23    2    4    4    0    0 -0.99005018982E+02  0.20793220558E+03  0.73092647082E+02  0.25825452992E+03  0.91187012612E+02 0.  0.
         23    2    4    4    0    0  0.54534704230E+03 -0.62372782228E+03  0.36784188818E+03  0.91123442189E+03  0.92740089025E+02 0.  0.
          3    1    3    3  502    0 -0.25399092168E+03  0.28845019381E+03  0.14064831380E+02  0.38459423043E+03  0.00000000000E+00 0. -1.
         -4    1    3    3    0  502 -0.19235110164E+03  0.12734542290E+03  0.47384169052E+02  0.23550172507E+03  0.00000000000E+00 0.  1.
         11    1    5    5    0    0 -0.55440955163E+02  0.58532005688E+02 -0.10996046374E+02  0.81367120111E+02  0.00000000000E+00 0.  1.
        -11    1    5    5    0    0 -0.43564063819E+02  0.14940019989E+03  0.84088693456E+02  0.17688740981E+03  0.00000000000E+00 0. -1.
          1    1    6    6  503    0  0.51911462419E+03 -0.61085814116E+03  0.36786270745E+03  0.88201509806E+03  0.00000000000E+00 0. -1.
         -1    1    6    6    0  503  0.26232418113E+02 -0.12869681120E+02 -0.20819266374E-01  0.29219323839E+02  0.00000000000E+00 0.  1.
<mgrwt>
<rscale>  0 0.17176219E+04</rscale>
<asrwt>0</asrwt>
<pdfrwt beam="1">  1        1 0.17630526E+00 0.17176219E+04</pdfrwt>
<pdfrwt beam="2">  1       -2 0.99015490E-01 0.17176219E+04</pdfrwt>
<totfact> 0.82533169E+00</totfact>
</mgrwt>
</event>
<event>
12    4  0.4381187E-008  0.2069692E+04  0.7818608E-02  0.8574713E-01
         -2   -1    0    0    0  501 -0.00000000000E+00  0.00000000000E+00  0.13504711851E+04  0.13504711851E+04  0.00000000000E+00 0.  1.
          1   -1    0    0  501    0  0.00000000000E+00 -0.00000000000E+00 -0.79298685465E+03  0.79298685465E+03  0.00000000000E+00 0. -1.
        -24    2    1    2    0    0 -0.67150565343E+03  0.42559974304E+03 -0.44101455568E+02  0.80039184996E+03  0.81407562565E+02 0.  0.
        254    2    1    2    0    0  0.67150565343E+03 -0.42559974304E+03  0.60158578604E+03  0.13430661898E+04  0.89992574606E+03 0.  0.
         23    2    4    4    0    0  0.72393829323E+03  0.26489980812E+02  0.43513003849E+03  0.85008694886E+03  0.92310880863E+02 0.  0.
         23    2    4    4    0    0 -0.52432639805E+02 -0.45208972385E+03  0.16645574755E+03  0.49297924097E+03  0.90480473066E+02 0.  0.
          3    1    3    3  502    0 -0.62335667955E+03  0.40018467436E+03 -0.20471319437E+02  0.74104007884E+03  0.00000000000E+00 0. -1.
         -4    1    3    3    0  502 -0.48148973878E+02  0.25415068678E+02 -0.23630136131E+02  0.59351771119E+02  0.00000000000E+00 0.  1.
         11    1    5    5    0    0  0.94334045640E+01  0.12263854130E+02  0.67301884759E+01  0.16872660629E+02  0.00000000000E+00 0.  1.
        -11    1    5    5    0    0  0.71450488867E+03  0.14226126682E+02  0.42839985002E+03  0.83321428823E+03  0.00000000000E+00 0. -1.
          2    1    6    6  503    0 -0.40230038192E+02 -0.33099295088E+03  0.16319826874E+03  0.37122562469E+03  0.00000000000E+00 0. -1.
         -2    1    6    6    0  503 -0.12202601613E+02 -0.12109677296E+03  0.32574788146E+01  0.12175361628E+03  0.00000000000E+00 0.  1.
<mgrwt>
<rscale>  0 0.20696917E+04</rscale>
<asrwt>0</asrwt>
<pdfrwt beam="1">  1        1 0.12199798E+00 0.20696917E+04</pdfrwt>
<pdfrwt beam="2">  1       -2 0.20776480E+00 0.20696917E+04</pdfrwt>
<totfact> 0.21437734E+00</totfact>
</mgrwt>
</event>
<event>
12    4  0.4381187E-008  0.1147749E+04  0.7818608E-02  0.9159862E-01
          3   -1    0    0  501    0  0.00000000000E+00  0.00000000000E+00  0.10371513009E+04  0.10371513009E+04  0.00000000000E+00 0. -1.
         -4   -1    0    0    0  501 -0.00000000000E+00 -0.00000000000E+00 -0.31753532283E+03  0.31753532283E+03  0.00000000000E+00 0.  1.
        -24    2    1    2    0    0  0.11132782718E+03 -0.17775670376E+02  0.50102711203E+03  0.51969108849E+03  0.79629146106E+02 0.  0.
        254    2    1    2    0    0 -0.11132782718E+03  0.17775670376E+02  0.21858886605E+03  0.83499553524E+03  0.79795149724E+03 0.  0.
         23    2    4    4    0    0  0.25750139692E+03  0.16196100612E+02  0.33893295705E+03  0.43547509415E+03  0.90519197749E+02 0.  0.
         23    2    4    4    0    0 -0.36882922410E+03  0.15795697637E+01 -0.12034409100E+03  0.39952044109E+03  0.95375002068E+02 0.  0.
          1    1    3    3  502    0  0.17458400589E+02 -0.32959946297E+02  0.21665026639E+03  0.21983742115E+03  0.00000000000E+00 0. -1.
         -4    1    3    3    0  502  0.93869426591E+02  0.15184275921E+02  0.28437684564E+03  0.29985366734E+03  0.00000000000E+00 0.  1.
         11    1    5    5    0    0  0.46690924807E+02 -0.22027339520E+02  0.30599154913E+02  0.60012952161E+02  0.00000000000E+00 0. -1.
        -11    1    5    5    0    0  0.21081047211E+03  0.38223440133E+02  0.30833380214E+03  0.37546214199E+03  0.00000000000E+00 0.  1.
          4    1    6    6  503    0 -0.24341509673E+03  0.39164614176E+02 -0.52547786757E+02  0.25208341122E+03  0.00000000000E+00 0. -1.
         -4    1    6    6    0  503 -0.12541412736E+03 -0.37585044412E+02 -0.67796304245E+02  0.14743702987E+03  0.00000000000E+00 0.  1.
<mgrwt>
<rscale>  0 0.11477494E+04</rscale>
<asrwt>0</asrwt>
<pdfrwt beam="1">  1        3 0.15956174E+00 0.11477494E+04</pdfrwt>
<pdfrwt beam="2">  1       -4 0.48851588E-01 0.11477494E+04</pdfrwt>
<totfact> 0.25260330E+00</totfact>
</mgrwt>
</event>
<event>
12    4  0.4381187E-008  0.3182470E+04  0.7818608E-02  0.8193462E-01
          1   -1    0    0  501    0  0.00000000000E+00  0.00000000000E+00  0.16175251279E+04  0.16175251279E+04  0.00000000000E+00 0. -1.
         -2   -1    0    0    0  501 -0.00000000000E+00 -0.00000000000E+00 -0.15653722047E+04  0.15653722047E+04  0.00000000000E+00 0.  1.
        -24    2    1    2    0    0  0.11830155912E+04 -0.14462905908E+03  0.88033606068E+03  0.14838590521E+04  0.80016579974E+02 0.  0.
        254    2    1    2    0    0 -0.11830155912E+04  0.14462905908E+03 -0.82818313752E+03  0.16990382805E+04  0.88340269170E+03 0.  0.
         23    2    4    4    0    0  0.11519889766E+03  0.99836217126E+02 -0.59123746996E+02  0.18715052270E+03  0.91058467012E+02 0.  0.
         23    2    4    4    0    0 -0.12982144888E+04  0.44792841957E+02 -0.76905939053E+03  0.15118877578E+04  0.83576242936E+02 0.  0.
          1    1    3    3  502    0  0.10071872654E+04 -0.10388687463E+03  0.77295938107E+03  0.12738464880E+04  0.00000000000E+00 0. -1.
         -2    1    3    3    0  502  0.17582832582E+03 -0.40742184452E+02  0.10737667961E+03  0.21001256410E+03  0.00000000000E+00 0.  1.
         11    1    5    5    0    0  0.76127903411E+02  0.43036746160E+02 -0.76350772277E+02  0.11609073876E+03  0.00000000000E+00 0. -1.
        -11    1    5    5    0    0  0.39070994250E+02  0.56799470965E+02  0.17227025280E+02  0.71059783940E+02  0.00000000000E+00 0.  1.
          4    1    6    6  503    0 -0.13892371375E+03  0.11533008408E+02 -0.54584710552E+02  0.14970737841E+03  0.00000000000E+00 0. -1.
         -4    1    6    6    0  503 -0.11592907751E+04  0.33259833549E+02 -0.71447467998E+03  0.13621803794E+04  0.00000000000E+00 0.  1.
<mgrwt>
<rscale>  0 0.31824700E+04</rscale>
<asrwt>0</asrwt>
<pdfrwt beam="1">  1        1 0.24885002E+00 0.31824700E+04</pdfrwt>
<pdfrwt beam="2">  1       -2 0.24082649E+00 0.31824700E+04</pdfrwt>
<totfact> 0.29250228E-01</totfact>
</mgrwt>
</event>
<event>
12    4  0.4381187E-008  0.1379739E+04  0.7818608E-02  0.8968616E-01
         -2   -1    0    0    0  501 -0.00000000000E+00  0.00000000000E+00  0.32064864859E+03  0.32064864859E+03  0.00000000000E+00 0.  1.
          1   -1    0    0  501    0  0.00000000000E+00 -0.00000000000E+00 -0.14842417318E+04  0.14842417318E+04  0.00000000000E+00 0. -1.
        -24    2    1    2    0    0  0.29641343222E+03 -0.27670772329E+03 -0.33711711458E+03  0.53328040632E+03  0.79447818679E+02 0.  0.
        254    2    1    2    0    0 -0.29641343222E+03  0.27670772329E+03 -0.82647596864E+03  0.12716099741E+04  0.87721223914E+03 0.  0.
         23    2    4    4    0    0  0.21411568513E+03  0.30824447309E+03 -0.13969604315E+03  0.41052953574E+03  0.90329028747E+02 0.  0.
         23    2    4    4    0    0 -0.51052911735E+03 -0.31536749799E+02 -0.68677992549E+03  0.86108043833E+03  0.90323357870E+02 0.  0.
          3    1    3    3  502    0  0.82437853671E+01 -0.13707931154E+02  0.22982132311E+01  0.16160110079E+02  0.00000000000E+00 0. -1.
         -4    1    3    3    0  502  0.28816964685E+03 -0.26299979214E+03 -0.33941532781E+03  0.51712029624E+03  0.00000000000E+00 0.  1.
         11    1    5    5    0    0  0.68317133033E+02  0.12851461555E+03 -0.97763506306E+02  0.17533094490E+03  0.00000000000E+00 0.  1.
        -11    1    5    5    0    0  0.14579855209E+03  0.17972985754E+03 -0.41932536839E+02  0.23519859083E+03  0.00000000000E+00 0. -1.
          4    1    6    6  503    0 -0.46131595119E+03 -0.57821197707E+01 -0.63680481622E+03  0.78636264769E+03  0.00000000000E+00 0. -1.
         -4    1    6    6    0  503 -0.49213166162E+02 -0.25754630028E+02 -0.49975109273E+02  0.74717790642E+02  0.00000000000E+00 0.  1.
<mgrwt>
<rscale>  0 0.13797393E+04</rscale>
<asrwt>0</asrwt>
<pdfrwt beam="1">  1        1 0.22834488E+00 0.13797393E+04</pdfrwt>
<pdfrwt beam="2">  1       -2 0.49330562E-01 0.13797393E+04</pdfrwt>
<totfact> 0.22360038E+01</totfact>
</mgrwt>
</event>
<event>
12    4  0.4381187E-008  0.1713655E+04  0.7818608E-02  0.8753615E-01
         -2   -1    0    0    0  501 -0.00000000000E+00  0.00000000000E+00  0.31343456936E+03  0.31343456936E+03  0.00000000000E+00 0.  1.
          1   -1    0    0  501    0  0.00000000000E+00 -0.00000000000E+00 -0.23422847961E+04  0.23422847961E+04  0.00000000000E+00 0. -1.
        -24    2    1    2    0    0 -0.97352557654E+02  0.30398278102E+03  0.81605053223E+02  0.33893197383E+03  0.79576670760E+02 0.  0.
        254    2    1    2    0    0  0.97352557654E+02 -0.30398278102E+03 -0.21104552799E+04  0.23167873916E+04  0.90088804948E+03 0.  0.
         23    2    4    4    0    0 -0.21178578660E+03 -0.50949488103E+03 -0.10541294604E+04  0.11933575152E+04  0.92059689828E+02 0.  0.
         23    2    4    4    0    0  0.30913834425E+03  0.20551210001E+03 -0.10563258195E+04  0.11234298764E+04  0.92025600608E+02 0.  0.
          3    1    3    3  502    0 -0.11343906568E+02  0.15664186682E+01 -0.54656800184E+01  0.12689032340E+02  0.00000000000E+00 0. -1.
         -4    1    3    3    0  502 -0.86008651086E+02  0.30241636236E+03  0.87070733241E+02  0.32624294149E+03  0.00000000000E+00 0.  1.
         11    1    5    5    0    0  0.88705985586E+00 -0.66156024991E+02 -0.98714632097E+02  0.11883595882E+03  0.00000000000E+00 0.  1.
        -11    1    5    5    0    0 -0.21267284645E+03 -0.44333885604E+03 -0.95541482832E+03  0.10745215564E+04  0.00000000000E+00 0. -1.
          3    1    6    6  503    0  0.22317361164E+03  0.12706533090E+03 -0.83170133536E+03  0.87044768395E+03  0.00000000000E+00 0. -1.
         -3    1    6    6    0  503  0.85964732609E+02  0.78446769113E+02 -0.22462448416E+03  0.25298219250E+03  0.00000000000E+00 0.  1.
<mgrwt>
<rscale>  0 0.17136546E+04</rscale>
<asrwt>0</asrwt>
<pdfrwt beam="1">  1        1 0.36035151E+00 0.17136546E+04</pdfrwt>
<pdfrwt beam="2">  1       -2 0.48220702E-01 0.17136546E+04</pdfrwt>
<totfact> 0.59256988E+00</totfact>
</mgrwt>
</event>
<event>
12    4  0.4381187E-008  0.2269321E+04  0.7818608E-02  0.8490116E-01
          1   -1    0    0  501    0  0.00000000000E+00  0.00000000000E+00  0.19876705602E+04  0.19876705602E+04  0.00000000000E+00 0. -1.
         -2   -1    0    0    0  501 -0.00000000000E+00 -0.00000000000E+00 -0.64772049593E+03  0.64772049593E+03  0.00000000000E+00 0.  1.
        -24    2    1    2    0    0 -0.26694259864E+03 -0.16060655323E+03 -0.48210526860E+03  0.57911139486E+03  0.76757421396E+02 0.  0.
        254    2    1    2    0    0  0.26694259864E+03  0.16060655323E+03  0.18220553329E+04  0.20562796613E+04  0.90074835190E+03 0.  0.
         23    2    4    4    0    0  0.27863182678E+03  0.26490556800E+03  0.18661792985E+04  0.19075041141E+04  0.90200423309E+02 0.  0.
         23    2    4    4    0    0 -0.11689228141E+02 -0.10429901477E+03 -0.44123965624E+02  0.14877554717E+03  0.95772211816E+02 0.  0.
          3    1    3    3  502    0 -0.31015950084E+02 -0.87091134511E+01 -0.99891547753E+02  0.10495789217E+03  0.00000000000E+00 0. -1.
         -4    1    3    3    0  502 -0.23592664856E+03 -0.15189743978E+03 -0.38221372084E+03  0.47415350269E+03  0.00000000000E+00 0.  1.
         11    1    5    5    0    0  0.63729165827E+02  0.96160968799E+02  0.72158402999E+03  0.73074746036E+03  0.00000000000E+00 0. -1.
        -11    1    5    5    0    0  0.21490266096E+03  0.16874459920E+03  0.11445952685E+04  0.11767566538E+04  0.00000000000E+00 0.  1.
          1    1    6    6  503    0  0.15890128804E+02  0.18606669125E+01 -0.35277459035E+02  0.38735737901E+02  0.00000000000E+00 0. -1.
         -1    1    6    6    0  503 -0.27579356945E+02 -0.10615968168E+03 -0.88465065887E+01  0.11003980927E+03  0.00000000000E+00 0.  1.
<mgrwt>
<rscale>  0 0.22693215E+04</rscale>
<asrwt>0</asrwt>
<pdfrwt beam="1">  1        1 0.30579547E+00 0.22693215E+04</pdfrwt>
<pdfrwt beam="2">  1       -2 0.99649307E-01 0.22693215E+04</pdfrwt>
<totfact> 0.20144908E+00</totfact>
</mgrwt>
</event>
<event>
12    4  0.4381187E-008  0.1616319E+04  0.7818608E-02  0.8810585E-01
          1   -1    0    0  501    0  0.00000000000E+00  0.00000000000E+00  0.17411722548E+04  0.17411722548E+04  0.00000000000E+00 0. -1.
         -2   -1    0    0    0  501 -0.00000000000E+00 -0.00000000000E+00 -0.37510463524E+03  0.37510463524E+03  0.00000000000E+00 0.  1.
        -24    2    1    2    0    0 -0.51312579490E+03 -0.77854816055E+02  0.70994525723E+03  0.88311929863E+03  0.80733967867E+02 0.  0.
        254    2    1    2    0    0  0.51312579490E+03  0.77854816055E+02  0.65612236227E+03  0.12331575914E+04  0.90599207342E+03 0.  0.
         23    2    4    4    0    0  0.19733791572E+03  0.44975300920E+03  0.51405619730E+03  0.71682352207E+03  0.91444877122E+02 0.  0.
         23    2    4    4    0    0  0.31578787918E+03 -0.37189819315E+03  0.14206616498E+03  0.51633406929E+03  0.91585070731E+02 0.  0.
          1    1    3    3  502    0 -0.38653138296E+03 -0.39834588507E+02  0.57700880435E+03  0.69565254600E+03  0.00000000000E+00 0. -1.
         -2    1    3    3    0  502 -0.12659441193E+03 -0.38020227549E+02  0.13293645288E+03  0.18746675262E+03  0.00000000000E+00 0.  1.
         11    1    5    5    0    0  0.16325780296E+03  0.29136068328E+03  0.38509473499E+03  0.50974710681E+03  0.00000000000E+00 0.  1.
        -11    1    5    5    0    0  0.34080112761E+02  0.15839232592E+03  0.12896146231E+03  0.20707641526E+03  0.00000000000E+00 0. -1.
          1    1    6    6  503    0  0.13388223270E+03 -0.16747895842E+03  0.10952862125E+03  0.24076995788E+03  0.00000000000E+00 0. -1.
         -1    1    6    6    0  503  0.18190564648E+03 -0.20441923473E+03  0.32537543733E+02  0.27556411141E+03  0.00000000000E+00 0.  1.
<mgrwt>
<rscale>  0 0.16163190E+04</rscale>
<asrwt>0</asrwt>
<pdfrwt beam="1">  1        1 0.26787265E+00 0.16163190E+04</pdfrwt>
<pdfrwt beam="2">  1       -2 0.57708406E-01 0.16163190E+04</pdfrwt>
<totfact> 0.10565760E+01</totfact>
</mgrwt>
</event>
<event>
12    4  0.4381187E-008  0.1369243E+04  0.7818608E-02  0.8976388E-01
         -2   -1    0    0    0  501 -0.00000000000E+00  0.00000000000E+00  0.25007470093E+03  0.25007470093E+03  0.00000000000E+00 0.  1.
          1   -1    0    0  501    0  0.00000000000E+00 -0.00000000000E+00 -0.18742675936E+04  0.18742675936E+04  0.00000000000E+00 0. -1.
        -24    2    1    2    0    0  0.25208418644E+03  0.28500045940E+03 -0.48931352219E+03  0.62454785456E+03  0.76554560464E+02 0.  0.
        254    2    1    2    0    0 -0.25208418644E+03 -0.28500045940E+03 -0.11348793705E+04  0.14997944400E+04  0.90369268987E+03 0.  0.
         23    2    4    4    0    0  0.30628378957E+03 -0.11107304019E+03 -0.65776735247E+03  0.73954595151E+03  0.90129597897E+02 0.  0.
         23    2    4    4    0    0 -0.55836797601E+03 -0.17392741921E+03 -0.47711201801E+03  0.76024848845E+03  0.91193983815E+02 0.  0.
          1    1    3    3  502    0  0.49725784308E+02  0.79751218979E+02 -0.17103444083E+03  0.19515555463E+03  0.00000000000E+00 0. -1.
         -2    1    3    3    0  502  0.20235840214E+03  0.20524924042E+03 -0.31827908136E+03  0.42939229993E+03  0.00000000000E+00 0.  1.
         11    1    5    5    0    0  0.17958049986E+03 -0.91946807347E+02 -0.47754309895E+03  0.51841178871E+03  0.00000000000E+00 0.  1.
        -11    1    5    5    0    0  0.12670328971E+03 -0.19126232845E+02 -0.18022425351E+03  0.22113416281E+03  0.00000000000E+00 0. -1.
          3    1    6    6  503    0 -0.45814742900E+02  0.50356508149E+01 -0.59765269307E+02  0.75473411619E+02  0.00000000000E+00 0. -1.
         -3    1    6    6    0  503 -0.51255323311E+03 -0.17896307002E+03 -0.41734674870E+03  0.68477507684E+03  0.00000000000E+00 0.  1.
<mgrwt>
<rscale>  0 0.13692435E+04</rscale>
<asrwt>0</asrwt>
<pdfrwt beam="1">  1        1 0.28834886E+00 0.13692435E+04</pdfrwt>
<pdfrwt beam="2">  1       -2 0.38473032E-01 0.13692435E+04</pdfrwt>
<totfact> 0.19870262E+01</totfact>
</mgrwt>
</event>
<event>
12    4  0.4381187E-008  0.1321349E+04  0.7818608E-02  0.9012804E-01
          1   -1    0    0  501    0  0.00000000000E+00  0.00000000000E+00  0.95418614210E+03  0.95418614210E+03  0.00000000000E+00 0. -1.
         -2   -1    0    0    0  501 -0.00000000000E+00 -0.00000000000E+00 -0.45744836630E+03  0.45744836630E+03  0.00000000000E+00 0.  1.
        -24    2    1    2    0    0  0.77498801889E+02  0.28233979450E+02  0.49462991120E+03  0.50798269231E+03  0.81144591589E+02 0.  0.
        254    2    1    2    0    0 -0.77498801889E+02 -0.28233979450E+02  0.21078645997E+01  0.90365181609E+03  0.89987718037E+03 0.  0.
         23    2    4    4    0    0  0.94276836671E+02 -0.17536279796E+03  0.38853444056E+03  0.44596608979E+03  0.91030263639E+02 0.  0.
         23    2    4    4    0    0 -0.17177563856E+03  0.14712881851E+03 -0.38642657596E+03  0.45768572630E+03  0.94852339014E+02 0.  0.
          3    1    3    3  502    0  0.80205878280E+02 -0.66816737041E+01  0.35808098958E+03  0.36701447216E+03  0.00000000000E+00 0. -1.
         -4    1    3    3    0  502 -0.27070763912E+01  0.34915653155E+02  0.13654892162E+03  0.14096822015E+03  0.00000000000E+00 0.  1.
         11    1    5    5    0    0 -0.74588547564E+01 -0.74798612909E+02  0.15118999555E+03  0.16884573362E+03  0.00000000000E+00 0.  1.
        -11    1    5    5    0    0  0.10173569143E+03 -0.10056418505E+03  0.23734444501E+03  0.27712035617E+03  0.00000000000E+00 0. -1.
          4    1    6    6  503    0 -0.17152913720E+03  0.12075600537E+03 -0.37335497824E+03  0.42825015764E+03  0.00000000000E+00 0. -1.
         -4    1    6    6    0  503 -0.24650136038E+00  0.26372813139E+02 -0.13071597723E+02  0.29435568668E+02  0.00000000000E+00 0.  1.
<mgrwt>
<rscale>  0 0.13213491E+04</rscale>
<asrwt>0</asrwt>
<pdfrwt beam="1">  1        1 0.14679787E+00 0.13213491E+04</pdfrwt>
<pdfrwt beam="2">  1       -2 0.70376672E-01 0.13213491E+04</pdfrwt>
<totfact> 0.25985852E+01</totfact>
</mgrwt>
</event>
<event>
12    4  0.4381187E-008  0.4775111E+04  0.7818608E-02  0.7864167E-01
         -2   -1    0    0    0  501 -0.00000000000E+00  0.00000000000E+00  0.22488518194E+04  0.22488518194E+04  0.00000000000E+00 0.  1.
          1   -1    0    0  501    0  0.00000000000E+00 -0.00000000000E+00 -0.25348137144E+04  0.25348137144E+04  0.00000000000E+00 0. -1.
        -24    2    1    2    0    0 -0.18876293802E+04  0.43585907847E+03 -0.13852329712E+04  0.23830952314E+04  0.84585368059E+02 0.  0.
        254    2    1    2    0    0  0.18876293802E+04 -0.43585907847E+03  0.10992710762E+04  0.24005703024E+04  0.89511064360E+03 0.  0.
         23    2    4    4    0    0  0.12022720455E+03 -0.24930176455E+03  0.38638757526E+03  0.48373201916E+03  0.89974204741E+02 0.  0.
         23    2    4    4    0    0  0.17674021756E+04 -0.18655731392E+03  0.71288350099E+03  0.19168382832E+04  0.86902452056E+02 0.  0.
          1    1    3    3  502    0 -0.15461793448E+04  0.38926781873E+03 -0.11297309163E+04  0.19540961963E+04  0.00000000000E+00 0. -1.
         -2    1    3    3    0  502 -0.34145003538E+03  0.46591259744E+02 -0.25550205482E+03  0.42899903515E+03  0.00000000000E+00 0.  1.
         11    1    5    5    0    0  0.25967799240E+02 -0.13432273606E+02  0.12667174142E+02  0.31862358236E+02  0.00000000000E+00 0. -1.
        -11    1    5    5    0    0  0.94259405310E+02 -0.23586949095E+03  0.37372040112E+03  0.45186966092E+03  0.00000000000E+00 0.  1.
          2    1    6    6  503    0  0.16075942953E+04 -0.17466092228E+03  0.67427798813E+03  0.17520036134E+04  0.00000000000E+00 0.  1.
         -2    1    6    6    0  503  0.15980788032E+03 -0.11896391641E+02  0.38605512857E+02  0.16483466981E+03  0.00000000000E+00 0. -1.
<mgrwt>
<rscale>  0 0.47751107E+04</rscale>
<asrwt>0</asrwt>
<pdfrwt beam="1">  1        1 0.38997134E+00 0.47751107E+04</pdfrwt>
<pdfrwt beam="2">  1       -2 0.34597720E+00 0.47751107E+04</pdfrwt>
<totfact> 0.13656568E-02</totfact>
</mgrwt>
</event>
<event>
12    4  0.4381187E-008  0.2051263E+04  0.7818608E-02  0.8583022E-01
         -2   -1    0    0    0  501 -0.00000000000E+00  0.00000000000E+00  0.34800610920E+03  0.34800610920E+03  0.00000000000E+00 0.  1.
          1   -1    0    0  501    0  0.00000000000E+00 -0.00000000000E+00 -0.30227045193E+04  0.30227045193E+04  0.00000000000E+00 0. -1.
        -24    2    1    2    0    0  0.75026462856E+03 -0.33543607139E+03 -0.99914520969E+03  0.12960094980E+04  0.77039588127E+02 0.  0.
        254    2    1    2    0    0 -0.75026462856E+03  0.33543607139E+03 -0.16755532004E+04  0.20747011304E+04  0.90636189373E+03 0.  0.
         23    2    4    4    0    0 -0.68123266510E+03  0.10862537967E+03 -0.46278999197E+03  0.83595474771E+03  0.93639449144E+02 0.  0.
         23    2    4    4    0    0 -0.69031963455E+02  0.22681069172E+03 -0.12127632084E+04  0.12387463827E+04  0.86541892460E+02 0.  0.
          3    1    3    3  502    0  0.32526173069E+03 -0.14841645217E+03 -0.49502756209E+03  0.61063485321E+03  0.00000000000E+00 0. -1.
         -4    1    3    3    0  502  0.42500289787E+03 -0.18701961922E+03 -0.50411764760E+03  0.68537464484E+03  0.00000000000E+00 0.  1.
         11    1    5    5    0    0 -0.23088955898E+03  0.66971627948E+02 -0.20116649847E+03  0.31346953201E+03  0.00000000000E+00 0. -1.
        -11    1    5    5    0    0 -0.45034310613E+03  0.41653751722E+02 -0.26162349350E+03  0.52248521569E+03  0.00000000000E+00 0.  1.
          1    1    6    6  503    0  0.15225521860E+02  0.28403381099E+02 -0.25485074011E+03  0.25688026065E+03  0.00000000000E+00 0. -1.
         -1    1    6    6    0  503 -0.84257485315E+02  0.19840731062E+03 -0.95791246829E+03  0.98186612206E+03  0.00000000000E+00 0.  1.
<mgrwt>
<rscale>  0 0.20512627E+04</rscale>
<asrwt>0</asrwt>
<pdfrwt beam="1">  1        1 0.46503146E+00 0.20512627E+04</pdfrwt>
<pdfrwt beam="2">  1       -2 0.53539402E-01 0.20512627E+04</pdfrwt>
<totfact> 0.15374817E+00</totfact>
</mgrwt>
</event>
<event>
12    4  0.4381187E-008  0.1507361E+04  0.7818608E-02  0.8879573E-01
         -2   -1    0    0    0  501 -0.00000000000E+00  0.00000000000E+00  0.26717397946E+03  0.26717397946E+03  0.00000000000E+00 0.  1.
          1   -1    0    0  501    0  0.00000000000E+00 -0.00000000000E+00 -0.21260840234E+04  0.21260840234E+04  0.00000000000E+00 0. -1.
        -24    2    1    2    0    0  0.44638466702E+03 -0.12691596018E+03 -0.78447402352E+03  0.91508821187E+03  0.81363444143E+02 0.  0.
        254    2    1    2    0    0 -0.44638466702E+03  0.12691596018E+03 -0.10744360204E+04  0.14781697910E+04  0.90288772120E+03 0.  0.
         23    2    4    4    0    0 -0.58816641150E+03 -0.99966919192E+02 -0.34310168308E+03  0.69395865096E+03  0.89032195090E+02 0.  0.
         23    2    4    4    0    0  0.14178174449E+03  0.22688287937E+03 -0.73133433732E+03  0.78421114000E+03  0.92516458704E+02 0.  0.
          1    1    3    3  502    0  0.18447955801E+03 -0.30683831509E+02 -0.38241850966E+03  0.42569721795E+03  0.00000000000E+00 0. -1.
         -2    1    3    3    0  502  0.26190510900E+03 -0.96232128672E+02 -0.40205551386E+03  0.48939099392E+03  0.00000000000E+00 0.  1.
         11    1    5    5    0    0 -0.57394826186E+03 -0.88412037976E+02 -0.31566539475E+03  0.66096742522E+03  0.00000000000E+00 0. -1.
        -11    1    5    5    0    0 -0.14218149642E+02 -0.11554881216E+02 -0.27436288329E+02  0.32991225749E+02  0.00000000000E+00 0.  1.
          2    1    6    6  503    0  0.13112395589E+03  0.19855543784E+03 -0.70507015322E+03  0.74413820938E+03  0.00000000000E+00 0. -1.
         -2    1    6    6    0  503  0.10657788596E+02  0.28327441534E+02 -0.26264184104E+02  0.40072930618E+02  0.00000000000E+00 0.  1.
<mgrwt>
<rscale>  0 0.15073610E+04</rscale>
<asrwt>0</asrwt>
<pdfrwt beam="1">  1        1 0.32708984E+00 0.15073610E+04</pdfrwt>
<pdfrwt beam="2">  1       -2 0.41103690E-01 0.15073610E+04</pdfrwt>
<totfact> 0.11652611E+01</totfact>
</mgrwt>
</event>
<event>
12    4  0.4381187E-008  0.2845833E+04  0.7818608E-02  0.8289179E-01
          1   -1    0    0  501    0  0.00000000000E+00  0.00000000000E+00  0.95317655356E+03  0.95317655356E+03  0.00000000000E+00 0. -1.
         -2   -1    0    0    0  501 -0.00000000000E+00 -0.00000000000E+00 -0.21241514946E+04  0.21241514946E+04  0.00000000000E+00 0.  1.
        -24    2    1    2    0    0  0.52621712773E+03  0.55361766657E+03  0.58692079375E+03  0.96652562514E+03  0.79364851550E+02 0.  0.
        254    2    1    2    0    0 -0.52621712773E+03 -0.55361766657E+03 -0.17578957348E+04  0.21108024231E+04  0.88424683681E+03 0.  0.
         23    2    4    4    0    0 -0.16681056155E+03 -0.43543053162E+01 -0.12758123532E+04  0.12899740003E+04  0.92146824872E+02 0.  0.
         23    2    4    4    0    0 -0.35940656617E+03 -0.54926336126E+03 -0.48208338162E+03  0.82082842280E+03  0.10242847753E+03 0.  0.
          1    1    3    3  502    0  0.42019988924E+03  0.39403766216E+03  0.42903681491E+03  0.71826611688E+03  0.00000000000E+00 0. -1.
         -2    1    3    3    0  502  0.10601723849E+03  0.15958000441E+03  0.15788397884E+03  0.24825950826E+03  0.00000000000E+00 0.  1.
         11    1    5    5    0    0 -0.10311615419E+03  0.76881384758E+01 -0.10488902585E+04  0.10539747734E+04  0.00000000000E+00 0. -1.
        -11    1    5    5    0    0 -0.63694407366E+02 -0.12042443792E+02 -0.22692209475E+03  0.23599922684E+03  0.00000000000E+00 0.  1.
          3    1    6    6  503    0 -0.29283968680E+03 -0.48243762405E+03 -0.37233838882E+03  0.67611908644E+03  0.00000000000E+00 0. -1.
         -3    1    6    6    0  503 -0.66566879371E+02 -0.66825737206E+02 -0.10974499280E+03  0.14470933635E+03  0.00000000000E+00 0.  1.
<mgrwt>
<rscale>  0 0.28458330E+04</rscale>
<asrwt>0</asrwt>
<pdfrwt beam="1">  1        1 0.14664255E+00 0.28458330E+04</pdfrwt>
<pdfrwt beam="2">  1       -2 0.32679254E+00 0.28458330E+04</pdfrwt>
<totfact> 0.27091826E-01</totfact>
</mgrwt>
</event>
<event>
12    4  0.5127610E-008  0.2111077E+04  0.7818608E-02  0.8556379E-01
         -2   -1    0    0    0  501 -0.00000000000E+00  0.00000000000E+00  0.86188003528E+03  0.86188003528E+03  0.00000000000E+00 0.  1.
          1   -1    0    0  501    0  0.00000000000E+00 -0.00000000000E+00 -0.12927110852E+04  0.12927110852E+04  0.00000000000E+00 0. -1.
        -24    2    1    2    0    0 -0.13940809701E+01 -0.76116317455E+03 -0.56304577458E+03  0.95063266650E+03  0.85502050209E+02 0.  0.
        254    2    1    2    0    0  0.13940809701E+01  0.76116317455E+03  0.13221472467E+03  0.12039584540E+04  0.92339802020E+03 0.  0.
         23    2    4    4    0    0 -0.40507388517E+03  0.32561616900E+03 -0.13504429660E+03  0.54449549560E+03  0.90153428743E+02 0.  0.
         23    2    4    4    0    0  0.40646796614E+03  0.43554700555E+03  0.26725902127E+03  0.65946295837E+03  0.92447863540E+02 0.  0.
          3    1    3    3  502    0 -0.73079283205E+01 -0.73878798317E+03 -0.52594945340E+03  0.90690899071E+03  0.00000000000E+00 0. -1.
         -4    1    3    3    0  502  0.59138473504E+01 -0.22375191378E+02 -0.37096321175E+02  0.43723675788E+02  0.00000000000E+00 0.  1.
         11    1    5    5    0    0 -0.32713584487E+03  0.24021506254E+03 -0.13845906975E+03  0.42882636494E+03  0.00000000000E+00 0. -1.
        -11    1    5    5    0    0 -0.77938040300E+02  0.85401106465E+02  0.34147731484E+01  0.11566913066E+03  0.00000000000E+00 0.  1.
          3    1    6    6  503    0  0.34108138219E+03  0.34668156897E+03  0.25302087244E+03  0.54821909984E+03  0.00000000000E+00 0. -1.
         -3    1    6    6    0  503  0.65386583950E+02  0.88865436573E+02  0.14238148833E+02  0.11124385853E+03  0.00000000000E+00 0.  1.
<mgrwt>
<rscale>  0 0.21110773E+04</rscale>
<asrwt>0</asrwt>
<pdfrwt beam="1">  1        1 0.19887863E+00 0.21110773E+04</pdfrwt>
<pdfrwt beam="2">  1       -2 0.13259693E+00 0.21110773E+04</pdfrwt>
<totfact> 0.30484620E+00</totfact>
</mgrwt>
</event>
<event>
12    4  0.4381187E-008  0.3039274E+04  0.7818608E-02  0.8232604E-01
         -2   -1    0    0    0  501 -0.00000000000E+00  0.00000000000E+00  0.16985294854E+04  0.16985294854E+04  0.00000000000E+00 0.  1.
          1   -1    0    0  501    0  0.00000000000E+00 -0.00000000000E+00 -0.13595855129E+04  0.13595855129E+04  0.00000000000E+00 0. -1.
        -24    2    1    2    0    0  0.57384343735E+03 -0.50735018791E+03 -0.10139298237E+04  0.12732785539E+04  0.80523814418E+02 0.  0.
        254    2    1    2    0    0 -0.57384343735E+03  0.50735018791E+03  0.13528737962E+04  0.17848364444E+04  0.87674005331E+03 0.  0.
         23    2    4    4    0    0 -0.29398927542E+02  0.38856925819E+03  0.10255885244E+03  0.41303514891E+03  0.90715768604E+02 0.  0.
         23    2    4    4    0    0 -0.54444450981E+03  0.11878092973E+03  0.12503149438E+04  0.13718012955E+04  0.89568980183E+02 0.  0.
          3    1    3    3  502    0  0.32374008073E+03 -0.33157597952E+03 -0.64362660772E+03  0.79309865732E+03  0.00000000000E+00 0. -1.
         -4    1    3    3    0  502  0.25010335662E+03 -0.17577420839E+03 -0.37030321595E+03  0.48017989657E+03  0.00000000000E+00 0.  1.
         11    1    5    5    0    0  0.12210997100E+02  0.27847681070E+03  0.46213293045E+02  0.28254930720E+03  0.00000000000E+00 0. -1.
        -11    1    5    5    0    0 -0.41609924643E+02  0.11009244749E+03  0.56345559394E+02  0.13048584171E+03  0.00000000000E+00 0.  1.
          2    1    6    6  503    0 -0.36996089215E+03  0.57064737196E+02  0.91867839458E+03  0.99201685400E+03  0.00000000000E+00 0. -1.
         -2    1    6    6    0  503 -0.17448361766E+03  0.61716192530E+02  0.33163654918E+03  0.37978444149E+03  0.00000000000E+00 0.  1.
<mgrwt>
<rscale>  0 0.30392737E+04</rscale>
<asrwt>0</asrwt>
<pdfrwt beam="1">  1        1 0.20916700E+00 0.30392737E+04</pdfrwt>
<pdfrwt beam="2">  1       -2 0.26131223E+00 0.30392737E+04</pdfrwt>
<totfact> 0.33465114E-01</totfact>
</mgrwt>
</event>
<event>
12    4  0.4381187E-008  0.2258489E+04  0.7818608E-02  0.8494471E-01
         -2   -1    0    0    0  501 -0.00000000000E+00  0.00000000000E+00  0.94596521586E+03  0.94596521586E+03  0.00000000000E+00 0.  1.
          1   -1    0    0  501    0  0.00000000000E+00 -0.00000000000E+00 -0.13480337269E+04  0.13480337269E+04  0.00000000000E+00 0. -1.
        -24    2    1    2    0    0  0.83368690631E+03 -0.44749853525E+03 -0.24396417118E+03  0.98044641223E+03  0.80422967046E+02 0.  0.
        254    2    1    2    0    0 -0.83368690631E+03  0.44749853525E+03 -0.15810433987E+03  0.13135525305E+04  0.89729285708E+03 0.  0.
         23    2    4    4    0    0 -0.40787019921E+03  0.44527988071E+02  0.33847902451E+03  0.53981565203E+03  0.92152303401E+02 0.  0.
         23    2    4    4    0    0 -0.42581670710E+03  0.40297054718E+03 -0.49658336437E+03  0.77373687849E+03  0.91479994694E+02 0.  0.
          1    1    3    3  502    0  0.39825244619E+03 -0.17713259038E+03 -0.13667164152E+03  0.45679328264E+03  0.00000000000E+00 0. -1.
         -2    1    3    3    0  502  0.43543446013E+03 -0.27036594487E+03 -0.10729252966E+03  0.52365312959E+03  0.00000000000E+00 0.  1.
         11    1    5    5    0    0 -0.31996676491E+03  0.70084431312E+02  0.24556291843E+03  0.40937965884E+03  0.00000000000E+00 0. -1.
        -11    1    5    5    0    0 -0.87903434296E+02 -0.25556443242E+02  0.92916106073E+02  0.13043599319E+03  0.00000000000E+00 0.  1.
          3    1    6    6  503    0 -0.12583767871E+03  0.87505145230E+02 -0.17425626689E+03  0.23207222664E+03  0.00000000000E+00 0. -1.
         -3    1    6    6    0  503 -0.29997902840E+03  0.31546540194E+03 -0.32232709748E+03  0.54166465186E+03  0.00000000000E+00 0.  1.
<mgrwt>
<rscale>  0 0.22584889E+04</rscale>
<asrwt>0</asrwt>
<pdfrwt beam="1">  1        1 0.20738980E+00 0.22584889E+04</pdfrwt>
<pdfrwt beam="2">  1       -2 0.14553311E+00 0.22584889E+04</pdfrwt>
<totfact> 0.21601127E+00</totfact>
</mgrwt>
</event>
<event>
12    4  0.4381187E-008  0.1737101E+04  0.7818608E-02  0.8740483E-01
         -4   -1    0    0    0  501 -0.00000000000E+00  0.00000000000E+00  0.60730374557E+03  0.60730374557E+03  0.00000000000E+00 0.  1.
          3   -1    0    0  501    0  0.00000000000E+00 -0.00000000000E+00 -0.12421792614E+04  0.12421792614E+04  0.00000000000E+00 0. -1.
        -24    2    1    2    0    0  0.81071566506E+02 -0.20750067961E+03 -0.86789588257E+03  0.89959099441E+03  0.79947253248E+02 0.  0.
        254    2    1    2    0    0 -0.81071566506E+02  0.20750067961E+03  0.23302036678E+03  0.94989201252E+03  0.89351396921E+03 0.  0.
         23    2    4    4    0    0 -0.22599170102E+03 -0.28494973029E+03 -0.92718026636E+01  0.37501084786E+03  0.90986658180E+02 0.  0.
         23    2    4    4    0    0  0.14492013452E+03  0.49245040990E+03  0.24229216944E+03  0.57488116466E+03  0.90959367356E+02 0.  0.
          3    1    3    3  502    0  0.82908886477E+02 -0.11676599775E+03 -0.59539665278E+03  0.61237680870E+03  0.00000000000E+00 0. -1.
         -4    1    3    3    0  502 -0.18373199711E+01 -0.90734681867E+02 -0.27249922979E+03  0.28721418572E+03  0.00000000000E+00 0.  1.
         11    1    5    5    0    0 -0.21948771678E+03 -0.23178376417E+03  0.61425418323E+01  0.31927464975E+03  0.00000000000E+00 0. -1.
        -11    1    5    5    0    0 -0.65039842437E+01 -0.53165966114E+02 -0.15414344496E+02  0.55736198113E+02  0.00000000000E+00 0.  1.
          1    1    6    6  503    0  0.32770261218E+02  0.23978660507E+03  0.14328194214E+03  0.28124939277E+03  0.00000000000E+00 0. -1.
         -1    1    6    6    0  503  0.11214987330E+03  0.25266380483E+03  0.99010227306E+02  0.29363177189E+03  0.00000000000E+00 0.  1.
<mgrwt>
<rscale>  0 0.17371012E+04</rscale>
<asrwt>0</asrwt>
<pdfrwt beam="1">  1        3 0.19110450E+00 0.17371012E+04</pdfrwt>
<pdfrwt beam="2">  1       -4 0.93431347E-01 0.17371012E+04</pdfrwt>
<totfact> 0.35390112E-01</totfact>
</mgrwt>
</event>
<event>
12    4  0.4381187E-008  0.1220754E+04  0.7818608E-02  0.9094882E-01
          1   -1    0    0  501    0  0.00000000000E+00  0.00000000000E+00  0.78490857452E+03  0.78490857452E+03  0.00000000000E+00 0. -1.
         -2   -1    0    0    0  501 -0.00000000000E+00 -0.00000000000E+00 -0.47465411445E+03  0.47465411445E+03  0.00000000000E+00 0.  1.
        -24    2    1    2    0    0  0.27713304871E+03  0.66536117819E+02  0.57545442880E+02  0.30171871891E+03  0.80578692496E+02 0.  0.
        254    2    1    2    0    0 -0.27713304871E+03 -0.66536117819E+02  0.25270901718E+03  0.95784397006E+03  0.87884779226E+03 0.  0.
         23    2    4    4    0    0 -0.28384680016E+03 -0.36802054787E+03  0.39051178879E+03  0.61382675236E+03  0.90970847585E+02 0.  0.
         23    2    4    4    0    0  0.67137514567E+01  0.30148443006E+03 -0.13780277161E+03  0.34401721770E+03  0.91762226359E+02 0.  0.
          3    1    3    3  502    0  0.15928658527E+03  0.70753877604E+02  0.58326547234E+02  0.18379421524E+03  0.00000000000E+00 0. -1.
         -4    1    3    3    0  502  0.11784646343E+03 -0.42177597852E+01 -0.78110435425E+00  0.11792450367E+03  0.00000000000E+00 0.  1.
         11    1    5    5    0    0 -0.26509306991E+03 -0.36259674622E+03  0.38908214667E+03  0.59425217958E+03  0.00000000000E+00 0. -1.
        -11    1    5    5    0    0 -0.18753730254E+02 -0.54238016554E+01  0.14296421193E+01  0.19574572778E+02  0.00000000000E+00 0.  1.
          3    1    6    6  503    0 -0.14192488135E+02  0.28982185438E+03 -0.11919487756E+03  0.31369659359E+03  0.00000000000E+00 0. -1.
         -3    1    6    6    0  503  0.20906239592E+02  0.11662575676E+02 -0.18607894050E+02  0.30320624107E+02  0.00000000000E+00 0.  1.
<mgrwt>
<rscale>  0 0.12207540E+04</rscale>
<asrwt>0</asrwt>
<pdfrwt beam="1">  1        1 0.12075517E+00 0.12207540E+04</pdfrwt>
<pdfrwt beam="2">  1       -2 0.73023710E-01 0.12207540E+04</pdfrwt>
<totfact> 0.33439156E+01</totfact>
</mgrwt>
</event>
<event>
12    4  0.4381187E-008  0.1369637E+04  0.7818608E-02  0.8976095E-01
          1   -1    0    0  501    0  0.00000000000E+00  0.00000000000E+00  0.11984925149E+04  0.11984925149E+04  0.00000000000E+00 0. -1.
         -2   -1    0    0    0  501 -0.00000000000E+00 -0.00000000000E+00 -0.39130532138E+03  0.39130532138E+03  0.00000000000E+00 0.  1.
        -24    2    1    2    0    0  0.74167987511E+02  0.27534603527E+03  0.16363491943E+03  0.33804489970E+03  0.78623392494E+02 0.  0.
        254    2    1    2    0    0 -0.74167987511E+02 -0.27534603527E+03  0.64355227409E+03  0.12517529366E+04  0.10350891533E+04 0.  0.
         23    2    4    4    0    0 -0.44479666884E+03 -0.28074887645E+03  0.68331289716E+03  0.86705634570E+03  0.90587984656E+02 0.  0.
         23    2    4    4    0    0  0.37062868132E+03  0.54028411796E+01 -0.39760623062E+02  0.38469659089E+03  0.94951302168E+02 0.  0.
          3    1    3    3  502    0  0.50842409464E+02  0.87248869819E+02  0.27423239928E+02  0.10463914169E+03  0.00000000000E+00 0. -1.
         -4    1    3    3    0  502  0.23325578047E+02  0.18809716545E+03  0.13621167950E+03  0.23340575801E+03  0.00000000000E+00 0.  1.
         11    1    5    5    0    0 -0.24470076769E+03 -0.10094435845E+03  0.33562581839E+03  0.42744931768E+03  0.00000000000E+00 0.  1.
        -11    1    5    5    0    0 -0.20009590114E+03 -0.17980451799E+03  0.34768707876E+03  0.43960702802E+03  0.00000000000E+00 0. -1.
          2    1    6    6  503    0  0.18964363593E+03 -0.44430760816E+02 -0.15100909899E+02  0.19536335029E+03  0.00000000000E+00 0.  1.
         -2    1    6    6    0  503  0.18098504539E+03  0.49833601996E+02 -0.24659713163E+02  0.18933324060E+03  0.00000000000E+00 0. -1.
<mgrwt>
<rscale>  0 0.13696372E+04</rscale>
<asrwt>0</asrwt>
<pdfrwt beam="1">  1        1 0.18438346E+00 0.13696372E+04</pdfrwt>
<pdfrwt beam="2">  1       -2 0.60200819E-01 0.13696372E+04</pdfrwt>
<totfact> 0.23615037E+01</totfact>
</mgrwt>
</event>
<event>
12    4  0.4381187E-008  0.1398883E+04  0.7818608E-02  0.8954627E-01
         -2   -1    0    0    0  501 -0.00000000000E+00  0.00000000000E+00  0.24104286002E+03  0.24104286002E+03  0.00000000000E+00 0.  1.
          1   -1    0    0  501    0  0.00000000000E+00 -0.00000000000E+00 -0.20295923251E+04  0.20295923251E+04  0.00000000000E+00 0. -1.
        -24    2    1    2    0    0  0.33216853850E+03 -0.19586255916E+03 -0.73650501739E+03  0.83533126963E+03  0.81489933918E+02 0.  0.
        254    2    1    2    0    0 -0.33216853850E+03  0.19586255916E+03 -0.10520444477E+04  0.14353039155E+04  0.89699594751E+03 0.  0.
         23    2    4    4    0    0  0.17128069864E+03  0.24053184155E+03 -0.81099396689E+03  0.86773590590E+03  0.89787212574E+02 0.  0.
         23    2    4    4    0    0 -0.50344923714E+03 -0.44669282390E+02 -0.24105048083E+03  0.56756800961E+03  0.92583108871E+02 0.  0.
          3    1    3    3  502    0  0.58885493952E+02 -0.38679998142E+02 -0.77122070114E+02  0.10445792145E+03  0.00000000000E+00 0. -1.
         -4    1    3    3    0  502  0.27328304455E+03 -0.15718256102E+03 -0.65938294728E+03  0.73087334819E+03  0.00000000000E+00 0.  1.
         11    1    5    5    0    0  0.94247603060E+02  0.12980107474E+03 -0.31185635192E+03  0.35069262028E+03  0.00000000000E+00 0. -1.
        -11    1    5    5    0    0  0.77033095583E+02  0.11073076681E+03 -0.49913761497E+03  0.51704328563E+03  0.00000000000E+00 0.  1.
          1    1    6    6  503    0 -0.70387034257E+02 -0.31315200297E+02 -0.61473157110E+02  0.98559248203E+02  0.00000000000E+00 0. -1.
         -1    1    6    6    0  503 -0.43306220289E+03 -0.13354082093E+02 -0.17957732372E+03  0.46900876140E+03  0.00000000000E+00 0.  1.
<mgrwt>
<rscale>  0 0.13988835E+04</rscale>
<asrwt>0</asrwt>
<pdfrwt beam="1">  1        1 0.31224496E+00 0.13988835E+04</pdfrwt>
<pdfrwt beam="2">  1       -2 0.37083518E-01 0.13988835E+04</pdfrwt>
<totfact> 0.16711211E+01</totfact>
</mgrwt>
</event>
<event>
12    4  0.4381187E-008  0.1897424E+04  0.7818608E-02  0.8656139E-01
         -2   -1    0    0    0  501 -0.00000000000E+00  0.00000000000E+00  0.45930819722E+03  0.45930819722E+03  0.00000000000E+00 0.  1.
          1   -1    0    0  501    0  0.00000000000E+00 -0.00000000000E+00 -0.19595880350E+04  0.19595880350E+04  0.00000000000E+00 0. -1.
        -24    2    1    2    0    0  0.38834638528E+03  0.43444741483E+02 -0.13608433126E+04  0.14180713276E+04  0.79570146462E+02 0.  0.
        254    2    1    2    0    0 -0.38834638528E+03 -0.43444741483E+02 -0.13943652515E+03  0.10008249046E+04  0.91077306974E+03 0.  0.
         23    2    4    4    0    0  0.28919916855E+03 -0.51127246178E+02 -0.30992459321E+02  0.30839702514E+03  0.88870907441E+02 0.  0.
         23    2    4    4    0    0 -0.67754555383E+03  0.76825046949E+01 -0.10844406583E+03  0.69242787944E+03  0.92570267534E+02 0.  0.
          3    1    3    3  502    0  0.26294624031E+03  0.65564285065E+02 -0.89368090013E+03  0.93386559633E+03  0.00000000000E+00 0. -1.
         -4    1    3    3    0  502  0.12540014497E+03 -0.22119543582E+02 -0.46716241246E+03  0.48420573126E+03  0.00000000000E+00 0.  1.
         11    1    5    5    0    0  0.80306171623E+02 -0.55510660235E+02 -0.15933375314E+02  0.98916060624E+02  0.00000000000E+00 0. -1.
        -11    1    5    5    0    0  0.20889299693E+03  0.43834140572E+01 -0.15059084007E+02  0.20948096452E+03  0.00000000000E+00 0.  1.
          3    1    6    6  503    0 -0.66890647195E+03  0.18553321891E+02 -0.10122104716E+03  0.67677602969E+03  0.00000000000E+00 0. -1.
         -3    1    6    6    0  503 -0.86390818752E+01 -0.10870817196E+02 -0.72230186680E+01  0.15651849758E+02  0.00000000000E+00 0.  1.
<mgrwt>
<rscale>  0 0.18974244E+04</rscale>
<asrwt>0</asrwt>
<pdfrwt beam="1">  1        1 0.30147508E+00 0.18974244E+04</pdfrwt>
<pdfrwt beam="2">  1       -2 0.70662800E-01 0.18974244E+04</pdfrwt>
<totfact> 0.47500160E+00</totfact>
</mgrwt>
</event>
<event>
12    4  0.4381187E-008  0.1410483E+04  0.7818608E-02  0.8946265E-01
         -2   -1    0    0    0  501 -0.00000000000E+00  0.00000000000E+00  0.30103689416E+03  0.30103689416E+03  0.00000000000E+00 0.  1.
          1   -1    0    0  501    0  0.00000000000E+00 -0.00000000000E+00 -0.16521753978E+04  0.16521753978E+04  0.00000000000E+00 0. -1.
        -24    2    1    2    0    0 -0.15513749717E+03 -0.35124737001E+03 -0.18152799894E+03  0.43179546933E+03  0.77798168131E+02 0.  0.
        254    2    1    2    0    0  0.15513749717E+03  0.35124737001E+03 -0.11696105047E+04  0.15214168226E+04  0.89402352178E+03 0.  0.
         23    2    4    4    0    0 -0.14441584643E+03 -0.17633718536E+03 -0.62334867360E+02  0.25536457903E+03  0.96822997749E+02 0.  0.
         23    2    4    4    0    0  0.29955334360E+03  0.52758455537E+03 -0.11072756373E+04  0.12660522436E+04  0.93548264197E+02 0.  0.
          1    1    3    3  502    0 -0.32857845350E+01 -0.46107769132E+02 -0.13015483364E+01  0.46243018742E+02  0.00000000000E+00 0. -1.
         -2    1    3    3    0  502 -0.15185171264E+03 -0.30513960088E+03 -0.18022645060E+03  0.38555245059E+03  0.00000000000E+00 0.  1.
         11    1    5    5    0    0 -0.77173142455E+02 -0.50570974749E+02  0.14453595108E+02  0.93391775950E+02  0.00000000000E+00 0.  1.
        -11    1    5    5    0    0 -0.67242703976E+02 -0.12576621061E+03 -0.76788462468E+02  0.16197280308E+03  0.00000000000E+00 0. -1.
          1    1    6    6  503    0  0.32006638479E+01  0.27953137506E+02 -0.93433564499E+02  0.97577933573E+02  0.00000000000E+00 0. -1.
         -1    1    6    6    0  503  0.29635267976E+03  0.49963141787E+03 -0.10138420728E+04  0.11684743100E+04  0.00000000000E+00 0.  1.
<mgrwt>
<rscale>  0 0.14104833E+04</rscale>
<asrwt>0</asrwt>
<pdfrwt beam="1">  1        1 0.25418083E+00 0.14104833E+04</pdfrwt>
<pdfrwt beam="2">  1       -2 0.46313369E-01 0.14104833E+04</pdfrwt>
<totfact> 0.19423411E+01</totfact>
</mgrwt>
</event>
<event>
12    4  0.4381187E-008  0.2250610E+04  0.7818608E-02  0.8497654E-01
          1   -1    0    0  501    0  0.00000000000E+00  0.00000000000E+00  0.11256522885E+04  0.11256522885E+04  0.00000000000E+00 0. -1.
         -2   -1    0    0    0  501 -0.00000000000E+00 -0.00000000000E+00 -0.11249576317E+04  0.11249576317E+04  0.00000000000E+00 0.  1.
        -24    2    1    2    0    0 -0.30967942211E+03  0.61458723540E+03 -0.64471521449E+03  0.94620604430E+03  0.77648928355E+02 0.  0.
        254    2    1    2    0    0  0.30967942211E+03 -0.61458723540E+03  0.64540987125E+03  0.13044038759E+04  0.90072013136E+03 0.  0.
         23    2    4    4    0    0 -0.10678855753E+02 -0.41118518271E+03 -0.12451512750E+03  0.44161286148E+03  0.10163960845E+03 0.  0.
         23    2    4    4    0    0  0.32035827787E+03 -0.20340205269E+03  0.76992499875E+03  0.86279101437E+03  0.87304120960E+02 0.  0.
          1    1    3    3  502    0 -0.16294565103E+02  0.44490268831E+02 -0.21366676746E+02  0.51975299400E+02  0.00000000000E+00 0. -1.
         -4    1    3    3    0  502 -0.29338485701E+03  0.57009696657E+03 -0.62334853774E+03  0.89423074490E+03  0.00000000000E+00 0.  1.
         11    1    5    5    0    0 -0.38795286412E+02 -0.37405767150E+03 -0.12036070642E+03  0.39485556284E+03  0.00000000000E+00 0. -1.
        -11    1    5    5    0    0  0.28116430659E+02 -0.37127511215E+02 -0.41544210878E+01  0.46757298646E+02  0.00000000000E+00 0.  1.
          3    1    6    6  503    0  0.84429116464E+02 -0.16920195188E+02  0.13302896732E+03  0.15846537432E+03  0.00000000000E+00 0. -1.
         -3    1    6    6    0  503  0.23592916140E+03 -0.18648185750E+03  0.63689603143E+03  0.70432564004E+03  0.00000000000E+00 0.  1.
<mgrwt>
<rscale>  0 0.22506098E+04</rscale>
<asrwt>0</asrwt>
<pdfrwt beam="1">  1        1 0.17317728E+00 0.22506098E+04</pdfrwt>
<pdfrwt beam="2">  1       -2 0.17307040E+00 0.22506098E+04</pdfrwt>
<totfact> 0.19575837E+00</totfact>
</mgrwt>
</event>
<event>
12    4  0.4381187E-008  0.2919412E+04  0.7818608E-02  0.8267125E-01
         -2   -1    0    0    0  501 -0.00000000000E+00  0.00000000000E+00  0.20719440574E+04  0.20719440574E+04  0.00000000000E+00 0.  1.
          1   -1    0    0  501    0  0.00000000000E+00 -0.00000000000E+00 -0.10283782554E+04  0.10283782554E+04  0.00000000000E+00 0. -1.
        -24    2    1    2    0    0 -0.75912468129E+03 -0.38333750309E+03 -0.59717581661E+03  0.10421698825E+04  0.79253927468E+02 0.  0.
        254    2    1    2    0    0  0.75912468129E+03  0.38333750309E+03  0.16407416186E+04  0.20581524303E+04  0.90594726342E+03 0.  0.
         23    2    4    4    0    0 -0.15606892753E+03  0.25752580620E+03  0.41355591626E+03  0.51943696144E+03  0.90051152340E+02 0.  0.
         23    2    4    4    0    0  0.91519360883E+03  0.12581169689E+03  0.12271857024E+04  0.15387154688E+04  0.90843938692E+02 0.  0.
          3    1    3    3  502    0 -0.55957245155E+03 -0.30686247034E+03 -0.47913127558E+03  0.79803050285E+03  0.00000000000E+00 0. -1.
         -4    1    3    3    0  502 -0.19955222974E+03 -0.76475032754E+02 -0.11804454104E+03  0.24413937966E+03  0.00000000000E+00 0.  1.
         11    1    5    5    0    0 -0.50447903064E+02  0.51853871517E+02  0.16394882401E+03  0.17920109322E+03  0.00000000000E+00 0. -1.
        -11    1    5    5    0    0 -0.10562102447E+03  0.20567193468E+03  0.24960709224E+03  0.34023586822E+03  0.00000000000E+00 0.  1.
          1    1    6    6  503    0  0.69426021644E+03  0.80629617539E+02  0.86523455637E+03  0.11122631078E+04  0.00000000000E+00 0. -1.
         -1    1    6    6    0  503  0.22093339239E+03  0.45182079349E+02  0.36195114601E+03  0.42645236107E+03  0.00000000000E+00 0.  1.
<mgrwt>
<rscale>  0 0.29194124E+04</rscale>
<asrwt>0</asrwt>
<pdfrwt beam="1">  1        1 0.15821204E+00 0.29194124E+04</pdfrwt>
<pdfrwt beam="2">  1       -2 0.31876062E+00 0.29194124E+04</pdfrwt>
<totfact> 0.26349408E-01</totfact>
</mgrwt>
</event>
<event>
12    4  0.4381187E-008  0.1467379E+04  0.7818608E-02  0.8906440E-01
          1   -1    0    0  501    0  0.00000000000E+00  0.00000000000E+00  0.90318553166E+03  0.90318553166E+03  0.00000000000E+00 0. -1.
         -2   -1    0    0    0  501 -0.00000000000E+00 -0.00000000000E+00 -0.59600164606E+03  0.59600164606E+03  0.00000000000E+00 0.  1.
        -24    2    1    2    0    0 -0.17835093454E+03 -0.26713504625E+03 -0.22953007353E+03  0.40273792357E+03  0.79646667451E+02 0.  0.
        254    2    1    2    0    0  0.17835093454E+03  0.26713504625E+03  0.53671395913E+03  0.10964492542E+04  0.90053811925E+03 0.  0.
         23    2    4    4    0    0  0.29523184065E+03  0.11805612908E+03 -0.16048376527E+03  0.36826006737E+03  0.93602077752E+02 0.  0.
         23    2    4    4    0    0 -0.11688090610E+03  0.14907891717E+03  0.69719772440E+03  0.72818918679E+03  0.91044797167E+02 0.  0.
          3    1    3    3  502    0 -0.51519557790E+02 -0.27366554368E+02 -0.55109952660E+02  0.80251479831E+02  0.00000000000E+00 0. -1.
         -2    1    3    3    0  502 -0.12683137675E+03 -0.23976849188E+03 -0.17442012087E+03  0.32248644374E+03  0.00000000000E+00 0.  1.
         11    1    5    5    0    0  0.18571981025E+02  0.35917142469E+02 -0.58751926169E+01  0.40859239966E+02  0.00000000000E+00 0.  1.
        -11    1    5    5    0    0  0.27665985962E+03  0.82138986612E+02 -0.15460857265E+03  0.32740082740E+03  0.00000000000E+00 0. -1.
          4    1    6    6  503    0 -0.85406739440E+02  0.12425816254E+03  0.64493042092E+03  0.66232140984E+03  0.00000000000E+00 0. -1.
         -4    1    6    6    0  503 -0.31474166663E+02  0.24820754628E+02  0.52267303477E+02  0.65867776949E+02  0.00000000000E+00 0.  1.
<mgrwt>
<rscale>  0 0.14673787E+04</rscale>
<asrwt>0</asrwt>
<pdfrwt beam="1">  1        1 0.13895162E+00 0.14673787E+04</pdfrwt>
<pdfrwt beam="2">  1       -2 0.91692560E-01 0.14673787E+04</pdfrwt>
<totfact> 0.15562904E+01</totfact>
</mgrwt>
</event>
<event>
12    4  0.4381187E-008  0.2646214E+04  0.7818608E-02  0.8352671E-01
         -2   -1    0    0    0  501 -0.00000000000E+00  0.00000000000E+00  0.51494196392E+03  0.51494196392E+03  0.00000000000E+00 0.  1.
          1   -1    0    0  501    0  0.00000000000E+00 -0.00000000000E+00 -0.33996306519E+04  0.33996306519E+04  0.00000000000E+00 0. -1.
        -24    2    1    2    0    0 -0.10553205712E+04 -0.50247965745E+03 -0.13561599634E+04  0.17923136582E+04  0.83851587513E+02 0.  0.
        254    2    1    2    0    0  0.10553205712E+04  0.50247965745E+03 -0.15285287245E+04  0.21222589576E+04  0.89520707511E+03 0.  0.
         23    2    4    4    0    0  0.11361744380E+04  0.36083926728E+03 -0.99023305008E+03  0.15525499978E+04  0.93555715360E+02 0.  0.
         23    2    4    4    0    0 -0.80853866806E+02  0.14164039018E+03 -0.53829567443E+03  0.56970895979E+03  0.90590936853E+02 0.  0.
          1    1    3    3  502    0 -0.41111303178E+03 -0.17271076555E+03 -0.57120353753E+03  0.72464916665E+03  0.00000000000E+00 0. -1.
         -2    1    3    3    0  502 -0.64420753942E+03 -0.32976889190E+03 -0.78495642589E+03  0.10676644915E+04  0.00000000000E+00 0.  1.
         11    1    5    5    0    0  0.26158421201E+03  0.50663045166E+02 -0.19075303863E+03  0.32768851958E+03  0.00000000000E+00 0. -1.
        -11    1    5    5    0    0  0.87459022600E+03  0.31017622211E+03 -0.79948001145E+03  0.12248614782E+04  0.00000000000E+00 0.  1.
          1    1    6    6  503    0 -0.40539555415E+02  0.13185269181E+03 -0.33620068537E+03  0.36339990194E+03  0.00000000000E+00 0. -1.
         -1    1    6    6    0  503 -0.40314311391E+02  0.97876983649E+01 -0.20209498907E+03  0.20630905784E+03  0.00000000000E+00 0.  1.
<mgrwt>
<rscale>  0 0.26462143E+04</rscale>
<asrwt>0</asrwt>
<pdfrwt beam="1">  1        1 0.52302011E+00 0.26462143E+04</pdfrwt>
<pdfrwt beam="2">  1       -2 0.79221839E-01 0.26462143E+04</pdfrwt>
<totfact> 0.32644424E-01</totfact>
</mgrwt>
</event>
<event>
12    4  0.4381187E-008  0.1487175E+04  0.7818608E-02  0.8893027E-01
         -4   -1    0    0    0  501 -0.00000000000E+00  0.00000000000E+00  0.16086344931E+04  0.16086344931E+04  0.00000000000E+00 0.  1.
          3   -1    0    0  501    0  0.00000000000E+00 -0.00000000000E+00 -0.34372145257E+03  0.34372145257E+03  0.00000000000E+00 0. -1.
        -24    2    1    2    0    0  0.17151092679E+03 -0.30261575637E+03 -0.21265045254E+01  0.35903609988E+03  0.88938770965E+02 0.  0.
        254    2    1    2    0    0 -0.17151092679E+03  0.30261575637E+03  0.12670395451E+04  0.15933198458E+04  0.90126945375E+03 0.  0.
         23    2    4    4    0    0  0.23174708067E+02 -0.10235314230E+03  0.10929602127E+04  0.11018614244E+04  0.92321932163E+02 0.  0.
         23    2    4    4    0    0 -0.19468563486E+03  0.40496889867E+03  0.17407933239E+03  0.49145842145E+03  0.96568425154E+02 0.  0.
          1    1    3    3  502    0  0.16347005009E+03 -0.29166038458E+03  0.17908861306E+02  0.33482676793E+03  0.00000000000E+00 0. -1.
         -2    1    3    3    0  502  0.80408766966E+01 -0.10955371787E+02 -0.20035365831E+02  0.24209331941E+02  0.00000000000E+00 0.  1.
         11    1    5    5    0    0  0.29005359213E+02 -0.91278426324E+02  0.51890811243E+03  0.52767290163E+03  0.00000000000E+00 0. -1.
        -11    1    5    5    0    0 -0.58306511454E+01 -0.11074715980E+02  0.57405210026E+03  0.57418852273E+03  0.00000000000E+00 0.  1.
          1    1    6    6  503    0 -0.16090850751E+03  0.23077574583E+03  0.12100080866E+03  0.30625183811E+03  0.00000000000E+00 0. -1.
         -1    1    6    6    0  503 -0.33777127345E+02  0.17419315284E+03  0.53078523738E+02  0.18520658334E+03  0.00000000000E+00 0.  1.
<mgrwt>
<rscale>  0 0.14871748E+04</rscale>
<asrwt>0</asrwt>
<pdfrwt beam="1">  1        3 0.52880225E-01 0.14871748E+04</pdfrwt>
<pdfrwt beam="2">  1       -4 0.24748222E+00 0.14871748E+04</pdfrwt>
<totfact> 0.51309638E-01</totfact>
</mgrwt>
</event>
<event>
12    4  0.4381187E-008  0.1287049E+04  0.7818608E-02  0.9039899E-01
          1   -1    0    0  501    0  0.00000000000E+00  0.00000000000E+00  0.16135597636E+04  0.16135597636E+04  0.00000000000E+00 0. -1.
         -2   -1    0    0    0  501 -0.00000000000E+00 -0.00000000000E+00 -0.25665208436E+03  0.25665208436E+03  0.00000000000E+00 0.  1.
        -24    2    1    2    0    0  0.19707750981E+03  0.24690364627E+03  0.25461448730E+03  0.41342688278E+03  0.79323986594E+02 0.  0.
        254    2    1    2    0    0 -0.19707750981E+03 -0.24690364627E+03  0.11022931920E+04  0.14567849652E+04  0.89853836776E+03 0.  0.
         23    2    4    4    0    0 -0.25291728664E+03 -0.49310050244E+03  0.10383714608E+04  0.11803697000E+04  0.89118340131E+02 0.  0.
         23    2    4    4    0    0  0.55839776827E+02  0.24619685617E+03  0.63921731161E+02  0.27641526525E+03  0.92673828471E+02 0.  0.
          1    1    3    3  502    0  0.15481178785E+03  0.20414499814E+03  0.24108545388E+03  0.35180117395E+03  0.00000000000E+00 0. -1.
         -2    1    3    3    0  502  0.42265721968E+02  0.42758648133E+02  0.13529033415E+02  0.61625708830E+02  0.00000000000E+00 0.  1.
         11    1    5    5    0    0 -0.16474696030E+03 -0.32457365297E+03  0.58886228306E+03  0.69227769394E+03  0.00000000000E+00 0. -1.
        -11    1    5    5    0    0 -0.88170326340E+02 -0.16852684947E+03  0.44950917776E+03  0.48809200601E+03  0.00000000000E+00 0.  1.
          4    1    6    6  503    0  0.34164801182E+02  0.16037149838E+02  0.94317051383E+01  0.38902196294E+02  0.00000000000E+00 0.  1.
         -4    1    6    6    0  503  0.21674975645E+02  0.23015970633E+03  0.54490026022E+02  0.23751306895E+03  0.00000000000E+00 0. -1.
<mgrwt>
<rscale>  0 0.12870485E+04</rscale>
<asrwt>0</asrwt>
<pdfrwt beam="1">  1        1 0.24823996E+00 0.12870485E+04</pdfrwt>
<pdfrwt beam="2">  1       -2 0.39484937E-01 0.12870485E+04</pdfrwt>
<totfact> 0.28597774E+01</totfact>
</mgrwt>
</event>
<event>
12    4  0.4381187E-008  0.3152625E+04  0.7818608E-02  0.8201442E-01
          1   -1    0    0  501    0  0.00000000000E+00  0.00000000000E+00  0.24206309890E+04  0.24206309890E+04  0.00000000000E+00 0. -1.
         -2   -1    0    0    0  501 -0.00000000000E+00 -0.00000000000E+00 -0.10264933303E+04  0.10264933303E+04  0.00000000000E+00 0.  1.
        -24    2    1    2    0    0 -0.13672026658E+04  0.32572153226E+03  0.10046102733E+04  0.17294390431E+04  0.79874630522E+02 0.  0.
        254    2    1    2    0    0  0.13672026658E+04 -0.32572153226E+03  0.38952738537E+03  0.17176852762E+04  0.90739929361E+03 0.  0.
         23    2    4    4    0    0  0.64475789002E+03 -0.12165475281E+03  0.63987487467E+03  0.92072364124E+03  0.88201772519E+02 0.  0.
         23    2    4    4    0    0  0.72244477577E+03 -0.20406677945E+03 -0.25034748930E+03  0.79696163492E+03  0.94362479891E+02 0.  0.
          3    1    3    3  502    0 -0.60002520547E+03  0.15917884506E+03  0.48847399378E+03  0.78992087864E+03  0.00000000000E+00 0. -1.
         -4    1    3    3    0  502 -0.76717746032E+03  0.16654268721E+03  0.51613627956E+03  0.93951816447E+03  0.00000000000E+00 0.  1.
         11    1    5    5    0    0  0.11248755272E+03 -0.45044277156E+02  0.15420284888E+03  0.19611464765E+03  0.00000000000E+00 0. -1.
        -11    1    5    5    0    0  0.53227033730E+03 -0.76610475657E+02  0.48567202579E+03  0.72460899359E+03  0.00000000000E+00 0.  1.
          3    1    6    6  503    0  0.60981468283E+03 -0.13698736830E+03 -0.19568203877E+03  0.65492819970E+03  0.00000000000E+00 0. -1.
         -3    1    6    6    0  503  0.11263009295E+03 -0.67079411152E+02 -0.54665450531E+02  0.14203343522E+03  0.00000000000E+00 0.  1.
<mgrwt>
<rscale>  0 0.31526253E+04</rscale>
<asrwt>0</asrwt>
<pdfrwt beam="1">  1        1 0.37240477E+00 0.31526253E+04</pdfrwt>
<pdfrwt beam="2">  1       -2 0.15792205E+00 0.31526253E+04</pdfrwt>
<totfact> 0.29650697E-01</totfact>
</mgrwt>
</event>
<event>
12    4  0.4381187E-008  0.1509627E+04  0.7818608E-02  0.8878076E-01
          1   -1    0    0  501    0  0.00000000000E+00  0.00000000000E+00  0.20802177045E+04  0.20802177045E+04  0.00000000000E+00 0. -1.
         -2   -1    0    0    0  501 -0.00000000000E+00 -0.00000000000E+00 -0.27388657854E+03  0.27388657854E+03  0.00000000000E+00 0.  1.
        -24    2    1    2    0    0 -0.26072386399E+03 -0.35235872371E+03  0.28010151631E+03  0.52482375496E+03  0.69638429757E+02 0.  0.
        254    2    1    2    0    0  0.26072386399E+03  0.35235872371E+03  0.15262296097E+04  0.18292805281E+04  0.90816123327E+03 0.  0.
         23    2    4    4    0    0  0.49285958443E+03  0.35704972404E+03  0.14381691084E+04  0.15644815912E+04  0.94218837935E+02 0.  0.
         23    2    4    4    0    0 -0.23213572044E+03 -0.46910003308E+01  0.88060501301E+02  0.26479893694E+03  0.91950132812E+02 0.  0.
          1    1    3    3  502    0 -0.98960505850E+02 -0.15091177170E+03  0.77056951580E+02  0.19622772063E+03  0.00000000000E+00 0. -1.
         -2    1    3    3    0  502 -0.16176335814E+03 -0.20144695202E+03  0.20304456473E+03  0.32859603433E+03  0.00000000000E+00 0.  1.
         11    1    5    5    0    0  0.46602037418E+03  0.35985809863E+03  0.13699534820E+04  0.14911221892E+04  0.00000000000E+00 0.  1.
        -11    1    5    5    0    0  0.26839210249E+02 -0.28083745890E+01  0.68215626338E+02  0.73359401929E+02  0.00000000000E+00 0. -1.
          1    1    6    6  503    0 -0.14809840376E+02 -0.19170488088E+02 -0.96528776729E+01  0.26077136209E+02  0.00000000000E+00 0. -1.
         -1    1    6    6    0  503 -0.21732588006E+03  0.14479487757E+02  0.97713378974E+02  0.23872180073E+03  0.00000000000E+00 0.  1.
<mgrwt>
<rscale>  0 0.15096274E+04</rscale>
<asrwt>0</asrwt>
<pdfrwt beam="1">  1        1 0.32003348E+00 0.15096274E+04</pdfrwt>
<pdfrwt beam="2">  1       -2 0.42136398E-01 0.15096274E+04</pdfrwt>
<totfact> 0.11917509E+01</totfact>
</mgrwt>
</event>
<event>
12    4  0.4381187E-008  0.1860410E+04  0.7818608E-02  0.8674818E-01
         -2   -1    0    0    0  501 -0.00000000000E+00  0.00000000000E+00  0.61473213851E+03  0.61473213851E+03  0.00000000000E+00 0.  1.
          1   -1    0    0  501    0  0.00000000000E+00 -0.00000000000E+00 -0.14075750700E+04  0.14075750700E+04  0.00000000000E+00 0. -1.
        -24    2    1    2    0    0  0.26077521770E+03  0.61918890035E+03 -0.41781558532E+02  0.67793440242E+03  0.80316541682E+02 0.  0.
        254    2    1    2    0    0 -0.26077521770E+03 -0.61918890035E+03 -0.75106137297E+03  0.13443728061E+04  0.88985754329E+03 0.  0.
         23    2    4    4    0    0 -0.42295875973E+03  0.35516612484E+02 -0.28976934944E+03  0.52198807343E+03  0.91376861071E+02 0.  0.
         23    2    4    4    0    0  0.16218354203E+03 -0.65470551284E+03 -0.46129202352E+03  0.82238473267E+03  0.92647221906E+02 0.  0.
          3    1    3    3  502    0  0.10251348103E+03  0.29327800032E+03  0.15812951653E+02  0.31108045375E+03  0.00000000000E+00 0. -1.
         -4    1    3    3    0  502  0.15826173667E+03  0.32591090003E+03 -0.57594510185E+02  0.36685394867E+03  0.00000000000E+00 0.  1.
         11    1    5    5    0    0 -0.12746617340E+03 -0.46067733403E-01 -0.40437563432E+02  0.13372667655E+03  0.00000000000E+00 0.  1.
        -11    1    5    5    0    0 -0.29549258632E+03  0.35562680218E+02 -0.24933178601E+03  0.38826139688E+03  0.00000000000E+00 0. -1.
          3    1    6    6  503    0  0.44630078086E+02 -0.23827830807E+03 -0.11572406837E+03  0.26862698295E+03  0.00000000000E+00 0. -1.
         -3    1    6    6    0  503  0.11755346394E+03 -0.41642720476E+03 -0.34556795516E+03  0.55375774973E+03  0.00000000000E+00 0.  1.
<mgrwt>
<rscale>  0 0.18604103E+04</rscale>
<asrwt>0</asrwt>
<pdfrwt beam="1">  1        1 0.21655001E+00 0.18604103E+04</pdfrwt>
<pdfrwt beam="2">  1       -2 0.94574177E-01 0.18604103E+04</pdfrwt>
<totfact> 0.58883118E+00</totfact>
</mgrwt>
</event>
<event>
12    4  0.4381187E-008  0.1451426E+04  0.7818608E-02  0.8917413E-01
         -4   -1    0    0    0  501 -0.00000000000E+00  0.00000000000E+00  0.35259084334E+03  0.35259084334E+03  0.00000000000E+00 0.  1.
          3   -1    0    0  501    0  0.00000000000E+00 -0.00000000000E+00 -0.14936832623E+04  0.14936832623E+04  0.00000000000E+00 0. -1.
        -24    2    1    2    0    0 -0.26846762141E+03 -0.31153350603E+03 -0.14261729474E+03  0.44277459216E+03  0.81127415677E+02 0.  0.
        254    2    1    2    0    0  0.26846762141E+03  0.31153350603E+03 -0.99847512425E+03  0.14034995135E+04  0.89651007889E+03 0.  0.
         23    2    4    4    0    0  0.38422190516E+03 -0.13428401880E+03 -0.78305187742E+03  0.88715184386E+03  0.90606187607E+02 0.  0.
         23    2    4    4    0    0 -0.11575428376E+03  0.44581752483E+03 -0.21542324683E+03  0.51634766965E+03  0.89751997297E+02 0.  0.
          1    1    3    3  502    0 -0.58554436157E+02 -0.98052782789E+02 -0.72511822834E+02  0.13528094713E+03  0.00000000000E+00 0. -1.
         -2    1    3    3    0  502 -0.20991318525E+03 -0.21348072324E+03 -0.70105471908E+02  0.30749364502E+03  0.00000000000E+00 0.  1.
         11    1    5    5    0    0  0.27374482379E+02 -0.14105424019E+02 -0.21380327577E+02  0.37489247520E+02  0.00000000000E+00 0. -1.
        -11    1    5    5    0    0  0.35684742278E+03 -0.12017859478E+03 -0.76167154984E+03  0.84966259634E+03  0.00000000000E+00 0.  1.
          1    1    6    6  503    0  0.94727068225E+01  0.39542270763E+02 -0.21584086241E+01  0.40718326088E+02  0.00000000000E+00 0. -1.
         -1    1    6    6    0  503 -0.12522699058E+03  0.40627525407E+03 -0.21326483821E+03  0.47562934356E+03  0.00000000000E+00 0.  1.
<mgrwt>
<rscale>  0 0.14514256E+04</rscale>
<asrwt>0</asrwt>
<pdfrwt beam="1">  1        3 0.22979742E+00 0.14514256E+04</pdfrwt>
<pdfrwt beam="2">  1       -4 0.54244745E-01 0.14514256E+04</pdfrwt>
<totfact> 0.70152576E-01</totfact>
</mgrwt>
</event>
<event>
12    4  0.4972954E-008  0.2688514E+04  0.7818608E-02  0.8338741E-01
          1   -1    0    0  501    0  0.00000000000E+00  0.00000000000E+00  0.15956527804E+04  0.15956527804E+04  0.00000000000E+00 0. -1.
         -2   -1    0    0    0  501 -0.00000000000E+00 -0.00000000000E+00 -0.11324687049E+04  0.11324687049E+04  0.00000000000E+00 0.  1.
        -24    2    1    2    0    0  0.59451405943E+03  0.74601625119E+03 -0.51091526298E+03  0.10852154262E+04  0.81675586792E+02 0.  0.
        254    2    1    2    0    0 -0.59451405943E+03 -0.74601625119E+03  0.97409933850E+03  0.16429060590E+04  0.91666983345E+03 0.  0.
         23    2    4    4    0    0 -0.37059813516E+03 -0.47925863756E+03  0.11025971539E+04  0.12607859364E+04  0.82637002933E+02 0.  0.
         23    2    4    4    0    0 -0.22391592427E+03 -0.26675761363E+03 -0.12849781539E+03  0.38212012258E+03  0.90587714116E+02 0.  0.
          1    1    3    3  502    0  0.81897963790E+02  0.12935959749E+03 -0.11113446443E+03  0.18918787255E+03  0.00000000000E+00 0. -1.
         -2    1    3    3    0  502  0.51261609565E+03  0.61665665370E+03 -0.39978079855E+03  0.89602755368E+03  0.00000000000E+00 0.  1.
         11    1    5    5    0    0 -0.73914985992E+01 -0.11378080718E+02  0.68564870993E+01  0.15202183650E+02  0.00000000000E+00 0.  1.
        -11    1    5    5    0    0 -0.36320663656E+03 -0.46788055684E+03  0.10957406668E+04  0.12455837528E+04  0.00000000000E+00 0. -1.
          3    1    6    6  503    0 -0.96844802831E+02 -0.57056869336E+02 -0.60591150763E+02  0.12769373409E+03  0.00000000000E+00 0. -1.
         -3    1    6    6    0  503 -0.12707112144E+03 -0.20970074430E+03 -0.67906664628E+02  0.25442638850E+03  0.00000000000E+00 0.  1.
<mgrwt>
<rscale>  0 0.26885140E+04</rscale>
<asrwt>0</asrwt>
<pdfrwt beam="1">  1        1 0.24548504E+00 0.26885140E+04</pdfrwt>
<pdfrwt beam="2">  1       -2 0.17422595E+00 0.26885140E+04</pdfrwt>
<totfact> 0.85822520E-01</totfact>
</mgrwt>
</event>
<event>
12    4  0.4381187E-008  0.1808107E+04  0.7818608E-02  0.8702000E-01
         -2   -1    0    0    0  501 -0.00000000000E+00  0.00000000000E+00  0.30505561084E+03  0.30505561084E+03  0.00000000000E+00 0.  1.
          1   -1    0    0  501    0  0.00000000000E+00 -0.00000000000E+00 -0.26792243648E+04  0.26792243648E+04  0.00000000000E+00 0. -1.
        -24    2    1    2    0    0 -0.17665309567E+02 -0.24292599781E+03  0.13642378764E+03  0.29009741927E+03  0.78866718303E+02 0.  0.
        254    2    1    2    0    0  0.17665309567E+02  0.24292599781E+03 -0.25105925416E+04  0.26941825563E+04  0.94668877333E+03 0.  0.
         23    2    4    4    0    0  0.23217198689E+01  0.59297240588E+03 -0.13364984977E+04  0.14655917709E+04  0.10054521340E+03 0.  0.
         23    2    4    4    0    0  0.15343589698E+02 -0.35004640807E+03 -0.11740940439E+04  0.12285907855E+04  0.90391265007E+02 0.  0.
          1    1    3    3  502    0  0.38028936373E+01 -0.47169671658E+01  0.25938802757E+02  0.26637065675E+02  0.00000000000E+00 0. -1.
         -4    1    3    3    0  502 -0.21468203204E+02 -0.23820903065E+03  0.11048498488E+03  0.26346035359E+03  0.00000000000E+00 0.  1.
         11    1    5    5    0    0  0.49666769474E+02  0.26734159715E+03 -0.57597698849E+03  0.63693626748E+03  0.00000000000E+00 0.  1.
        -11    1    5    5    0    0 -0.47345049605E+02  0.32563080873E+03 -0.76052150922E+03  0.82865550340E+03  0.00000000000E+00 0. -1.
          1    1    6    6  503    0  0.26007810507E+02 -0.24439622869E+02 -0.10001052035E+03  0.10618759604E+03  0.00000000000E+00 0. -1.
         -1    1    6    6    0  503 -0.10664220809E+02 -0.32560678520E+03 -0.10740835235E+04  0.11224031894E+04  0.00000000000E+00 0.  1.
<mgrwt>
<rscale>  0 0.18081067E+04</rscale>
<asrwt>0</asrwt>
<pdfrwt beam="1">  1        1 0.41218835E+00 0.18081067E+04</pdfrwt>
<pdfrwt beam="2">  1       -2 0.46931635E-01 0.18081067E+04</pdfrwt>
<totfact> 0.36240969E+00</totfact>
</mgrwt>
</event>
<event>
12    4  0.4381187E-008  0.2060136E+04  0.7818608E-02  0.8579010E-01
          1   -1    0    0  501    0  0.00000000000E+00  0.00000000000E+00  0.26103099727E+04  0.26103099727E+04  0.00000000000E+00 0. -1.
         -2   -1    0    0    0  501 -0.00000000000E+00 -0.00000000000E+00 -0.40648043945E+03  0.40648043945E+03  0.00000000000E+00 0.  1.
        -24    2    1    2    0    0 -0.22743470819E+03 -0.58328988375E+03  0.17059597851E+04  0.18190953094E+04  0.82796867427E+02 0.  0.
        254    2    1    2    0    0  0.22743470819E+03  0.58328988375E+03  0.49786974816E+03  0.11976951028E+04  0.89142898657E+03 0.  0.
         23    2    4    4    0    0 -0.55244939798E+02 -0.42722295196E+02  0.49111793748E+03  0.50451747058E+03  0.91999194171E+02 0.  0.
         23    2    4    4    0    0  0.28267964799E+03  0.62601217894E+03  0.67518106740E+01  0.69317763218E+03  0.93008662171E+02 0.  0.
          3    1    3    3  502    0 -0.77088888528E+02 -0.23479262512E+03  0.78543714734E+03  0.82339649378E+03  0.00000000000E+00 0. -1.
         -4    1    3    3    0  502 -0.15034581967E+03 -0.34849725863E+03  0.92052263779E+03  0.99569881563E+03  0.00000000000E+00 0.  1.
         11    1    5    5    0    0 -0.48680345193E+02 -0.44002268654E+02  0.49317394810E+03  0.49752037018E+03  0.00000000000E+00 0. -1.
        -11    1    5    5    0    0 -0.65645946055E+01  0.12799734589E+01 -0.20560106225E+01  0.69971004044E+01  0.00000000000E+00 0.  1.
          3    1    6    6  503    0  0.10249863552E+03  0.15845623306E+03 -0.28540928648E+02  0.19086364946E+03  0.00000000000E+00 0. -1.
         -3    1    6    6    0  503  0.18018101247E+03  0.46755594589E+03  0.35292739322E+02  0.50231398272E+03  0.00000000000E+00 0.  1.
<mgrwt>
<rscale>  0 0.20601359E+04</rscale>
<asrwt>0</asrwt>
<pdfrwt beam="1">  1        1 0.40158614E+00 0.20601359E+04</pdfrwt>
<pdfrwt beam="2">  1       -2 0.62535454E-01 0.20601359E+04</pdfrwt>
<totfact> 0.21834768E+00</totfact>
</mgrwt>
</event>
<event>
12    4  0.4381187E-008  0.1171202E+04  0.7818608E-02  0.9138443E-01
         -4   -1    0    0    0  501 -0.00000000000E+00  0.00000000000E+00  0.96475874210E+02  0.96475874210E+02  0.00000000000E+00 0.  1.
          1   -1    0    0  501    0  0.00000000000E+00 -0.00000000000E+00 -0.35545550241E+04  0.35545550241E+04  0.00000000000E+00 0. -1.
        -24    2    1    2    0    0 -0.10716038524E+03  0.19548740716E+03 -0.92809614350E+03  0.95799630564E+03  0.81827840710E+02 0.  0.
        254    2    1    2    0    0  0.10716038524E+03 -0.19548740716E+03 -0.25299830064E+04  0.26930345927E+04  0.89550132896E+03 0.  0.
         23    2    4    4    0    0  0.29417982645E+03 -0.40357881432E+03 -0.86334973161E+03  0.10006527269E+04  0.80718592495E+02 0.  0.
         23    2    4    4    0    0 -0.18701944121E+03  0.20809140715E+03 -0.16666332748E+04  0.16923818657E+04  0.90617888811E+02 0.  0.
          3    1    3    3  502    0 -0.10731526661E+03  0.20314209805E+03 -0.90209873587E+03  0.93089494988E+03  0.00000000000E+00 0. -1.
         -4    1    3    3    0  502  0.15488136835E+00 -0.76546908832E+01 -0.25997407634E+02  0.27101355768E+02  0.00000000000E+00 0.  1.
         11    1    5    5    0    0  0.51394009703E+02 -0.10499788706E+03 -0.15058867230E+03  0.19063800446E+03  0.00000000000E+00 0.  1.
        -11    1    5    5    0    0  0.24278581675E+03 -0.29858092726E+03 -0.71276105931E+03  0.81001472246E+03  0.00000000000E+00 0. -1.
          1    1    6    6  503    0 -0.14808142878E+03  0.18937979994E+03 -0.12059930387E+04  0.12297203046E+04  0.00000000000E+00 0. -1.
         -1    1    6    6    0  503 -0.38938012432E+02  0.18711607215E+02 -0.46064023603E+03  0.46266156109E+03  0.00000000000E+00 0.  1.
<mgrwt>
<rscale>  0 0.11712025E+04</rscale>
<asrwt>0</asrwt>
<pdfrwt beam="1">  1        1 0.54685462E+00 0.11712025E+04</pdfrwt>
<pdfrwt beam="2">  1       -4 0.14842442E-01 0.11712025E+04</pdfrwt>
<totfact> 0.45942082E+00</totfact>
</mgrwt>
</event>
<event>
12    4  0.4381187E-008  0.2469044E+04  0.7818608E-02  0.8414097E-01
          1   -1    0    0  501    0  0.00000000000E+00  0.00000000000E+00  0.12065015934E+04  0.12065015934E+04  0.00000000000E+00 0. -1.
         -2   -1    0    0    0  501 -0.00000000000E+00 -0.00000000000E+00 -0.12631931082E+04  0.12631931082E+04  0.00000000000E+00 0.  1.
        -24    2    1    2    0    0 -0.25296975843E+03  0.67975107497E+02 -0.10606308129E+04  0.10956379314E+04  0.82888126424E+02 0.  0.
        254    2    1    2    0    0  0.25296975843E+03 -0.67975107497E+02  0.10039392981E+04  0.13740567703E+04  0.90084603553E+03 0.  0.
         23    2    4    4    0    0  0.53628651466E+03  0.13268475555E+03  0.47508600804E+03  0.73486590446E+03  0.95460527682E+02 0.  0.
         23    2    4    4    0    0 -0.28331675622E+03 -0.20065986304E+03  0.52885329006E+03  0.63919086581E+03  0.91358609492E+02 0.  0.
          3    1    3    3  502    0 -0.25271502678E+02 -0.12265540971E+02 -0.59336953897E+02  0.65650334658E+02  0.00000000000E+00 0. -1.
         -4    1    3    3    0  502 -0.22769825575E+03  0.80240648468E+02 -0.10012938590E+04  0.10299875967E+04  0.00000000000E+00 0.  1.
         11    1    5    5    0    0  0.68168860015E+02  0.36520204484E+02  0.33821185719E+02  0.84407294795E+02  0.00000000000E+00 0.  1.
        -11    1    5    5    0    0  0.46811765464E+03  0.96164551063E+02  0.44126482232E+03  0.65045860967E+03  0.00000000000E+00 0. -1.
          2    1    6    6  503    0 -0.28809571382E+03 -0.19391129173E+03  0.49717967112E+03  0.60645556701E+03  0.00000000000E+00 0. -1.
         -2    1    6    6    0  503  0.47789575981E+01 -0.67485713158E+01  0.31673618938E+02  0.32735298794E+02  0.00000000000E+00 0.  1.
<mgrwt>
<rscale>  0 0.24690439E+04</rscale>
<asrwt>0</asrwt>
<pdfrwt beam="1">  1        1 0.18561563E+00 0.24690439E+04</pdfrwt>
<pdfrwt beam="2">  1       -2 0.19433740E+00 0.24690439E+04</pdfrwt>
<totfact> 0.11976871E+00</totfact>
</mgrwt>
</event>
<event>
12    4  0.4381187E-008  0.2155823E+04  0.7818608E-02  0.8537044E-01
         -2   -1    0    0    0  501 -0.00000000000E+00  0.00000000000E+00  0.46783142942E+03  0.46783142942E+03  0.00000000000E+00 0.  1.
          1   -1    0    0  501    0  0.00000000000E+00 -0.00000000000E+00 -0.24835722702E+04  0.24835722702E+04  0.00000000000E+00 0. -1.
        -24    2    1    2    0    0  0.24468285078E+03 -0.80804046071E+03 -0.11870476685E+04  0.14588327673E+04  0.79446786215E+02 0.  0.
        254    2    1    2    0    0 -0.24468285078E+03  0.80804046071E+03 -0.82869317229E+03  0.14925709324E+04  0.91007501386E+03 0.  0.
         23    2    4    4    0    0 -0.51458652197E+02  0.10361620478E+03  0.18680844365E+03  0.23839327219E+03  0.92464300287E+02 0.  0.
         23    2    4    4    0    0 -0.19322419859E+03  0.70442425593E+03 -0.10155016159E+04  0.12541776602E+04  0.90382233656E+02 0.  0.
          3    1    3    3  502    0  0.32763368901E+02 -0.15900140566E+03 -0.27812925151E+03  0.32204155926E+03  0.00000000000E+00 0. -1.
         -4    1    3    3    0  502  0.21191948188E+03 -0.64903905505E+03 -0.90891841703E+03  0.11367912080E+04  0.00000000000E+00 0.  1.
         11    1    5    5    0    0 -0.56909928945E+01 -0.45799906712E+00 -0.97635311757E+01  0.11310336170E+02  0.00000000000E+00 0.  1.
        -11    1    5    5    0    0 -0.45767659302E+02  0.10407420385E+03  0.19657197482E+03  0.22708293602E+03  0.00000000000E+00 0. -1.
          1    1    6    6  503    0 -0.16496684923E+03  0.45644289396E+03 -0.70246047139E+03  0.85381783224E+03  0.00000000000E+00 0. -1.
         -1    1    6    6    0  503 -0.28257349355E+02  0.24798136197E+03 -0.31304114455E+03  0.40035982798E+03  0.00000000000E+00 0.  1.
<mgrwt>
<rscale>  0 0.21558230E+04</rscale>
<asrwt>0</asrwt>
<pdfrwt beam="1">  1        1 0.38208803E+00 0.21558230E+04</pdfrwt>
<pdfrwt beam="2">  1       -2 0.71974068E-01 0.21558230E+04</pdfrwt>
<totfact> 0.19563105E+00</totfact>
</mgrwt>
</event>
<event>
12    4  0.4381187E-008  0.1483374E+04  0.7818608E-02  0.8895585E-01
          1   -1    0    0  501    0  0.00000000000E+00  0.00000000000E+00  0.11646537346E+04  0.11646537346E+04  0.00000000000E+00 0. -1.
         -2   -1    0    0    0  501 -0.00000000000E+00 -0.00000000000E+00 -0.47232899843E+03  0.47232899843E+03  0.00000000000E+00 0.  1.
        -24    2    1    2    0    0  0.19981060973E+03  0.33892678419E+03  0.48080645749E+03  0.62642359323E+03  0.80224832691E+02 0.  0.
        254    2    1    2    0    0 -0.19981060973E+03 -0.33892678419E+03  0.21151827867E+03  0.10105591398E+04  0.90647346790E+03 0.  0.
         23    2    4    4    0    0 -0.44397207305E+03 -0.39356377494E+03 -0.91952662199E+02  0.60709037709E+03  0.89998818163E+02 0.  0.
         23    2    4    4    0    0  0.24416146332E+03  0.54636990749E+02  0.30347094087E+03  0.40346876271E+03  0.89957821225E+02 0.  0.
          3    1    3    3  502    0  0.18509646838E+03  0.28364354223E+03  0.44385202062E+03  0.55831798991E+03  0.00000000000E+00 0. -1.
         -4    1    3    3    0  502  0.14714141352E+02  0.55283241967E+02  0.36954436874E+02  0.68105603314E+02  0.00000000000E+00 0.  1.
         11    1    5    5    0    0 -0.22768721886E+03 -0.14468186884E+03 -0.54774800065E+02  0.27527185022E+03  0.00000000000E+00 0.  1.
        -11    1    5    5    0    0 -0.21628485419E+03 -0.24888190610E+03 -0.37177862134E+02  0.33181852687E+03  0.00000000000E+00 0. -1.
          4    1    6    6  503    0  0.17684404712E+03  0.71509350442E+02  0.18244922396E+03  0.26396045826E+03  0.00000000000E+00 0. -1.
         -4    1    6    6    0  503  0.67317416201E+02 -0.16872359693E+02  0.12102171691E+03  0.13950830444E+03  0.00000000000E+00 0.  1.
<mgrwt>
<rscale>  0 0.14833742E+04</rscale>
<asrwt>0</asrwt>
<pdfrwt beam="1">  1        1 0.17917750E+00 0.14833742E+04</pdfrwt>
<pdfrwt beam="2">  1       -2 0.72666000E-01 0.14833742E+04</pdfrwt>
<totfact> 0.16504479E+01</totfact>
</mgrwt>
</event>
<event>
12    4  0.4381187E-008  0.1782614E+04  0.7818608E-02  0.8715600E-01
          1   -1    0    0  501    0  0.00000000000E+00  0.00000000000E+00  0.78732518343E+03  0.78732518343E+03  0.00000000000E+00 0. -1.
         -2   -1    0    0    0  501 -0.00000000000E+00 -0.00000000000E+00 -0.10090217607E+04  0.10090217607E+04  0.00000000000E+00 0.  1.
        -24    2    1    2    0    0 -0.22999804214E+03  0.51070173933E+03  0.26590868974E+03  0.62490831724E+03  0.78023123072E+02 0.  0.
        254    2    1    2    0    0  0.22999804214E+03 -0.51070173933E+03 -0.48760526706E+03  0.11714386269E+04  0.90597692810E+03 0.  0.
         23    2    4    4    0    0  0.20987845523E+03 -0.23397192157E+03 -0.72483245886E+03  0.79545276790E+03  0.92580702594E+02 0.  0.
         23    2    4    4    0    0  0.20119586910E+02 -0.27672981775E+03  0.23722719180E+03  0.37598585902E+03  0.90024640199E+02 0.  0.
          3    1    3    3  502    0 -0.12033785216E+03  0.35672991359E+03  0.17692272400E+03  0.41597966318E+03  0.00000000000E+00 0. -1.
         -4    1    3    3    0  502 -0.10966018998E+03  0.15397182573E+03  0.88985965745E+02  0.20892865406E+03  0.00000000000E+00 0.  1.
         11    1    5    5    0    0  0.11039526326E+03 -0.11685254987E+03 -0.25803836908E+03  0.30401551355E+03  0.00000000000E+00 0. -1.
        -11    1    5    5    0    0  0.99483191968E+02 -0.11711937171E+03 -0.46679408978E+03  0.49143725436E+03  0.00000000000E+00 0.  1.
          1    1    6    6  503    0  0.85114400358E+01 -0.65471189965E+02  0.12248423010E+02  0.67148679757E+02  0.00000000000E+00 0. -1.
         -1    1    6    6    0  503  0.11608146874E+02 -0.21125862779E+03  0.22497876879E+03  0.30883717926E+03  0.00000000000E+00 0.  1.
<mgrwt>
<rscale>  0 0.17826141E+04</rscale>
<asrwt>0</asrwt>
<pdfrwt beam="1">  1        1 0.12112695E+00 0.17826141E+04</pdfrwt>
<pdfrwt beam="2">  1       -2 0.15523412E+00 0.17826141E+04</pdfrwt>
<totfact> 0.51317134E+00</totfact>
</mgrwt>
</event>
<event>
12    4  0.4381187E-008  0.3824160E+04  0.7818608E-02  0.8040990E-01
          1   -1    0    0  501    0  0.00000000000E+00  0.00000000000E+00  0.18680048155E+04  0.18680048155E+04  0.00000000000E+00 0. -1.
         -2   -1    0    0    0  501 -0.00000000000E+00 -0.00000000000E+00 -0.19571950649E+04  0.19571950649E+04  0.00000000000E+00 0.  1.
        -24    2    1    2    0    0 -0.62700816503E+03  0.20728247540E+03  0.16424058433E+04  0.17716891706E+04  0.72665671272E+02 0.  0.
        254    2    1    2    0    0  0.62700816503E+03 -0.20728247540E+03 -0.17315960926E+04  0.20535107097E+04  0.88452017683E+03 0.  0.
         23    2    4    4    0    0  0.30503012940E+03 -0.50651120020E+02 -0.42073116402E+02  0.32409141912E+03  0.87499628688E+02 0.  0.
         23    2    4    4    0    0  0.32197803563E+03 -0.15663135538E+03 -0.16895229762E+04  0.17294192906E+04  0.90553622387E+02 0.  0.
          3    1    3    3  502    0 -0.44225133844E+03  0.16534242378E+03  0.10961444580E+04  0.11935061945E+04  0.00000000000E+00 0. -1.
         -4    1    3    3    0  502 -0.18475682659E+03  0.41940051622E+02  0.54626138529E+03  0.57818297619E+03  0.00000000000E+00 0.  1.
         11    1    5    5    0    0  0.24723578920E+03 -0.35251742598E+02 -0.68112562737E+02  0.25885815038E+03  0.00000000000E+00 0. -1.
        -11    1    5    5    0    0  0.57794340200E+02 -0.15399377422E+02  0.26039446336E+02  0.65233268734E+02  0.00000000000E+00 0.  1.
          1    1    6    6  503    0  0.12209093449E+03 -0.10585588605E+03 -0.82038899282E+03  0.83615175921E+03  0.00000000000E+00 0. -1.
         -1    1    6    6    0  503  0.19988710114E+03 -0.50775469336E+02 -0.86913398342E+03  0.89326753138E+03  0.00000000000E+00 0.  1.
<mgrwt>
<rscale>  0 0.38241599E+04</rscale>
<asrwt>0</asrwt>
<pdfrwt beam="1">  1        1 0.28738536E+00 0.38241599E+04</pdfrwt>
<pdfrwt beam="2">  1       -2 0.30110693E+00 0.38241599E+04</pdfrwt>
<totfact> 0.79980811E-02</totfact>
</mgrwt>
</event>
<event>
12    4  0.4381187E-008  0.2072709E+04  0.7818608E-02  0.8573361E-01
          1   -1    0    0  501    0  0.00000000000E+00  0.00000000000E+00  0.26865369363E+04  0.26865369363E+04  0.00000000000E+00 0. -1.
         -4   -1    0    0    0  501 -0.00000000000E+00 -0.00000000000E+00 -0.39978254899E+03  0.39978254899E+03  0.00000000000E+00 0.  1.
        -24    2    1    2    0    0  0.29518066972E+03  0.10926209889E+03 -0.22229264357E+03  0.39482762547E+03  0.86052312121E+02 0.  0.
        254    2    1    2    0    0 -0.29518066972E+03 -0.10926209889E+03  0.25090470309E+04  0.26914918598E+04  0.92181429493E+03 0.  0.
         23    2    4    4    0    0  0.99894284582E+02  0.24030105590E+03  0.26209439103E+03  0.38163836892E+03  0.96077621020E+02 0.  0.
         23    2    4    4    0    0 -0.39507495430E+03 -0.34956315479E+03  0.22469526398E+04  0.23098534909E+04  0.91369388040E+02 0.  0.
          1    1    3    3  502    0  0.67379459827E+02 -0.11135196496E+02 -0.39258220737E+02  0.78773041728E+02  0.00000000000E+00 0. -1.
         -2    1    3    3    0  502  0.22780120989E+03  0.12039729538E+03 -0.18303442283E+03  0.31605458374E+03  0.00000000000E+00 0.  1.
         11    1    5    5    0    0  0.70525678072E+01  0.14205957062E+03  0.13369271106E+03  0.19520348692E+03  0.00000000000E+00 0. -1.
        -11    1    5    5    0    0  0.92841716774E+02  0.98241485280E+02  0.12840167998E+03  0.18643488199E+03  0.00000000000E+00 0.  1.
          1    1    6    6  503    0 -0.51368461807E+02 -0.43925323638E+02  0.17817439790E+03  0.19056303154E+03  0.00000000000E+00 0. -1.
         -1    1    6    6    0  503 -0.34370649249E+03 -0.30563783115E+03  0.20687782420E+04  0.21192904594E+04  0.00000000000E+00 0.  1.
<mgrwt>
<rscale>  0 0.20727089E+04</rscale>
<asrwt>0</asrwt>
<pdfrwt beam="1">  1        1 0.41331336E+00 0.20727089E+04</pdfrwt>
<pdfrwt beam="2">  1       -4 0.61505009E-01 0.20727089E+04</pdfrwt>
<totfact> 0.11404512E+00</totfact>
</mgrwt>
</event>
<event>
12    4  0.4381187E-008  0.1685224E+04  0.7818608E-02  0.8769837E-01
          1   -1    0    0  501    0  0.00000000000E+00  0.00000000000E+00  0.10454737565E+04  0.10454737565E+04  0.00000000000E+00 0. -1.
         -2   -1    0    0    0  501 -0.00000000000E+00 -0.00000000000E+00 -0.67911310874E+03  0.67911310874E+03  0.00000000000E+00 0.  1.
        -24    2    1    2    0    0  0.21103025442E+03 -0.11844040944E+03  0.69276483333E+03  0.73787521355E+03  0.77296944256E+02 0.  0.
        254    2    1    2    0    0 -0.21103025442E+03  0.11844040944E+03 -0.32640418559E+03  0.98671165168E+03  0.89916533091E+03 0.  0.
         23    2    4    4    0    0 -0.50661775121E+03  0.16789064495E+03 -0.12371482616E+02  0.54245227111E+03  0.96190427505E+02 0.  0.
         23    2    4    4    0    0  0.29558749679E+03 -0.49450235508E+02 -0.31403270297E+03  0.44425938057E+03  0.94512245980E+02 0.  0.
          1    1    3    3  502    0  0.63767828955E+02 -0.39397913673E+02  0.33081072348E+03  0.33919650113E+03  0.00000000000E+00 0. -1.
         -2    1    3    3    0  502  0.14726242546E+03 -0.79042495770E+02  0.36195410986E+03  0.39867871242E+03  0.00000000000E+00 0.  1.
         11    1    5    5    0    0 -0.38102741073E+03  0.13392493198E+03  0.31618750776E+02  0.40511420678E+03  0.00000000000E+00 0.  1.
        -11    1    5    5    0    0 -0.12559034048E+03  0.33965712972E+02 -0.43990233392E+02  0.13733806433E+03  0.00000000000E+00 0. -1.
          3    1    6    6  503    0  0.26264191812E+03 -0.17238422894E+02 -0.23537336704E+03  0.35309851641E+03  0.00000000000E+00 0. -1.
         -3    1    6    6    0  503  0.32945578666E+02 -0.32211812614E+02 -0.78659335930E+02  0.91160864160E+02  0.00000000000E+00 0.  1.
<mgrwt>
<rscale>  0 0.16852239E+04</rscale>
<asrwt>0</asrwt>
<pdfrwt beam="1">  1        1 0.16084212E+00 0.16852239E+04</pdfrwt>
<pdfrwt beam="2">  1       -2 0.10447894E+00 0.16852239E+04</pdfrwt>
<totfact> 0.86695487E+00</totfact>
</mgrwt>
</event>
<event>
12    4  0.4381187E-008  0.1210950E+04  0.7818608E-02  0.9103326E-01
          1   -1    0    0  501    0  0.00000000000E+00  0.00000000000E+00  0.32538851096E+04  0.32538851096E+04  0.00000000000E+00 0. -1.
         -2   -1    0    0    0  501 -0.00000000000E+00 -0.00000000000E+00 -0.11266534488E+03  0.11266534488E+03  0.00000000000E+00 0.  1.
        -24    2    1    2    0    0  0.38675647208E+02  0.11693140468E+03  0.70875737769E+02  0.16249732596E+03  0.78824181896E+02 0.  0.
        254    2    1    2    0    0 -0.38675647208E+02 -0.11693140468E+03  0.30703440269E+04  0.32040531285E+04  0.90762065173E+03 0.  0.
         23    2    4    4    0    0  0.14486535290E+03 -0.41768298505E+03  0.23893577042E+04  0.24315760975E+04  0.89927931272E+02 0.  0.
         23    2    4    4    0    0 -0.18354100011E+03  0.30075158037E+03  0.68098632279E+03  0.77247703106E+03  0.94019039926E+02 0.  0.
          1    1    3    3  502    0  0.16157132986E+02  0.39188786332E+02  0.69667789699E+02  0.81550075672E+02  0.00000000000E+00 0. -1.
         -2    1    3    3    0  502  0.22518514222E+02  0.77742618347E+02  0.12079480700E+01  0.80947250285E+02  0.00000000000E+00 0.  1.
         11    1    5    5    0    0  0.30238622268E+02 -0.20796459972E+03  0.12325594543E+04  0.12503465349E+04  0.00000000000E+00 0. -1.
        -11    1    5    5    0    0  0.11462673063E+03 -0.20971838533E+03  0.11567982499E+04  0.11812295625E+04  0.00000000000E+00 0.  1.
          2    1    6    6  503    0 -0.17236267013E+03  0.26401691451E+03  0.53010230987E+03  0.61678381960E+03  0.00000000000E+00 0. -1.
         -2    1    6    6    0  503 -0.11178329982E+02  0.36734665866E+02  0.15088401292E+03  0.15569321145E+03  0.00000000000E+00 0.  1.
<mgrwt>
<rscale>  0 0.12109502E+04</rscale>
<asrwt>0</asrwt>
<pdfrwt beam="1">  1        1 0.50059764E+00 0.12109502E+04</pdfrwt>
<pdfrwt beam="2">  1       -2 0.17333132E-01 0.12109502E+04</pdfrwt>
<totfact> 0.93777994E+00</totfact>
</mgrwt>
</event>
<event>
12    4  0.4381187E-008  0.1824037E+04  0.7818608E-02  0.8693620E-01
          1   -1    0    0  501    0  0.00000000000E+00  0.00000000000E+00  0.11791453927E+04  0.11791453927E+04  0.00000000000E+00 0. -1.
         -2   -1    0    0    0  501 -0.00000000000E+00 -0.00000000000E+00 -0.70540717179E+03  0.70540717179E+03  0.00000000000E+00 0.  1.
        -24    2    1    2    0    0  0.40143380218E+03  0.27841288857E+03 -0.31965513123E+03  0.58957842151E+03  0.82222126807E+02 0.  0.
        254    2    1    2    0    0 -0.40143380218E+03 -0.27841288857E+03  0.79339335209E+03  0.12949741429E+04  0.89934542066E+03 0.  0.
         23    2    4    4    0    0 -0.61575649457E+03 -0.38667420331E+03  0.72128138319E+03  0.10283176943E+04  0.92290013109E+02 0.  0.
         23    2    4    4    0    0  0.21432269238E+03  0.10826131474E+03  0.72111968901E+02  0.26665644865E+03  0.90833896814E+02 0.  0.
          1    1    3    3  502    0  0.14223058537E+03  0.99201943220E+02 -0.16161981877E+03  0.23704752851E+03  0.00000000000E+00 0. -1.
         -2    1    3    3    0  502  0.25920321681E+03  0.17921094535E+03 -0.15803531247E+03  0.35253089301E+03  0.00000000000E+00 0.  1.
         11    1    5    5    0    0 -0.59663471525E+03 -0.37930805518E+03  0.67402499394E+03  0.97680974434E+03  0.00000000000E+00 0. -1.
        -11    1    5    5    0    0 -0.19121779312E+02 -0.73661481288E+01  0.47256389246E+02  0.51507949939E+02  0.00000000000E+00 0.  1.
          4    1    6    6  503    0  0.20903433550E+03  0.12197487621E+03  0.67647484226E+02  0.25129545552E+03  0.00000000000E+00 0. -1.
         -4    1    6    6    0  503  0.52883568804E+01 -0.13713561465E+02  0.44644846748E+01  0.15360993131E+02  0.00000000000E+00 0.  1.
<mgrwt>
<rscale>  0 0.18240369E+04</rscale>
<asrwt>0</asrwt>
<pdfrwt beam="1">  1        1 0.18140698E+00 0.18240369E+04</pdfrwt>
<pdfrwt beam="2">  1       -2 0.10852418E+00 0.18240369E+04</pdfrwt>
<totfact> 0.62065895E+00</totfact>
</mgrwt>
</event>
<event>
12    4  0.4381187E-008  0.1197082E+04  0.7818608E-02  0.9115414E-01
          1   -1    0    0  501    0  0.00000000000E+00  0.00000000000E+00  0.14656736400E+04  0.14656736400E+04  0.00000000000E+00 0. -1.
         -2   -1    0    0    0  501 -0.00000000000E+00 -0.00000000000E+00 -0.24442782767E+03  0.24442782767E+03  0.00000000000E+00 0.  1.
        -24    2    1    2    0    0 -0.21643212883E+03  0.18542640777E+02  0.99064300397E+02  0.25102154534E+03  0.77533119970E+02 0.  0.
        254    2    1    2    0    0  0.21643212883E+03 -0.18542640777E+02  0.11221815119E+04  0.14590799223E+04  0.90688267054E+03 0.  0.
         23    2    4    4    0    0  0.28227443173E+03  0.26136358368E+03  0.12066529131E+03  0.41291430743E+03  0.89153435575E+02 0.  0.
         23    2    4    4    0    0 -0.65842302891E+02 -0.27990622445E+03  0.10015162206E+04  0.10461656149E+04  0.93514973723E+02 0.  0.
          1    1    3    3  502    0 -0.38214534273E+02  0.21191781031E+02 -0.60244734930E+01  0.44110503215E+02  0.00000000000E+00 0. -1.
         -2    1    3    3    0  502 -0.17821759456E+03 -0.26491402535E+01  0.10508877389E+03  0.20691104212E+03  0.00000000000E+00 0.  1.
         11    1    5    5    0    0  0.70436120660E+02  0.11164224434E+03  0.15158792213E+02  0.13287221981E+03  0.00000000000E+00 0.  1.
        -11    1    5    5    0    0  0.21183831107E+03  0.14972133933E+03  0.10550649910E+03  0.28004208762E+03  0.00000000000E+00 0. -1.
          4    1    6    6  503    0 -0.82780458446E+02 -0.20465981275E+03  0.65623394036E+03  0.69237361860E+03  0.00000000000E+00 0. -1.
         -4    1    6    6    0  503  0.16938155554E+02 -0.75246411701E+02  0.34528228026E+03  0.35379199630E+03  0.00000000000E+00 0.  1.
<mgrwt>
<rscale>  0 0.11970822E+04</rscale>
<asrwt>0</asrwt>
<pdfrwt beam="1">  1        1 0.22548825E+00 0.11970822E+04</pdfrwt>
<pdfrwt beam="2">  1       -2 0.37604282E-01 0.11970822E+04</pdfrwt>
<totfact> 0.40040644E+01</totfact>
</mgrwt>
</event>
<event>
12    4  0.4381187E-008  0.1956609E+04  0.7818608E-02  0.8627180E-01
          3   -1    0    0  501    0  0.00000000000E+00  0.00000000000E+00  0.46045366658E+03  0.46045366658E+03  0.00000000000E+00 0. -1.
         -4   -1    0    0    0  501 -0.00000000000E+00 -0.00000000000E+00 -0.20785577707E+04  0.20785577707E+04  0.00000000000E+00 0.  1.
        -24    2    1    2    0    0  0.65911225064E+03  0.29741875488E+03 -0.26510597870E+03  0.77422419795E+03  0.79088899623E+02 0.  0.
        254    2    1    2    0    0 -0.65911225064E+03 -0.29741875488E+03 -0.13529981254E+04  0.17647872393E+04  0.87234350918E+03 0.  0.
         23    2    4    4    0    0  0.14092603660E+03 -0.24796181213E+03 -0.20674113777E+03  0.36325264799E+03  0.88686978532E+02 0.  0.
         23    2    4    4    0    0 -0.80003828724E+03 -0.49456942748E+02 -0.11462569877E+04  0.14015345914E+04  0.88808100664E+02 0.  0.
          3    1    3    3  502    0  0.51969437306E+03  0.19911539757E+03 -0.19345411953E+03  0.58919748752E+03  0.00000000000E+00 0. -1.
         -4    1    3    3    0  502  0.13941787758E+03  0.98303357313E+02 -0.71651859169E+02  0.18502671043E+03  0.00000000000E+00 0.  1.
         11    1    5    5    0    0  0.41001937087E+02 -0.12248323788E+03 -0.13716626527E+03  0.18840882871E+03  0.00000000000E+00 0. -1.
        -11    1    5    5    0    0  0.99924099508E+02 -0.12547857425E+03 -0.69574872495E+02  0.17484381928E+03  0.00000000000E+00 0.  1.
          3    1    6    6  503    0 -0.61599914747E+03 -0.61601817675E+00 -0.88288024495E+03  0.10765374383E+04  0.00000000000E+00 0. -1.
         -3    1    6    6    0  503 -0.18403913977E+03 -0.48840924572E+02 -0.26337674272E+03  0.32499715304E+03  0.00000000000E+00 0.  1.
<mgrwt>
<rscale>  0 0.19566088E+04</rscale>
<asrwt>0</asrwt>
<pdfrwt beam="1">  1        3 0.70839025E-01 0.19566088E+04</pdfrwt>
<pdfrwt beam="2">  1       -4 0.31977812E+00 0.19566088E+04</pdfrwt>
<totfact> 0.94134000E-02</totfact>
</mgrwt>
</event>
<event>
12    4  0.4381187E-008  0.1197966E+04  0.7818608E-02  0.9114639E-01
          3   -1    0    0  501    0  0.00000000000E+00  0.00000000000E+00  0.94002502363E+03  0.94002502363E+03  0.00000000000E+00 0. -1.
         -4   -1    0    0    0  501 -0.00000000000E+00 -0.00000000000E+00 -0.38167115933E+03  0.38167115933E+03  0.00000000000E+00 0.  1.
        -24    2    1    2    0    0  0.95802132425E+02 -0.22509586600E+03  0.10544933790E+03  0.27882253439E+03  0.82317952787E+02 0.  0.
        254    2    1    2    0    0 -0.95802132425E+02  0.22509586600E+03  0.45290452640E+03  0.10428736486E+04  0.90698221559E+03 0.  0.
         23    2    4    4    0    0  0.35361088320E+03 -0.83228929988E+02  0.26788937835E+03  0.45999471062E+03  0.88671885387E+02 0.  0.
         23    2    4    4    0    0 -0.44941301563E+03  0.30832479599E+03  0.18501514805E+03  0.58287893795E+03  0.92092414809E+02 0.  0.
          3    1    3    3  502    0  0.35780005878E+02 -0.47871831482E+02  0.63231516992E+02  0.87006584873E+02  0.00000000000E+00 0. -1.
         -4    1    3    3    0  502  0.60022126547E+02 -0.17722403452E+03  0.42217820907E+02  0.19181594951E+03  0.00000000000E+00 0.  1.
         11    1    5    5    0    0  0.28163374479E+03 -0.10045751423E+03  0.22718576649E+03  0.37552982686E+03  0.00000000000E+00 0.  1.
        -11    1    5    5    0    0  0.71977138414E+02  0.17228584243E+02  0.40703611864E+02  0.84464883756E+02  0.00000000000E+00 0. -1.
          1    1    6    6  503    0 -0.17779411993E+03  0.92257609347E+02  0.10719728875E+03  0.22718599050E+03  0.00000000000E+00 0. -1.
         -1    1    6    6    0  503 -0.27161889570E+03  0.21606718664E+03  0.77817859302E+02  0.35569294746E+03  0.00000000000E+00 0.  1.
<mgrwt>
<rscale>  0 0.11979657E+04</rscale>
<asrwt>0</asrwt>
<pdfrwt beam="1">  1        3 0.14461923E+00 0.11979657E+04</pdfrwt>
<pdfrwt beam="2">  1       -4 0.58718640E-01 0.11979657E+04</pdfrwt>
<totfact> 0.22051087E+00</totfact>
</mgrwt>
</event>
<event>
12    4  0.4381187E-008  0.2593090E+04  0.7818608E-02  0.8370552E-01
         -2   -1    0    0    0  501 -0.00000000000E+00  0.00000000000E+00  0.12132293335E+04  0.12132293335E+04  0.00000000000E+00 0.  1.
          1   -1    0    0  501    0  0.00000000000E+00 -0.00000000000E+00 -0.13855822974E+04  0.13855822974E+04  0.00000000000E+00 0. -1.
        -24    2    1    2    0    0 -0.56420078892E+03 -0.42823955681E+02  0.91363021566E+03  0.10770312412E+04  0.71552093511E+02 0.  0.
        254    2    1    2    0    0  0.56420078892E+03  0.42823955681E+02 -0.10859831796E+04  0.15217803898E+04  0.90349303648E+03 0.  0.
         23    2    4    4    0    0  0.69620416937E+02 -0.19169263300E+03  0.74745306392E+02  0.23528136862E+03  0.90428942221E+02 0.  0.
         23    2    4    4    0    0  0.49458037199E+03  0.23451658868E+03 -0.11607284860E+04  0.12864990211E+04  0.90450752065E+02 0.  0.
          3    1    3    3  502    0 -0.99594220357E+02 -0.29564024776E+02  0.20021762882E+03  0.22556626339E+03  0.00000000000E+00 0. -1.
         -4    1    3    3    0  502 -0.46460656856E+03 -0.13259930905E+02  0.71341258684E+03  0.85146497777E+03  0.00000000000E+00 0.  1.
         11    1    5    5    0    0  0.36163767158E+02 -0.10627604800E+02  0.22436780549E+02  0.43865398212E+02  0.00000000000E+00 0.  1.
        -11    1    5    5    0    0  0.33456649779E+02 -0.18106502820E+03  0.52308525842E+02  0.19141597041E+03  0.00000000000E+00 0. -1.
          3    1    6    6  503    0  0.41931775245E+03  0.22545056103E+03 -0.10423685497E+04  0.11459439455E+04  0.00000000000E+00 0. -1.
         -3    1    6    6    0  503  0.75262619535E+02  0.90660276547E+01 -0.11835993630E+03  0.14055507560E+03  0.00000000000E+00 0.  1.
<mgrwt>
<rscale>  0 0.25930901E+04</rscale>
<asrwt>0</asrwt>
<pdfrwt beam="1">  1        1 0.21316651E+00 0.25930901E+04</pdfrwt>
<pdfrwt beam="2">  1       -2 0.18665067E+00 0.25930901E+04</pdfrwt>
<totfact> 0.99350312E-01</totfact>
</mgrwt>
</event>
<event>
12    4  0.4381187E-008  0.1443650E+04  0.7818608E-02  0.8922815E-01
          1   -1    0    0  501    0  0.00000000000E+00  0.00000000000E+00  0.22672494600E+04  0.22672494600E+04  0.00000000000E+00 0. -1.
         -2   -1    0    0    0  501 -0.00000000000E+00 -0.00000000000E+00 -0.22980774016E+03  0.22980774016E+03  0.00000000000E+00 0.  1.
        -24    2    1    2    0    0 -0.11676614604E+03  0.11902648722E+03  0.13261591451E+04  0.13389031895E+04  0.78498632186E+02 0.  0.
        254    2    1    2    0    0  0.11676614604E+03 -0.11902648722E+03  0.71128257471E+03  0.11581540106E+04  0.89866354867E+03 0.  0.
         23    2    4    4    0    0  0.49723629756E+03 -0.12974692858E+03  0.42414384594E+03  0.67251482075E+03  0.91104231419E+02 0.  0.
         23    2    4    4    0    0 -0.38047015152E+03  0.10720441361E+02  0.28713872877E+03  0.48563918987E+03  0.92327185158E+02 0.  0.
          1    1    3    3  502    0 -0.91811079598E+02  0.45033252071E+02  0.61163397753E+03  0.62012368976E+03  0.00000000000E+00 0. -1.
         -2    1    3    3    0  502 -0.24955066443E+02  0.73993235151E+02  0.71452516759E+03  0.71877949979E+03  0.00000000000E+00 0.  1.
         11    1    5    5    0    0  0.13284516481E+03  0.89515169670E+00  0.13449094432E+03  0.18904087710E+03  0.00000000000E+00 0.  1.
        -11    1    5    5    0    0  0.36439113275E+03 -0.13064208028E+03  0.28965290162E+03  0.48347394365E+03  0.00000000000E+00 0. -1.
          1    1    6    6  503    0 -0.18019845569E+03  0.51157534089E+02  0.13452995582E+03  0.23062282137E+03  0.00000000000E+00 0. -1.
         -1    1    6    6    0  503 -0.20027169584E+03 -0.40437092728E+02  0.15260877295E+03  0.25501636850E+03  0.00000000000E+00 0.  1.
<mgrwt>
<rscale>  0 0.14436502E+04</rscale>
<asrwt>0</asrwt>
<pdfrwt beam="1">  1        1 0.34880759E+00 0.14436502E+04</pdfrwt>
<pdfrwt beam="2">  1       -2 0.35355039E-01 0.14436502E+04</pdfrwt>
<totfact> 0.12586677E+01</totfact>
</mgrwt>
</event>
<event>
12    4  0.4381187E-008  0.2074925E+04  0.7818608E-02  0.8572370E-01
          1   -1    0    0  501    0  0.00000000000E+00  0.00000000000E+00  0.20457483207E+04  0.20457483207E+04  0.00000000000E+00 0. -1.
         -2   -1    0    0    0  501 -0.00000000000E+00 -0.00000000000E+00 -0.52612924260E+03  0.52612924260E+03  0.00000000000E+00 0.  1.
        -24    2    1    2    0    0  0.42138974800E+03 -0.72301379693E+03  0.54183550101E+03  0.10001328064E+04  0.79759952686E+02 0.  0.
        254    2    1    2    0    0 -0.42138974800E+03  0.72301379693E+03  0.97778357710E+03  0.15717447569E+04  0.90222091910E+03 0.  0.
         23    2    4    4    0    0  0.26760103683E+03  0.23684256750E+03  0.19388148116E+03  0.41655483903E+03  0.90681798023E+02 0.  0.
         23    2    4    4    0    0 -0.68899078483E+03  0.48617122943E+03  0.78390209594E+03  0.11551899178E+04  0.94289365096E+02 0.  0.
          1    1    3    3  502    0  0.63511896447E+01 -0.19216195254E+02  0.94611569985E+00  0.20260673850E+02  0.00000000000E+00 0. -1.
         -2    1    3    3    0  502  0.41503855836E+03 -0.70379760168E+03  0.54088938531E+03  0.97987213257E+03  0.00000000000E+00 0.  1.
         11    1    5    5    0    0  0.13787145606E+03  0.75866453330E+02  0.11652786786E+03  0.19581368983E+03  0.00000000000E+00 0. -1.
        -11    1    5    5    0    0  0.12972958077E+03  0.16097611417E+03  0.77353613296E+02  0.22074114920E+03  0.00000000000E+00 0.  1.
          3    1    6    6  503    0 -0.36213375320E+03  0.30542863586E+03  0.40686532437E+03  0.62447329726E+03  0.00000000000E+00 0. -1.
         -3    1    6    6    0  503 -0.32685703163E+03  0.18074259357E+03  0.37703677157E+03  0.53071662059E+03  0.00000000000E+00 0.  1.
<mgrwt>
<rscale>  0 0.20749246E+04</rscale>
<asrwt>0</asrwt>
<pdfrwt beam="1">  1        1 0.31473051E+00 0.20749246E+04</pdfrwt>
<pdfrwt beam="2">  1       -2 0.80942962E-01 0.20749246E+04</pdfrwt>
<totfact> 0.30234532E+00</totfact>
</mgrwt>
</event>
<event>
12    4  0.4381187E-008  0.1654510E+04  0.7818608E-02  0.8787743E-01
          1   -1    0    0  501    0  0.00000000000E+00  0.00000000000E+00  0.57746722685E+03  0.57746722685E+03  0.00000000000E+00 0. -1.
         -2   -1    0    0    0  501 -0.00000000000E+00 -0.00000000000E+00 -0.11850903880E+04  0.11850903880E+04  0.00000000000E+00 0.  1.
        -24    2    1    2    0    0 -0.39727893087E+03  0.13803646912E+03 -0.64135891835E+03  0.77106393319E+03  0.79458864835E+02 0.  0.
        254    2    1    2    0    0  0.39727893087E+03 -0.13803646912E+03  0.33735757241E+02  0.99149368161E+03  0.89723854333E+03 0.  0.
         23    2    4    4    0    0 -0.10286335173E+03  0.12462288749E+03  0.30531720289E+03  0.35768901381E+03  0.92796029039E+02 0.  0.
         23    2    4    4    0    0  0.50014228260E+03 -0.26265935661E+03 -0.27158144565E+03  0.63380466780E+03  0.93912910927E+02 0.  0.
          1    1    3    3  502    0 -0.70335299338E+02  0.37529403974E+02 -0.75135405485E+02  0.10954834391E+03  0.00000000000E+00 0. -1.
         -2    1    3    3    0  502 -0.32694363154E+03  0.10050706515E+03 -0.56622351286E+03  0.66151558928E+03  0.00000000000E+00 0.  1.
         11    1    5    5    0    0 -0.71720063160E+02  0.24311897568E+02  0.17225824338E+03  0.18816944023E+03  0.00000000000E+00 0.  1.
        -11    1    5    5    0    0 -0.31143288571E+02  0.10031098992E+03  0.13305895951E+03  0.16951957358E+03  0.00000000000E+00 0. -1.
          2    1    6    6  503    0  0.17414314247E+03 -0.99651270289E+02 -0.48309604919E+02  0.20637351494E+03  0.00000000000E+00 0. -1.
         -2    1    6    6    0  503  0.32599914013E+03 -0.16300808632E+03 -0.22327184073E+03  0.42743115286E+03  0.00000000000E+00 0.  1.
<mgrwt>
<rscale>  0 0.16545100E+04</rscale>
<asrwt>0</asrwt>
<pdfrwt beam="1">  1        1 0.88841111E-01 0.16545100E+04</pdfrwt>
<pdfrwt beam="2">  1       -2 0.18232160E+00 0.16545100E+04</pdfrwt>
<totfact> 0.52826663E+00</totfact>
</mgrwt>
</event>
<event>
12    4  0.4381187E-008  0.1625360E+04  0.7818608E-02  0.8805118E-01
         -2   -1    0    0    0  501 -0.00000000000E+00  0.00000000000E+00  0.35008562580E+03  0.35008562580E+03  0.00000000000E+00 0.  1.
          1   -1    0    0  501    0  0.00000000000E+00 -0.00000000000E+00 -0.18865358864E+04  0.18865358864E+04  0.00000000000E+00 0. -1.
        -24    2    1    2    0    0 -0.25293724038E+03 -0.36158877194E+03 -0.60740046354E+02  0.45267275173E+03  0.80619968790E+02 0.  0.
        254    2    1    2    0    0  0.25293724038E+03  0.36158877194E+03 -0.14757102142E+04  0.17839487604E+04  0.90001603093E+03 0.  0.
         23    2    4    4    0    0  0.33480840206E+01  0.62117676410E+03 -0.85847948239E+03  0.10636273700E+04  0.91893299620E+02 0.  0.
         23    2    4    4    0    0  0.24958915636E+03 -0.25958799216E+03 -0.61723073183E+03  0.72032139047E+03  0.90600533190E+02 0.  0.
          1    1    3    3  502    0 -0.15975582706E+03 -0.20009604737E+03 -0.71719281236E+02  0.26590225225E+03  0.00000000000E+00 0. -1.
         -2    1    3    3    0  502 -0.93181413317E+02 -0.16149272458E+03  0.10979234882E+02  0.18677049948E+03  0.00000000000E+00 0.  1.
         11    1    5    5    0    0  0.20891407854E+02  0.59192909799E+03 -0.82692638657E+03  0.10171645672E+04  0.00000000000E+00 0. -1.
        -11    1    5    5    0    0 -0.17543323834E+02  0.29247666108E+02 -0.31553095825E+02  0.46462802757E+02  0.00000000000E+00 0.  1.
          1    1    6    6  503    0  0.21619032728E+03 -0.23046847861E+03 -0.46832165796E+03  0.56495942558E+03  0.00000000000E+00 0. -1.
         -1    1    6    6    0  503  0.33398829072E+02 -0.29119513549E+02 -0.14890907387E+03  0.15536196489E+03  0.00000000000E+00 0.  1.
<mgrwt>
<rscale>  0 0.16253604E+04</rscale>
<asrwt>0</asrwt>
<pdfrwt beam="1">  1        1 0.29023629E+00 0.16253604E+04</pdfrwt>
<pdfrwt beam="2">  1       -2 0.53859326E-01 0.16253604E+04</pdfrwt>
<totfact> 0.97147777E+00</totfact>
</mgrwt>
</event>
<event>
12    4  0.4381187E-008  0.1645516E+04  0.7818608E-02  0.8793064E-01
          1   -1    0    0  501    0  0.00000000000E+00  0.00000000000E+00  0.24996480580E+04  0.24996480580E+04  0.00000000000E+00 0. -1.
         -2   -1    0    0    0  501 -0.00000000000E+00 -0.00000000000E+00 -0.27081042926E+03  0.27081042926E+03  0.00000000000E+00 0.  1.
        -24    2    1    2    0    0  0.23037299170E+03  0.50225895667E+03  0.10528469562E+04  0.11916569177E+04  0.78890566447E+02 0.  0.
        254    2    1    2    0    0 -0.23037299170E+03 -0.50225895667E+03  0.11759906725E+04  0.15788015695E+04  0.89684143484E+03 0.  0.
         23    2    4    4    0    0 -0.22817908620E+03 -0.18466967696E+03 -0.45696915667E+02  0.31336510471E+03  0.99704040950E+02 0.  0.
         23    2    4    4    0    0 -0.21939055007E+01 -0.31758927971E+03  0.12216875882E+04  0.12654364648E+04  0.89112959558E+02 0.  0.
          3    1    3    3  502    0  0.16561778680E+03  0.33153326286E+03  0.62735976690E+03  0.72864520365E+03  0.00000000000E+00 0. -1.
         -4    1    3    3    0  502  0.64755204901E+02  0.17072569382E+03  0.42548718928E+03  0.46301171403E+03  0.00000000000E+00 0.  1.
         11    1    5    5    0    0 -0.17690313844E+02 -0.22981828919E+02 -0.38038312477E+02  0.47833303048E+02  0.00000000000E+00 0. -1.
        -11    1    5    5    0    0 -0.21048877235E+03 -0.16168784804E+03 -0.76586031903E+01  0.26553180166E+03  0.00000000000E+00 0.  1.
          1    1    6    6  503    0  0.15585155000E+02 -0.67171170177E+02  0.41173273183E+03  0.41746701141E+03  0.00000000000E+00 0. -1.
         -1    1    6    6    0  503 -0.17779060501E+02 -0.25041810954E+03  0.80995485636E+03  0.84796945341E+03  0.00000000000E+00 0.  1.
<mgrwt>
<rscale>  0 0.16455160E+04</rscale>
<asrwt>0</asrwt>
<pdfrwt beam="1">  1        1 0.38456122E+00 0.16455160E+04</pdfrwt>
<pdfrwt beam="2">  1       -2 0.41663145E-01 0.16455160E+04</pdfrwt>
<totfact> 0.62225033E+00</totfact>
</mgrwt>
</event>
<event>
12    4  0.4381187E-008  0.1575830E+04  0.7818608E-02  0.8835536E-01
         -2   -1    0    0    0  501 -0.00000000000E+00  0.00000000000E+00  0.42552969444E+03  0.42552969444E+03  0.00000000000E+00 0.  1.
          1   -1    0    0  501    0  0.00000000000E+00 -0.00000000000E+00 -0.14589111724E+04  0.14589111724E+04  0.00000000000E+00 0. -1.
        -24    2    1    2    0    0  0.72429281191E+02 -0.39665096995E+02  0.27456574674E+03  0.29724523754E+03  0.78415950300E+02 0.  0.
        254    2    1    2    0    0 -0.72429281191E+02  0.39665096995E+02 -0.13079472247E+04  0.15871956293E+04  0.89534613549E+03 0.  0.
         23    2    4    4    0    0 -0.44485314968E+03  0.18210918578E+03 -0.68047547682E+03  0.83824840034E+03  0.92495544749E+02 0.  0.
         23    2    4    4    0    0  0.37242386849E+03 -0.14244408878E+03 -0.62747174784E+03  0.74894722891E+03  0.90616229791E+02 0.  0.
          1    1    3    3  502    0 -0.98113691282E+01  0.55378689483E+01  0.60188213935E+01  0.12773299011E+02  0.00000000000E+00 0. -1.
         -2    1    3    3    0  502  0.82240650320E+02 -0.45202965944E+02  0.26854692535E+03  0.28447193853E+03  0.00000000000E+00 0.  1.
         11    1    5    5    0    0 -0.21106639944E+03  0.38916949614E+02 -0.27628238349E+03  0.34985069582E+03  0.00000000000E+00 0. -1.
        -11    1    5    5    0    0 -0.23378675024E+03  0.14319223616E+03 -0.40419309333E+03  0.48839770452E+03  0.00000000000E+00 0.  1.
          4    1    6    6  503    0  0.16641637914E+03 -0.89274728291E+02 -0.22542511985E+03  0.29407630475E+03  0.00000000000E+00 0.  1.
         -4    1    6    6    0  503  0.20600748935E+03 -0.53169360491E+02 -0.40204662799E+03  0.45487092416E+03  0.00000000000E+00 0. -1.
<mgrwt>
<rscale>  0 0.15758300E+04</rscale>
<asrwt>0</asrwt>
<pdfrwt beam="1">  1        1 0.22444787E+00 0.15758300E+04</pdfrwt>
<pdfrwt beam="2">  1       -2 0.65466107E-01 0.15758300E+04</pdfrwt>
<totfact> 0.12670443E+01</totfact>
</mgrwt>
</event>
<event>
12    4  0.4381187E-008  0.1541824E+04  0.7818608E-02  0.8857107E-01
         -2   -1    0    0    0  501 -0.00000000000E+00  0.00000000000E+00  0.55703663697E+03  0.55703663697E+03  0.00000000000E+00 0.  1.
          1   -1    0    0  501    0  0.00000000000E+00 -0.00000000000E+00 -0.10669050229E+04  0.10669050229E+04  0.00000000000E+00 0. -1.
        -24    2    1    2    0    0 -0.14084849315E+03  0.34731620900E+03  0.18046823289E+03  0.42396585404E+03  0.81923227754E+02 0.  0.
        254    2    1    2    0    0  0.14084849315E+03 -0.34731620900E+03 -0.69033661880E+03  0.11999758058E+04  0.90714411216E+03 0.  0.
         23    2    4    4    0    0  0.35509036677E+03 -0.40824814105E+03 -0.77076225301E+03  0.94606160058E+03  0.90567036961E+02 0.  0.
         23    2    4    4    0    0 -0.21424187362E+03  0.60931932048E+02  0.80425634213E+02  0.25391420523E+03  0.91607097020E+02 0.  0.
          1    1    3    3  502    0 -0.21376129337E+02  0.13939603587E+03  0.42417041693E+02  0.14726642234E+03  0.00000000000E+00 0. -1.
         -2    1    3    3    0  502 -0.11947236381E+03  0.20792017313E+03  0.13805119120E+03  0.27669943170E+03  0.00000000000E+00 0.  1.
         11    1    5    5    0    0  0.35865821385E+03 -0.40954419545E+03 -0.76175112328E+03  0.93628357681E+03  0.00000000000E+00 0. -1.
        -11    1    5    5    0    0 -0.35678470793E+01  0.12960544013E+01 -0.90111297354E+01  0.97780237727E+01  0.00000000000E+00 0.  1.
          2    1    6    6  503    0 -0.12978609640E+03  0.81896178169E+02  0.57932136058E+02  0.16403520111E+03  0.00000000000E+00 0. -1.
         -2    1    6    6    0  503 -0.84455777222E+02 -0.20964246120E+02  0.22493498155E+02  0.89879004116E+02  0.00000000000E+00 0.  1.
<mgrwt>
<rscale>  0 0.15418238E+04</rscale>
<asrwt>0</asrwt>
<pdfrwt beam="1">  1        1 0.16413923E+00 0.15418238E+04</pdfrwt>
<pdfrwt beam="2">  1       -2 0.85697945E-01 0.15418238E+04</pdfrwt>
<totfact> 0.13429627E+01</totfact>
</mgrwt>
</event>
<event>
12    4  0.4381187E-008  0.1599568E+04  0.7818608E-02  0.8820813E-01
         -4   -1    0    0    0  501 -0.00000000000E+00  0.00000000000E+00  0.15407996056E+04  0.15407996056E+04  0.00000000000E+00 0.  1.
          1   -1    0    0  501    0  0.00000000000E+00 -0.00000000000E+00 -0.41514466321E+03  0.41514466321E+03  0.00000000000E+00 0. -1.
        -24    2    1    2    0    0 -0.12392208186E+03  0.19850111502E+03 -0.21338870006E+03  0.32625092021E+03  0.78393562171E+02 0.  0.
        254    2    1    2    0    0  0.12392208186E+03 -0.19850111502E+03  0.13390436425E+04  0.16296933486E+04  0.89894558182E+03 0.  0.
         23    2    4    4    0    0 -0.12240968405E+03  0.20475383769E+03  0.63155455320E+02  0.26597300498E+03  0.99220779286E+02 0.  0.
         23    2    4    4    0    0  0.24633176591E+03 -0.40325495271E+03  0.12758881872E+04  0.13637203437E+04  0.92458713857E+02 0.  0.
          1    1    3    3  502    0 -0.89408099294E+02  0.18356244984E+03 -0.20135929646E+03  0.28676566650E+03  0.00000000000E+00 0. -1.
         -2    1    3    3    0  502 -0.34513982567E+02  0.14938665175E+02 -0.12029403600E+02  0.39485253713E+02  0.00000000000E+00 0.  1.
         11    1    5    5    0    0  0.10008334756E+01 -0.10024061827E+02 -0.90583888838E+00  0.10114545331E+02  0.00000000000E+00 0. -1.
        -11    1    5    5    0    0 -0.12341051753E+03  0.21477789952E+03  0.64061294208E+02  0.25585845965E+03  0.00000000000E+00 0.  1.
          2    1    6    6  503    0  0.29187539614E+02 -0.81844974044E+01  0.94343461080E+02  0.99093829854E+02  0.00000000000E+00 0. -1.
         -2    1    6    6    0  503  0.21714422630E+03 -0.39507045530E+03  0.11815447261E+04  0.12646265138E+04  0.00000000000E+00 0.  1.
<mgrwt>
<rscale>  0 0.15995684E+04</rscale>
<asrwt>0</asrwt>
<pdfrwt beam="1">  1        1 0.63868411E-01 0.15995684E+04</pdfrwt>
<pdfrwt beam="2">  1       -4 0.23704609E+00 0.15995684E+04</pdfrwt>
<totfact> 0.19867407E+00</totfact>
</mgrwt>
</event>
<event>
12    4  0.4381187E-008  0.1886281E+04  0.7818608E-02  0.8661715E-01
         -2   -1    0    0    0  501 -0.00000000000E+00  0.00000000000E+00  0.11142003561E+04  0.11142003561E+04  0.00000000000E+00 0.  1.
          1   -1    0    0  501    0  0.00000000000E+00 -0.00000000000E+00 -0.79834301490E+03  0.79834301490E+03  0.00000000000E+00 0. -1.
        -24    2    1    2    0    0  0.69546955854E+03  0.10405228875E+03  0.30954944626E+03  0.77239505484E+03  0.79173704035E+02 0.  0.
        254    2    1    2    0    0 -0.69546955854E+03 -0.10405228875E+03  0.63078949624E+01  0.11401483162E+04  0.89743724444E+03 0.  0.
         23    2    4    4    0    0 -0.15368466793E+03  0.20251224736E+03  0.33646770501E+03  0.42979739396E+03  0.82976477734E+02 0.  0.
         23    2    4    4    0    0 -0.54178489061E+03 -0.30656453612E+03 -0.33015981005E+03  0.71035092222E+03  0.89890210979E+02 0.  0.
          3    1    3    3  502    0  0.58464951370E+03  0.10403002875E+03  0.23400494031E+03  0.63827549917E+03  0.00000000000E+00 0. -1.
         -4    1    3    3    0  502  0.11082004484E+03  0.22260001114E-01  0.75544505947E+02  0.13411955567E+03  0.00000000000E+00 0.  1.
         11    1    5    5    0    0 -0.12107003760E+03  0.18047831118E+03  0.32069220239E+03  0.38739368024E+03  0.00000000000E+00 0.  1.
        -11    1    5    5    0    0 -0.32614630330E+02  0.22033936181E+02  0.15775502615E+02  0.42403713729E+02  0.00000000000E+00 0. -1.
          4    1    6    6  503    0 -0.52679818561E+03 -0.30962738345E+03 -0.31042626483E+03  0.68538303950E+03  0.00000000000E+00 0.  1.
         -4    1    6    6    0  503 -0.14986705006E+02  0.30628473347E+01 -0.19733545211E+02  0.24967882716E+02  0.00000000000E+00 0. -1.
<mgrwt>
<rscale>  0 0.18862811E+04</rscale>
<asrwt>0</asrwt>
<pdfrwt beam="1">  1        1 0.12282200E+00 0.18862811E+04</pdfrwt>
<pdfrwt beam="2">  1       -2 0.17141544E+00 0.18862811E+04</pdfrwt>
<totfact> 0.37894136E+00</totfact>
</mgrwt>
</event>
<event>
12    4  0.4381187E-008  0.1319263E+04  0.7818608E-02  0.9014427E-01
          1   -1    0    0  501    0  0.00000000000E+00  0.00000000000E+00  0.12997110654E+04  0.12997110654E+04  0.00000000000E+00 0. -1.
         -2   -1    0    0    0  501 -0.00000000000E+00 -0.00000000000E+00 -0.33477744502E+03  0.33477744502E+03  0.00000000000E+00 0.  1.
        -24    2    1    2    0    0  0.19291978397E+03  0.10825287898E+03  0.57652498664E+03  0.62253374027E+03  0.78933318077E+02 0.  0.
        254    2    1    2    0    0 -0.19291978397E+03 -0.10825287898E+03  0.38840863377E+03  0.10119547702E+04  0.90788460789E+03 0.  0.
         23    2    4    4    0    0 -0.28080841317E+03  0.32061128624E+03  0.35867123537E+03  0.56375909335E+03  0.86800336843E+02 0.  0.
         23    2    4    4    0    0  0.87888629198E+02 -0.42886416522E+03  0.29737398402E+02  0.44819567683E+03  0.91357367053E+02 0.  0.
          1    1    3    3  502    0  0.75810614987E+02  0.17836697266E+02  0.28722851263E+03  0.29759975736E+03  0.00000000000E+00 0. -1.
         -2    1    3    3    0  502  0.11710916898E+03  0.90416181713E+02  0.28929647401E+03  0.32493398291E+03  0.00000000000E+00 0.  1.
         11    1    5    5    0    0 -0.19970658224E+03  0.20233495384E+03  0.28492411031E+03  0.40249708219E+03  0.00000000000E+00 0. -1.
        -11    1    5    5    0    0 -0.81101830928E+02  0.11827633241E+03  0.73747125053E+02  0.16126201115E+03  0.00000000000E+00 0.  1.
          4    1    6    6  503    0  0.46666093173E+02 -0.30199206255E+03  0.59985359577E+02  0.31140837089E+03  0.00000000000E+00 0. -1.
         -4    1    6    6    0  503  0.41222536025E+02 -0.12687210267E+03 -0.30247961175E+02  0.13678730594E+03  0.00000000000E+00 0.  1.
<mgrwt>
<rscale>  0 0.13192634E+04</rscale>
<asrwt>0</asrwt>
<pdfrwt beam="1">  1        1 0.19995555E+00 0.13192634E+04</pdfrwt>
<pdfrwt beam="2">  1       -2 0.51504223E-01 0.13192634E+04</pdfrwt>
<totfact> 0.27734679E+01</totfact>
</mgrwt>
</event>
<event>
12    4  0.4381187E-008  0.2035588E+04  0.7818608E-02  0.8590161E-01
          1   -1    0    0  501    0  0.00000000000E+00  0.00000000000E+00  0.10196492934E+04  0.10196492934E+04  0.00000000000E+00 0. -1.
         -2   -1    0    0    0  501 -0.00000000000E+00 -0.00000000000E+00 -0.10159419207E+04  0.10159419207E+04  0.00000000000E+00 0.  1.
        -24    2    1    2    0    0  0.79546128568E+03  0.62904739227E+02 -0.16725784226E+03  0.81931162339E+03  0.81121434838E+02 0.  0.
        254    2    1    2    0    0 -0.79546128568E+03 -0.62904739227E+02  0.17096521487E+03  0.12162795907E+04  0.90188207371E+03 0.  0.
         23    2    4    4    0    0 -0.87102959776E+03  0.21599943694E+03  0.11882208779E+03  0.90983608309E+03  0.91294537729E+02 0.  0.
         23    2    4    4    0    0  0.75568312081E+02 -0.27890417617E+03  0.52143127083E+02  0.30644350763E+03  0.87696113885E+02 0.  0.
          1    1    3    3  502    0  0.38291867744E+03  0.42120022514E+02 -0.12035433970E+03  0.40359134891E+03  0.00000000000E+00 0. -1.
         -2    1    3    3    0  502  0.41254260824E+03  0.20784716713E+02 -0.46903502561E+02  0.41572027448E+03  0.00000000000E+00 0.  1.
         11    1    5    5    0    0 -0.85229660589E+03  0.22175438394E+03  0.12450862255E+03  0.88943066525E+03  0.00000000000E+00 0. -1.
        -11    1    5    5    0    0 -0.18732991872E+02 -0.57549470054E+01 -0.56865347631E+01  0.20405417838E+02  0.00000000000E+00 0.  1.
          1    1    6    6  503    0  0.75393406027E+02 -0.16533207325E+03  0.57436066454E+00  0.18171183232E+03  0.00000000000E+00 0. -1.
         -1    1    6    6    0  503  0.17490605382E+00 -0.11357210292E+03  0.51568766419E+02  0.12473167530E+03  0.00000000000E+00 0.  1.
<mgrwt>
<rscale>  0 0.20355878E+04</rscale>
<asrwt>0</asrwt>
<pdfrwt beam="1">  1        1 0.15686912E+00 0.20355878E+04</pdfrwt>
<pdfrwt beam="2">  1       -2 0.15629876E+00 0.20355878E+04</pdfrwt>
<totfact> 0.31785243E+00</totfact>
</mgrwt>
</event>
<event>
12    4  0.4381187E-008  0.1607247E+04  0.7818608E-02  0.8816108E-01
         -2   -1    0    0    0  501 -0.00000000000E+00  0.00000000000E+00  0.38662987279E+03  0.38662987279E+03  0.00000000000E+00 0.  1.
          1   -1    0    0  501    0  0.00000000000E+00 -0.00000000000E+00 -0.16703598660E+04  0.16703598660E+04  0.00000000000E+00 0. -1.
        -24    2    1    2    0    0  0.10812295013E+03 -0.49394245532E+03 -0.17491941474E+03  0.54083678326E+03  0.78980396049E+02 0.  0.
        254    2    1    2    0    0 -0.10812295013E+03  0.49394245532E+03 -0.11088105785E+04  0.15161529556E+04  0.90199177609E+03 0.  0.
         23    2    4    4    0    0 -0.36720503088E+03  0.10865852374E+03 -0.10646246790E+03  0.40808069183E+03  0.92462881658E+02 0.  0.
         23    2    4    4    0    0  0.25908208075E+03  0.38528393157E+03 -0.10023481106E+04  0.11080722637E+04  0.86920505779E+02 0.  0.
          3    1    3    3  502    0 -0.45425385018E+01 -0.77960609256E+02 -0.73550178392E+01  0.78438431518E+02  0.00000000000E+00 0. -1.
         -4    1    3    3    0  502  0.11266548864E+03 -0.41598184606E+03 -0.16756439690E+03  0.46239835174E+03  0.00000000000E+00 0.  1.
         11    1    5    5    0    0 -0.12507371294E+03  0.74006294514E+02 -0.11811637732E+02  0.14580768184E+03  0.00000000000E+00 0. -1.
        -11    1    5    5    0    0 -0.24213131794E+03  0.34652229228E+02 -0.94650830173E+02  0.26227300999E+03  0.00000000000E+00 0.  1.
          2    1    6    6  503    0  0.80598407176E+02  0.13665722839E+03 -0.44163008117E+03  0.46926371040E+03  0.00000000000E+00 0. -1.
         -2    1    6    6    0  503  0.17848367357E+03  0.24862670319E+03 -0.56071802944E+03  0.63880855333E+03  0.00000000000E+00 0.  1.
<mgrwt>
<rscale>  0 0.16072474E+04</rscale>
<asrwt>0</asrwt>
<pdfrwt beam="1">  1        1 0.25697844E+00 0.16072474E+04</pdfrwt>
<pdfrwt beam="2">  1       -2 0.59481520E-01 0.16072474E+04</pdfrwt>
<totfact> 0.11087124E+01</totfact>
</mgrwt>
</event>
<event>
12    4  0.4381187E-008  0.1174960E+04  0.7818608E-02  0.9135061E-01
         -4   -1    0    0    0  501 -0.00000000000E+00  0.00000000000E+00  0.45518571917E+03  0.45518571917E+03  0.00000000000E+00 0.  1.
          1   -1    0    0  501    0  0.00000000000E+00 -0.00000000000E+00 -0.75822410798E+03  0.75822410798E+03  0.00000000000E+00 0. -1.
        -24    2    1    2    0    0  0.15737208360E+03  0.12456803120E+03 -0.17981072718E+03  0.28072356970E+03  0.78680733883E+02 0.  0.
        254    2    1    2    0    0 -0.15737208360E+03 -0.12456803120E+03 -0.12322766163E+03  0.93268625745E+03  0.90246076433E+03 0.  0.
         23    2    4    4    0    0  0.34091337958E+03 -0.17105650634E+03 -0.16130208591E+03  0.42333526985E+03  0.87818716949E+02 0.  0.
         23    2    4    4    0    0 -0.49828546317E+03  0.46488475133E+02  0.38074424275E+02  0.50935098760E+03  0.86828484133E+02 0.  0.
          3    1    3    3  502    0  0.66926975649E+02  0.10203330136E+03 -0.94058392198E+02  0.15406815310E+03  0.00000000000E+00 0. -1.
         -4    1    3    3    0  502  0.90445107948E+02  0.22534729844E+02 -0.85752334981E+02  0.12665541661E+03  0.00000000000E+00 0.  1.
         11    1    5    5    0    0  0.96394380077E+02 -0.70489245006E+02 -0.89890134916E+02  0.14946854695E+03  0.00000000000E+00 0.  1.
        -11    1    5    5    0    0  0.24451899950E+03 -0.10056726133E+03 -0.71411950991E+02  0.27386672290E+03  0.00000000000E+00 0. -1.
          2    1    6    6  503    0 -0.62454107251E+02 -0.18353005778E+02 -0.10929238667E+02  0.66006034508E+02  0.00000000000E+00 0. -1.
         -2    1    6    6    0  503 -0.43583135592E+03  0.64841480912E+02  0.49003662942E+02  0.44334495309E+03  0.00000000000E+00 0.  1.
<mgrwt>
<rscale>  0 0.11749601E+04</rscale>
<asrwt>0</asrwt>
<pdfrwt beam="1">  1        1 0.11664986E+00 0.11749601E+04</pdfrwt>
<pdfrwt beam="2">  1       -4 0.70028573E-01 0.11749601E+04</pdfrwt>
<totfact> 0.21638535E+01</totfact>
</mgrwt>
</event>
<event>
12    4  0.4381187E-008  0.1835266E+04  0.7818608E-02  0.8687767E-01
         -2   -1    0    0    0  501 -0.00000000000E+00  0.00000000000E+00  0.21628566095E+04  0.21628566095E+04  0.00000000000E+00 0.  1.
          1   -1    0    0  501    0  0.00000000000E+00 -0.00000000000E+00 -0.38932330219E+03  0.38932330219E+03  0.00000000000E+00 0. -1.
        -24    2    1    2    0    0 -0.11686650754E+03  0.68486725927E+03  0.59939015602E+03  0.92101578912E+03  0.79376200963E+02 0.  0.
        254    2    1    2    0    0  0.11686650754E+03 -0.68486725927E+03  0.11741431513E+04  0.16311641226E+04  0.89408238527E+03 0.  0.
         23    2    4    4    0    0  0.42471301787E+03 -0.23652821728E+03  0.87156512033E+03  0.10021690824E+04  0.91598938464E+02 0.  0.
         23    2    4    4    0    0 -0.30784651034E+03 -0.44833904199E+03  0.30257803097E+03  0.62899504023E+03  0.91125876176E+02 0.  0.
          3    1    3    3  502    0 -0.29799219388E+02  0.15155242321E+03  0.17864262644E+03  0.23615528459E+03  0.00000000000E+00 0. -1.
         -4    1    3    3    0  502 -0.87067288148E+02  0.53331483606E+03  0.42074752957E+03  0.68486050453E+03  0.00000000000E+00 0.  1.
         11    1    5    5    0    0  0.30479207557E+00 -0.70204517292E+01  0.41268937266E+02  0.41862928992E+02  0.00000000000E+00 0.  1.
        -11    1    5    5    0    0  0.42440822580E+03 -0.22950776555E+03  0.83029618306E+03  0.96030615336E+03  0.00000000000E+00 0. -1.
          3    1    6    6  503    0 -0.24513152386E+03 -0.34207807551E+03  0.18915486273E+03  0.46139618099E+03  0.00000000000E+00 0. -1.
         -3    1    6    6    0  503 -0.62714986477E+02 -0.10626096647E+03  0.11342316824E+03  0.16759885924E+03  0.00000000000E+00 0.  1.
<mgrwt>
<rscale>  0 0.18352662E+04</rscale>
<asrwt>0</asrwt>
<pdfrwt beam="1">  1        1 0.59895894E-01 0.18352662E+04</pdfrwt>
<pdfrwt beam="2">  1       -2 0.33274716E+00 0.18352662E+04</pdfrwt>
<totfact> 0.10242633E+00</totfact>
</mgrwt>
</event>
<event>
12    4  0.4381187E-008  0.1629051E+04  0.7818608E-02  0.8802897E-01
          1   -1    0    0  501    0  0.00000000000E+00  0.00000000000E+00  0.25534225754E+04  0.25534225754E+04  0.00000000000E+00 0. -1.
         -2   -1    0    0    0  501 -0.00000000000E+00 -0.00000000000E+00 -0.25982836754E+03  0.25982836754E+03  0.00000000000E+00 0.  1.
        -24    2    1    2    0    0  0.28449674724E+03  0.35748530390E+03  0.23149198493E+03  0.51805925851E+03  0.77863435236E+02 0.  0.
        254    2    1    2    0    0 -0.28449674724E+03 -0.35748530390E+03  0.20621022230E+04  0.22951916845E+04  0.89827899274E+03 0.  0.
         23    2    4    4    0    0 -0.52709706934E+02  0.14082470307E+03  0.21274514906E+02  0.17953391322E+03  0.95759651270E+02 0.  0.
         23    2    4    4    0    0 -0.23178704030E+03 -0.49831000697E+03  0.20408277081E+04  0.21156577712E+04  0.94826029906E+02 0.  0.
          1    1    3    3  502    0  0.10700168107E+02  0.46394714396E+02  0.11987276211E+02  0.49098451221E+02  0.00000000000E+00 0. -1.
         -2    1    3    3    0  502  0.27379657913E+03  0.31109058950E+03  0.21950470872E+03  0.46896080729E+03  0.00000000000E+00 0.  1.
         11    1    5    5    0    0  0.20298430147E+02  0.68060640192E+01 -0.10188760592E+02  0.23709905446E+02  0.00000000000E+00 0. -1.
        -11    1    5    5    0    0 -0.73008137082E+02  0.13401863905E+03  0.31463275497E+02  0.15582400778E+03  0.00000000000E+00 0.  1.
          1    1    6    6  503    0 -0.35259963476E+02 -0.22647851718E+02  0.19290446563E+03  0.19740395911E+03  0.00000000000E+00 0. -1.
         -1    1    6    6    0  503 -0.19652707683E+03 -0.47566215525E+03  0.18479232424E+04  0.19182538121E+04  0.00000000000E+00 0.  1.
<mgrwt>
<rscale>  0 0.16290508E+04</rscale>
<asrwt>0</asrwt>
<pdfrwt beam="1">  1        1 0.39283423E+00 0.16290508E+04</pdfrwt>
<pdfrwt beam="2">  1       -2 0.39973597E-01 0.16290508E+04</pdfrwt>
<totfact> 0.62037821E+00</totfact>
</mgrwt>
</event>
<event>
12    4  0.4381187E-008  0.1512118E+04  0.7818608E-02  0.8876434E-01
          1   -1    0    0  501    0  0.00000000000E+00  0.00000000000E+00  0.11338622202E+04  0.11338622202E+04  0.00000000000E+00 0. -1.
         -2   -1    0    0    0  501 -0.00000000000E+00 -0.00000000000E+00 -0.50413996015E+03  0.50413996015E+03  0.00000000000E+00 0.  1.
        -24    2    1    2    0    0  0.30928516521E+02 -0.21635792815E+03 -0.26360741992E+03  0.35338820751E+03  0.87332852680E+02 0.  0.
        254    2    1    2    0    0 -0.30928516521E+02  0.21635792815E+03  0.89332967998E+03  0.12846139728E+04  0.89689899982E+03 0.  0.
         23    2    4    4    0    0 -0.24862895937E+03 -0.27134705072E+03  0.40817436542E+03  0.55728596939E+03  0.92280863213E+02 0.  0.
         23    2    4    4    0    0  0.21770044285E+03  0.48770497887E+03  0.48515531456E+03  0.72732800346E+03  0.91546251331E+02 0.  0.
          1    1    3    3  502    0  0.20517217606E+02 -0.68582242440E+01 -0.88118011234E+01  0.23358923287E+02  0.00000000000E+00 0. -1.
         -2    1    3    3    0  502  0.10411298915E+02 -0.20949970391E+03 -0.25479561880E+03  0.33002928422E+03  0.00000000000E+00 0.  1.
         11    1    5    5    0    0 -0.14777861911E+03 -0.10518837900E+03  0.23576477095E+03  0.29746956578E+03  0.00000000000E+00 0.  1.
        -11    1    5    5    0    0 -0.10085034026E+03 -0.16615867172E+03  0.17240959447E+03  0.25981640361E+03  0.00000000000E+00 0. -1.
          4    1    6    6  503    0  0.27516627294E+02  0.12166985104E+03  0.15510380326E+03  0.19904247591E+03  0.00000000000E+00 0. -1.
         -4    1    6    6    0  503  0.19018381555E+03  0.36603512783E+03  0.33005151130E+03  0.52828552755E+03  0.00000000000E+00 0.  1.
<mgrwt>
<rscale>  0 0.15121181E+04</rscale>
<asrwt>0</asrwt>
<pdfrwt beam="1">  1        1 0.17444034E+00 0.15121181E+04</pdfrwt>
<pdfrwt beam="2">  1       -2 0.77559994E-01 0.15121181E+04</pdfrwt>
<totfact> 0.15017615E+01</totfact>
</mgrwt>
</event>
<event>
12    4  0.4381187E-008  0.1510665E+04  0.7818608E-02  0.8877392E-01
          1   -1    0    0  501    0  0.00000000000E+00  0.00000000000E+00  0.30737319580E+03  0.30737319580E+03  0.00000000000E+00 0. -1.
         -2   -1    0    0    0  501 -0.00000000000E+00 -0.00000000000E+00 -0.18561383482E+04  0.18561383482E+04  0.00000000000E+00 0.  1.
        -24    2    1    2    0    0 -0.39606284061E+03  0.28196596340E+03 -0.48605832475E+03  0.69223677154E+03  0.81046126225E+02 0.  0.
        254    2    1    2    0    0  0.39606284061E+03 -0.28196596340E+03 -0.10627068277E+04  0.14712747725E+04  0.89383056356E+03 0.  0.
         23    2    4    4    0    0  0.49868973779E+03 -0.49123141398E+03 -0.97894899854E+03  0.12068798905E+04  0.90654132204E+02 0.  0.
         23    2    4    4    0    0 -0.10262689717E+03  0.20926545058E+03 -0.83757829148E+02  0.26439488201E+03  0.92547127784E+02 0.  0.
          1    1    3    3  502    0 -0.28844202527E+03  0.20815719953E+03 -0.30204661904E+03  0.46664802767E+03  0.00000000000E+00 0. -1.
         -2    1    3    3    0  502 -0.10762081535E+03  0.73808763872E+02 -0.18401170571E+03  0.22558874386E+03  0.00000000000E+00 0.  1.
         11    1    5    5    0    0  0.15598088210E+03 -0.12790513922E+03 -0.22151643093E+03  0.29959854705E+03  0.00000000000E+00 0. -1.
        -11    1    5    5    0    0  0.34270885568E+03 -0.36332627476E+03 -0.75743256761E+03  0.90728134345E+03  0.00000000000E+00 0.  1.
          1    1    6    6  503    0  0.13371560695E+02  0.19945273414E+02  0.62513061182E+01  0.24813129492E+02  0.00000000000E+00 0. -1.
         -1    1    6    6    0  503 -0.11599845787E+03  0.18932017716E+03 -0.90009135266E+02  0.23958175252E+03  0.00000000000E+00 0.  1.
<mgrwt>
<rscale>  0 0.15106650E+04</rscale>
<asrwt>0</asrwt>
<pdfrwt beam="1">  1        1 0.47288184E-01 0.15106650E+04</pdfrwt>
<pdfrwt beam="2">  1       -2 0.28555975E+00 0.15106650E+04</pdfrwt>
<totfact> 0.27998970E+00</totfact>
</mgrwt>
</event>
<event>
12    4  0.4381187E-008  0.1094242E+04  0.7818608E-02  0.9210823E-01
         -2   -1    0    0    0  501 -0.00000000000E+00  0.00000000000E+00  0.51872102923E+03  0.51872102923E+03  0.00000000000E+00 0.  1.
          1   -1    0    0  501    0  0.00000000000E+00 -0.00000000000E+00 -0.57707547012E+03  0.57707547012E+03  0.00000000000E+00 0. -1.
        -24    2    1    2    0    0  0.97922844580E+02 -0.12153381539E+03  0.76147460167E+01  0.17542228767E+03  0.79722285975E+02 0.  0.
        254    2    1    2    0    0 -0.97922844580E+02  0.12153381539E+03 -0.65969186897E+02  0.92037421168E+03  0.90464214147E+03 0.  0.
         23    2    4    4    0    0 -0.36866154566E+03 -0.45672604175E+02 -0.32324203882E+03  0.50121036330E+03  0.93429602356E+02 0.  0.
         23    2    4    4    0    0  0.27073870108E+03  0.16720641957E+03  0.25727285192E+03  0.41916384838E+03  0.90838210257E+02 0.  0.
          1    1    3    3  502    0  0.11171642639E+03 -0.10211968941E+03  0.47098794828E+01  0.15143042580E+03  0.00000000000E+00 0. -1.
         -2    1    3    3    0  502 -0.13793581813E+02 -0.19414125980E+02  0.29048665339E+01  0.23991861878E+02  0.00000000000E+00 0.  1.
         11    1    5    5    0    0 -0.36893826249E+02  0.31560320393E+01 -0.24018152897E+01  0.37106383147E+02  0.00000000000E+00 0.  1.
        -11    1    5    5    0    0 -0.33176771941E+03 -0.48828636214E+02 -0.32084022353E+03  0.46410398015E+03  0.00000000000E+00 0. -1.
          4    1    6    6  503    0  0.20755628050E+03  0.78268235720E+02  0.17178833611E+03  0.28056507039E+03  0.00000000000E+00 0. -1.
         -4    1    6    6    0  503  0.63182420579E+02  0.88938183848E+02  0.85484515810E+02  0.13859877799E+03  0.00000000000E+00 0.  1.
<mgrwt>
<rscale>  0 0.10942416E+04</rscale>
<asrwt>0</asrwt>
<pdfrwt beam="1">  1        1 0.88780841E-01 0.10942416E+04</pdfrwt>
<pdfrwt beam="2">  1       -2 0.79803236E-01 0.10942416E+04</pdfrwt>
<totfact> 0.43943642E+01</totfact>
</mgrwt>
</event>
<event>
12    4  0.4381187E-008  0.2052637E+04  0.7818608E-02  0.8582399E-01
          1   -1    0    0  501    0  0.00000000000E+00  0.00000000000E+00  0.26777836306E+04  0.26777836306E+04  0.00000000000E+00 0. -1.
         -2   -1    0    0    0  501 -0.00000000000E+00 -0.00000000000E+00 -0.39335865461E+03  0.39335865461E+03  0.00000000000E+00 0.  1.
        -24    2    1    2    0    0  0.12214010007E+03 -0.77289868005E+03  0.54642895249E+03  0.95835129460E+03  0.86959933773E+02 0.  0.
        254    2    1    2    0    0 -0.12214010007E+03  0.77289868005E+03  0.17379960235E+04  0.21127909906E+04  0.91157282685E+03 0.  0.
         23    2    4    4    0    0 -0.18860989843E+03  0.29889451709E+02 -0.46466299794E+01  0.21503738118E+03  0.98754296219E+02 0.  0.
         23    2    4    4    0    0  0.66469798363E+02  0.74300922834E+03  0.17426426535E+04  0.18977536095E+04  0.90467656657E+02 0.  0.
          3    1    3    3  502    0 -0.75716612956E+01 -0.70406791716E+02  0.30210111663E+02  0.76987643302E+02  0.00000000000E+00 0. -1.
         -4    1    3    3    0  502  0.12971176137E+03 -0.70249188833E+03  0.51621884083E+03  0.88136365130E+03  0.00000000000E+00 0.  1.
         11    1    5    5    0    0 -0.12843058590E+03  0.58261846393E+02 -0.29381505931E+02  0.14405599963E+03  0.00000000000E+00 0.  1.
        -11    1    5    5    0    0 -0.60179312537E+02 -0.28372394684E+02  0.24734875952E+02  0.70981381544E+02  0.00000000000E+00 0. -1.
          2    1    6    6  503    0  0.18024164483E+02  0.18865667042E+03  0.34927525000E+03  0.39737817009E+03  0.00000000000E+00 0. -1.
         -2    1    6    6    0  503  0.48445633879E+02  0.55435255792E+03  0.13933674035E+04  0.15003754394E+04  0.00000000000E+00 0.  1.
<mgrwt>
<rscale>  0 0.20526367E+04</rscale>
<asrwt>0</asrwt>
<pdfrwt beam="1">  1        1 0.41196670E+00 0.20526367E+04</pdfrwt>
<pdfrwt beam="2">  1       -2 0.60516718E-01 0.20526367E+04</pdfrwt>
<totfact> 0.21009585E+00</totfact>
</mgrwt>
</event>
<event>
12    4  0.4381187E-008  0.1338249E+04  0.7818608E-02  0.8999771E-01
          1   -1    0    0  501    0  0.00000000000E+00  0.00000000000E+00  0.88722337192E+03  0.88722337192E+03  0.00000000000E+00 0. -1.
         -2   -1    0    0    0  501 -0.00000000000E+00 -0.00000000000E+00 -0.50463941878E+03  0.50463941878E+03  0.00000000000E+00 0.  1.
        -24    2    1    2    0    0 -0.16277347463E+03 -0.30302018952E+03  0.18406252160E+03  0.39818279774E+03  0.79712541379E+02 0.  0.
        254    2    1    2    0    0  0.16277347463E+03  0.30302018952E+03  0.19852143153E+03  0.99367999296E+03  0.91086372764E+03 0.  0.
         23    2    4    4    0    0  0.33393767422E+03 -0.20945637298E+03 -0.12093009119E+02  0.40487513987E+03  0.91604015036E+02 0.  0.
         23    2    4    4    0    0 -0.17116419959E+03  0.51247656250E+03  0.21061444065E+03  0.58880485309E+03  0.10199657876E+03 0.  0.
          1    1    3    3  502    0 -0.99553869326E+02 -0.25316908668E+03  0.15110280596E+03  0.31118743117E+03  0.00000000000E+00 0. -1.
         -2    1    3    3    0  502 -0.63219605300E+02 -0.49851102847E+02  0.32959715640E+02  0.86995366569E+02  0.00000000000E+00 0.  1.
         11    1    5    5    0    0  0.41475092256E+02 -0.53530850238E+02  0.23170766376E+02  0.71572478085E+02  0.00000000000E+00 0. -1.
        -11    1    5    5    0    0  0.29246258196E+03 -0.15592552274E+03 -0.35263775495E+02  0.33330266178E+03  0.00000000000E+00 0.  1.
          2    1    6    6  503    0 -0.16604015338E+03  0.51643914592E+03  0.20404790577E+03  0.57958111755E+03  0.00000000000E+00 0. -1.
         -2    1    6    6    0  503 -0.51240462140E+01 -0.39625834202E+01  0.65665348830E+01  0.92237355412E+01  0.00000000000E+00 0.  1.
<mgrwt>
<rscale>  0 0.13382494E+04</rscale>
<asrwt>0</asrwt>
<pdfrwt beam="1">  1        1 0.13649590E+00 0.13382494E+04</pdfrwt>
<pdfrwt beam="2">  1       -2 0.77636834E-01 0.13382494E+04</pdfrwt>
<totfact> 0.23669140E+01</totfact>
</mgrwt>
</event>
<event>
12    4  0.4381187E-008  0.1793446E+04  0.7818608E-02  0.8709792E-01
         -4   -1    0    0    0  501 -0.00000000000E+00  0.00000000000E+00  0.45606687835E+03  0.45606687835E+03  0.00000000000E+00 0.  1.
          1   -1    0    0  501    0  0.00000000000E+00 -0.00000000000E+00 -0.17631461262E+04  0.17631461262E+04  0.00000000000E+00 0. -1.
        -24    2    1    2    0    0 -0.76818808963E+02 -0.65236763413E+03 -0.64601590716E+03  0.92477893336E+03  0.79967892325E+02 0.  0.
        254    2    1    2    0    0  0.76818808963E+02  0.65236763413E+03 -0.66106334068E+03  0.12944340712E+04  0.89837083925E+03 0.  0.
         23    2    4    4    0    0 -0.59968647414E+02  0.83802309658E+03 -0.60750029925E+03  0.10407440878E+04  0.90623913534E+02 0.  0.
         23    2    4    4    0    0  0.13678745638E+03 -0.18565546246E+03 -0.53563041427E+02  0.25368998335E+03  0.91163859535E+02 0.  0.
          3    1    3    3  502    0 -0.81916189196E+02 -0.42458117807E+03 -0.39334731502E+03  0.58455243482E+03  0.00000000000E+00 0. -1.
         -4    1    3    3    0  502  0.50973802333E+01 -0.22778645606E+03 -0.25266859214E+03  0.34022649854E+03  0.00000000000E+00 0.  1.
         11    1    5    5    0    0 -0.44590785812E+02  0.25658924375E+03 -0.14839930105E+03  0.29974777854E+03  0.00000000000E+00 0. -1.
        -11    1    5    5    0    0 -0.15377861602E+02  0.58143385284E+03 -0.45910099820E+03  0.74099630930E+03  0.00000000000E+00 0.  1.
          4    1    6    6  503    0  0.10835761362E+03 -0.15036118795E+03 -0.79279681074E+02  0.20158156439E+03  0.00000000000E+00 0. -1.
         -4    1    6    6    0  503  0.28429842753E+02 -0.35294274508E+02  0.25716639647E+02  0.52108418962E+02  0.00000000000E+00 0.  1.
<mgrwt>
<rscale>  0 0.17934465E+04</rscale>
<asrwt>0</asrwt>
<pdfrwt beam="1">  1        1 0.27125325E+00 0.17934465E+04</pdfrwt>
<pdfrwt beam="2">  1       -4 0.70164135E-01 0.17934465E+04</pdfrwt>
<totfact> 0.37339397E+00</totfact>
</mgrwt>
</event>
<event>
12    4  0.4381187E-008  0.1518277E+04  0.7818608E-02  0.8872389E-01
         -2   -1    0    0    0  501 -0.00000000000E+00  0.00000000000E+00  0.32277617238E+03  0.32277617238E+03  0.00000000000E+00 0.  1.
          1   -1    0    0  501    0  0.00000000000E+00 -0.00000000000E+00 -0.17854199055E+04  0.17854199055E+04  0.00000000000E+00 0. -1.
        -24    2    1    2    0    0  0.18179006234E+03 -0.24476422861E+03  0.42761095849E+02  0.31832754391E+03  0.80912048060E+02 0.  0.
        254    2    1    2    0    0 -0.18179006234E+03  0.24476422861E+03 -0.15054048289E+04  0.17898685339E+04  0.91892791634E+03 0.  0.
         23    2    4    4    0    0  0.19295904793E+03  0.38509222760E+03 -0.34511643194E+03  0.55913324376E+03  0.89417083091E+02 0.  0.
         23    2    4    4    0    0 -0.37474911027E+03 -0.14032799899E+03 -0.11602883970E+04  0.12307352902E+04  0.91166591128E+02 0.  0.
          3    1    3    3  502    0  0.74618821636E+01 -0.18540710357E+02  0.25234322521E+02  0.32190195077E+02  0.00000000000E+00 0. -1.
         -4    1    3    3    0  502  0.17432818018E+03 -0.22622351825E+03  0.17526773328E+02  0.28613734883E+03  0.00000000000E+00 0.  1.
         11    1    5    5    0    0  0.13404360025E+03  0.30402198354E+03 -0.30552772966E+03  0.45138037932E+03  0.00000000000E+00 0.  1.
        -11    1    5    5    0    0  0.58915447678E+02  0.81070244058E+02 -0.39588702279E+02  0.10775286444E+03  0.00000000000E+00 0. -1.
          3    1    6    6  503    0 -0.15931048376E+03 -0.12277081184E+02 -0.45611767798E+03  0.48329483043E+03  0.00000000000E+00 0. -1.
         -3    1    6    6    0  503 -0.21543862651E+03 -0.12805091781E+03 -0.70417071903E+03  0.74744045975E+03  0.00000000000E+00 0.  1.
<mgrwt>
<rscale>  0 0.15182767E+04</rscale>
<asrwt>0</asrwt>
<pdfrwt beam="1">  1        1 0.27467999E+00 0.15182767E+04</pdfrwt>
<pdfrwt beam="2">  1       -2 0.49657872E-01 0.15182767E+04</pdfrwt>
<totfact> 0.13564418E+01</totfact>
</mgrwt>
</event>
<event>
12    4  0.4381187E-008  0.2913517E+04  0.7818608E-02  0.8268867E-01
         -2   -1    0    0    0  501 -0.00000000000E+00  0.00000000000E+00  0.22203843369E+04  0.22203843369E+04  0.00000000000E+00 0.  1.
          1   -1    0    0  501    0  0.00000000000E+00 -0.00000000000E+00 -0.95575591403E+03  0.95575591403E+03  0.00000000000E+00 0. -1.
        -24    2    1    2    0    0 -0.85711660144E+03 -0.62199650536E+03  0.14229028661E+04  0.17753862282E+04  0.76257272898E+02 0.  0.
        254    2    1    2    0    0  0.85711660144E+03  0.62199650536E+03 -0.15827444326E+03  0.14007540227E+04  0.90306838705E+03 0.  0.
         23    2    4    4    0    0  0.72938387761E+03  0.83383099810E+03 -0.40147400521E+02  0.11122223534E+04  0.90287182208E+02 0.  0.
         23    2    4    4    0    0  0.12773272383E+03 -0.21183449273E+03 -0.11812704274E+03  0.28853166937E+03  0.90039019063E+02 0.  0.
          1    1    3    3  502    0 -0.25056637282E+03 -0.14029681980E+03  0.37823127380E+03  0.47489535828E+03  0.00000000000E+00 0. -1.
         -2    1    3    3    0  502 -0.60655022861E+03 -0.48169968556E+03  0.10446715923E+04  0.13004908699E+04  0.00000000000E+00 0.  1.
         11    1    5    5    0    0  0.62951819547E+03  0.67419276836E+03 -0.49081596839E+02  0.92370885591E+03  0.00000000000E+00 0.  1.
        -11    1    5    5    0    0  0.99865682146E+02  0.15963822974E+03  0.89341963174E+01  0.18851349747E+03  0.00000000000E+00 0. -1.
          4    1    6    6  503    0  0.13064297492E+03 -0.16700598109E+03 -0.71450730409E+02  0.22374939440E+03  0.00000000000E+00 0. -1.
         -4    1    6    6    0  503 -0.29102510979E+01 -0.44828511641E+02 -0.46676312330E+02  0.64782274968E+02  0.00000000000E+00 0.  1.
<mgrwt>
<rscale>  0 0.29135171E+04</rscale>
<asrwt>0</asrwt>
<pdfrwt beam="1">  1        1 0.14703937E+00 0.29135171E+04</pdfrwt>
<pdfrwt beam="2">  1       -2 0.34159759E+00 0.29135171E+04</pdfrwt>
<totfact> 0.21673150E-01</totfact>
</mgrwt>
</event>
<event>
12    4  0.4381187E-008  0.2164768E+04  0.7818608E-02  0.8533237E-01
         -2   -1    0    0    0  501 -0.00000000000E+00  0.00000000000E+00  0.11224300556E+04  0.11224300556E+04  0.00000000000E+00 0.  1.
          1   -1    0    0  501    0  0.00000000000E+00 -0.00000000000E+00 -0.10437670074E+04  0.10437670074E+04  0.00000000000E+00 0. -1.
        -24    2    1    2    0    0 -0.51254001092E+03  0.49346625248E+03 -0.50930685383E+03  0.87865153480E+03  0.80180066872E+02 0.  0.
        254    2    1    2    0    0  0.51254001092E+03 -0.49346625248E+03  0.58796990209E+03  0.12875455282E+04  0.89769631627E+03 0.  0.
         23    2    4    4    0    0  0.68810277042E+03 -0.30577960547E+03  0.15254655845E+03  0.77374875857E+03  0.91815571180E+02 0.  0.
         23    2    4    4    0    0 -0.17556275950E+03 -0.18768664702E+03  0.43542334364E+03  0.51379676962E+03  0.91351367207E+02 0.  0.
          3    1    3    3  502    0 -0.24967641100E+03  0.24383493112E+03 -0.20078026161E+03  0.40262451155E+03  0.00000000000E+00 0. -1.
         -4    1    3    3    0  502 -0.26286359992E+03  0.24963132137E+03 -0.30852659221E+03  0.47602702326E+03  0.00000000000E+00 0.  1.
         11    1    5    5    0    0  0.18790122364E+03 -0.40069407406E+02  0.42141377963E+02  0.19669347470E+03  0.00000000000E+00 0. -1.
        -11    1    5    5    0    0  0.50020154678E+03 -0.26571019806E+03  0.11040518049E+03  0.57705528386E+03  0.00000000000E+00 0.  1.
          1    1    6    6  503    0 -0.13093517970E+03 -0.15324831446E+03  0.39801089790E+03  0.44614094411E+03  0.00000000000E+00 0.  1.
         -1    1    6    6    0  503 -0.44627579802E+02 -0.34438332559E+02  0.37412445741E+02  0.67655825505E+02  0.00000000000E+00 0. -1.
<mgrwt>
<rscale>  0 0.21647683E+04</rscale>
<asrwt>0</asrwt>
<pdfrwt beam="1">  1        1 0.16057954E+00 0.21647683E+04</pdfrwt>
<pdfrwt beam="2">  1       -2 0.17268155E+00 0.21647683E+04</pdfrwt>
<totfact> 0.22889386E+00</totfact>
</mgrwt>
</event>
<event>
12    4  0.4381187E-008  0.2536624E+04  0.7818608E-02  0.8390053E-01
         -2   -1    0    0    0  501 -0.00000000000E+00  0.00000000000E+00  0.14175386811E+04  0.14175386811E+04  0.00000000000E+00 0.  1.
          1   -1    0    0  501    0  0.00000000000E+00 -0.00000000000E+00 -0.11347946945E+04  0.11347946945E+04  0.00000000000E+00 0. -1.
        -24    2    1    2    0    0  0.43790716125E+03 -0.97614742723E+03 -0.14507205346E+03  0.10809633975E+04  0.53004571215E+02 0.  0.
        254    2    1    2    0    0 -0.43790716125E+03  0.97614742723E+03  0.42781604008E+03  0.14713699780E+04  0.91502817794E+03 0.  0.
         23    2    4    4    0    0 -0.69691583305E+03  0.68535938178E+03  0.42999661315E+03  0.10716886664E+04  0.90610980787E+02 0.  0.
         23    2    4    4    0    0  0.25900867180E+03  0.29078804545E+03 -0.21805730727E+01  0.39968131158E+03  0.89984534689E+02 0.  0.
          1    1    3    3  502    0  0.22936950870E+03 -0.53284427863E+03 -0.53519712272E+02  0.58257854097E+03  0.00000000000E+00 0. -1.
         -2    1    3    3    0  502  0.20853765255E+03 -0.44330314860E+03 -0.91552341191E+02  0.49838485658E+03  0.00000000000E+00 0.  1.
         11    1    5    5    0    0 -0.58421870251E+03  0.61352003586E+03  0.35618592710E+03  0.91901400502E+03  0.00000000000E+00 0.  1.
        -11    1    5    5    0    0 -0.11269713054E+03  0.71839345924E+02  0.73810686055E+02  0.15267466139E+03  0.00000000000E+00 0. -1.
          3    1    6    6  503    0 -0.66809463068E+01  0.12619902062E+02  0.44527269518E+01  0.14957397799E+02  0.00000000000E+00 0. -1.
         -3    1    6    6    0  503  0.26568961811E+03  0.27816814339E+03 -0.66333000246E+01  0.38472391378E+03  0.00000000000E+00 0.  1.
<mgrwt>
<rscale>  0 0.25366240E+04</rscale>
<asrwt>0</asrwt>
<pdfrwt beam="1">  1        1 0.17458380E+00 0.25366240E+04</pdfrwt>
<pdfrwt beam="2">  1       -2 0.21808288E+00 0.25366240E+04</pdfrwt>
<totfact> 0.94285395E-01</totfact>
</mgrwt>
</event>
<event>
12    4  0.4381187E-008  0.2996181E+04  0.7818608E-02  0.8244822E-01
         -4   -1    0    0    0  501 -0.00000000000E+00  0.00000000000E+00  0.31236533567E+04  0.31236533567E+04  0.00000000000E+00 0.  1.
          3   -1    0    0  501    0  0.00000000000E+00 -0.00000000000E+00 -0.71847776026E+03  0.71847776026E+03  0.00000000000E+00 0. -1.
        -24    2    1    2    0    0 -0.61120298883E+03  0.60096129809E+02 -0.46129532554E+03  0.77553948976E+03  0.10717968298E+03 0.  0.
        254    2    1    2    0    0  0.61120298883E+03 -0.60096129809E+02  0.28664709220E+04  0.30665916272E+04  0.90008223132E+03 0.  0.
         23    2    4    4    0    0  0.14306630949E+03 -0.24458225291E+02  0.23706958548E+04  0.23769803371E+04  0.93651019002E+02 0.  0.
         23    2    4    4    0    0  0.46813667934E+03 -0.35637904518E+02  0.49577506726E+03  0.68961129018E+03  0.96689210556E+02 0.  0.
          3    1    3    3  502    0 -0.58436265014E+03  0.61406785838E+02 -0.46376922481E+03  0.74855353457E+03  0.00000000000E+00 0. -1.
         -4    1    3    3    0  502 -0.26840338681E+02 -0.13106560292E+01  0.24738992784E+01  0.26985955187E+02  0.00000000000E+00 0.  1.
         11    1    5    5    0    0  0.15544931921E+03 -0.14981264841E+02  0.20715157706E+04  0.20773941651E+04  0.00000000000E+00 0. -1.
        -11    1    5    5    0    0 -0.12383009726E+02 -0.94769604505E+01  0.29918008413E+03  0.29958617199E+03  0.00000000000E+00 0.  1.
          1    1    6    6  503    0  0.10766685464E+03  0.39229280506E+01  0.62305228690E+02  0.12445674941E+03  0.00000000000E+00 0. -1.
         -1    1    6    6    0  503  0.36046982470E+03 -0.39560832568E+02  0.43346983857E+03  0.56515454076E+03  0.00000000000E+00 0.  1.
<mgrwt>
<rscale>  0 0.29961812E+04</rscale>
<asrwt>0</asrwt>
<pdfrwt beam="1">  1        3 0.11053504E+00 0.29961812E+04</pdfrwt>
<pdfrwt beam="2">  1       -4 0.48056205E+00 0.29961812E+04</pdfrwt>
<totfact> 0.22999628E-03</totfact>
</mgrwt>
</event>
<event>
12    4  0.4381187E-008  0.2588075E+04  0.7818608E-02  0.8372263E-01
          1   -1    0    0  501    0  0.00000000000E+00  0.00000000000E+00  0.14896483404E+04  0.14896483404E+04  0.00000000000E+00 0. -1.
         -2   -1    0    0    0  501 -0.00000000000E+00 -0.00000000000E+00 -0.11241126734E+04  0.11241126734E+04  0.00000000000E+00 0.  1.
        -24    2    1    2    0    0 -0.51566615361E+03  0.83579409798E+03  0.73521589471E+03  0.12293089581E+04  0.78706712129E+02 0.  0.
        254    2    1    2    0    0  0.51566615361E+03 -0.83579409798E+03 -0.36968022766E+03  0.13844520556E+04  0.90309504895E+03 0.  0.
         23    2    4    4    0    0  0.67803555742E+03 -0.58808028580E+03 -0.51862718728E+03  0.10405301567E+04  0.90322798382E+02 0.  0.
         23    2    4    4    0    0 -0.16236940380E+03 -0.24771381219E+03  0.14894695962E+03  0.34392189896E+03  0.91493823631E+02 0.  0.
          1    1    3    3  502    0 -0.38983385028E+03  0.60530365006E+03  0.49794899523E+03  0.87539484888E+03  0.00000000000E+00 0. -1.
         -2    1    3    3    0  502 -0.12583230334E+03  0.23049044792E+03  0.23726689948E+03  0.35391410926E+03  0.00000000000E+00 0.  1.
         11    1    5    5    0    0  0.34905973311E+03 -0.35600866771E+03 -0.26388192933E+03  0.56410862552E+03  0.00000000000E+00 0. -1.
        -11    1    5    5    0    0  0.32897582431E+03 -0.23207161809E+03 -0.25474525795E+03  0.47642153116E+03  0.00000000000E+00 0.  1.
          1    1    6    6  503    0 -0.66485083270E+02 -0.32423551947E+02  0.28716476782E+02  0.79348529016E+02  0.00000000000E+00 0. -1.
         -1    1    6    6    0  503 -0.95884320533E+02 -0.21529026024E+03  0.12023048284E+03  0.26457336994E+03  0.00000000000E+00 0.  1.
<mgrwt>
<rscale>  0 0.25880746E+04</rscale>
<asrwt>0</asrwt>
<pdfrwt beam="1">  1        1 0.22917667E+00 0.25880746E+04</pdfrwt>
<pdfrwt beam="2">  1       -2 0.17294041E+00 0.25880746E+04</pdfrwt>
<totfact> 0.10460658E+00</totfact>
</mgrwt>
</event>
<event>
12    4  0.4381187E-008  0.1596760E+04  0.7818608E-02  0.8822541E-01
          1   -1    0    0  501    0  0.00000000000E+00  0.00000000000E+00  0.33220971310E+03  0.33220971310E+03  0.00000000000E+00 0. -1.
         -4   -1    0    0    0  501 -0.00000000000E+00 -0.00000000000E+00 -0.19187003607E+04  0.19187003607E+04  0.00000000000E+00 0.  1.
        -24    2    1    2    0    0  0.57192364305E+02 -0.48096348587E+03 -0.17320425689E+03  0.52071675513E+03  0.80928259532E+02 0.  0.
        254    2    1    2    0    0 -0.57192364305E+02  0.48096348587E+03 -0.14132863907E+04  0.17301933187E+04  0.87269333475E+03 0.  0.
         23    2    4    4    0    0  0.12742862559E+03  0.43266280874E+03 -0.14442790132E+04  0.15162110918E+04  0.97565599753E+02 0.  0.
         23    2    4    4    0    0 -0.18462098990E+03  0.48300677127E+02  0.30992622489E+02  0.21398222686E+03  0.91705972763E+02 0.  0.
          3    1    3    3  502    0  0.30133924212E+02 -0.31799764752E+03 -0.73520354817E+02  0.32777400719E+03  0.00000000000E+00 0. -1.
         -4    1    3    3    0  502  0.27058440093E+02 -0.16296583835E+03 -0.99683902074E+02  0.19294274794E+03  0.00000000000E+00 0.  1.
         11    1    5    5    0    0  0.44349753111E+02  0.28207121902E+03 -0.80243397271E+03  0.85172258028E+03  0.00000000000E+00 0. -1.
        -11    1    5    5    0    0  0.83078872483E+02  0.15059158973E+03 -0.64184504049E+03  0.66448851153E+03  0.00000000000E+00 0.  1.
          1    1    6    6  503    0 -0.12076000011E+03  0.69133609781E+02 -0.19576386840E+01  0.13916273200E+03  0.00000000000E+00 0. -1.
         -1    1    6    6    0  503 -0.63860989790E+02 -0.20832932654E+02  0.32950261173E+02  0.74819494862E+02  0.00000000000E+00 0.  1.
<mgrwt>
<rscale>  0 0.15967603E+04</rscale>
<asrwt>0</asrwt>
<pdfrwt beam="1">  1        1 0.51109186E-01 0.15967603E+04</pdfrwt>
<pdfrwt beam="2">  1       -4 0.29518467E+00 0.15967603E+04</pdfrwt>
<totfact> 0.11595891E+00</totfact>
</mgrwt>
</event>
<event>
12    4  0.4381187E-008  0.1266193E+04  0.7818608E-02  0.9056812E-01
         -2   -1    0    0    0  501 -0.00000000000E+00  0.00000000000E+00  0.25144602057E+03  0.25144602057E+03  0.00000000000E+00 0.  1.
          1   -1    0    0  501    0  0.00000000000E+00 -0.00000000000E+00 -0.15940253692E+04  0.15940253692E+04  0.00000000000E+00 0. -1.
        -24    2    1    2    0    0 -0.13553102105E+02  0.21495414816E+03 -0.67814970346E+03  0.71610445197E+03  0.80805899727E+02 0.  0.
        254    2    1    2    0    0  0.13553102105E+02 -0.21495414816E+03 -0.66442964512E+03  0.11293669378E+04  0.88747617118E+03 0.  0.
         23    2    4    4    0    0 -0.15041583948E+03 -0.50089635614E+03 -0.55930149371E+03  0.77102772507E+03  0.90241385242E+02 0.  0.
         23    2    4    4    0    0  0.16396894159E+03  0.28594220798E+03 -0.10512815141E+03  0.35833921269E+03  0.93307572176E+02 0.  0.
          1    1    3    3  502    0 -0.40650140957E+02  0.13461931457E+03 -0.35034496673E+03  0.37751342960E+03  0.00000000000E+00 0. -1.
         -2    1    3    3    0  502  0.27097038851E+02  0.80334833589E+02 -0.32780473673E+03  0.33859102237E+03  0.00000000000E+00 0.  1.
         11    1    5    5    0    0 -0.14008081087E+03 -0.38463689683E+03 -0.47498849859E+03  0.62704246249E+03  0.00000000000E+00 0.  1.
        -11    1    5    5    0    0 -0.10335028613E+02 -0.11625945931E+03 -0.84312995120E+02  0.14398526258E+03  0.00000000000E+00 0. -1.
          4    1    6    6  503    0  0.12227527971E+03  0.14570298116E+03 -0.92438755375E+02  0.21148410399E+03  0.00000000000E+00 0. -1.
         -4    1    6    6    0  503  0.41693661882E+02  0.14023922682E+03 -0.12689396036E+02  0.14685510870E+03  0.00000000000E+00 0.  1.
<mgrwt>
<rscale>  0 0.12661932E+04</rscale>
<asrwt>0</asrwt>
<pdfrwt beam="1">  1        1 0.24523467E+00 0.12661932E+04</pdfrwt>
<pdfrwt beam="2">  1       -2 0.38684004E-01 0.12661932E+04</pdfrwt>
<totfact> 0.30744957E+01</totfact>
</mgrwt>
</event>
<event>
12    4  0.4381187E-008  0.1772232E+04  0.7818608E-02  0.8721207E-01
          1   -1    0    0  501    0  0.00000000000E+00  0.00000000000E+00  0.10451121180E+04  0.10451121180E+04  0.00000000000E+00 0. -1.
         -2   -1    0    0    0  501 -0.00000000000E+00 -0.00000000000E+00 -0.75130885470E+03  0.75130885470E+03  0.00000000000E+00 0.  1.
        -24    2    1    2    0    0 -0.43472617070E+03 -0.28437940333E+03 -0.29682247327E+03  0.60345322126E+03  0.78700197506E+02 0.  0.
        254    2    1    2    0    0  0.43472617070E+03  0.28437940333E+03  0.59062573655E+03  0.11929677514E+04  0.89692519572E+03 0.  0.
         23    2    4    4    0    0 -0.16072333278E+03  0.22803044161E+03 -0.64867187270E+02  0.30090665215E+03  0.92234425922E+02 0.  0.
         23    2    4    4    0    0  0.59544950348E+03  0.56348961718E+02  0.65549292382E+03  0.89206109927E+03  0.91469748932E+02 0.  0.
          1    1    3    3  502    0 -0.29473858544E+02 -0.40426054607E+02 -0.12514209450E+02  0.51571112715E+02  0.00000000000E+00 0. -1.
         -2    1    3    3    0  502 -0.40525231216E+03 -0.24395334872E+03 -0.28430826382E+03  0.55188210855E+03  0.00000000000E+00 0.  1.
         11    1    5    5    0    0 -0.11236034299E+02  0.54914011526E+02  0.16024685281E+02  0.58297407035E+02  0.00000000000E+00 0. -1.
        -11    1    5    5    0    0 -0.14948729848E+03  0.17311643008E+03 -0.80891872551E+02  0.24260924512E+03  0.00000000000E+00 0.  1.
          4    1    6    6  503    0  0.31214095862E+03  0.74100462636E+02  0.36359988041E+03  0.48489971092E+03  0.00000000000E+00 0. -1.
         -4    1    6    6    0  503  0.28330854485E+03 -0.17751500918E+02  0.29189304341E+03  0.40716138835E+03  0.00000000000E+00 0.  1.
<mgrwt>
<rscale>  0 0.17722325E+04</rscale>
<asrwt>0</asrwt>
<pdfrwt beam="1">  1        1 0.16078648E+00 0.17722325E+04</pdfrwt>
<pdfrwt beam="2">  1       -2 0.11558598E+00 0.17722325E+04</pdfrwt>
<totfact> 0.67415040E+00</totfact>
</mgrwt>
</event>
<event>
12    4  0.4381187E-008  0.1774864E+04  0.7818608E-02  0.8719782E-01
         -2   -1    0    0    0  501 -0.00000000000E+00  0.00000000000E+00  0.10268315915E+04  0.10268315915E+04  0.00000000000E+00 0.  1.
          1   -1    0    0  501    0  0.00000000000E+00 -0.00000000000E+00 -0.76695652711E+03  0.76695652711E+03  0.00000000000E+00 0. -1.
        -24    2    1    2    0    0  0.58317036606E+02 -0.44590584108E+03  0.57839571110E+03  0.73705363774E+03  0.80458501277E+02 0.  0.
        254    2    1    2    0    0 -0.58317036606E+02  0.44590584108E+03 -0.31852064673E+03  0.10567344808E+04  0.90166482949E+03 0.  0.
         23    2    4    4    0    0  0.35333721123E+03 -0.23643399925E+02 -0.51444062161E+02  0.37110184568E+03  0.98305102264E+02 0.  0.
         23    2    4    4    0    0 -0.41165424784E+03  0.46954924101E+03 -0.26707658457E+03  0.68563263517E+03  0.93949448588E+02 0.  0.
          3    1    3    3  502    0  0.46754956435E+02 -0.23670424565E+03  0.24942458671E+03  0.34702672853E+03  0.00000000000E+00 0. -1.
         -4    1    3    3    0  502  0.11562080171E+02 -0.20920159543E+03  0.32897112439E+03  0.39002690921E+03  0.00000000000E+00 0.  1.
         11    1    5    5    0    0  0.34690553352E+03 -0.37750768739E+02 -0.38816415985E+02  0.35110580154E+03  0.00000000000E+00 0.  1.
        -11    1    5    5    0    0  0.64316777120E+01  0.14107368814E+02 -0.12627646175E+02  0.19996044133E+02  0.00000000000E+00 0. -1.
          4    1    6    6  503    0 -0.68543641174E+02  0.10108279247E+03 -0.16488823695E+02  0.12323896699E+03  0.00000000000E+00 0. -1.
         -4    1    6    6    0  503 -0.34311060667E+03  0.36846644854E+03 -0.25058776087E+03  0.56239366817E+03  0.00000000000E+00 0.  1.
<mgrwt>
<rscale>  0 0.17748636E+04</rscale>
<asrwt>0</asrwt>
<pdfrwt beam="1">  1        1 0.11799331E+00 0.17748636E+04</pdfrwt>
<pdfrwt beam="2">  1       -2 0.15797409E+00 0.17748636E+04</pdfrwt>
<totfact> 0.51053254E+00</totfact>
</mgrwt>
</event>
<event>
12    4  0.4381187E-008  0.1497225E+04  0.7818608E-02  0.8886300E-01
         -2   -1    0    0    0  501 -0.00000000000E+00  0.00000000000E+00  0.30043891485E+03  0.30043891485E+03  0.00000000000E+00 0.  1.
          1   -1    0    0  501    0  0.00000000000E+00 -0.00000000000E+00 -0.18653408402E+04  0.18653408402E+04  0.00000000000E+00 0. -1.
        -24    2    1    2    0    0 -0.83194496633E+02 -0.46040227601E+03 -0.54111323666E+03  0.71993523448E+03  0.81311911456E+02 0.  0.
        254    2    1    2    0    0  0.83194496633E+02  0.46040227601E+03 -0.10237886887E+04  0.14458445205E+04  0.90743127479E+03 0.  0.
         23    2    4    4    0    0  0.30893843826E+03  0.22105370089E+03 -0.10330205059E+04  0.11048100603E+04  0.95740307641E+02 0.  0.
         23    2    4    4    0    0 -0.22574394163E+03  0.23934857512E+03  0.92318172246E+01  0.34103446020E+03  0.89281627444E+02 0.  0.
          3    1    3    3  502    0 -0.20337761200E+01 -0.14103980560E+02 -0.55094587601E+00  0.14260506804E+02  0.00000000000E+00 0. -1.
         -4    1    3    3    0  502 -0.81160720513E+02 -0.44629829545E+03 -0.54056229078E+03  0.70567472768E+03  0.00000000000E+00 0.  1.
         11    1    5    5    0    0  0.29587274835E+03  0.21442836885E+03 -0.90545504923E+03  0.97640619352E+03  0.00000000000E+00 0.  1.
        -11    1    5    5    0    0  0.13065689914E+02  0.66253320434E+01 -0.12756545666E+03  0.12840386680E+03  0.00000000000E+00 0. -1.
          1    1    6    6  503    0 -0.98450896151E+02  0.12393821832E+03  0.46993734216E+02  0.16511108978E+03  0.00000000000E+00 0. -1.
         -1    1    6    6    0  503 -0.12729304548E+03  0.11541035680E+03 -0.37761916991E+02  0.17592337041E+03  0.00000000000E+00 0.  1.
<mgrwt>
<rscale>  0 0.14972254E+04</rscale>
<asrwt>0</asrwt>
<pdfrwt beam="1">  1        1 0.28697551E+00 0.14972254E+04</pdfrwt>
<pdfrwt beam="2">  1       -2 0.46221373E-01 0.14972254E+04</pdfrwt>
<totfact> 0.13868768E+01</totfact>
</mgrwt>
</event>
<event>
12    4  0.4381187E-008  0.2100431E+04  0.7818608E-02  0.8561053E-01
          1   -1    0    0  501    0  0.00000000000E+00  0.00000000000E+00  0.21761291998E+04  0.21761291998E+04  0.00000000000E+00 0. -1.
         -2   -1    0    0    0  501 -0.00000000000E+00 -0.00000000000E+00 -0.50684158366E+03  0.50684158366E+03  0.00000000000E+00 0.  1.
        -24    2    1    2    0    0 -0.70422507748E+03  0.46589048090E+03  0.50186142835E+03  0.98550882233E+03  0.79848892752E+02 0.  0.
        254    2    1    2    0    0  0.70422507748E+03 -0.46589048090E+03  0.11674261877E+04  0.16974619611E+04  0.89750003097E+03 0.  0.
         23    2    4    4    0    0  0.72814492045E+03 -0.55507393348E+03  0.12428562234E+04  0.15463312230E+04  0.90258308986E+02 0.  0.
         23    2    4    4    0    0 -0.23919842974E+02  0.89183452583E+02 -0.75430035646E+02  0.15113073811E+03  0.92870676866E+02 0.  0.
          3    1    3    3  502    0 -0.42233221813E+02  0.38589492980E+02  0.56620083780E+02  0.80489924092E+02  0.00000000000E+00 0. -1.
         -4    1    3    3    0  502 -0.66199185567E+03  0.42730098792E+03  0.44524134457E+03  0.90501889824E+03  0.00000000000E+00 0.  1.
         11    1    5    5    0    0  0.26386508463E+03 -0.23825667261E+03  0.42748947622E+03  0.55600204784E+03  0.00000000000E+00 0. -1.
        -11    1    5    5    0    0  0.46427983582E+03 -0.31681726088E+03  0.81536674717E+03  0.99032917514E+03  0.00000000000E+00 0.  1.
          3    1    6    6  503    0  0.13244950436E+02  0.81548097784E+02 -0.21813810710E+02  0.85448015202E+02  0.00000000000E+00 0. -1.
         -3    1    6    6    0  503 -0.37164793411E+02  0.76353547986E+01 -0.53616224936E+02  0.65682722907E+02  0.00000000000E+00 0.  1.
<mgrwt>
<rscale>  0 0.21004312E+04</rscale>
<asrwt>0</asrwt>
<pdfrwt beam="1">  1        1 0.33478910E+00 0.21004312E+04</pdfrwt>
<pdfrwt beam="2">  1       -2 0.77975630E-01 0.21004312E+04</pdfrwt>
<totfact> 0.26752457E+00</totfact>
</mgrwt>
</event>
<event>
12    4  0.4381187E-008  0.1543599E+04  0.7818608E-02  0.8855967E-01
          1   -1    0    0  501    0  0.00000000000E+00  0.00000000000E+00  0.97342054806E+03  0.97342054806E+03  0.00000000000E+00 0. -1.
         -2   -1    0    0    0  501 -0.00000000000E+00 -0.00000000000E+00 -0.61193951822E+03  0.61193951822E+03  0.00000000000E+00 0.  1.
        -24    2    1    2    0    0  0.36006879989E+03 -0.32634660045E+03 -0.12279080486E+01  0.49225676082E+03  0.78508385145E+02 0.  0.
        254    2    1    2    0    0 -0.36006879989E+03  0.32634660045E+03  0.36270893789E+03  0.10931033055E+04  0.90948634871E+03 0.  0.
         23    2    4    4    0    0  0.71126579207E+02 -0.14257521266E+03  0.40834428829E+03  0.44760402674E+03  0.90651119361E+02 0.  0.
         23    2    4    4    0    0 -0.43119537909E+03  0.46892181311E+03 -0.45635350407E+02  0.64549927871E+03  0.93646205690E+02 0.  0.
          1    1    3    3  502    0  0.23268794248E+03 -0.22219530517E+03 -0.37049250736E+02  0.32386274747E+03  0.00000000000E+00 0. -1.
         -2    1    3    3    0  502  0.12738085740E+03 -0.10415129528E+03  0.35821342687E+02  0.16839401335E+03  0.00000000000E+00 0.  1.
         11    1    5    5    0    0  0.37409872306E+02 -0.14360106056E+03  0.35090377817E+03  0.38099110839E+03  0.00000000000E+00 0.  1.
        -11    1    5    5    0    0  0.33716706901E+02  0.10258478995E+01  0.57440510124E+02  0.66612918353E+02  0.00000000000E+00 0. -1.
          2    1    6    6  503    0 -0.28323455173E+03  0.26671805441E+03  0.85747238483E+01  0.38914503432E+03  0.00000000000E+00 0. -1.
         -2    1    6    6    0  503 -0.14796082736E+03  0.20220375870E+03 -0.54210074255E+02  0.25635424439E+03  0.00000000000E+00 0.  1.
<mgrwt>
<rscale>  0 0.15435990E+04</rscale>
<asrwt>0</asrwt>
<pdfrwt beam="1">  1        1 0.14975701E+00 0.15435990E+04</pdfrwt>
<pdfrwt beam="2">  1       -2 0.94144542E-01 0.15435990E+04</pdfrwt>
<totfact> 0.12771965E+01</totfact>
</mgrwt>
</event>
<event>
12    4  0.4381187E-008  0.1519035E+04  0.7818608E-02  0.8871893E-01
          1   -1    0    0  501    0  0.00000000000E+00  0.00000000000E+00  0.10859857014E+04  0.10859857014E+04  0.00000000000E+00 0. -1.
         -2   -1    0    0    0  501 -0.00000000000E+00 -0.00000000000E+00 -0.53119186381E+03  0.53119186381E+03  0.00000000000E+00 0.  1.
        -24    2    1    2    0    0  0.27887480076E+03  0.39886560315E+03  0.14844478173E+03  0.51511277811E+03  0.80252084568E+02 0.  0.
        254    2    1    2    0    0 -0.27887480076E+03 -0.39886560315E+03  0.40634905587E+03  0.11020647871E+04  0.90142238484E+03 0.  0.
         23    2    4    4    0    0 -0.15080379308E+03 -0.53517964493E+03  0.59719546044E+03  0.82097829925E+03  0.90575457623E+02 0.  0.
         23    2    4    4    0    0 -0.12807100769E+03  0.13631404178E+03 -0.19084640457E+03  0.28108648785E+03  0.87198408925E+02 0.  0.
          3    1    3    3  502    0  0.23047412660E+02  0.85616648587E+02  0.21772006281E+02  0.91298488504E+02  0.00000000000E+00 0. -1.
         -4    1    3    3    0  502  0.25582738810E+03  0.31324895456E+03  0.12667277545E+03  0.42381428961E+03  0.00000000000E+00 0.  1.
         11    1    5    5    0    0 -0.14003666927E+02 -0.85068841655E+02  0.51216512650E+02  0.10027931829E+03  0.00000000000E+00 0.  1.
        -11    1    5    5    0    0 -0.13680012615E+03 -0.45011080327E+03  0.54597894779E+03  0.72069898097E+03  0.00000000000E+00 0. -1.
          2    1    6    6  503    0 -0.82111742737E+02  0.27060797704E+02 -0.64638691066E+02  0.10794806830E+03  0.00000000000E+00 0. -1.
         -2    1    6    6    0  503 -0.45959264951E+02  0.10925324408E+03 -0.12620771350E+03  0.17313841955E+03  0.00000000000E+00 0.  1.
<mgrwt>
<rscale>  0 0.15190349E+04</rscale>
<asrwt>0</asrwt>
<pdfrwt beam="1">  1        1 0.16707472E+00 0.15190349E+04</pdfrwt>
<pdfrwt beam="2">  1       -2 0.81721825E-01 0.15190349E+04</pdfrwt>
<totfact> 0.14496391E+01</totfact>
</mgrwt>
</event>
<event>
12    4  0.4381187E-008  0.1472037E+04  0.7818608E-02  0.8903264E-01
          1   -1    0    0  501    0  0.00000000000E+00  0.00000000000E+00  0.21754260346E+04  0.21754260346E+04  0.00000000000E+00 0. -1.
         -2   -1    0    0    0  501 -0.00000000000E+00 -0.00000000000E+00 -0.24901940198E+03  0.24901940198E+03  0.00000000000E+00 0.  1.
        -24    2    1    2    0    0 -0.48379936414E+02  0.46396386384E+03  0.44980481503E+03  0.65291995399E+03  0.79856180130E+02 0.  0.
        254    2    1    2    0    0  0.48379936414E+02 -0.46396386384E+03  0.14766018176E+04  0.17715254826E+04  0.86043391526E+03 0.  0.
         23    2    4    4    0    0  0.16917259585E+03 -0.13332394306E+02  0.12126663867E+04  0.12278096944E+04  0.90331392201E+02 0.  0.
         23    2    4    4    0    0 -0.12079265944E+03 -0.45063146954E+03  0.26393543090E+03  0.54371578815E+03  0.91133740664E+02 0.  0.
          3    1    3    3  502    0 -0.31060751747E+02  0.21297676518E+03  0.26142383582E+03  0.33862412014E+03  0.00000000000E+00 0. -1.
         -4    1    3    3    0  502 -0.17319184667E+02  0.25098709866E+03  0.18838097921E+03  0.31429583385E+03  0.00000000000E+00 0.  1.
         11    1    5    5    0    0  0.64130702453E+02 -0.38897973987E+02  0.69101563242E+03  0.69507438712E+03  0.00000000000E+00 0. -1.
        -11    1    5    5    0    0  0.10504189340E+03  0.25565579680E+02  0.52165075426E+03  0.53273530731E+03  0.00000000000E+00 0.  1.
          4    1    6    6  503    0 -0.79347694932E+01 -0.19228798880E+03  0.89983165303E+02  0.21244905564E+03  0.00000000000E+00 0. -1.
         -4    1    6    6    0  503 -0.11285788994E+03 -0.25834348073E+03  0.17395226560E+03  0.33126673251E+03  0.00000000000E+00 0.  1.
<mgrwt>
<rscale>  0 0.14720371E+04</rscale>
<asrwt>0</asrwt>
<pdfrwt beam="1">  1        1 0.33468092E+00 0.14720371E+04</pdfrwt>
<pdfrwt beam="2">  1       -2 0.38310679E-01 0.14720371E+04</pdfrwt>
<totfact> 0.12417204E+01</totfact>
</mgrwt>
</event>
<event>
12    4  0.4381187E-008  0.1160642E+04  0.7818608E-02  0.9148022E-01
          1   -1    0    0  501    0  0.00000000000E+00  0.00000000000E+00  0.94254835490E+03  0.94254835490E+03  0.00000000000E+00 0. -1.
         -2   -1    0    0    0  501 -0.00000000000E+00 -0.00000000000E+00 -0.35729974818E+03  0.35729974818E+03  0.00000000000E+00 0.  1.
        -24    2    1    2    0    0  0.19143094052E+03  0.12739050008E+03  0.37331715658E+02  0.24599020777E+03  0.79015067078E+02 0.  0.
        254    2    1    2    0    0 -0.19143094052E+03 -0.12739050008E+03  0.54791689107E+03  0.10538578953E+04  0.87036164867E+03 0.  0.
         23    2    4    4    0    0  0.23607404744E+03 -0.24625892142E+03  0.48023353902E+03  0.59594562245E+03  0.90291309985E+02 0.  0.
         23    2    4    4    0    0 -0.42750498797E+03  0.11886842134E+03  0.67683352050E+02  0.45791227286E+03  0.90622277403E+02 0.  0.
          1    1    3    3  502    0  0.80816428610E+02  0.11363914026E+02  0.99097618486E+00  0.81617496342E+02  0.00000000000E+00 0. -1.
         -2    1    3    3    0  502  0.11061451191E+03  0.11602658606E+03  0.36340739473E+02  0.16437271143E+03  0.00000000000E+00 0.  1.
         11    1    5    5    0    0  0.11334428133E+03 -0.18171465148E+03  0.28655751502E+03  0.35774620905E+03  0.00000000000E+00 0. -1.
        -11    1    5    5    0    0  0.12272976611E+03 -0.64544269943E+02  0.19367602399E+03  0.23819941339E+03  0.00000000000E+00 0.  1.
          3    1    6    6  503    0 -0.96906837849E+02  0.49799796175E+02 -0.15584771740E+02  0.11006289125E+03  0.00000000000E+00 0. -1.
         -3    1    6    6    0  503 -0.33059815012E+03  0.69068625164E+02  0.83268123790E+02  0.34784938161E+03  0.00000000000E+00 0.  1.
<mgrwt>
<rscale>  0 0.11606417E+04</rscale>
<asrwt>0</asrwt>
<pdfrwt beam="1">  1        1 0.14500744E+00 0.11606417E+04</pdfrwt>
<pdfrwt beam="2">  1       -2 0.54969192E-01 0.11606417E+04</pdfrwt>
<totfact> 0.45502515E+01</totfact>
</mgrwt>
</event>
<event>
12    4  0.4381187E-008  0.2727453E+04  0.7818608E-02  0.8326152E-01
          1   -1    0    0  501    0  0.00000000000E+00  0.00000000000E+00  0.14720176827E+04  0.14720176827E+04  0.00000000000E+00 0. -1.
         -2   -1    0    0    0  501 -0.00000000000E+00 -0.00000000000E+00 -0.12634023610E+04  0.12634023610E+04  0.00000000000E+00 0.  1.
        -24    2    1    2    0    0  0.50787701104E+03  0.10181255443E+04  0.50544585605E+03  0.12475746723E+04  0.80301727698E+02 0.  0.
        254    2    1    2    0    0 -0.50787701104E+03 -0.10181255443E+04 -0.29683053436E+03  0.14878453714E+04  0.91162316822E+03 0.  0.
         23    2    4    4    0    0 -0.13831455019E+02  0.58568936813E+01 -0.33573710314E+03  0.34662584747E+03  0.84879110269E+02 0.  0.
         23    2    4    4    0    0 -0.49404555602E+03 -0.10239824379E+04  0.38906568776E+02  0.11412195239E+04  0.90814294303E+02 0.  0.
          1    1    3    3  502    0  0.10011373873E+01  0.28428938176E+02  0.16412747914E+02  0.32841819315E+02  0.00000000000E+00 0. -1.
         -4    1    3    3    0  502  0.50687587366E+03  0.98969660608E+03  0.48903310814E+03  0.12147328530E+04  0.00000000000E+00 0.  1.
         11    1    5    5    0    0  0.76934079124E+01 -0.52386655418E+01  0.68545627869E+00  0.93328448115E+01  0.00000000000E+00 0. -1.
        -11    1    5    5    0    0 -0.21524862932E+02  0.11095559223E+02 -0.33642255942E+03  0.33729300266E+03  0.00000000000E+00 0.  1.
          4    1    6    6  503    0 -0.20920993454E+03 -0.37583933768E+03  0.50923700597E+02  0.43314804368E+03  0.00000000000E+00 0. -1.
         -4    1    6    6    0  503 -0.28483562149E+03 -0.64814310025E+03 -0.12017131821E+02  0.70807148024E+03  0.00000000000E+00 0.  1.
<mgrwt>
<rscale>  0 0.27274535E+04</rscale>
<asrwt>0</asrwt>
<pdfrwt beam="1">  1        1 0.22646426E+00 0.27274535E+04</pdfrwt>
<pdfrwt beam="2">  1       -2 0.19436960E+00 0.27274535E+04</pdfrwt>
<totfact> 0.75838603E-01</totfact>
</mgrwt>
</event>
<event>
12    4  0.4381187E-008  0.2112871E+04  0.7818608E-02  0.8555595E-01
         -2   -1    0    0    0  501 -0.00000000000E+00  0.00000000000E+00  0.60872427777E+03  0.60872427777E+03  0.00000000000E+00 0.  1.
          1   -1    0    0  501    0  0.00000000000E+00 -0.00000000000E+00 -0.18334343846E+04  0.18334343846E+04  0.00000000000E+00 0. -1.
        -24    2    1    2    0    0  0.60780755571E+03  0.79830249602E+02 -0.12037830915E+04  0.13531872478E+04  0.78861287834E+02 0.  0.
        254    2    1    2    0    0 -0.60780755571E+03 -0.79830249602E+02 -0.20927015358E+02  0.10889714146E+04  0.89978770178E+03 0.  0.
         23    2    4    4    0    0 -0.71868800528E+03  0.20081133769E+03 -0.11324210389E+03  0.76062713257E+03  0.94298560019E+02 0.  0.
         23    2    4    4    0    0  0.11088044957E+03 -0.28064158729E+03  0.92315088533E+02  0.32834428202E+03  0.90739833318E+02 0.  0.
          3    1    3    3  502    0  0.41701473212E+03  0.44060033413E+02 -0.89651762536E+03  0.98974058517E+03  0.00000000000E+00 0. -1.
         -4    1    3    3    0  502  0.19079282360E+03  0.35770216188E+02 -0.30726546611E+03  0.36344666261E+03  0.00000000000E+00 0.  1.
         11    1    5    5    0    0 -0.19133494551E+03  0.80863005429E+02 -0.65020228220E+02  0.21765917646E+03  0.00000000000E+00 0. -1.
        -11    1    5    5    0    0 -0.52735305977E+03  0.11994833226E+03 -0.48221875671E+02  0.54296795610E+03  0.00000000000E+00 0.  1.
          1    1    6    6  503    0  0.34860678890E+02 -0.99817486387E+02 -0.11601638880E+02  0.10636444681E+03  0.00000000000E+00 0. -1.
         -1    1    6    6    0  503  0.76019770679E+02 -0.18082410090E+03  0.10391672741E+03  0.22197983520E+03  0.00000000000E+00 0.  1.
<mgrwt>
<rscale>  0 0.21128711E+04</rscale>
<asrwt>0</asrwt>
<pdfrwt beam="1">  1        1 0.28206682E+00 0.21128711E+04</pdfrwt>
<pdfrwt beam="2">  1       -2 0.93649891E-01 0.21128711E+04</pdfrwt>
<totfact> 0.30058049E+00</totfact>
</mgrwt>
</event>
<event>
12    4  0.4381187E-008  0.4929314E+04  0.7818608E-02  0.7839505E-01
          1   -1    0    0  501    0  0.00000000000E+00  0.00000000000E+00  0.21976894799E+04  0.21976894799E+04  0.00000000000E+00 0. -1.
         -2   -1    0    0    0  501 -0.00000000000E+00 -0.00000000000E+00 -0.27640546119E+04  0.27640546119E+04  0.00000000000E+00 0.  1.
        -24    2    1    2    0    0 -0.10099663386E+02 -0.15784667710E+04  0.15217678025E+04  0.21940217501E+04  0.79340056628E+02 0.  0.
        254    2    1    2    0    0  0.10099663386E+02  0.15784667710E+04 -0.20881329345E+04  0.27677223416E+04  0.89907088589E+03 0.  0.
         23    2    4    4    0    0  0.34521168242E+03  0.84290410673E+03 -0.15238057590E+04  0.17776878418E+04  0.92366839299E+02 0.  0.
         23    2    4    4    0    0 -0.33511201903E+03  0.73556266429E+03 -0.56432717554E+03  0.99003449985E+03  0.91381898842E+02 0.  0.
          3    1    3    3  502    0 -0.37619317598E+02 -0.10014784624E+04  0.99578015497E+03  0.14127818093E+04  0.00000000000E+00 0. -1.
         -4    1    3    3    0  502  0.27519654212E+02 -0.57698830864E+03  0.52598764753E+03  0.78123994076E+03  0.00000000000E+00 0.  1.
         11    1    5    5    0    0  0.33663621795E+03  0.77207420797E+03 -0.13711956108E+04  0.16092233931E+04  0.00000000000E+00 0.  1.
        -11    1    5    5    0    0  0.85754644655E+01  0.70829898765E+02 -0.15261014819E+03  0.16846444871E+03  0.00000000000E+00 0. -1.
          1    1    6    6  503    0 -0.87529891478E+02  0.29333867000E+03 -0.22973445283E+03  0.38273617028E+03  0.00000000000E+00 0. -1.
         -1    1    6    6    0  503 -0.24758212755E+03  0.44222399429E+03 -0.33459272271E+03  0.60729832957E+03  0.00000000000E+00 0.  1.
<mgrwt>
<rscale>  0 0.49293138E+04</rscale>
<asrwt>0</asrwt>
<pdfrwt beam="1">  1        1 0.33810608E+00 0.49293138E+04</pdfrwt>
<pdfrwt beam="2">  1       -2 0.42523917E+00 0.49293138E+04</pdfrwt>
<totfact> 0.70687002E-03</totfact>
</mgrwt>
</event>
<event>
12    4  0.4381187E-008  0.1688200E+04  0.7818608E-02  0.8768123E-01
          1   -1    0    0  501    0  0.00000000000E+00  0.00000000000E+00  0.10834597181E+04  0.10834597181E+04  0.00000000000E+00 0. -1.
         -2   -1    0    0    0  501 -0.00000000000E+00 -0.00000000000E+00 -0.65762024250E+03  0.65762024250E+03  0.00000000000E+00 0.  1.
        -24    2    1    2    0    0 -0.18322777531E+02 -0.34942110358E+03 -0.35661215543E+03  0.50642341295E+03  0.82834847576E+02 0.  0.
        254    2    1    2    0    0  0.18322777531E+02  0.34942110358E+03  0.78245163106E+03  0.12346565477E+04  0.88865932953E+03 0.  0.
         23    2    4    4    0    0 -0.25629459406E+01  0.45551033784E+03  0.92695344952E+03  0.10369385262E+04  0.92209397672E+02 0.  0.
         23    2    4    4    0    0  0.20885723472E+02 -0.10608923425E+03 -0.14450181846E+03  0.19771802145E+03  0.80749621669E+02 0.  0.
          3    1    3    3  502    0 -0.85711373019E+01 -0.43517879308E+01 -0.28823700381E+02  0.30384340646E+02  0.00000000000E+00 0. -1.
         -4    1    3    3    0  502 -0.97516402290E+01 -0.34506931565E+03 -0.32778845505E+03  0.47603907230E+03  0.00000000000E+00 0.  1.
         11    1    5    5    0    0  0.10387530676E+02  0.39111607939E+01  0.40544426718E+02  0.42036276122E+02  0.00000000000E+00 0. -1.
        -11    1    5    5    0    0 -0.12950476616E+02  0.45159917704E+03  0.88640902280E+03  0.99490225010E+03  0.00000000000E+00 0.  1.
          2    1    6    6  503    0 -0.75922573317E+00 -0.11117453588E+03 -0.13052357562E+03  0.17145482683E+03  0.00000000000E+00 0.  1.
         -2    1    6    6    0  503  0.21644949205E+02  0.50853016277E+01 -0.13978242841E+02  0.26263194620E+02  0.00000000000E+00 0. -1.
<mgrwt>
<rscale>  0 0.16882003E+04</rscale>
<asrwt>0</asrwt>
<pdfrwt beam="1">  1        1 0.16668611E+00 0.16882003E+04</pdfrwt>
<pdfrwt beam="2">  1       -2 0.10117234E+00 0.16882003E+04</pdfrwt>
<totfact> 0.87568068E+00</totfact>
</mgrwt>
</event>
<event>
12    4  0.4381187E-008  0.1393029E+04  0.7818608E-02  0.8958880E-01
          1   -1    0    0  501    0  0.00000000000E+00  0.00000000000E+00  0.78789980881E+03  0.78789980881E+03  0.00000000000E+00 0. -1.
         -2   -1    0    0    0  501 -0.00000000000E+00 -0.00000000000E+00 -0.61572881413E+03  0.61572881413E+03  0.00000000000E+00 0.  1.
        -24    2    1    2    0    0 -0.26518591229E+03  0.19638717771E+03 -0.17133087796E+03  0.38065521455E+03  0.81563662106E+02 0.  0.
        254    2    1    2    0    0  0.26518591229E+03 -0.19638717771E+03  0.34350187264E+03  0.10229734084E+04  0.90531186125E+03 0.  0.
         23    2    4    4    0    0  0.40342446524E+03 -0.45389388633E+03  0.36701311367E+03  0.71568578517E+03  0.93469558053E+02 0.  0.
         23    2    4    4    0    0 -0.13823855296E+03  0.25750670862E+03 -0.23511241036E+02  0.30728762321E+03  0.91941842574E+02 0.  0.
          3    1    3    3  502    0 -0.38143531483E+02  0.68874333389E+02 -0.50930605872E+02  0.93768488355E+02  0.00000000000E+00 0. -1.
         -4    1    3    3    0  502 -0.22704238080E+03  0.12751284432E+03 -0.12040027209E+03  0.28688672620E+03  0.00000000000E+00 0.  1.
         11    1    5    5    0    0  0.35359419255E+03 -0.36373988130E+03  0.27226640852E+03  0.57572958189E+03  0.00000000000E+00 0. -1.
        -11    1    5    5    0    0  0.49830272692E+02 -0.90154005032E+02  0.94746705155E+02  0.13995620328E+03  0.00000000000E+00 0.  1.
          1    1    6    6  503    0 -0.87477205146E+02  0.19531285068E+03  0.21780143538E+02  0.21511333225E+03  0.00000000000E+00 0. -1.
         -1    1    6    6    0  503 -0.50761347811E+02  0.62193857944E+02 -0.45291384574E+02  0.92174290961E+02  0.00000000000E+00 0.  1.
<mgrwt>
<rscale>  0 0.13930292E+04</rscale>
<asrwt>0</asrwt>
<pdfrwt beam="1">  1        1 0.12121535E+00 0.13930292E+04</pdfrwt>
<pdfrwt beam="2">  1       -2 0.94727511E-01 0.13930292E+04</pdfrwt>
<totfact> 0.18169350E+01</totfact>
</mgrwt>
</event>
<event>
12    4  0.4381187E-008  0.1726746E+04  0.7818608E-02  0.8746255E-01
         -2   -1    0    0    0  501 -0.00000000000E+00  0.00000000000E+00  0.52494760332E+03  0.52494760332E+03  0.00000000000E+00 0.  1.
          3   -1    0    0  501    0  0.00000000000E+00 -0.00000000000E+00 -0.14199759521E+04  0.14199759521E+04  0.00000000000E+00 0. -1.
        -24    2    1    2    0    0  0.29686052566E+03  0.51300867722E+03 -0.92566489982E+02  0.60377427679E+03  0.68342868239E+02 0.  0.
        254    2    1    2    0    0 -0.29686052566E+03 -0.51300867722E+03 -0.80246185884E+03  0.13411492787E+04  0.89634383926E+03 0.  0.
         23    2    4    4    0    0 -0.13322201867E+03  0.20082902259E+03 -0.88615564764E+01  0.25746415919E+03  0.90160210237E+02 0.  0.
         23    2    4    4    0    0 -0.16363850699E+03 -0.71383769982E+03 -0.79360030237E+03  0.10836851195E+04  0.90720315334E+02 0.  0.
          3    1    3    3  502    0  0.10141500157E+02  0.21347234058E+02  0.96216294151E+01  0.25517252594E+02  0.00000000000E+00 0. -1.
         -4    1    3    3    0  502  0.28671902551E+03  0.49166144317E+03 -0.10218811940E+03  0.57825702420E+03  0.00000000000E+00 0.  1.
         11    1    5    5    0    0 -0.81087067917E+02  0.49898840098E+02  0.13722547031E+02  0.96194153271E+02  0.00000000000E+00 0.  1.
        -11    1    5    5    0    0 -0.52134950755E+02  0.15093018250E+03 -0.22584103508E+02  0.16127000592E+03  0.00000000000E+00 0. -1.
          3    1    6    6  503    0 -0.48917834230E+02 -0.79937031217E+02 -0.97238540913E+02  0.13504894411E+03  0.00000000000E+00 0. -1.
         -3    1    6    6    0  503 -0.11472067276E+03 -0.63390066860E+03 -0.69636176145E+03  0.94863617537E+03  0.00000000000E+00 0.  1.
<mgrwt>
<rscale>  0 0.17267460E+04</rscale>
<asrwt>0</asrwt>
<pdfrwt beam="1">  1        3 0.21845784E+00 0.17267460E+04</pdfrwt>
<pdfrwt beam="2">  1       -2 0.80761170E-01 0.17267460E+04</pdfrwt>
<totfact> 0.59811567E-01</totfact>
</mgrwt>
</event>
<event>
12    4  0.4381187E-008  0.1285940E+04  0.7818608E-02  0.9040790E-01
         -2   -1    0    0    0  501 -0.00000000000E+00  0.00000000000E+00  0.26799357566E+03  0.26799357566E+03  0.00000000000E+00 0.  1.
          1   -1    0    0  501    0  0.00000000000E+00 -0.00000000000E+00 -0.15426130182E+04  0.15426130182E+04  0.00000000000E+00 0. -1.
        -24    2    1    2    0    0  0.30394035746E+03 -0.17455726705E+02 -0.55885905114E+03  0.64051383921E+03  0.72457545439E+02 0.  0.
        254    2    1    2    0    0 -0.30394035746E+03  0.17455726705E+02 -0.71576039144E+03  0.11700927547E+04  0.87413939011E+03 0.  0.
         23    2    4    4    0    0 -0.68699457604E+02  0.18242077510E+03 -0.82378663416E+03  0.85174163855E+03  0.94034278570E+02 0.  0.
         23    2    4    4    0    0 -0.23524089986E+03 -0.16496504839E+03  0.10802624273E+03  0.31835111614E+03  0.84415732387E+02 0.  0.
          1    1    3    3  502    0  0.11050057208E+03 -0.11818797172E+02 -0.13716029325E+03  0.17653046888E+03  0.00000000000E+00 0. -1.
         -2    1    3    3    0  502  0.19343978538E+03 -0.56369295331E+01 -0.42169875789E+03  0.46398337034E+03  0.00000000000E+00 0.  1.
         11    1    5    5    0    0 -0.48205712611E+02  0.34018550390E+02 -0.14351664546E+03  0.15517113141E+03  0.00000000000E+00 0. -1.
        -11    1    5    5    0    0 -0.20493744993E+02  0.14840222471E+03 -0.68026998871E+03  0.69657050714E+03  0.00000000000E+00 0.  1.
          3    1    6    6  503    0 -0.22512229162E+02 -0.11388687713E+02 -0.14151062837E+02  0.28926722059E+02  0.00000000000E+00 0. -1.
         -3    1    6    6    0  503 -0.21272867069E+03 -0.15357636068E+03  0.12217730556E+03  0.28942439408E+03  0.00000000000E+00 0.  1.
<mgrwt>
<rscale>  0 0.12859399E+04</rscale>
<asrwt>0</asrwt>
<pdfrwt beam="1">  1        1 0.23732508E+00 0.12859399E+04</pdfrwt>
<pdfrwt beam="2">  1       -2 0.41229782E-01 0.12859399E+04</pdfrwt>
<totfact> 0.29394523E+01</totfact>
</mgrwt>
</event>
<event>
12    4  0.4381187E-008  0.1159259E+04  0.7818608E-02  0.9149284E-01
         -2   -1    0    0    0  501 -0.00000000000E+00  0.00000000000E+00  0.33808561486E+03  0.33808561486E+03  0.00000000000E+00 0.  1.
          1   -1    0    0  501    0  0.00000000000E+00 -0.00000000000E+00 -0.99374350309E+03  0.99374350309E+03  0.00000000000E+00 0. -1.
        -24    2    1    2    0    0 -0.90576729931E+02 -0.63749340686E+02  0.10222197564E+03  0.17060417173E+03  0.79927020874E+02 0.  0.
        254    2    1    2    0    0  0.90576729931E+02  0.63749340686E+02 -0.75787986387E+03  0.11612249462E+04  0.87280774814E+03 0.  0.
         23    2    4    4    0    0 -0.35555768766E+03 -0.92205465749E+02 -0.45811728520E+03  0.59447681649E+03  0.92779961063E+02 0.  0.
         23    2    4    4    0    0  0.44613441759E+03  0.15595480643E+03 -0.29976257867E+03  0.56674812973E+03  0.89375716900E+02 0.  0.
          1    1    3    3  502    0 -0.53922161081E+02  0.85554366107E+01  0.31540902840E+02  0.63052545572E+02  0.00000000000E+00 0. -1.
         -2    1    3    3    0  502 -0.36654568851E+02 -0.72304777296E+02  0.70681072799E+02  0.10755162616E+03  0.00000000000E+00 0.  1.
         11    1    5    5    0    0 -0.36899592967E+02  0.18462252221E+02 -0.43226445500E+02  0.59757512571E+02  0.00000000000E+00 0. -1.
        -11    1    5    5    0    0 -0.31865809469E+03 -0.11066771797E+03 -0.41489083970E+03  0.53471930392E+03  0.00000000000E+00 0.  1.
          4    1    6    6  503    0  0.10496956390E+02 -0.11449792249E+00 -0.28453670581E+02  0.30328379000E+02  0.00000000000E+00 0. -1.
         -4    1    6    6    0  503  0.43563746120E+03  0.15606930436E+03 -0.27130890809E+03  0.53641975073E+03  0.00000000000E+00 0.  1.
<mgrwt>
<rscale>  0 0.11592590E+04</rscale>
<asrwt>0</asrwt>
<pdfrwt beam="1">  1        1 0.15288361E+00 0.11592590E+04</pdfrwt>
<pdfrwt beam="2">  1       -2 0.52013172E-01 0.11592590E+04</pdfrwt>
<totfact> 0.46466728E+01</totfact>
</mgrwt>
</event>
<event>
12    4  0.4381187E-008  0.1729381E+04  0.7818608E-02  0.8744783E-01
          1   -1    0    0  501    0  0.00000000000E+00  0.00000000000E+00  0.11882146238E+04  0.11882146238E+04  0.00000000000E+00 0. -1.
         -2   -1    0    0    0  501 -0.00000000000E+00 -0.00000000000E+00 -0.62925448310E+03  0.62925448310E+03  0.00000000000E+00 0.  1.
        -24    2    1    2    0    0 -0.22866645522E+03 -0.27161100103E+03  0.75535280474E+03  0.83863457068E+03  0.81787528939E+02 0.  0.
        254    2    1    2    0    0  0.22866645522E+03  0.27161100103E+03 -0.19639266408E+03  0.97883453618E+03  0.89077836025E+03 0.  0.
         23    2    4    4    0    0 -0.30301535145E+03  0.19746814634E+03 -0.21962280004E+03  0.43380653450E+03  0.95613613287E+02 0.  0.
         23    2    4    4    0    0  0.53168180667E+03  0.74142854690E+02  0.23230135953E+02  0.54502800168E+03  0.91286236373E+02 0.  0.
          3    1    3    3  502    0 -0.21788707651E+03 -0.23101634346E+03  0.70389060200E+03  0.77220807341E+03  0.00000000000E+00 0. -1.
         -4    1    3    3    0  502 -0.10779378714E+02 -0.40594657576E+02  0.51462202734E+02  0.66426497269E+02  0.00000000000E+00 0.  1.
         11    1    5    5    0    0 -0.25602610451E+03  0.17018272234E+03 -0.14096357665E+03  0.33820445757E+03  0.00000000000E+00 0. -1.
        -11    1    5    5    0    0 -0.46989246938E+02  0.27285424000E+02 -0.78659223386E+02  0.95602076935E+02  0.00000000000E+00 0.  1.
          1    1    6    6  503    0  0.51522729620E+03  0.55070546909E+02  0.29727656026E+02  0.51901412834E+03  0.00000000000E+00 0. -1.
         -1    1    6    6    0  503  0.16454510475E+02  0.19072307781E+02 -0.64975200727E+01  0.26013873341E+02  0.00000000000E+00 0.  1.
<mgrwt>
<rscale>  0 0.17293807E+04</rscale>
<asrwt>0</asrwt>
<pdfrwt beam="1">  1        1 0.18280225E+00 0.17293807E+04</pdfrwt>
<pdfrwt beam="2">  1       -2 0.96808382E-01 0.17293807E+04</pdfrwt>
<totfact> 0.80929160E+00</totfact>
</mgrwt>
</event>
<event>
12    4  0.5135412E-008  0.1994158E+04  0.7818608E-02  0.8609357E-01
         -4   -1    0    0    0  501 -0.00000000000E+00  0.00000000000E+00  0.66266408663E+03  0.66266408663E+03  0.00000000000E+00 0.  1.
          3   -1    0    0  501    0  0.00000000000E+00 -0.00000000000E+00 -0.15002567113E+04  0.15002567113E+04  0.00000000000E+00 0. -1.
        -24    2    1    2    0    0  0.59091483228E+03  0.13630548631E+03  0.21257405553E+03  0.64778264112E+03  0.81701263405E+02 0.  0.
        254    2    1    2    0    0 -0.59091483228E+03 -0.13630548631E+03 -0.10501666802E+04  0.15151381568E+04  0.90831385184E+03 0.  0.
         23    2    4    4    0    0 -0.60752711981E+03 -0.44942940716E+03 -0.66890717957E+03  0.10133491527E+04  0.91453251257E+02 0.  0.
         23    2    4    4    0    0  0.16612287526E+02  0.31312392085E+03 -0.38125950063E+03  0.50178900408E+03  0.90060201450E+02 0.  0.
          1    1    3    3  502    0  0.92293219517E+02  0.33008457081E+02  0.65030773265E+02  0.11762906987E+03  0.00000000000E+00 0. -1.
         -2    1    3    3    0  502  0.49862161276E+03  0.10329702923E+03  0.14754328226E+03  0.53015357124E+03  0.00000000000E+00 0.  1.
         11    1    5    5    0    0  0.37337145283E+00 -0.59923664773E+01 -0.16118237687E+02  0.17200158382E+02  0.00000000000E+00 0. -1.
        -11    1    5    5    0    0 -0.60790049126E+03 -0.44343704069E+03 -0.65278894188E+03  0.99614899436E+03  0.00000000000E+00 0.  1.
          4    1    6    6  503    0 -0.25118163243E+02  0.86103524364E+02 -0.67420233652E+02  0.11220618048E+03  0.00000000000E+00 0. -1.
         -4    1    6    6    0  503  0.41730450769E+02  0.22702039649E+03 -0.31383926698E+03  0.38958282360E+03  0.00000000000E+00 0.  1.
<mgrwt>
<rscale>  0 0.19941577E+04</rscale>
<asrwt>0</asrwt>
<pdfrwt beam="1">  1        3 0.23080872E+00 0.19941577E+04</pdfrwt>
<pdfrwt beam="2">  1       -4 0.10194832E+00 0.19941577E+04</pdfrwt>
<totfact> 0.16046442E-01</totfact>
</mgrwt>
</event>
<event>
12    4  0.4381187E-008  0.1921465E+04  0.7818608E-02  0.8644245E-01
         -2   -1    0    0    0  501 -0.00000000000E+00  0.00000000000E+00  0.46753262692E+03  0.46753262692E+03  0.00000000000E+00 0.  1.
          1   -1    0    0  501    0  0.00000000000E+00 -0.00000000000E+00 -0.19742096192E+04  0.19742096192E+04  0.00000000000E+00 0. -1.
        -24    2    1    2    0    0 -0.13708927840E+03  0.67982806811E+03 -0.22388719880E+03  0.73299099047E+03  0.78680632206E+02 0.  0.
        254    2    1    2    0    0  0.13708927840E+03 -0.67982806811E+03 -0.12827897935E+04  0.17087512557E+04  0.89068598676E+03 0.  0.
         23    2    4    4    0    0  0.25833890084E+03 -0.82293126378E+03 -0.12056279068E+04  0.14852824861E+04  0.92577326120E+02 0.  0.
         23    2    4    4    0    0 -0.12124962245E+03  0.14310319567E+03 -0.77161886671E+02  0.22346876953E+03  0.93831437422E+02 0.  0.
          3    1    3    3  502    0 -0.49933632513E+02  0.24889603079E+03 -0.12215650337E+03  0.28171761236E+03  0.00000000000E+00 0. -1.
         -4    1    3    3    0  502 -0.87155645882E+02  0.43093203732E+03 -0.10173069543E+03  0.45127337811E+03  0.00000000000E+00 0.  1.
         11    1    5    5    0    0  0.19043907855E+03 -0.71534599952E+03 -0.10281766284E+04  0.12669388781E+04  0.00000000000E+00 0. -1.
        -11    1    5    5    0    0  0.67899822288E+02 -0.10758526426E+03 -0.17745127837E+03  0.21834360799E+03  0.00000000000E+00 0.  1.
          1    1    6    6  503    0 -0.10974708057E+03  0.15676078080E+03 -0.74792232397E+02  0.20545618053E+03  0.00000000000E+00 0. -1.
         -1    1    6    6    0  503 -0.11502541876E+02 -0.13657585133E+02 -0.23696542740E+01  0.18012589004E+02  0.00000000000E+00 0.  1.
<mgrwt>
<rscale>  0 0.19214655E+04</rscale>
<asrwt>0</asrwt>
<pdfrwt beam="1">  1        1 0.30372455E+00 0.19214655E+04</pdfrwt>
<pdfrwt beam="2">  1       -2 0.71928097E-01 0.19214655E+04</pdfrwt>
<totfact> 0.44563009E+00</totfact>
</mgrwt>
</event>
<event>
12    4  0.4381187E-008  0.1179681E+04  0.7818608E-02  0.9130830E-01
          1   -1    0    0  501    0  0.00000000000E+00  0.00000000000E+00  0.19322515978E+04  0.19322515978E+04  0.00000000000E+00 0. -1.
         -2   -1    0    0    0  501 -0.00000000000E+00 -0.00000000000E+00 -0.18005509731E+03  0.18005509731E+03  0.00000000000E+00 0.  1.
        -24    2    1    2    0    0 -0.17323343144E+02  0.18704899052E+03  0.13270626918E+03  0.24319890234E+03  0.79040047737E+02 0.  0.
        254    2    1    2    0    0  0.17323343144E+02 -0.18704899052E+03  0.16194902313E+04  0.18691077928E+04  0.91407215723E+03 0.  0.
         23    2    4    4    0    0 -0.87789418375E+02 -0.11987635254E+03 -0.59424550052E+02  0.18316494089E+03  0.89111147152E+02 0.  0.
         23    2    4    4    0    0  0.10511276152E+03 -0.67172637978E+02  0.16789147814E+04  0.16859428519E+04  0.89931089092E+02 0.  0.
          3    1    3    3  502    0 -0.20116968218E+02  0.11102521376E+03  0.12232754794E+03  0.16641910794E+03  0.00000000000E+00 0. -1.
         -4    1    3    3    0  502  0.27936250740E+01  0.76023776757E+02  0.10378721239E+02  0.76779794400E+02  0.00000000000E+00 0.  1.
         11    1    5    5    0    0 -0.66812150904E+02 -0.13271178257E+03 -0.52955815338E+02  0.15773585236E+03  0.00000000000E+00 0. -1.
        -11    1    5    5    0    0 -0.20977267471E+02  0.12835430034E+02 -0.64687347139E+01  0.25429088531E+02  0.00000000000E+00 0.  1.
          2    1    6    6  503    0 -0.63809739472E+01  0.13988207748E+02  0.13171434384E+03  0.13260865416E+03  0.00000000000E+00 0. -1.
         -2    1    6    6    0  503  0.11149373547E+03 -0.81160845726E+02  0.15472004375E+04  0.15533341977E+04  0.00000000000E+00 0.  1.
<mgrwt>
<rscale>  0 0.11796809E+04</rscale>
<asrwt>0</asrwt>
<pdfrwt beam="1">  1        1 0.29726946E+00 0.11796809E+04</pdfrwt>
<pdfrwt beam="2">  1       -2 0.27700786E-01 0.11796809E+04</pdfrwt>
<totfact> 0.34327893E+01</totfact>
</mgrwt>
</event>
<event>
12    4  0.4381187E-008  0.1435497E+04  0.7818608E-02  0.8928517E-01
         -2   -1    0    0    0  501 -0.00000000000E+00  0.00000000000E+00  0.54864143435E+03  0.54864143435E+03  0.00000000000E+00 0.  1.
          1   -1    0    0  501    0  0.00000000000E+00 -0.00000000000E+00 -0.93897924025E+03  0.93897924025E+03  0.00000000000E+00 0. -1.
        -24    2    1    2    0    0  0.14340969204E+03 -0.28438392973E+03  0.18175927605E+03  0.37387134592E+03  0.72820255484E+02 0.  0.
        254    2    1    2    0    0 -0.14340969204E+03  0.28438392973E+03 -0.57209708195E+03  0.11137493287E+04  0.90094502425E+03 0.  0.
         23    2    4    4    0    0 -0.76364878166E+02  0.19739257578E+03  0.21426031655E+03  0.31449569343E+03  0.90579436644E+02 0.  0.
         23    2    4    4    0    0 -0.67044813872E+02  0.86991353945E+02 -0.78635739851E+03  0.79925363527E+03  0.91574628434E+02 0.  0.
          3    1    3    3  502    0  0.15162144879E+02 -0.77437240106E+02  0.71965788347E+02  0.10679649566E+03  0.00000000000E+00 0. -1.
         -4    1    3    3    0  502  0.12824754716E+03 -0.20694668962E+03  0.10979348770E+03  0.26707485026E+03  0.00000000000E+00 0.  1.
         11    1    5    5    0    0 -0.31268347581E+02  0.38670361066E+01  0.29114219497E+02  0.42898733147E+02  0.00000000000E+00 0. -1.
        -11    1    5    5    0    0 -0.45096530585E+02  0.19352553968E+03  0.18514609705E+03  0.27159696028E+03  0.00000000000E+00 0.  1.
          4    1    6    6  503    0 -0.59711528598E+02  0.86246313970E+02 -0.78472338313E+03  0.79170365754E+03  0.00000000000E+00 0. -1.
         -4    1    6    6    0  503 -0.73332852747E+01  0.74503997492E+00 -0.16340153732E+01  0.75499777300E+01  0.00000000000E+00 0.  1.
<mgrwt>
<rscale>  0 0.14354970E+04</rscale>
<asrwt>0</asrwt>
<pdfrwt beam="1">  1        1 0.14445834E+00 0.14354970E+04</pdfrwt>
<pdfrwt beam="2">  1       -2 0.84406374E-01 0.14354970E+04</pdfrwt>
<totfact> 0.17651883E+01</totfact>
</mgrwt>
</event>
<event>
12    4  0.4381187E-008  0.1386452E+04  0.7818608E-02  0.8963684E-01
          1   -1    0    0  501    0  0.00000000000E+00  0.00000000000E+00  0.64868829248E+03  0.64868829248E+03  0.00000000000E+00 0. -1.
         -2   -1    0    0    0  501 -0.00000000000E+00 -0.00000000000E+00 -0.74082107687E+03  0.74082107687E+03  0.00000000000E+00 0.  1.
        -24    2    1    2    0    0  0.52347694341E+02  0.11579481833E+03  0.35246404941E+03  0.38338563398E+03  0.81270641411E+02 0.  0.
        254    2    1    2    0    0 -0.52347694341E+02 -0.11579481833E+03 -0.44459683381E+03  0.10061237354E+04  0.89357143262E+03 0.  0.
         23    2    4    4    0    0 -0.12739915481E+03  0.15154009272E+03  0.20141891540E+03  0.29706815534E+03  0.92113870239E+02 0.  0.
         23    2    4    4    0    0  0.75051460465E+02 -0.26733491105E+03 -0.64601574921E+03  0.70905558003E+03  0.91229331674E+02 0.  0.
          1    1    3    3  502    0  0.39798305116E+02  0.12738143414E+03  0.31971594883E+03  0.34645089521E+03  0.00000000000E+00 0. -1.
         -2    1    3    3    0  502  0.12549389224E+02 -0.11586615815E+02  0.32748100583E+02  0.36934738766E+02  0.00000000000E+00 0.  1.
         11    1    5    5    0    0 -0.95495786515E+02  0.15792476235E+03  0.15893683424E+03  0.24355819240E+03  0.00000000000E+00 0.  1.
        -11    1    5    5    0    0 -0.31903368291E+02 -0.63846696295E+01  0.42482081163E+02  0.53509962947E+02  0.00000000000E+00 0. -1.
          1    1    6    6  503    0  0.16792318507E+02 -0.66829941502E+02 -0.79063044778E+02  0.10487701412E+03  0.00000000000E+00 0. -1.
         -1    1    6    6    0  503  0.58259141958E+02 -0.20050496955E+03 -0.56695270443E+03  0.60417856591E+03  0.00000000000E+00 0.  1.
<mgrwt>
<rscale>  0 0.13864515E+04</rscale>
<asrwt>0</asrwt>
<pdfrwt beam="1">  1        1 0.99798199E-01 0.13864515E+04</pdfrwt>
<pdfrwt beam="2">  1       -2 0.11397247E+00 0.13864515E+04</pdfrwt>
<totfact> 0.15729357E+01</totfact>
</mgrwt>
</event>
<event>
12    4  0.4381187E-008  0.2185312E+04  0.7818608E-02  0.8524566E-01
          1   -1    0    0  501    0  0.00000000000E+00  0.00000000000E+00  0.84461734870E+03  0.84461734870E+03  0.00000000000E+00 0. -1.
         -4   -1    0    0    0  501 -0.00000000000E+00 -0.00000000000E+00 -0.14135364766E+04  0.14135364766E+04  0.00000000000E+00 0.  1.
        -24    2    1    2    0    0  0.74522256875E+03  0.48057807166E+03 -0.43334607888E+03  0.99023499637E+03  0.80402512531E+02 0.  0.
        254    2    1    2    0    0 -0.74522256875E+03 -0.48057807166E+03 -0.13557304905E+03  0.12679188290E+04  0.89606146289E+03 0.  0.
         23    2    4    4    0    0 -0.82157144438E+03 -0.41771629901E+03 -0.36925309033E+03  0.99710368279E+03  0.91658959390E+02 0.  0.
         23    2    4    4    0    0  0.76348875630E+02 -0.62861772653E+02  0.23368004128E+03  0.27081514617E+03  0.94624142971E+02 0.  0.
          1    1    3    3  502    0  0.56909450776E+03  0.39328282357E+03 -0.36473704352E+03  0.78203136062E+03  0.00000000000E+00 0. -1.
         -2    1    3    3    0  502  0.17612806099E+03  0.87295248090E+02 -0.68609035368E+02  0.20820363575E+03  0.00000000000E+00 0.  1.
         11    1    5    5    0    0 -0.29557408182E+03 -0.10360929192E+03 -0.11186242003E+03  0.33258401079E+03  0.00000000000E+00 0. -1.
        -11    1    5    5    0    0 -0.52599736256E+03 -0.31410700708E+03 -0.25739067030E+03  0.66451967200E+03  0.00000000000E+00 0.  1.
          4    1    6    6  503    0  0.94525784720E+01 -0.69047098839E+02  0.11954810892E+03  0.13837847898E+03  0.00000000000E+00 0. -1.
         -4    1    6    6    0  503  0.66896297158E+02  0.61853261863E+01  0.11413193235E+03  0.13243666719E+03  0.00000000000E+00 0.  1.
<mgrwt>
<rscale>  0 0.21853123E+04</rscale>
<asrwt>0</asrwt>
<pdfrwt beam="1">  1        1 0.12994113E+00 0.21853123E+04</pdfrwt>
<pdfrwt beam="2">  1       -4 0.21746715E+00 0.21853123E+04</pdfrwt>
<totfact> 0.90058487E-01</totfact>
</mgrwt>
</event>
<event>
12    4  0.4381187E-008  0.1895329E+04  0.7818608E-02  0.8657185E-01
         -2   -1    0    0    0  501 -0.00000000000E+00  0.00000000000E+00  0.46104499572E+03  0.46104499572E+03  0.00000000000E+00 0.  1.
          1   -1    0    0  501    0  0.00000000000E+00 -0.00000000000E+00 -0.19478957782E+04  0.19478957782E+04  0.00000000000E+00 0. -1.
        -24    2    1    2    0    0  0.57823973583E+03  0.41112636527E+03 -0.76138392087E+03  0.10437563741E+04  0.79597821877E+02 0.  0.
        254    2    1    2    0    0 -0.57823973583E+03 -0.41112636527E+03 -0.72546686157E+03  0.13651843998E+04  0.91325801271E+03 0.  0.
         23    2    4    4    0    0  0.63763418184E+02  0.14623862165E+03 -0.41690297560E+03  0.45623267643E+03  0.94279669156E+02 0.  0.
         23    2    4    4    0    0 -0.64200315401E+03 -0.55736498692E+03 -0.30856388597E+03  0.90895172332E+03  0.90320458366E+02 0.  0.
          3    1    3    3  502    0  0.34512179748E+03  0.21619701932E+03 -0.48147339658E+03  0.63060830780E+03  0.00000000000E+00 0. -1.
         -4    1    3    3    0  502  0.23311793835E+03  0.19492934595E+03 -0.27991052429E+03  0.41314806632E+03  0.00000000000E+00 0.  1.
         11    1    5    5    0    0 -0.85459956046E+01 -0.93067588438E+01 -0.17792655367E+02  0.21822657630E+02  0.00000000000E+00 0.  1.
        -11    1    5    5    0    0  0.72309413789E+02  0.15554538049E+03 -0.39911032024E+03  0.43441001880E+03  0.00000000000E+00 0. -1.
          4    1    6    6  503    0 -0.50368329428E+03 -0.46673679848E+03 -0.21828365107E+03  0.72054691194E+03  0.00000000000E+00 0. -1.
         -4    1    6    6    0  503 -0.13831985974E+03 -0.90628188444E+02 -0.90280234894E+02  0.18840481138E+03  0.00000000000E+00 0.  1.
<mgrwt>
<rscale>  0 0.18953286E+04</rscale>
<asrwt>0</asrwt>
<pdfrwt beam="1">  1        1 0.29967627E+00 0.18953286E+04</pdfrwt>
<pdfrwt beam="2">  1       -2 0.70929999E-01 0.18953286E+04</pdfrwt>
<totfact> 0.47985292E+00</totfact>
</mgrwt>
</event>
<event>
12    4  0.4381187E-008  0.4839458E+04  0.7818608E-02  0.7853761E-01
          1   -1    0    0  501    0  0.00000000000E+00  0.00000000000E+00  0.41000551302E+04  0.41000551302E+04  0.00000000000E+00 0. -1.
         -2   -1    0    0    0  501 -0.00000000000E+00 -0.00000000000E+00 -0.14280508979E+04  0.14280508979E+04  0.00000000000E+00 0.  1.
        -24    2    1    2    0    0  0.20660106413E+04  0.54584535182E+03  0.21616999942E+03  0.21491646793E+04  0.76369051373E+02 0.  0.
        254    2    1    2    0    0 -0.20660106413E+04 -0.54584535182E+03  0.24558342329E+04  0.33789413488E+04  0.90541467918E+03 0.  0.
         23    2    4    4    0    0 -0.19062286764E+04 -0.62509301156E+03  0.18150602002E+04  0.27068553549E+04  0.90406539664E+02 0.  0.
         23    2    4    4    0    0 -0.15978196494E+03  0.79247659743E+02  0.64077403269E+03  0.67208599390E+03  0.96424863668E+02 0.  0.
          1    1    3    3  502    0  0.10866658416E+04  0.25734496859E+03  0.87746053912E+02  0.11201644764E+04  0.00000000000E+00 0. -1.
         -2    1    3    3    0  502  0.97934479969E+03  0.28850038323E+03  0.12842394551E+03  0.10290002029E+04  0.00000000000E+00 0.  1.
         11    1    5    5    0    0 -0.77066239041E+03 -0.25329330717E+03  0.79412301937E+03  0.11352133673E+04  0.00000000000E+00 0. -1.
        -11    1    5    5    0    0 -0.11355662860E+04 -0.37179970440E+03  0.10209371808E+04  0.15716419876E+04  0.00000000000E+00 0.  1.
          1    1    6    6  503    0 -0.10174043766E+03  0.60146243651E+02  0.55071404630E+03  0.56325362677E+03  0.00000000000E+00 0. -1.
         -1    1    6    6    0  503 -0.58041527287E+02  0.19101416092E+02  0.90059986390E+02  0.10883236713E+03  0.00000000000E+00 0.  1.
<mgrwt>
<rscale>  0 0.48394576E+04</rscale>
<asrwt>0</asrwt>
<pdfrwt beam="1">  1        1 0.63077770E+00 0.48394576E+04</pdfrwt>
<pdfrwt beam="2">  1       -2 0.21970014E+00 0.48394576E+04</pdfrwt>
<totfact> 0.49774247E-03</totfact>
</mgrwt>
</event>
<event>
12    4  0.4381187E-008  0.1821158E+04  0.7818608E-02  0.8695128E-01
         -2   -1    0    0    0  501 -0.00000000000E+00  0.00000000000E+00  0.11890017911E+04  0.11890017911E+04  0.00000000000E+00 0.  1.
          1   -1    0    0  501    0  0.00000000000E+00 -0.00000000000E+00 -0.69735316895E+03  0.69735316895E+03  0.00000000000E+00 0. -1.
        -24    2    1    2    0    0  0.17258459693E+03  0.66009716966E+03  0.24627484450E+03  0.72974035092E+03  0.79724301411E+02 0.  0.
        254    2    1    2    0    0 -0.17258459693E+03 -0.66009716966E+03  0.24537377761E+03  0.11566146091E+04  0.90113003873E+03 0.  0.
         23    2    4    4    0    0 -0.35177382380E+03  0.58177719991E+02 -0.11329675620E+02  0.36773558473E+03  0.89283976776E+02 0.  0.
         23    2    4    4    0    0  0.17918922688E+03 -0.71827488966E+03  0.25670345323E+03  0.78887902435E+03  0.91683455571E+02 0.  0.
          3    1    3    3  502    0  0.82854735457E+02  0.38721402550E+03  0.10522338365E+03  0.40972133115E+03  0.00000000000E+00 0. -1.
         -4    1    3    3    0  502  0.89729861472E+02  0.27288314416E+03  0.14105146085E+03  0.32001901977E+03  0.00000000000E+00 0.  1.
         11    1    5    5    0    0 -0.73017409615E+02  0.33060003663E+02  0.28417714961E+02  0.85041592604E+02  0.00000000000E+00 0. -1.
        -11    1    5    5    0    0 -0.27875641419E+03  0.25117716328E+02 -0.39747390581E+02  0.28269399212E+03  0.00000000000E+00 0.  1.
          3    1    6    6  503    0  0.28585894403E+02 -0.10438101352E+03  0.73302409976E+02  0.13071263386E+03  0.00000000000E+00 0. -1.
         -3    1    6    6    0  503  0.15060333247E+03 -0.61389387613E+03  0.18340104325E+03  0.65816639049E+03  0.00000000000E+00 0.  1.
<mgrwt>
<rscale>  0 0.18211581E+04</rscale>
<asrwt>0</asrwt>
<pdfrwt beam="1">  1        1 0.10728510E+00 0.18211581E+04</pdfrwt>
<pdfrwt beam="2">  1       -2 0.18292335E+00 0.18211581E+04</pdfrwt>
<totfact> 0.39102791E+00</totfact>
</mgrwt>
</event>
<event>
12    4  0.4381187E-008  0.1507525E+04  0.7818608E-02  0.8879464E-01
         -2   -1    0    0    0  501 -0.00000000000E+00  0.00000000000E+00  0.63943441381E+03  0.63943441381E+03  0.00000000000E+00 0.  1.
          1   -1    0    0  501    0  0.00000000000E+00 -0.00000000000E+00 -0.88853246421E+03  0.88853246421E+03  0.00000000000E+00 0. -1.
        -24    2    1    2    0    0  0.47848621123E+03  0.40037548779E+02 -0.40495368246E+02  0.48833631474E+03  0.79249112289E+02 0.  0.
        254    2    1    2    0    0 -0.47848621123E+03 -0.40037548779E+02 -0.20860268216E+03  0.10396305633E+04  0.89820074006E+03 0.  0.
         23    2    4    4    0    0 -0.16396580861E+03  0.23262096298E+03  0.26738917420E+03  0.40093563081E+03  0.90857640095E+02 0.  0.
         23    2    4    4    0    0 -0.31452040262E+03 -0.27265851176E+03 -0.47599185637E+03  0.63869493246E+03  0.89984563821E+02 0.  0.
          3    1    3    3  502    0  0.23000920112E+02  0.11625777625E+02 -0.17954126566E+02  0.31409420437E+02  0.00000000000E+00 0. -1.
         -4    1    3    3    0  502  0.45548529112E+03  0.28411771154E+02 -0.22541241680E+02  0.45692689431E+03  0.00000000000E+00 0.  1.
         11    1    5    5    0    0  0.11069711687E+02  0.10579883682E+02  0.20427711484E+02  0.25529666117E+02  0.00000000000E+00 0.  1.
        -11    1    5    5    0    0 -0.17503552029E+03  0.22204107930E+03  0.24696146272E+03  0.37540596470E+03  0.00000000000E+00 0. -1.
          3    1    6    6  503    0 -0.44118567536E+02 -0.87615827666E+02 -0.10348344277E+03  0.14258963562E+03  0.00000000000E+00 0. -1.
         -3    1    6    6    0  503 -0.27040183509E+03 -0.18504268410E+03 -0.37250841360E+03  0.49610529685E+03  0.00000000000E+00 0.  1.
<mgrwt>
<rscale>  0 0.15075254E+04</rscale>
<asrwt>0</asrwt>
<pdfrwt beam="1">  1        1 0.13669730E+00 0.15075254E+04</pdfrwt>
<pdfrwt beam="2">  1       -2 0.98374526E-01 0.15075254E+04</pdfrwt>
<totfact> 0.13528724E+01</totfact>
</mgrwt>
</event>
<event>
12    4  0.4381187E-008  0.3165833E+04  0.7818608E-02  0.8197899E-01
         -2   -1    0    0    0  501 -0.00000000000E+00  0.00000000000E+00  0.19742147234E+04  0.19742147234E+04  0.00000000000E+00 0.  1.
          1   -1    0    0  501    0  0.00000000000E+00 -0.00000000000E+00 -0.12691752955E+04  0.12691752955E+04  0.00000000000E+00 0. -1.
        -24    2    1    2    0    0 -0.69576017797E+03 -0.11685666645E+04 -0.17637541474E+03  0.13737068826E+04  0.79574102340E+02 0.  0.
        254    2    1    2    0    0  0.69576017797E+03  0.11685666645E+04  0.88141484264E+03  0.18696831363E+04  0.93230500948E+03 0.  0.
         23    2    4    4    0    0  0.43363272044E+03  0.11407697750E+04  0.98734424044E+03  0.15723850887E+04  0.90295085265E+02 0.  0.
         23    2    4    4    0    0  0.26212745752E+03  0.27796889536E+02 -0.10592939780E+03  0.29729804757E+03  0.87644855609E+02 0.  0.
          1    1    3    3  502    0 -0.27703646884E+03 -0.43871571123E+03 -0.10382428865E+03  0.52915041649E+03  0.00000000000E+00 0. -1.
         -2    1    3    3    0  502 -0.41872370912E+03 -0.72985095325E+03 -0.72551126085E+02  0.84455646611E+03  0.00000000000E+00 0.  1.
         11    1    5    5    0    0  0.34214151582E+03  0.81117322850E+03  0.74322577534E+03  0.11521490253E+04  0.00000000000E+00 0.  1.
        -11    1    5    5    0    0  0.91491204620E+02  0.32959654645E+03  0.24411846510E+03  0.42023606338E+03  0.00000000000E+00 0. -1.
          1    1    6    6  503    0  0.12541714966E+03 -0.25912023101E+02 -0.28268398014E+02  0.13114875789E+03  0.00000000000E+00 0. -1.
         -1    1    6    6    0  503  0.13671030786E+03  0.53708912637E+02 -0.77660999785E+02  0.16614928967E+03  0.00000000000E+00 0.  1.
<mgrwt>
<rscale>  0 0.31658329E+04</rscale>
<asrwt>0</asrwt>
<pdfrwt beam="1">  1        1 0.19525774E+00 0.31658329E+04</pdfrwt>
<pdfrwt beam="2">  1       -2 0.30372534E+00 0.31658329E+04</pdfrwt>
<totfact> 0.21142700E-01</totfact>
</mgrwt>
</event>
<event>
12    4  0.4381187E-008  0.1468852E+04  0.7818608E-02  0.8905434E-01
          1   -1    0    0  501    0  0.00000000000E+00  0.00000000000E+00  0.73982403332E+03  0.73982403332E+03  0.00000000000E+00 0. -1.
         -2   -1    0    0    0  501 -0.00000000000E+00 -0.00000000000E+00 -0.72906768897E+03  0.72906768897E+03  0.00000000000E+00 0.  1.
        -24    2    1    2    0    0  0.25598728064E+03 -0.26527400350E+03  0.26419262415E+03  0.46034503966E+03  0.78867154793E+02 0.  0.
        254    2    1    2    0    0 -0.25598728064E+03  0.26527400350E+03 -0.25343627979E+03  0.10085466826E+04  0.90390081222E+03 0.  0.
         23    2    4    4    0    0 -0.34949262953E+03  0.31286709244E+03 -0.52045610252E+03  0.70721367018E+03  0.96154589084E+02 0.  0.
         23    2    4    4    0    0  0.93505348889E+02 -0.47593088947E+02  0.26701982273E+03  0.30133301245E+03  0.92160980236E+02 0.  0.
          3    1    3    3  502    0  0.16948264409E+03 -0.12779334350E+03  0.17457947516E+03  0.27483358317E+03  0.00000000000E+00 0. -1.
         -4    1    3    3    0  502  0.86504636556E+02 -0.13748066000E+03  0.89613148983E+02  0.18551145649E+03  0.00000000000E+00 0.  1.
         11    1    5    5    0    0 -0.34437516748E+03  0.28882398659E+03 -0.51182774084E+03  0.68116164565E+03  0.00000000000E+00 0.  1.
        -11    1    5    5    0    0 -0.51174620496E+01  0.24043105849E+02 -0.86283616834E+01  0.26052024529E+02  0.00000000000E+00 0. -1.
          1    1    6    6  503    0  0.39852104082E+02  0.26593874005E+02  0.84501369391E+02  0.97138590495E+02  0.00000000000E+00 0. -1.
         -1    1    6    6    0  503  0.53653244807E+02 -0.74186962952E+02  0.18251845333E+03  0.20419442196E+03  0.00000000000E+00 0.  1.
<mgrwt>
<rscale>  0 0.14688523E+04</rscale>
<asrwt>0</asrwt>
<pdfrwt beam="1">  1        1 0.11381908E+00 0.14688523E+04</pdfrwt>
<pdfrwt beam="2">  1       -2 0.11216426E+00 0.14688523E+04</pdfrwt>
<totfact> 0.13315118E+01</totfact>
</mgrwt>
</event>
<event>
12    4  0.4381187E-008  0.1514196E+04  0.7818608E-02  0.8875067E-01
          1   -1    0    0  501    0  0.00000000000E+00  0.00000000000E+00  0.13252936539E+04  0.13252936539E+04  0.00000000000E+00 0. -1.
         -2   -1    0    0    0  501 -0.00000000000E+00 -0.00000000000E+00 -0.43250583676E+03  0.43250583676E+03  0.00000000000E+00 0.  1.
        -24    2    1    2    0    0 -0.20526403158E+03 -0.12177254715E+03 -0.20339856155E+03  0.32392767326E+03  0.81217527441E+02 0.  0.
        254    2    1    2    0    0  0.20526403158E+03  0.12177254715E+03  0.10961863787E+04  0.14338718174E+04  0.89297364800E+03 0.  0.
         23    2    4    4    0    0  0.46284545815E+03  0.20144034796E+03  0.10154586216E+04  0.11376272537E+04  0.90749238661E+02 0.  0.
         23    2    4    4    0    0 -0.25758142657E+03 -0.79667800815E+02  0.80727757055E+02  0.29624456365E+03  0.92459293387E+02 0.  0.
          3    1    3    3  502    0  0.23439597735E+01 -0.19316206277E+02 -0.82351539300E+01  0.21128836518E+02  0.00000000000E+00 0. -1.
         -4    1    3    3    0  502 -0.20760799135E+03 -0.10245634087E+03 -0.19516340762E+03  0.30279883674E+03  0.00000000000E+00 0.  1.
         11    1    5    5    0    0  0.42518204536E+03  0.20066054869E+03  0.97445353233E+03  0.10819445985E+04  0.00000000000E+00 0. -1.
        -11    1    5    5    0    0  0.37663412786E+02  0.77979927112E+00  0.41005089278E+02  0.55682655256E+02  0.00000000000E+00 0.  1.
          3    1    6    6  503    0 -0.10523781062E+03 -0.80378664092E+02  0.43918927053E+02  0.13951558543E+03  0.00000000000E+00 0. -1.
         -3    1    6    6    0  503 -0.15234361595E+03  0.71086327684E+00  0.36808830002E+02  0.15672897822E+03  0.00000000000E+00 0.  1.
<mgrwt>
<rscale>  0 0.15141958E+04</rscale>
<asrwt>0</asrwt>
<pdfrwt beam="1">  1        1 0.20389133E+00 0.15141958E+04</pdfrwt>
<pdfrwt beam="2">  1       -2 0.66539360E-01 0.15141958E+04</pdfrwt>
<totfact> 0.15266138E+01</totfact>
</mgrwt>
</event>
<event>
12    4  0.4381187E-008  0.1466840E+04  0.7818608E-02  0.8906808E-01
         -2   -1    0    0    0  501 -0.00000000000E+00  0.00000000000E+00  0.64204747764E+03  0.64204747764E+03  0.00000000000E+00 0.  1.
          1   -1    0    0  501    0  0.00000000000E+00 -0.00000000000E+00 -0.83779597892E+03  0.83779597892E+03  0.00000000000E+00 0. -1.
        -24    2    1    2    0    0  0.35444385535E+03 -0.22953795131E+03 -0.21964304267E+03  0.48275947892E+03  0.80594854709E+02 0.  0.
        254    2    1    2    0    0 -0.35444385535E+03  0.22953795131E+03  0.23894541392E+02  0.99708397764E+03  0.90293266176E+03 0.  0.
         23    2    4    4    0    0  0.34419445004E+02  0.44468752043E+03  0.21760595061E+03  0.50376374925E+03  0.86567177975E+02 0.  0.
         23    2    4    4    0    0 -0.38886330035E+03 -0.21514956912E+03 -0.19371140922E+03  0.49332022839E+03  0.91305718446E+02 0.  0.
          1    1    3    3  502    0  0.14447078318E+03 -0.10037138647E+03 -0.13627095779E+03  0.22252190083E+03  0.00000000000E+00 0. -1.
         -2    1    3    3    0  502  0.20997307217E+03 -0.12916656484E+03 -0.83372084882E+02  0.26023757808E+03  0.00000000000E+00 0.  1.
         11    1    5    5    0    0  0.12170901357E+02  0.10461714284E+02 -0.28052630537E+01  0.16292569054E+02  0.00000000000E+00 0. -1.
        -11    1    5    5    0    0  0.22248543647E+02  0.43422580614E+03  0.22041121366E+03  0.48747118020E+03  0.00000000000E+00 0.  1.
          1    1    6    6  503    0 -0.28124885774E+03 -0.15465583444E+03 -0.18283872948E+03  0.36939050895E+03  0.00000000000E+00 0. -1.
         -1    1    6    6    0  503 -0.10761444262E+03 -0.60493734683E+02 -0.10872679739E+02  0.12392971944E+03  0.00000000000E+00 0.  1.
<mgrwt>
<rscale>  0 0.14668399E+04</rscale>
<asrwt>0</asrwt>
<pdfrwt beam="1">  1        1 0.12889169E+00 0.14668399E+04</pdfrwt>
<pdfrwt beam="2">  1       -2 0.98776536E-01 0.14668399E+04</pdfrwt>
<totfact> 0.14823965E+01</totfact>
</mgrwt>
</event>
<event>
12    4  0.4381187E-008  0.2022121E+04  0.7818608E-02  0.8596348E-01
          1   -1    0    0  501    0  0.00000000000E+00  0.00000000000E+00  0.13885283803E+04  0.13885283803E+04  0.00000000000E+00 0. -1.
         -2   -1    0    0    0  501 -0.00000000000E+00 -0.00000000000E+00 -0.73620642571E+03  0.73620642571E+03  0.00000000000E+00 0.  1.
        -24    2    1    2    0    0 -0.16354645295E+03  0.52777933400E+02  0.10905700638E+04  0.11069277460E+04  0.80081322942E+02 0.  0.
        254    2    1    2    0    0  0.16354645295E+03 -0.52777933400E+02 -0.43824810917E+03  0.10178070600E+04  0.90240614679E+03 0.  0.
         23    2    4    4    0    0 -0.58058172319E+02 -0.31237752383E+03 -0.55421590317E+03  0.64550046936E+03  0.92547932708E+02 0.  0.
         23    2    4    4    0    0  0.22160462527E+03  0.25959959043E+03  0.11596779401E+03  0.37230659069E+03  0.93075834274E+02 0.  0.
          1    1    3    3  502    0 -0.16733994813E+03  0.60049562186E+02  0.10717789204E+04  0.10864247155E+04  0.00000000000E+00 0. -1.
         -2    1    3    3    0  502  0.37934951719E+01 -0.72716287853E+01  0.18791143350E+02  0.20503030488E+02  0.00000000000E+00 0.  1.
         11    1    5    5    0    0 -0.17039775252E+02 -0.81794379577E+02 -0.23626684429E+03  0.25060466113E+03  0.00000000000E+00 0. -1.
        -11    1    5    5    0    0 -0.41018397067E+02 -0.23058314426E+03 -0.31794905889E+03  0.39489580823E+03  0.00000000000E+00 0.  1.
          3    1    6    6  503    0  0.64311313259E+02  0.12394420338E+03  0.81722836120E+02  0.16179225107E+03  0.00000000000E+00 0. -1.
         -3    1    6    6    0  503  0.15729331201E+03  0.13565538705E+03  0.34244957887E+02  0.21051433961E+03  0.00000000000E+00 0.  1.
<mgrwt>
<rscale>  0 0.20221212E+04</rscale>
<asrwt>0</asrwt>
<pdfrwt beam="1">  1        1 0.21361975E+00 0.20221212E+04</pdfrwt>
<pdfrwt beam="2">  1       -2 0.11326253E+00 0.20221212E+04</pdfrwt>
<totfact> 0.38920460E+00</totfact>
</mgrwt>
</event>
<event>
12    4  0.4381187E-008  0.1605319E+04  0.7818608E-02  0.8817287E-01
          3   -1    0    0  501    0  0.00000000000E+00  0.00000000000E+00  0.89524722347E+03  0.89524722347E+03  0.00000000000E+00 0. -1.
         -2   -1    0    0    0  501 -0.00000000000E+00 -0.00000000000E+00 -0.71964754546E+03  0.71964754546E+03  0.00000000000E+00 0.  1.
        -24    2    1    2    0    0  0.48108489124E+03 -0.80340838483E+02 -0.18820874234E+03  0.52902458845E+03  0.80914532602E+02 0.  0.
        254    2    1    2    0    0 -0.48108489124E+03  0.80340838483E+02  0.36380842035E+03  0.10858701805E+04  0.89936653219E+03 0.  0.
         23    2    4    4    0    0 -0.25996245642E+03 -0.29944293090E+03 -0.12145345370E+03  0.42481961530E+03  0.92055507807E+02 0.  0.
         23    2    4    4    0    0 -0.22112243482E+03  0.37978376938E+03  0.48526187405E+03  0.66105056517E+03  0.91530981868E+02 0.  0.
          3    1    3    3  502    0  0.12271546151E+00 -0.79151169981E+01 -0.16342720284E+01  0.80830057059E+01  0.00000000000E+00 0. -1.
         -4    1    3    3    0  502  0.48096217578E+03 -0.72425721485E+02 -0.18657447031E+03  0.52094158275E+03  0.00000000000E+00 0.  1.
         11    1    5    5    0    0 -0.14726715267E+03 -0.10185850225E+03 -0.42423920965E+02  0.18401781926E+03  0.00000000000E+00 0. -1.
        -11    1    5    5    0    0 -0.11269530375E+03 -0.19758442865E+03 -0.79029532733E+02  0.24080179604E+03  0.00000000000E+00 0.  1.
          2    1    6    6  503    0 -0.79639223605E+01  0.83383852278E+02  0.86914749952E+02  0.12070817967E+03  0.00000000000E+00 0. -1.
         -2    1    6    6    0  503 -0.21315851246E+03  0.29639991710E+03  0.39834712410E+03  0.54034238550E+03  0.00000000000E+00 0.  1.
<mgrwt>
<rscale>  0 0.16053192E+04</rscale>
<asrwt>0</asrwt>
<pdfrwt beam="1">  1        3 0.13773034E+00 0.16053192E+04</pdfrwt>
<pdfrwt beam="2">  1       -2 0.11071501E+00 0.16053192E+04</pdfrwt>
<totfact> 0.10328990E+00</totfact>
</mgrwt>
</event>
<event>
12    4  0.4381187E-008  0.1377820E+04  0.7818608E-02  0.8970032E-01
          1   -1    0    0  501    0  0.00000000000E+00  0.00000000000E+00  0.24099116362E+03  0.24099116362E+03  0.00000000000E+00 0. -1.
         -2   -1    0    0    0  501 -0.00000000000E+00 -0.00000000000E+00 -0.19693554521E+04  0.19693554521E+04  0.00000000000E+00 0.  1.
        -24    2    1    2    0    0 -0.26124338212E+03  0.24599540331E+03 -0.28077032283E+03  0.46224053515E+03  0.77926215115E+02 0.  0.
        254    2    1    2    0    0  0.26124338212E+03 -0.24599540331E+03 -0.14475939656E+04  0.17481060805E+04  0.91191268022E+03 0.  0.
         23    2    4    4    0    0 -0.59616338191E+02 -0.47407825892E+03 -0.41693111909E+03  0.64094225239E+03  0.93118792221E+02 0.  0.
         23    2    4    4    0    0  0.32085972031E+03  0.22808285562E+03 -0.10306628465E+04  0.11071638281E+04  0.92590982242E+02 0.  0.
          1    1    3    3  502    0 -0.26613746261E+03  0.23978984632E+03 -0.26866006597E+03  0.44777957797E+03  0.00000000000E+00 0. -1.
         -2    1    3    3    0  502  0.48940804856E+01  0.62055569891E+01 -0.12110256855E+02  0.14460957176E+02  0.00000000000E+00 0.  1.
         11    1    5    5    0    0  0.12894431858E+02 -0.12610222277E+03 -0.72694039524E+02  0.14612481084E+03  0.00000000000E+00 0. -1.
        -11    1    5    5    0    0 -0.72510770049E+02 -0.34797603615E+03 -0.34423707957E+03  0.49481744154E+03  0.00000000000E+00 0.  1.
          1    1    6    6  503    0  0.23906747031E+03  0.12207451713E+03 -0.73879314848E+03  0.78604755539E+03  0.00000000000E+00 0. -1.
         -1    1    6    6    0  503  0.81792250004E+02  0.10600833849E+03 -0.29186969804E+03  0.32111627275E+03  0.00000000000E+00 0.  1.
<mgrwt>
<rscale>  0 0.13778204E+04</rscale>
<asrwt>0</asrwt>
<pdfrwt beam="1">  1        1 0.37075563E-01 0.13778204E+04</pdfrwt>
<pdfrwt beam="2">  1       -2 0.30297777E+00 0.13778204E+04</pdfrwt>
<totfact> 0.30461517E+00</totfact>
</mgrwt>
</event>
<event>
12    4  0.4381187E-008  0.1556889E+04  0.7818608E-02  0.8847479E-01
          1   -1    0    0  501    0  0.00000000000E+00  0.00000000000E+00  0.69904290604E+03  0.69904290604E+03  0.00000000000E+00 0. -1.
         -2   -1    0    0    0  501 -0.00000000000E+00 -0.00000000000E+00 -0.86686526071E+03  0.86686526071E+03  0.00000000000E+00 0.  1.
        -24    2    1    2    0    0 -0.27652139827E+02 -0.11538435828E+03  0.44971837975E+03  0.47218049810E+03  0.81422421520E+02 0.  0.
        254    2    1    2    0    0  0.27652139827E+02  0.11538435828E+03 -0.61754073441E+03  0.10937276687E+04  0.89487734553E+03 0.  0.
         23    2    4    4    0    0  0.17176417677E+03  0.46354854707E+02  0.18278541842E+03  0.27224304452E+03  0.95152830380E+02 0.  0.
         23    2    4    4    0    0 -0.14411203694E+03  0.69029503572E+02 -0.80032615283E+03  0.82148462413E+03  0.93710646229E+02 0.  0.
          3    1    3    3  502    0 -0.32956909215E+02 -0.83775136527E+02  0.41611827687E+03  0.42574505483E+03  0.00000000000E+00 0. -1.
         -4    1    3    3    0  502  0.53047693874E+01 -0.31609221752E+02  0.33600102876E+02  0.46435443266E+02  0.00000000000E+00 0.  1.
         11    1    5    5    0    0  0.16814099974E+03  0.41206861295E+02  0.12357131386E+03  0.21269525341E+03  0.00000000000E+00 0.  1.
        -11    1    5    5    0    0  0.36231770213E+01  0.51479934122E+01  0.59214104562E+02  0.59547791117E+02  0.00000000000E+00 0. -1.
          3    1    6    6  503    0 -0.16131494308E+02  0.20654945633E+02 -0.33424058211E+02  0.42473751365E+02  0.00000000000E+00 0. -1.
         -3    1    6    6    0  503 -0.12798054263E+03  0.48374557938E+02 -0.76690209462E+03  0.77901087276E+03  0.00000000000E+00 0.  1.
<mgrwt>
<rscale>  0 0.15568892E+04</rscale>
<asrwt>0</asrwt>
<pdfrwt beam="1">  1        1 0.10754506E+00 0.15568892E+04</pdfrwt>
<pdfrwt beam="2">  1       -2 0.13336389E+00 0.15568892E+04</pdfrwt>
<totfact> 0.93646084E+00</totfact>
</mgrwt>
</event>
<event>
12    4  0.4381187E-008  0.2390456E+04  0.7818608E-02  0.8443086E-01
         -2   -1    0    0    0  501 -0.00000000000E+00  0.00000000000E+00  0.10894528991E+04  0.10894528991E+04  0.00000000000E+00 0.  1.
          1   -1    0    0  501    0  0.00000000000E+00 -0.00000000000E+00 -0.13112722815E+04  0.13112722815E+04  0.00000000000E+00 0. -1.
        -24    2    1    2    0    0 -0.47115421833E+03 -0.88536924435E+03 -0.30439143772E+03  0.10511117607E+04  0.79478234879E+02 0.  0.
        254    2    1    2    0    0  0.47115421833E+03  0.88536924435E+03  0.82572055309E+02  0.13496134198E+04  0.89931820975E+03 0.  0.
         23    2    4    4    0    0  0.21270635674E+03  0.11303064290E+03 -0.34009755428E+03  0.42654045516E+03  0.90832224608E+02 0.  0.
         23    2    4    4    0    0  0.25844786159E+03  0.77233860145E+03  0.42266960959E+03  0.92307296468E+03  0.10055787780E+03 0.  0.
          1    1    3    3  502    0 -0.87127781825E+02 -0.18714109408E+03 -0.94706157513E+02  0.22711736114E+03  0.00000000000E+00 0. -1.
         -2    1    3    3    0  502 -0.38402643651E+03 -0.69822815027E+03 -0.20968528021E+03  0.82399439956E+03  0.00000000000E+00 0.  1.
         11    1    5    5    0    0  0.95440413739E+02  0.49026749599E+02 -0.78976440486E+02  0.13322827366E+03  0.00000000000E+00 0. -1.
        -11    1    5    5    0    0  0.11726594301E+03  0.64003893297E+02 -0.26112111380E+03  0.29331218150E+03  0.00000000000E+00 0.  1.
          1    1    6    6  503    0  0.12480404205E+03  0.22606688523E+03  0.13478170449E+03  0.29128747548E+03  0.00000000000E+00 0.  1.
         -1    1    6    6    0  503  0.13364381954E+03  0.54627171623E+03  0.28788790510E+03  0.63178548919E+03  0.00000000000E+00 0. -1.
<mgrwt>
<rscale>  0 0.23904555E+04</rscale>
<asrwt>0</asrwt>
<pdfrwt beam="1">  1        1 0.20173420E+00 0.23904555E+04</pdfrwt>
<pdfrwt beam="2">  1       -2 0.16760814E+00 0.23904555E+04</pdfrwt>
<totfact> 0.15494711E+00</totfact>
</mgrwt>
</event>
<event>
12    4  0.4381187E-008  0.2045756E+04  0.7818608E-02  0.8585522E-01
          1   -1    0    0  501    0  0.00000000000E+00  0.00000000000E+00  0.69285912122E+03  0.69285912122E+03  0.00000000000E+00 0. -1.
         -2   -1    0    0    0  501 -0.00000000000E+00 -0.00000000000E+00 -0.15100889824E+04  0.15100889824E+04  0.00000000000E+00 0.  1.
        -24    2    1    2    0    0  0.57883594654E+03  0.53776571470E+03 -0.96934517922E+02  0.79998709602E+03  0.79624343812E+02 0.  0.
        254    2    1    2    0    0 -0.57883594654E+03 -0.53776571470E+03 -0.72029534323E+03  0.14029610076E+04  0.90842236343E+03 0.  0.
         23    2    4    4    0    0 -0.56294264857E+03 -0.69578128962E+03 -0.79976952941E+03  0.12036852258E+04  0.90613431724E+02 0.  0.
         23    2    4    4    0    0 -0.15893297972E+02  0.15801557493E+03  0.79474186175E+02  0.19927578180E+03  0.90405597755E+02 0.  0.
          3    1    3    3  502    0  0.52677314493E+02  0.69790355245E+02  0.90016310132E+01  0.87901208799E+02  0.00000000000E+00 0. -1.
         -4    1    3    3    0  502  0.52615863205E+03  0.46797535945E+03 -0.10593614893E+03  0.71208588722E+03  0.00000000000E+00 0.  1.
         11    1    5    5    0    0 -0.45167156251E+03 -0.60363539042E+03 -0.64770939797E+03  0.99393679335E+03  0.00000000000E+00 0. -1.
        -11    1    5    5    0    0 -0.11127108606E+03 -0.92145899198E+02 -0.15206013144E+03  0.20974843242E+03  0.00000000000E+00 0.  1.
          3    1    6    6  503    0 -0.21616987803E+02  0.71257839303E+02  0.83947086172E+02  0.11221446921E+03  0.00000000000E+00 0.  1.
         -3    1    6    6    0  503  0.57236898312E+01  0.86757735622E+02 -0.44728999968E+01  0.87061312590E+02  0.00000000000E+00 0. -1.
<mgrwt>
<rscale>  0 0.20457555E+04</rscale>
<asrwt>0</asrwt>
<pdfrwt beam="1">  1        1 0.10659371E+00 0.20457555E+04</pdfrwt>
<pdfrwt beam="2">  1       -2 0.23232138E+00 0.20457555E+04</pdfrwt>
<totfact> 0.18513313E+00</totfact>
</mgrwt>
</event>
<event>
12    4  0.4381187E-008  0.1746531E+04  0.7818608E-02  0.8735262E-01
         -2   -1    0    0    0  501 -0.00000000000E+00  0.00000000000E+00  0.20407595186E+04  0.20407595186E+04  0.00000000000E+00 0.  1.
          1   -1    0    0  501    0  0.00000000000E+00 -0.00000000000E+00 -0.37368075932E+03  0.37368075932E+03  0.00000000000E+00 0. -1.
        -24    2    1    2    0    0  0.55580589911E+02 -0.57904418455E+03  0.98758582873E+03  0.11488429135E+04  0.78312841296E+02 0.  0.
        254    2    1    2    0    0 -0.55580589911E+02  0.57904418455E+03  0.67949293059E+03  0.12655973645E+04  0.89534612112E+03 0.  0.
         23    2    4    4    0    0 -0.38427246495E+03  0.18864192685E+02  0.15175686215E+03  0.42324069037E+03  0.89896338587E+02 0.  0.
         23    2    4    4    0    0  0.32869187504E+03  0.56017999187E+03  0.52773606844E+03  0.84235667411E+03  0.96017896655E+02 0.  0.
          3    1    3    3  502    0  0.33634752327E+02 -0.72933575923E+02  0.12997788742E+03  0.15279022966E+03  0.00000000000E+00 0. -1.
         -4    1    3    3    0  502  0.21945837584E+02 -0.50611060863E+03  0.85760794131E+03  0.99605268382E+03  0.00000000000E+00 0.  1.
         11    1    5    5    0    0 -0.47163992892E+02  0.28462797377E+02  0.39567365044E+02  0.67824401483E+02  0.00000000000E+00 0. -1.
        -11    1    5    5    0    0 -0.33710847206E+03 -0.95986046921E+01  0.11218949710E+03  0.35541628888E+03  0.00000000000E+00 0.  1.
          4    1    6    6  503    0  0.11861006200E+02  0.80197403269E+02  0.56237962679E+02  0.98666181670E+02  0.00000000000E+00 0. -1.
         -4    1    6    6    0  503  0.31683086884E+03  0.47998258860E+03  0.47149810576E+03  0.74369049244E+03  0.00000000000E+00 0.  1.
<mgrwt>
<rscale>  0 0.17465309E+04</rscale>
<asrwt>0</asrwt>
<pdfrwt beam="1">  1        1 0.57489348E-01 0.17465309E+04</pdfrwt>
<pdfrwt beam="2">  1       -2 0.31396300E+00 0.17465309E+04</pdfrwt>
<totfact> 0.14238667E+00</totfact>
</mgrwt>
</event>
<event>
12    4  0.4381187E-008  0.2202077E+04  0.7818608E-02  0.8517564E-01
         -2   -1    0    0    0  501 -0.00000000000E+00  0.00000000000E+00  0.72622676783E+03  0.72622676783E+03  0.00000000000E+00 0.  1.
          1   -1    0    0  501    0  0.00000000000E+00 -0.00000000000E+00 -0.16692943863E+04  0.16692943863E+04  0.00000000000E+00 0. -1.
        -24    2    1    2    0    0 -0.66789142996E+03 -0.27364737114E+03  0.21808695249E+03  0.75867926595E+03  0.84086049990E+02 0.  0.
        254    2    1    2    0    0  0.66789142996E+03  0.27364737114E+03 -0.11611545709E+04  0.16368418881E+04  0.90000532402E+03 0.  0.
         23    2    4    4    0    0  0.68490131904E+03 -0.15632274527E+03 -0.63414018577E+03  0.95073641513E+03  0.90770801094E+02 0.  0.
         23    2    4    4    0    0 -0.17009889082E+02  0.42997011641E+03 -0.52701438516E+03  0.68610547302E+03  0.88503788676E+02 0.  0.
          1    1    3    3  502    0 -0.21372362862E+03 -0.51148840258E+02  0.46514432559E+02  0.22462766020E+03  0.00000000000E+00 0. -1.
         -2    1    3    3    0  502 -0.45416780134E+03 -0.22249853088E+03  0.17157251993E+03  0.53405160576E+03  0.00000000000E+00 0.  1.
         11    1    5    5    0    0  0.44749938403E+03 -0.10143052934E+03 -0.47062537829E+03  0.65729148609E+03  0.00000000000E+00 0. -1.
        -11    1    5    5    0    0  0.23740193501E+03 -0.54892215930E+02 -0.16351480748E+03  0.29344492904E+03  0.00000000000E+00 0.  1.
          1    1    6    6  503    0 -0.16928019911E+02  0.33213490854E+03 -0.34333237010E+03  0.47799296196E+03  0.00000000000E+00 0. -1.
         -1    1    6    6    0  503 -0.81869171889E-01  0.97835207873E+02 -0.18368201506E+03  0.20811251106E+03  0.00000000000E+00 0.  1.
<mgrwt>
<rscale>  0 0.22020774E+04</rscale>
<asrwt>0</asrwt>
<pdfrwt beam="1">  1        1 0.25681452E+00 0.22020774E+04</pdfrwt>
<pdfrwt beam="2">  1       -2 0.11172720E+00 0.22020774E+04</pdfrwt>
<totfact> 0.25329707E+00</totfact>
</mgrwt>
</event>
<event>
12    4  0.4381187E-008  0.1305403E+04  0.7818608E-02  0.9025291E-01
          1   -1    0    0  501    0  0.00000000000E+00  0.00000000000E+00  0.10023080477E+04  0.10023080477E+04  0.00000000000E+00 0. -1.
         -2   -1    0    0    0  501 -0.00000000000E+00 -0.00000000000E+00 -0.42503832466E+03  0.42503832466E+03  0.00000000000E+00 0.  1.
        -24    2    1    2    0    0 -0.88164929265E+02 -0.87941338303E+02 -0.22236960604E+03  0.26628960292E+03  0.77169794600E+02 0.  0.
        254    2    1    2    0    0  0.88164929265E+02  0.87941338303E+02  0.79963932911E+03  0.11610567695E+04  0.83254010806E+03 0.  0.
         23    2    4    4    0    0  0.34818165703E+03 -0.95636378845E+02  0.73606486357E+03  0.82596049356E+03  0.10021212640E+03 0.  0.
         23    2    4    4    0    0 -0.26001672776E+03  0.18357771715E+03  0.63574465531E+02  0.33509627591E+03  0.83296605630E+02 0.  0.
          3    1    3    3  502    0  0.11216499994E+02 -0.15965887269E+02 -0.12477852365E+02  0.23160661218E+02  0.00000000000E+00 0. -1.
         -4    1    3    3    0  502 -0.99381429258E+02 -0.71975451033E+02 -0.20989175368E+03  0.24312894170E+03  0.00000000000E+00 0.  1.
         11    1    5    5    0    0  0.17131739055E+03 -0.24778091498E+02  0.45106256138E+03  0.48313666432E+03  0.00000000000E+00 0. -1.
        -11    1    5    5    0    0  0.17686426647E+03 -0.70858287347E+02  0.28500230219E+03  0.34282382924E+03  0.00000000000E+00 0.  1.
          4    1    6    6  503    0 -0.23545914999E+01 -0.75864581230E+01  0.35339721988E+01  0.86941018791E+01  0.00000000000E+00 0.  1.
         -4    1    6    6    0  503 -0.25766213626E+03  0.19116417527E+03  0.60040493332E+02  0.32640217403E+03  0.00000000000E+00 0. -1.
<mgrwt>
<rscale>  0 0.13054031E+04</rscale>
<asrwt>0</asrwt>
<pdfrwt beam="1">  1        1 0.15420124E+00 0.13054031E+04</pdfrwt>
<pdfrwt beam="2">  1       -2 0.65390512E-01 0.13054031E+04</pdfrwt>
<totfact> 0.27962847E+01</totfact>
</mgrwt>
</event>
<event>
12    4  0.4381187E-008  0.1176594E+04  0.7818608E-02  0.9133594E-01
          1   -1    0    0  501    0  0.00000000000E+00  0.00000000000E+00  0.20458079498E+04  0.20458079498E+04  0.00000000000E+00 0. -1.
         -2   -1    0    0    0  501 -0.00000000000E+00 -0.00000000000E+00 -0.16917195982E+03  0.16917195982E+03  0.00000000000E+00 0.  1.
        -24    2    1    2    0    0 -0.17578746406E+03 -0.58301019321E+02  0.63550092327E+03  0.66825396415E+03  0.91660764507E+02 0.  0.
        254    2    1    2    0    0  0.17578746406E+03  0.58301019321E+02  0.12411350667E+04  0.15467259455E+04  0.90423705697E+03 0.  0.
         23    2    4    4    0    0  0.25943152341E+03 -0.35811312992E+03  0.41487716321E+03  0.61330259416E+03  0.92017836843E+02 0.  0.
         23    2    4    4    0    0 -0.83644059355E+02  0.41641414924E+03  0.82625790351E+03  0.93342335131E+03  0.90443116418E+02 0.  0.
          3    1    3    3  502    0 -0.11835282963E+03 -0.46233253538E+02  0.55041397805E+03  0.56488977088E+03  0.00000000000E+00 0. -1.
         -4    1    3    3    0  502 -0.57434634430E+02 -0.12067765783E+02  0.85086945223E+02  0.10336419327E+03  0.00000000000E+00 0.  1.
         11    1    5    5    0    0  0.24078083047E+03 -0.35635529281E+03  0.40941590029E+03  0.59378942602E+03  0.00000000000E+00 0. -1.
        -11    1    5    5    0    0  0.18650692941E+02 -0.17578371047E+01  0.54612629154E+01  0.19513168146E+02  0.00000000000E+00 0.  1.
          2    1    6    6  503    0 -0.63518404399E+02  0.38644201209E+03  0.79255919260E+03  0.88403738053E+03  0.00000000000E+00 0. -1.
         -2    1    6    6    0  503 -0.20125654956E+02  0.29972137149E+02  0.33698710914E+02  0.49385970781E+02  0.00000000000E+00 0.  1.
<mgrwt>
<rscale>  0 0.11765940E+04</rscale>
<asrwt>0</asrwt>
<pdfrwt beam="1">  1        1 0.31473967E+00 0.11765940E+04</pdfrwt>
<pdfrwt beam="2">  1       -2 0.26026457E-01 0.11765940E+04</pdfrwt>
<totfact> 0.32264675E+01</totfact>
</mgrwt>
</event>
<event>
12    4  0.4381187E-008  0.1782883E+04  0.7818608E-02  0.8715455E-01
          1   -1    0    0  501    0  0.00000000000E+00  0.00000000000E+00  0.30370550400E+04  0.30370550400E+04  0.00000000000E+00 0. -1.
         -2   -1    0    0    0  501 -0.00000000000E+00 -0.00000000000E+00 -0.26165746988E+03  0.26165746988E+03  0.00000000000E+00 0.  1.
        -24    2    1    2    0    0 -0.41170481226E+03 -0.36576033338E+03  0.17076536150E+04  0.17960467362E+04  0.80134485929E+02 0.  0.
        254    2    1    2    0    0  0.41170481226E+03  0.36576033338E+03  0.10677439551E+04  0.15026657737E+04  0.90257730959E+03 0.  0.
         23    2    4    4    0    0  0.55489757538E+03  0.83515760377E+02  0.10227936653E+04  0.11701948167E+04  0.91448486789E+02 0.  0.
         23    2    4    4    0    0 -0.14319276312E+03  0.28224457301E+03  0.44950289784E+02  0.33247095701E+03  0.91379660206E+02 0.  0.
          3    1    3    3  502    0 -0.20183776275E+03 -0.19388815150E+03  0.74249212078E+03  0.79348953817E+03  0.00000000000E+00 0. -1.
         -4    1    3    3    0  502 -0.20986704951E+03 -0.17187218189E+03  0.96516149420E+03  0.10025571980E+04  0.00000000000E+00 0.  1.
         11    1    5    5    0    0  0.55207344543E+03  0.72325603881E+02  0.10062385206E+04  0.11500139315E+04  0.00000000000E+00 0. -1.
        -11    1    5    5    0    0  0.28241299482E+01  0.11190156496E+02  0.16555144689E+02  0.20180885215E+02  0.00000000000E+00 0.  1.
          3    1    6    6  503    0 -0.10490260659E+03  0.22385164310E+03 -0.39150015578E+01  0.24724368996E+03  0.00000000000E+00 0. -1.
         -3    1    6    6    0  503 -0.38290156530E+02  0.58392929906E+02  0.48865291342E+02  0.85227267046E+02  0.00000000000E+00 0.  1.
<mgrwt>
<rscale>  0 0.17828832E+04</rscale>
<asrwt>0</asrwt>
<pdfrwt beam="1">  1        1 0.46723921E+00 0.17828832E+04</pdfrwt>
<pdfrwt beam="2">  1       -2 0.40254998E-01 0.17828832E+04</pdfrwt>
<totfact> 0.27320260E+00</totfact>
</mgrwt>
</event>
<event>
12    4  0.4381187E-008  0.2421698E+04  0.7818608E-02  0.8431424E-01
          1   -1    0    0  501    0  0.00000000000E+00  0.00000000000E+00  0.10992917231E+04  0.10992917231E+04  0.00000000000E+00 0. -1.
         -2   -1    0    0    0  501 -0.00000000000E+00 -0.00000000000E+00 -0.13337276689E+04  0.13337276689E+04  0.00000000000E+00 0.  1.
        -24    2    1    2    0    0  0.48973682712E+03  0.66728775039E+03 -0.73692005855E+03  0.11110809311E+04  0.79589955884E+02 0.  0.
        254    2    1    2    0    0 -0.48973682712E+03 -0.66728775039E+03  0.50248411269E+03  0.13219384609E+04  0.89995328169E+03 0.  0.
         23    2    4    4    0    0 -0.27600804122E+03 -0.29588703646E+03  0.72148350684E+03  0.83206453859E+03  0.89796261412E+02 0.  0.
         23    2    4    4    0    0 -0.21372878590E+03 -0.37140071392E+03 -0.21899939415E+03  0.48987392231E+03  0.91636460486E+02 0.  0.
          3    1    3    3  502    0  0.15207540055E+02  0.10389870701E+02 -0.32466898178E+02  0.37327177297E+02  0.00000000000E+00 0. -1.
         -4    1    3    3    0  502  0.47452928707E+03  0.65689787969E+03 -0.70445316037E+03  0.10737537538E+04  0.00000000000E+00 0.  1.
         11    1    5    5    0    0 -0.16506626154E+02 -0.19051853179E+02  0.12986643781E+02  0.28356564200E+02  0.00000000000E+00 0.  1.
        -11    1    5    5    0    0 -0.25950141506E+03 -0.27683518328E+03  0.70849686306E+03  0.80370797439E+03  0.00000000000E+00 0. -1.
          3    1    6    6  503    0 -0.98582648211E+02 -0.25244687166E+03 -0.15622555758E+03  0.31281685757E+03  0.00000000000E+00 0. -1.
         -3    1    6    6    0  503 -0.11514613769E+03 -0.11895384227E+03 -0.62773836568E+02  0.17705706474E+03  0.00000000000E+00 0.  1.
<mgrwt>
<rscale>  0 0.24216984E+04</rscale>
<asrwt>0</asrwt>
<pdfrwt beam="1">  1        1 0.16912180E+00 0.24216984E+04</pdfrwt>
<pdfrwt beam="2">  1       -2 0.20518887E+00 0.24216984E+04</pdfrwt>
<totfact> 0.12250740E+00</totfact>
</mgrwt>
</event>
<event>
12    4  0.4381187E-008  0.1385661E+04  0.7818608E-02  0.8964264E-01
         -2   -1    0    0    0  501 -0.00000000000E+00  0.00000000000E+00  0.64790138913E+03  0.64790138913E+03  0.00000000000E+00 0.  1.
          1   -1    0    0  501    0  0.00000000000E+00 -0.00000000000E+00 -0.74087535927E+03  0.74087535927E+03  0.00000000000E+00 0. -1.
        -24    2    1    2    0    0 -0.18276959063E+03  0.14899335120E+03  0.29668723028E+03  0.38326760913E+03  0.57157726007E+02 0.  0.
        254    2    1    2    0    0  0.18276959063E+03 -0.14899335120E+03 -0.38966120042E+03  0.10055091393E+04  0.89644243323E+03 0.  0.
         23    2    4    4    0    0 -0.12273778012E+03 -0.32527403673E+03  0.12012953094E+03  0.37928467003E+03  0.92509432352E+02 0.  0.
         23    2    4    4    0    0  0.30550737075E+03  0.17628068553E+03 -0.50979073136E+03  0.62622446924E+03  0.88661504718E+02 0.  0.
          3    1    3    3  502    0 -0.91395125729E+02  0.41537866313E+02  0.10493034992E+03  0.14521997686E+03  0.00000000000E+00 0. -1.
         -4    1    3    3    0  502 -0.91374464903E+02  0.10745548488E+03  0.19175688035E+03  0.23804763227E+03  0.00000000000E+00 0.  1.
         11    1    5    5    0    0  0.15130440728E+01  0.58720402884E+01  0.22827961285E+01  0.64792991657E+01  0.00000000000E+00 0.  1.
        -11    1    5    5    0    0 -0.12425082419E+03 -0.33114607702E+03  0.11784673482E+03  0.37280537086E+03  0.00000000000E+00 0. -1.
          2    1    6    6  503    0  0.23473472272E+03  0.95733618851E+02 -0.32007360418E+03  0.40830433248E+03  0.00000000000E+00 0. -1.
         -2    1    6    6    0  503  0.70772648034E+02  0.80547066683E+02 -0.18971712718E+03  0.21792013676E+03  0.00000000000E+00 0.  1.
<mgrwt>
<rscale>  0 0.13856611E+04</rscale>
<asrwt>0</asrwt>
<pdfrwt beam="1">  1        1 0.11398083E+00 0.13856611E+04</pdfrwt>
<pdfrwt beam="2">  1       -2 0.99677136E-01 0.13856611E+04</pdfrwt>
<totfact> 0.17766003E+01</totfact>
</mgrwt>
</event>
<event>
12    4  0.4381187E-008  0.2593629E+04  0.7818608E-02  0.8370369E-01
          1   -1    0    0  501    0  0.00000000000E+00  0.00000000000E+00  0.52187493567E+03  0.52187493567E+03  0.00000000000E+00 0. -1.
         -2   -1    0    0    0  501 -0.00000000000E+00 -0.00000000000E+00 -0.32224723129E+04  0.32224723129E+04  0.00000000000E+00 0.  1.
        -24    2    1    2    0    0 -0.51170869030E+03  0.38335718713E+03  0.17130457513E+03  0.66674453685E+03  0.79965638311E+02 0.  0.
        254    2    1    2    0    0  0.51170869030E+03 -0.38335718713E+03 -0.28719019523E+04  0.30776027117E+04  0.90277855006E+03 0.  0.
         23    2    4    4    0    0  0.17361915786E+03  0.28744840800E+03 -0.98917348716E+03  0.10485601371E+04  0.90796333345E+02 0.  0.
         23    2    4    4    0    0  0.33808953244E+03 -0.67080559513E+03 -0.18827284652E+04  0.20290425746E+04  0.89792079347E+02 0.  0.
          1    1    3    3  502    0 -0.50330331721E+03  0.35842614439E+03  0.16126539165E+03  0.63858441622E+03  0.00000000000E+00 0. -1.
         -2    1    3    3    0  502 -0.84053730860E+01  0.24931042742E+02  0.10039183485E+02  0.28160120631E+02  0.00000000000E+00 0.  1.
         11    1    5    5    0    0  0.10295303339E+03  0.85285471524E+02 -0.37426941106E+03  0.39742990677E+03  0.00000000000E+00 0.  1.
        -11    1    5    5    0    0  0.70666124470E+02  0.20216293648E+03 -0.61490407609E+03  0.65113023031E+03  0.00000000000E+00 0. -1.
          3    1    6    6  503    0  0.13140059834E+03 -0.25327339592E+03 -0.60168484720E+03  0.66591154493E+03  0.00000000000E+00 0. -1.
         -3    1    6    6    0  503  0.20668893410E+03 -0.41753219921E+03 -0.12810436180E+04  0.13631310297E+04  0.00000000000E+00 0.  1.
<mgrwt>
<rscale>  0 0.25936288E+04</rscale>
<asrwt>0</asrwt>
<pdfrwt beam="1">  1        1 0.80288453E-01 0.25936288E+04</pdfrwt>
<pdfrwt beam="2">  1       -2 0.49576496E+00 0.25936288E+04</pdfrwt>
<totfact> 0.56324644E-02</totfact>
</mgrwt>
</event>
<event>
12    4  0.4381187E-008  0.3644623E+04  0.7818608E-02  0.8080346E-01
         -2   -1    0    0    0  501 -0.00000000000E+00  0.00000000000E+00  0.10043130914E+04  0.10043130914E+04  0.00000000000E+00 0.  1.
          1   -1    0    0  501    0  0.00000000000E+00 -0.00000000000E+00 -0.33065583390E+04  0.33065583390E+04  0.00000000000E+00 0. -1.
        -24    2    1    2    0    0  0.11003099314E+04 -0.12841840368E+04 -0.14082042047E+04  0.22021662776E+04  0.81771917033E+02 0.  0.
        254    2    1    2    0    0 -0.11003099314E+04  0.12841840368E+04 -0.89404104296E+03  0.21087051529E+04  0.88742179923E+03 0.  0.
         23    2    4    4    0    0 -0.47109870170E+03  0.11681023540E+04 -0.57338996864E+03  0.13871443611E+04  0.94848965277E+02 0.  0.
         23    2    4    4    0    0 -0.62921122972E+03  0.11608168276E+03 -0.32065107432E+03  0.72156079177E+03  0.91930060748E+02 0.  0.
          3    1    3    3  502    0  0.61101135319E+03 -0.68203854066E+03 -0.71618785127E+03  0.11625130034E+04  0.00000000000E+00 0. -1.
         -4    1    3    3    0  502  0.48929857823E+03 -0.60214549611E+03 -0.69201635343E+03  0.10396532742E+04  0.00000000000E+00 0.  1.
         11    1    5    5    0    0 -0.31425277515E+03  0.82378338167E+03 -0.44477928291E+03  0.98752340586E+03  0.00000000000E+00 0. -1.
        -11    1    5    5    0    0 -0.15684592655E+03  0.34431897233E+03 -0.12861068572E+03  0.39962095524E+03  0.00000000000E+00 0.  1.
          4    1    6    6  503    0 -0.58903859705E+03  0.84371546028E+02 -0.29965264820E+03  0.66624074940E+03  0.00000000000E+00 0. -1.
         -4    1    6    6    0  503 -0.40172632676E+02  0.31710136731E+02 -0.20998426120E+02  0.55320042364E+02  0.00000000000E+00 0.  1.
<mgrwt>
<rscale>  0 0.36446233E+04</rscale>
<asrwt>0</asrwt>
<pdfrwt beam="1">  1        1 0.50870129E+00 0.36446233E+04</pdfrwt>
<pdfrwt beam="2">  1       -2 0.15450970E+00 0.36446233E+04</pdfrwt>
<totfact> 0.69318291E-02</totfact>
</mgrwt>
</event>
<event>
12    4  0.4381187E-008  0.1423016E+04  0.7818608E-02  0.8937325E-01
         -2   -1    0    0    0  501 -0.00000000000E+00  0.00000000000E+00  0.29317518654E+03  0.29317518654E+03  0.00000000000E+00 0.  1.
          1   -1    0    0  501    0  0.00000000000E+00 -0.00000000000E+00 -0.17267609063E+04  0.17267609063E+04  0.00000000000E+00 0. -1.
        -24    2    1    2    0    0 -0.31944934747E+03 -0.28433620837E+03 -0.47035972525E+03  0.64066601131E+03  0.79496552949E+02 0.  0.
        254    2    1    2    0    0  0.31944934747E+03  0.28433620837E+03 -0.96322599446E+03  0.13792700815E+04  0.88976776536E+03 0.  0.
         23    2    4    4    0    0  0.26201180770E+03  0.59599356314E+03 -0.62965979621E+03  0.91041229837E+03  0.92306984505E+02 0.  0.
         23    2    4    4    0    0  0.57437539769E+02 -0.31165735477E+03 -0.33356619826E+03  0.46885778311E+03  0.90176684355E+02 0.  0.
          3    1    3    3  502    0 -0.82476893216E+02 -0.12029939012E+03 -0.17808217693E+03  0.23019044923E+03  0.00000000000E+00 0. -1.
         -2    1    3    3    0  502 -0.23697245425E+03 -0.16403681824E+03 -0.29227754832E+03  0.41047556208E+03  0.00000000000E+00 0.  1.
         11    1    5    5    0    0  0.15300066416E+03  0.23919206842E+03 -0.25403849192E+03  0.38099554355E+03  0.00000000000E+00 0.  1.
        -11    1    5    5    0    0  0.10901114354E+03  0.35680149473E+03 -0.37562130429E+03  0.52941675483E+03  0.00000000000E+00 0. -1.
          2    1    6    6  503    0  0.30533592245E+02 -0.32980672399E+02 -0.22196823880E+02  0.50127078487E+02  0.00000000000E+00 0. -1.
         -2    1    6    6    0  503  0.26903947524E+02 -0.27867668237E+03 -0.31136937438E+03  0.41873070462E+03  0.00000000000E+00 0.  1.
<mgrwt>
<rscale>  0 0.14230157E+04</rscale>
<asrwt>0</asrwt>
<pdfrwt beam="1">  1        1 0.26565553E+00 0.14230157E+04</pdfrwt>
<pdfrwt beam="2">  1       -2 0.45103874E-01 0.14230157E+04</pdfrwt>
<totfact> 0.18201161E+01</totfact>
</mgrwt>
</event>
<event>
12    4  0.4381187E-008  0.1585135E+04  0.7818608E-02  0.8829733E-01
          1   -1    0    0  501    0  0.00000000000E+00  0.00000000000E+00  0.74420829140E+03  0.74420829140E+03  0.00000000000E+00 0. -1.
         -2   -1    0    0    0  501 -0.00000000000E+00 -0.00000000000E+00 -0.84406887185E+03  0.84406887185E+03  0.00000000000E+00 0.  1.
        -24    2    1    2    0    0  0.17703933860E+03 -0.27342670266E+03  0.38598774344E+03  0.51119559285E+03  0.78925958446E+02 0.  0.
        254    2    1    2    0    0 -0.17703933860E+03  0.27342670266E+03 -0.48584832390E+03  0.10770815704E+04  0.90440644974E+03 0.  0.
         23    2    4    4    0    0 -0.23189986576E+03 -0.25418279545E+03 -0.24438426471E+00  0.35351286296E+03  0.81147047482E+02 0.  0.
         23    2    4    4    0    0  0.54860527159E+02  0.52760949811E+03 -0.48560393963E+03  0.72356870745E+03  0.79743515575E+02 0.  0.
          1    1    3    3  502    0  0.17947687691E+03 -0.23369545418E+03  0.35012980461E+03  0.45762036092E+03  0.00000000000E+00 0. -1.
         -2    1    3    3    0  502 -0.24375383093E+01 -0.39731248480E+02  0.35857938832E+02  0.53575231927E+02  0.00000000000E+00 0.  1.
         11    1    5    5    0    0 -0.16605972155E+02  0.32298663314E+01  0.57895184552E+01  0.17880404685E+02  0.00000000000E+00 0. -1.
        -11    1    5    5    0    0 -0.21529389361E+03 -0.25741266178E+03 -0.60339027199E+01  0.33563245828E+03  0.00000000000E+00 0.  1.
          3    1    6    6  503    0 -0.18744809697E+02  0.62630307078E+02 -0.51877463352E+02  0.83457740558E+02  0.00000000000E+00 0. -1.
         -3    1    6    6    0  503  0.73605336856E+02  0.46497919103E+03 -0.43372647628E+03  0.64011096689E+03  0.00000000000E+00 0.  1.
<mgrwt>
<rscale>  0 0.15851348E+04</rscale>
<asrwt>0</asrwt>
<pdfrwt beam="1">  1        1 0.11449358E+00 0.15851348E+04</pdfrwt>
<pdfrwt beam="2">  1       -2 0.12985675E+00 0.15851348E+04</pdfrwt>
<totfact> 0.90814099E+00</totfact>
</mgrwt>
</event>
<event>
12    4  0.4381187E-008  0.3527106E+04  0.7818608E-02  0.8107396E-01
          1   -1    0    0  501    0  0.00000000000E+00  0.00000000000E+00  0.26327292496E+04  0.26327292496E+04  0.00000000000E+00 0. -1.
         -2   -1    0    0    0  501 -0.00000000000E+00 -0.00000000000E+00 -0.11813289911E+04  0.11813289911E+04  0.00000000000E+00 0.  1.
        -24    2    1    2    0    0 -0.55361101600E+03 -0.97628657571E+03  0.19835575145E+04  0.22804592023E+04  0.79831855504E+02 0.  0.
        254    2    1    2    0    0  0.55361101600E+03  0.97628657571E+03 -0.53215725605E+03  0.15335990384E+04  0.89950766004E+03 0.  0.
         23    2    4    4    0    0 -0.87246490064E+02  0.38775469634E+03  0.13800599728E+03  0.43146183674E+03  0.95645212740E+02 0.  0.
         23    2    4    4    0    0  0.64085750607E+03  0.58853187938E+03 -0.67016325333E+03  0.11021372017E+04  0.92301186597E+02 0.  0.
          3    1    3    3  502    0 -0.54237781496E+03 -0.96539602354E+03  0.19349217269E+04  0.22293688043E+04  0.00000000000E+00 0. -1.
         -4    1    3    3    0  502 -0.11233201040E+02 -0.10890552175E+02  0.48635787639E+02  0.51090398037E+02  0.00000000000E+00 0.  1.
         11    1    5    5    0    0 -0.96807584204E+02  0.35196985561E+03  0.14670011510E+03  0.39341506248E+03  0.00000000000E+00 0. -1.
        -11    1    5    5    0    0  0.95610941398E+01  0.35784840721E+02 -0.86941178192E+01  0.38046774256E+02  0.00000000000E+00 0.  1.
          1    1    6    6  503    0  0.29372884347E+03  0.21245959381E+03 -0.25662004411E+03  0.44415037941E+03  0.00000000000E+00 0. -1.
         -1    1    6    6    0  503  0.34712866259E+03  0.37607228557E+03 -0.41354320922E+03  0.65798682225E+03  0.00000000000E+00 0.  1.
<mgrwt>
<rscale>  0 0.35271061E+04</rscale>
<asrwt>0</asrwt>
<pdfrwt beam="1">  1        1 0.40503527E+00 0.35271061E+04</pdfrwt>
<pdfrwt beam="2">  1       -2 0.18174292E+00 0.35271061E+04</pdfrwt>
<totfact> 0.13826310E-01</totfact>
</mgrwt>
</event>
<event>
12    4  0.4381187E-008  0.1242600E+04  0.7818608E-02  0.9076365E-01
         -2   -1    0    0    0  501 -0.00000000000E+00  0.00000000000E+00  0.55299427930E+03  0.55299427930E+03  0.00000000000E+00 0.  1.
          1   -1    0    0  501    0  0.00000000000E+00 -0.00000000000E+00 -0.69804299393E+03  0.69804299393E+03  0.00000000000E+00 0. -1.
        -24    2    1    2    0    0  0.15866401095E+03  0.15107844606E+03  0.15469420937E+03  0.28001827875E+03  0.80504489217E+02 0.  0.
        254    2    1    2    0    0 -0.15866401095E+03 -0.15107844606E+03 -0.29974292401E+03  0.97101899448E+03  0.89723636904E+03 0.  0.
         23    2    4    4    0    0 -0.35752786369E+03 -0.42228688624E+03 -0.10435096465E+03  0.57177114638E+03  0.99401873258E+02 0.  0.
         23    2    4    4    0    0  0.19886385274E+03  0.27120844018E+03 -0.19539195936E+03  0.39924784810E+03  0.90110912123E+02 0.  0.
          1    1    3    3  502    0  0.10187581182E+03  0.13584537595E+03  0.88494746010E+02  0.19147837285E+03  0.00000000000E+00 0. -1.
         -4    1    3    3    0  502  0.56788199135E+02  0.15233070113E+02  0.66199463362E+02  0.88539905893E+02  0.00000000000E+00 0.  1.
         11    1    5    5    0    0 -0.13056604535E+03 -0.90974728293E+02 -0.11297545793E+02  0.15953535009E+03  0.00000000000E+00 0. -1.
        -11    1    5    5    0    0 -0.22696181835E+03 -0.33131215794E+03 -0.93053418857E+02  0.41223579630E+03  0.00000000000E+00 0.  1.
          1    1    6    6  503    0  0.84611439489E+02  0.53950050160E+02 -0.36197021182E+02  0.10667674511E+03  0.00000000000E+00 0. -1.
         -1    1    6    6    0  503  0.11425241325E+03  0.21725839002E+03 -0.15919493818E+03  0.29257110299E+03  0.00000000000E+00 0.  1.
<mgrwt>
<rscale>  0 0.12426001E+04</rscale>
<asrwt>0</asrwt>
<pdfrwt beam="1">  1        1 0.10739123E+00 0.12426001E+04</pdfrwt>
<pdfrwt beam="2">  1       -2 0.85076043E-01 0.12426001E+04</pdfrwt>
<totfact> 0.28433126E+01</totfact>
</mgrwt>
</event>
<event>
12    4  0.4381187E-008  0.1295686E+04  0.7818608E-02  0.9032993E-01
         -2   -1    0    0    0  501 -0.00000000000E+00  0.00000000000E+00  0.46807417591E+03  0.46807417591E+03  0.00000000000E+00 0.  1.
          1   -1    0    0  501    0  0.00000000000E+00 -0.00000000000E+00 -0.89665353576E+03  0.89665353576E+03  0.00000000000E+00 0. -1.
        -24    2    1    2    0    0  0.69501436821E+02  0.25314948738E+03 -0.32842243744E+03  0.42806111772E+03  0.80373567854E+02 0.  0.
        254    2    1    2    0    0 -0.69501436821E+02 -0.25314948738E+03 -0.10015692240E+03  0.93666659395E+03  0.89353107749E+03 0.  0.
         23    2    4    4    0    0  0.34988847792E+03 -0.43277114621E+02  0.15422057530E+03  0.39552051642E+03  0.91420115025E+02 0.  0.
         23    2    4    4    0    0 -0.41938991474E+03 -0.20987237276E+03 -0.25437749770E+03  0.54114607753E+03  0.90536470323E+02 0.  0.
          1    1    3    3  502    0  0.71603356237E+02  0.13214671608E+03 -0.21404032331E+03  0.26153977747E+03  0.00000000000E+00 0. -1.
         -2    1    3    3    0  502 -0.21019194159E+01  0.12100277129E+03 -0.11438211413E+03  0.16652134025E+03  0.00000000000E+00 0.  1.
         11    1    5    5    0    0  0.78319716001E+02  0.27738376632E+02  0.43369412775E+02  0.93724604118E+02  0.00000000000E+00 0.  1.
        -11    1    5    5    0    0  0.27156876192E+03 -0.71015491254E+02  0.11085116252E+03  0.30179591230E+03  0.00000000000E+00 0. -1.
          3    1    6    6  503    0 -0.32878549236E+03 -0.12010955231E+03 -0.18999987094E+03  0.39827899204E+03  0.00000000000E+00 0. -1.
         -3    1    6    6    0  503 -0.90604422376E+02 -0.89762820447E+02 -0.64377626762E+02  0.14286708549E+03  0.00000000000E+00 0.  1.
<mgrwt>
<rscale>  0 0.12956857E+04</rscale>
<asrwt>0</asrwt>
<pdfrwt beam="1">  1        1 0.13794670E+00 0.12956857E+04</pdfrwt>
<pdfrwt beam="2">  1       -2 0.72011411E-01 0.12956857E+04</pdfrwt>
<totfact> 0.27559505E+01</totfact>
</mgrwt>
</event>
<event>
12    4  0.4381187E-008  0.1607033E+04  0.7818608E-02  0.8816239E-01
         -2   -1    0    0    0  501 -0.00000000000E+00  0.00000000000E+00  0.38904454737E+03  0.38904454737E+03  0.00000000000E+00 0.  1.
          1   -1    0    0  501    0  0.00000000000E+00 -0.00000000000E+00 -0.16595487919E+04  0.16595487919E+04  0.00000000000E+00 0. -1.
        -24    2    1    2    0    0  0.54596189690E+03  0.12041989694E+03 -0.32327991804E+03  0.65319064781E+03  0.97840546508E+02 0.  0.
        254    2    1    2    0    0 -0.54596189690E+03 -0.12041989694E+03 -0.94722432653E+03  0.13954026915E+04  0.85868469313E+03 0.  0.
         23    2    4    4    0    0 -0.58913771426E+03 -0.91153609203E+01 -0.10531272150E+04  0.12106127867E+04  0.96643946298E+02 0.  0.
         23    2    4    4    0    0  0.43175817365E+02 -0.11130453602E+03  0.10590288844E+03  0.18478990475E+03  0.93161344836E+02 0.  0.
          1    1    3    3  502    0  0.97533041491E+01  0.18966975200E+02 -0.70333026370E+01  0.22457525154E+02  0.00000000000E+00 0. -1.
         -2    1    3    3    0  502  0.53620859275E+03  0.10145292174E+03 -0.31624661540E+03  0.63073312266E+03  0.00000000000E+00 0.  1.
         11    1    5    5    0    0 -0.38927505739E+03 -0.41435803928E+02 -0.75126176746E+03  0.84714003530E+03  0.00000000000E+00 0. -1.
        -11    1    5    5    0    0 -0.19986265687E+03  0.32320443007E+02 -0.30186544751E+03  0.36347275145E+03  0.00000000000E+00 0.  1.
          3    1    6    6  503    0  0.84121759760E+01 -0.59620145801E+02  0.10667813254E+03  0.12249714467E+03  0.00000000000E+00 0. -1.
         -3    1    6    6    0  503  0.34763641389E+02 -0.51684390220E+02 -0.77524409246E+00  0.62292760080E+02  0.00000000000E+00 0.  1.
<mgrwt>
<rscale>  0 0.16070326E+04</rscale>
<asrwt>0</asrwt>
<pdfrwt beam="1">  1        1 0.25531519E+00 0.16070326E+04</pdfrwt>
<pdfrwt beam="2">  1       -2 0.59853009E-01 0.16070326E+04</pdfrwt>
<totfact> 0.11130052E+01</totfact>
</mgrwt>
</event>
<event>
12    4  0.4381187E-008  0.1565482E+04  0.7818608E-02  0.8842039E-01
          1   -1    0    0  501    0  0.00000000000E+00  0.00000000000E+00  0.25736166518E+04  0.25736166518E+04  0.00000000000E+00 0. -1.
         -2   -1    0    0    0  501 -0.00000000000E+00 -0.00000000000E+00 -0.23806309902E+03  0.23806309902E+03  0.00000000000E+00 0.  1.
        -24    2    1    2    0    0  0.40714415415E+03  0.66233072087E+02  0.21734191915E+03  0.47243304409E+03  0.76172759130E+02 0.  0.
        254    2    1    2    0    0 -0.40714415415E+03 -0.66233072087E+02  0.21182116336E+04  0.23392467067E+04  0.90282968937E+03 0.  0.
         23    2    4    4    0    0 -0.22220089527E+03 -0.41662411961E+03  0.60545898050E+03  0.77316007577E+03  0.90813164184E+02 0.  0.
         23    2    4    4    0    0 -0.18494325888E+03  0.35039104753E+03  0.15127526531E+04  0.15660866310E+04  0.85022649592E+02 0.  0.
          3    1    3    3  502    0  0.13700877288E+03  0.49339349010E+02  0.48788585142E+02  0.15357767171E+03  0.00000000000E+00 0. -1.
         -4    1    3    3    0  502  0.27013538126E+03  0.16893723077E+02  0.16855333401E+03  0.31885537238E+03  0.00000000000E+00 0.  1.
         11    1    5    5    0    0 -0.10928919356E+03 -0.12119449709E+03  0.17905198911E+03  0.24226400632E+03  0.00000000000E+00 0.  1.
        -11    1    5    5    0    0 -0.11291170171E+03 -0.29542962252E+03  0.42640699139E+03  0.53089606945E+03  0.00000000000E+00 0. -1.
          4    1    6    6  503    0 -0.12475064534E+03  0.21617147995E+03  0.78892671259E+03  0.82746491774E+03  0.00000000000E+00 0. -1.
         -4    1    6    6    0  503 -0.60192613541E+02  0.13421956758E+03  0.72382594054E+03  0.73862171323E+03  0.00000000000E+00 0.  1.
<mgrwt>
<rscale>  0 0.15654816E+04</rscale>
<asrwt>0</asrwt>
<pdfrwt beam="1">  1        1 0.39594100E+00 0.15654816E+04</pdfrwt>
<pdfrwt beam="2">  1       -2 0.36625094E-01 0.15654816E+04</pdfrwt>
<totfact> 0.71601739E+00</totfact>
</mgrwt>
</event>
<event>
12    4  0.4381187E-008  0.1345709E+04  0.7818608E-02  0.8994083E-01
         -4   -1    0    0    0  501 -0.00000000000E+00  0.00000000000E+00  0.47022276745E+03  0.47022276745E+03  0.00000000000E+00 0.  1.
          3   -1    0    0  501    0  0.00000000000E+00 -0.00000000000E+00 -0.96280562996E+03  0.96280562996E+03  0.00000000000E+00 0. -1.
        -24    2    1    2    0    0  0.12509919096E+03  0.13154225081E+03  0.20662904033E+03  0.28743648144E+03  0.83492510012E+02 0.  0.
        254    2    1    2    0    0 -0.12509919096E+03 -0.13154225081E+03 -0.69921190284E+03  0.11455919160E+04  0.88911775460E+03 0.  0.
         23    2    4    4    0    0 -0.44921136518E+02 -0.45912120024E+03 -0.63512393638E+03  0.79026065777E+03  0.91210238676E+02 0.  0.
         23    2    4    4    0    0 -0.80178054438E+02  0.32757894943E+03 -0.64087966457E+02  0.35533125821E+03  0.91741741267E+02 0.  0.
          3    1    3    3  502    0 -0.56704277045E+01  0.16759374245E+02  0.51037780380E+02  0.54017454601E+02  0.00000000000E+00 0. -1.
         -4    1    3    3    0  502  0.13076961866E+03  0.11478287656E+03  0.15559125995E+03  0.23341902684E+03  0.00000000000E+00 0.  1.
         11    1    5    5    0    0  0.27868314885E+02 -0.15193100491E+03 -0.21563407410E+03  0.26525031035E+03  0.00000000000E+00 0. -1.
        -11    1    5    5    0    0 -0.72789451402E+02 -0.30719019533E+03 -0.41948986228E+03  0.52501034742E+03  0.00000000000E+00 0.  1.
          3    1    6    6  503    0  0.19406927432E+02  0.83530418104E+02 -0.11060672728E+02  0.86465588890E+02  0.00000000000E+00 0. -1.
         -3    1    6    6    0  503 -0.99584981870E+02  0.24404853133E+03 -0.53027293729E+02  0.26886566932E+03  0.00000000000E+00 0.  1.
<mgrwt>
<rscale>  0 0.13457089E+04</rscale>
<asrwt>0</asrwt>
<pdfrwt beam="1">  1        3 0.14812394E+00 0.13457089E+04</pdfrwt>
<pdfrwt beam="2">  1       -4 0.72341965E-01 0.13457089E+04</pdfrwt>
<totfact> 0.13015687E+00</totfact>
</mgrwt>
</event>
<event>
12    4  0.4381187E-008  0.2125484E+04  0.7818608E-02  0.8550100E-01
         -2   -1    0    0    0  501 -0.00000000000E+00  0.00000000000E+00  0.38807954206E+03  0.38807954206E+03  0.00000000000E+00 0.  1.
          1   -1    0    0  501    0  0.00000000000E+00 -0.00000000000E+00 -0.29102807055E+04  0.29102807055E+04  0.00000000000E+00 0. -1.
        -24    2    1    2    0    0 -0.21554017868E+02 -0.85628624826E+03 -0.13522438376E+04  0.16025596704E+04  0.77093360095E+02 0.  0.
        254    2    1    2    0    0  0.21554017868E+02  0.85628624826E+03 -0.11699573258E+04  0.16958005771E+04  0.87934563091E+03 0.  0.
         23    2    4    4    0    0 -0.30904414121E+03  0.66917049877E+03 -0.42770473135E+03  0.85700928346E+03  0.90753165652E+02 0.  0.
         23    2    4    4    0    0  0.33059815908E+03  0.18711574949E+03 -0.74225259446E+03  0.83879129369E+03  0.91238554853E+02 0.  0.
          1    1    3    3  502    0 -0.15759390452E+02 -0.17893788122E+03 -0.23150563557E+03  0.29302215449E+03  0.00000000000E+00 0. -1.
         -2    1    3    3    0  502 -0.57946274159E+01 -0.67734836704E+03 -0.11207382020E+04  0.13095375159E+04  0.00000000000E+00 0.  1.
         11    1    5    5    0    0 -0.16561852205E+02  0.32447987690E+02 -0.64616810829E+00  0.36436031436E+02  0.00000000000E+00 0. -1.
        -11    1    5    5    0    0 -0.29248228901E+03  0.63672251108E+03 -0.42705856325E+03  0.82057325203E+03  0.00000000000E+00 0.  1.
          2    1    6    6  503    0  0.79249054437E+01  0.11891289316E+02 -0.82646819038E+02  0.83873139830E+02  0.00000000000E+00 0. -1.
         -2    1    6    6    0  503  0.32267325364E+03  0.17522446017E+03 -0.65960577542E+03  0.75491815386E+03  0.00000000000E+00 0.  1.
<mgrwt>
<rscale>  0 0.21254839E+04</rscale>
<asrwt>0</asrwt>
<pdfrwt beam="1">  1        1 0.44773552E+00 0.21254839E+04</pdfrwt>
<pdfrwt beam="2">  1       -2 0.59704541E-01 0.21254839E+04</pdfrwt>
<totfact> 0.14671363E+00</totfact>
</mgrwt>
</event>
<event>
12    4  0.4381187E-008  0.1443661E+04  0.7818608E-02  0.8922807E-01
          1   -1    0    0  501    0  0.00000000000E+00  0.00000000000E+00  0.55965612002E+03  0.55965612002E+03  0.00000000000E+00 0. -1.
         -2   -1    0    0    0  501 -0.00000000000E+00 -0.00000000000E+00 -0.93099937668E+03  0.93099937668E+03  0.00000000000E+00 0.  1.
        -24    2    1    2    0    0 -0.14015270160E+03  0.37153435124E+03  0.73515124315E+02  0.41109352392E+03  0.76895110299E+02 0.  0.
        254    2    1    2    0    0  0.14015270160E+03 -0.37153435124E+03 -0.44485838098E+03  0.10795619728E+04  0.89993028619E+03 0.  0.
         23    2    4    4    0    0 -0.16654750064E+03  0.22406912008E+03 -0.54929266996E+02  0.29890608073E+03  0.91556431681E+02 0.  0.
         23    2    4    4    0    0  0.30670020224E+03 -0.59560347132E+03 -0.38992911398E+03  0.78065589204E+03  0.92576448116E+02 0.  0.
          1    1    3    3  502    0 -0.13007783615E+03  0.30529289298E+03  0.34698137154E+02  0.33365844015E+03  0.00000000000E+00 0. -1.
         -2    1    3    3    0  502 -0.10074865455E+02  0.66241458264E+02  0.38816987161E+02  0.77435083774E+02  0.00000000000E+00 0.  1.
         11    1    5    5    0    0 -0.70072598985E+02  0.58069457869E+02 -0.56092058390E+02  0.10690439692E+03  0.00000000000E+00 0.  1.
        -11    1    5    5    0    0 -0.96474901651E+02  0.16599966221E+03  0.11627913939E+01  0.19200168381E+03  0.00000000000E+00 0. -1.
          3    1    6    6  503    0 -0.10451950935E+01  0.19910573806E+01  0.16004529099E+01  0.27601072068E+01  0.00000000000E+00 0. -1.
         -3    1    6    6    0  503  0.30774539733E+03 -0.59759452870E+03 -0.39152956689E+03  0.77789578483E+03  0.00000000000E+00 0.  1.
<mgrwt>
<rscale>  0 0.14436613E+04</rscale>
<asrwt>0</asrwt>
<pdfrwt beam="1">  1        1 0.86100942E-01 0.14436613E+04</pdfrwt>
<pdfrwt beam="2">  1       -2 0.14323067E+00 0.14436613E+04</pdfrwt>
<totfact> 0.10880314E+01</totfact>
</mgrwt>
</event>
<event>
12    4  0.4381187E-008  0.1871115E+04  0.7818608E-02  0.8669370E-01
         -2   -1    0    0    0  501 -0.00000000000E+00  0.00000000000E+00  0.70609291494E+03  0.70609291494E+03  0.00000000000E+00 0.  1.
          1   -1    0    0  501    0  0.00000000000E+00 -0.00000000000E+00 -0.12395924267E+04  0.12395924267E+04  0.00000000000E+00 0. -1.
        -24    2    1    2    0    0 -0.70066910292E+03 -0.10108474687E+03 -0.42893269806E+02  0.71335242741E+03  0.76658562901E+02 0.  0.
        254    2    1    2    0    0  0.70066910292E+03  0.10108474687E+03 -0.49060624198E+03  0.12323329142E+04  0.88135952314E+03 0.  0.
         23    2    4    4    0    0  0.46091561535E+03  0.43913402163E+03 -0.92770464787E+02  0.64994041859E+03  0.92381248891E+02 0.  0.
         23    2    4    4    0    0  0.23975348757E+03 -0.33804927476E+03 -0.39783577720E+03  0.58239249566E+03  0.95648661323E+02 0.  0.
          1    1    3    3  502    0 -0.27490476761E+03 -0.57874389434E+02 -0.49981648550E+02  0.28534232319E+03  0.00000000000E+00 0. -1.
         -2    1    3    3    0  502 -0.42576433531E+03 -0.43210357437E+02  0.70883787432E+01  0.42801010423E+03  0.00000000000E+00 0.  1.
         11    1    5    5    0    0  0.18918663063E+02  0.52669223293E+02 -0.12621825524E+02  0.57369620653E+02  0.00000000000E+00 0. -1.
        -11    1    5    5    0    0  0.44199695229E+03  0.38646479834E+03 -0.80148639263E+02  0.59257079794E+03  0.00000000000E+00 0.  1.
          3    1    6    6  503    0  0.25098378821E+02 -0.70157726907E+02 -0.33145710710E+02  0.81551660943E+02  0.00000000000E+00 0. -1.
         -3    1    6    6    0  503  0.21465510875E+03 -0.26789154786E+03 -0.36469006649E+03  0.50084083471E+03  0.00000000000E+00 0.  1.
<mgrwt>
<rscale>  0 0.18711146E+04</rscale>
<asrwt>0</asrwt>
<pdfrwt beam="1">  1        1 0.19070653E+00 0.18711146E+04</pdfrwt>
<pdfrwt beam="2">  1       -2 0.10862968E+00 0.18711146E+04</pdfrwt>
<totfact> 0.55718546E+00</totfact>
</mgrwt>
</event>
<event>
12    4  0.4381187E-008  0.1782673E+04  0.7818608E-02  0.8715568E-01
          1   -1    0    0  501    0  0.00000000000E+00  0.00000000000E+00  0.61725796570E+03  0.61725796570E+03  0.00000000000E+00 0. -1.
         -2   -1    0    0    0  501 -0.00000000000E+00 -0.00000000000E+00 -0.12871135051E+04  0.12871135051E+04  0.00000000000E+00 0.  1.
        -24    2    1    2    0    0  0.31494593393E+03  0.35595392218E+03 -0.76052181741E+03  0.90036473893E+03  0.79806593346E+02 0.  0.
        254    2    1    2    0    0 -0.31494593393E+03 -0.35595392218E+03  0.90666278041E+02  0.10040067318E+04  0.87972439296E+03 0.  0.
         23    2    4    4    0    0 -0.51433812849E+03 -0.67939038384E+02 -0.17508063992E+03  0.55508692649E+03  0.91152850316E+02 0.  0.
         23    2    4    4    0    0  0.19939219456E+03 -0.28801488380E+03  0.26574691796E+03  0.44891980535E+03  0.90541408665E+02 0.  0.
          3    1    3    3  502    0 -0.44525622708E+01  0.10639412618E+02 -0.16884146902E+02  0.20447416175E+02  0.00000000000E+00 0. -1.
         -4    1    3    3    0  502  0.31939849620E+03  0.34531450956E+03 -0.74363767051E+03  0.87991732276E+03  0.00000000000E+00 0.  1.
         11    1    5    5    0    0 -0.16485348253E+03 -0.64879644174E+02 -0.63845640420E+02  0.18831437739E+03  0.00000000000E+00 0.  1.
        -11    1    5    5    0    0 -0.34948464596E+03 -0.30593942099E+01 -0.11123499950E+03  0.36677254910E+03  0.00000000000E+00 0. -1.
          1    1    6    6  503    0  0.74773077756E+02 -0.18629338406E+03  0.13993820270E+03  0.24470173411E+03  0.00000000000E+00 0. -1.
         -1    1    6    6    0  503  0.12461911681E+03 -0.10172149974E+03  0.12580871527E+03  0.20421807124E+03  0.00000000000E+00 0.  1.
<mgrwt>
<rscale>  0 0.17826733E+04</rscale>
<asrwt>0</asrwt>
<pdfrwt beam="1">  1        1 0.94962766E-01 0.17826733E+04</pdfrwt>
<pdfrwt beam="2">  1       -2 0.19801746E+00 0.17826733E+04</pdfrwt>
<totfact> 0.37235689E+00</totfact>
</mgrwt>
</event>
<event>
12    4  0.4381187E-008  0.1192765E+04  0.7818608E-02  0.9119213E-01
          1   -1    0    0  501    0  0.00000000000E+00  0.00000000000E+00  0.89319961596E+03  0.89319961596E+03  0.00000000000E+00 0. -1.
         -2   -1    0    0    0  501 -0.00000000000E+00 -0.00000000000E+00 -0.39819970104E+03  0.39819970104E+03  0.00000000000E+00 0.  1.
        -24    2    1    2    0    0  0.18855690917E+01  0.81173178760E+02 -0.13836442574E+03  0.17986521094E+03  0.81327359942E+02 0.  0.
        254    2    1    2    0    0 -0.18855690917E+01 -0.81173178760E+02  0.63336434066E+03  0.11115341061E+04  0.90981593776E+03 0.  0.
         23    2    4    4    0    0  0.15807834374E+03  0.29710384212E+03 -0.32697506967E+01  0.34873933732E+03  0.91372744083E+02 0.  0.
         23    2    4    4    0    0 -0.15996391283E+03 -0.37827702088E+03  0.63663409136E+03  0.76279476874E+03  0.88718290109E+02 0.  0.
          1    1    3    3  502    0  0.39905738979E+02  0.43015274527E+02 -0.53827574058E+02  0.79625307378E+02  0.00000000000E+00 0. -1.
         -2    1    3    3    0  502 -0.38020169887E+02  0.38157904233E+02 -0.84536851685E+02  0.10023990356E+03  0.00000000000E+00 0.  1.
         11    1    5    5    0    0  0.31710950100E+02  0.11458334730E+02  0.12580508483E+02  0.35988150616E+02  0.00000000000E+00 0. -1.
        -11    1    5    5    0    0  0.12636739364E+03  0.28564550739E+03 -0.15850259180E+02  0.31275118671E+03  0.00000000000E+00 0.  1.
          4    1    6    6  503    0 -0.49621101927E+00 -0.77333896158E+02  0.15077772443E+03  0.16945412331E+03  0.00000000000E+00 0. -1.
         -4    1    6    6    0  503 -0.15946770182E+03 -0.30094312473E+03  0.48585636693E+03  0.59334064544E+03  0.00000000000E+00 0.  1.
<mgrwt>
<rscale>  0 0.11927646E+04</rscale>
<asrwt>0</asrwt>
<pdfrwt beam="1">  1        1 0.13741533E+00 0.11927646E+04</pdfrwt>
<pdfrwt beam="2">  1       -2 0.61261493E-01 0.11927646E+04</pdfrwt>
<totfact> 0.39646261E+01</totfact>
</mgrwt>
</event>
<event>
12    4  0.4381187E-008  0.2035977E+04  0.7818608E-02  0.8589983E-01
         -2   -1    0    0    0  501 -0.00000000000E+00  0.00000000000E+00  0.74867395204E+03  0.74867395204E+03  0.00000000000E+00 0.  1.
          1   -1    0    0  501    0  0.00000000000E+00 -0.00000000000E+00 -0.13841812324E+04  0.13841812324E+04  0.00000000000E+00 0. -1.
        -24    2    1    2    0    0 -0.56593662884E+03  0.28431392987E+03  0.28446489121E+03  0.69901454887E+03  0.81131908784E+02 0.  0.
        254    2    1    2    0    0  0.56593662884E+03 -0.28431392987E+03 -0.91997217160E+03  0.14338406356E+04  0.89912818507E+03 0.  0.
         23    2    4    4    0    0  0.23817026003E+03  0.16271580991E+02 -0.94502089849E+03  0.97894615457E+03  0.91001306799E+02 0.  0.
         23    2    4    4    0    0  0.32776636881E+03 -0.30058551086E+03  0.25048726894E+02  0.45489448103E+03  0.92299015629E+02 0.  0.
          3    1    3    3  502    0 -0.12593232758E+03  0.28608464603E+02  0.68408562306E+02  0.14614077725E+03  0.00000000000E+00 0. -1.
         -4    1    3    3    0  502 -0.44000430126E+03  0.25570546527E+03  0.21605632890E+03  0.55287377163E+03  0.00000000000E+00 0.  1.
         11    1    5    5    0    0  0.19763150261E+03 -0.11274921310E+02 -0.63696186056E+03  0.66701255347E+03  0.00000000000E+00 0. -1.
        -11    1    5    5    0    0  0.40538757420E+02  0.27546502301E+02 -0.30805903793E+03  0.31193360110E+03  0.00000000000E+00 0.  1.
          2    1    6    6  503    0  0.79362247339E+02 -0.75254468883E+02  0.46471253181E+02  0.11883256608E+03  0.00000000000E+00 0.  1.
         -2    1    6    6    0  503  0.24840412147E+03 -0.22533104198E+03 -0.21422526287E+02  0.33606191495E+03  0.00000000000E+00 0. -1.
<mgrwt>
<rscale>  0 0.20359769E+04</rscale>
<asrwt>0</asrwt>
<pdfrwt beam="1">  1        1 0.21295095E+00 0.20359769E+04</pdfrwt>
<pdfrwt beam="2">  1       -2 0.11518061E+00 0.20359769E+04</pdfrwt>
<totfact> 0.37577159E+00</totfact>
</mgrwt>
</event>
<event>
12    4  0.4381187E-008  0.1982739E+04  0.7818608E-02  0.8614734E-01
         -2   -1    0    0    0  501 -0.00000000000E+00  0.00000000000E+00  0.89949419002E+03  0.89949419002E+03  0.00000000000E+00 0.  1.
          1   -1    0    0  501    0  0.00000000000E+00 -0.00000000000E+00 -0.10926285638E+04  0.10926285638E+04  0.00000000000E+00 0. -1.
        -24    2    1    2    0    0 -0.51625559509E+03 -0.20203361365E+03  0.47384396015E+03  0.73365453092E+03  0.79896506023E+02 0.  0.
        254    2    1    2    0    0  0.51625559509E+03  0.20203361365E+03 -0.66697833397E+03  0.12584682229E+04  0.91189075533E+03 0.  0.
         23    2    4    4    0    0  0.58952554443E+03  0.43110617565E+03 -0.68026915377E+03  0.10022760586E+04  0.91642096894E+02 0.  0.
         23    2    4    4    0    0 -0.73269949339E+02 -0.22907256201E+03  0.13290819801E+02  0.25619216431E+03  0.87264282621E+02 0.  0.
          3    1    3    3  502    0 -0.37253506524E+03 -0.11420272965E+03  0.35880408169E+03  0.52968387490E+03  0.00000000000E+00 0. -1.
         -4    1    3    3    0  502 -0.14372052985E+03 -0.87830883994E+02  0.11503987846E+03  0.20397065603E+03  0.00000000000E+00 0.  1.
         11    1    5    5    0    0  0.54345194287E+03  0.38193054624E+03 -0.58210824589E+03  0.88321060133E+03  0.00000000000E+00 0. -1.
        -11    1    5    5    0    0  0.46073601556E+02  0.49175629409E+02 -0.98160907874E+02  0.11906545730E+03  0.00000000000E+00 0.  1.
          2    1    6    6  503    0 -0.73495428359E+02 -0.14100609995E+03 -0.23522391709E+02  0.16074078861E+03  0.00000000000E+00 0. -1.
         -2    1    6    6    0  503  0.22547902080E+00 -0.88066462060E+02  0.36813211510E+02  0.95451375696E+02  0.00000000000E+00 0.  1.
<mgrwt>
<rscale>  0 0.19827386E+04</rscale>
<asrwt>0</asrwt>
<pdfrwt beam="1">  1        1 0.16809670E+00 0.19827386E+04</pdfrwt>
<pdfrwt beam="2">  1       -2 0.13838372E+00 0.19827386E+04</pdfrwt>
<totfact> 0.38725545E+00</totfact>
</mgrwt>
</event>
<event>
12    4  0.4381187E-008  0.1621155E+04  0.7818608E-02  0.8807656E-01
         -2   -1    0    0    0  501 -0.00000000000E+00  0.00000000000E+00  0.25205325407E+03  0.25205325407E+03  0.00000000000E+00 0.  1.
          1   -1    0    0  501    0  0.00000000000E+00 -0.00000000000E+00 -0.26067351762E+04  0.26067351762E+04  0.00000000000E+00 0. -1.
        -24    2    1    2    0    0  0.39262239550E+03 -0.31486721258E+03 -0.13178423170E+04  0.14132845241E+04  0.85854915103E+02 0.  0.
        254    2    1    2    0    0 -0.39262239550E+03  0.31486721258E+03 -0.10368396051E+04  0.14455039062E+04  0.87243995157E+03 0.  0.
         23    2    4    4    0    0  0.25897033084E+03  0.11867022285E+03 -0.18386980974E+03  0.35105695297E+03  0.91019905748E+02 0.  0.
         23    2    4    4    0    0 -0.65159272634E+03  0.19619698973E+03 -0.85296979535E+03  0.10944469532E+04  0.84795765422E+02 0.  0.
          1    1    3    3  502    0  0.38803162226E+03 -0.29073023877E+03 -0.12314317876E+04  0.13234488502E+04  0.00000000000E+00 0. -1.
         -2    1    3    3    0  502  0.45907732329E+01 -0.24136973805E+02 -0.86410529392E+02  0.89835673833E+02  0.00000000000E+00 0.  1.
         11    1    5    5    0    0  0.17632126861E+03  0.11993109714E+03 -0.15452040575E+03  0.26334238858E+03  0.00000000000E+00 0. -1.
        -11    1    5    5    0    0  0.82649062232E+02 -0.12608742911E+01 -0.29349403991E+02  0.87714564392E+02  0.00000000000E+00 0.  1.
          1    1    6    6  503    0 -0.11735156226E+03  0.15294159818E+02 -0.10947923226E+03  0.16121725338E+03  0.00000000000E+00 0. -1.
         -1    1    6    6    0  503 -0.53424116408E+03  0.18090282991E+03 -0.74349056309E+03  0.93322969984E+03  0.00000000000E+00 0.  1.
<mgrwt>
<rscale>  0 0.16211552E+04</rscale>
<asrwt>0</asrwt>
<pdfrwt beam="1">  1        1 0.40103619E+00 0.16211552E+04</pdfrwt>
<pdfrwt beam="2">  1       -2 0.38777423E-01 0.16211552E+04</pdfrwt>
<totfact> 0.60479902E+00</totfact>
</mgrwt>
</event>
<event>
12    4  0.4381187E-008  0.2222318E+04  0.7818608E-02  0.8509196E-01
          1   -1    0    0  501    0  0.00000000000E+00  0.00000000000E+00  0.27091303648E+04  0.27091303648E+04  0.00000000000E+00 0. -1.
         -2   -1    0    0    0  501 -0.00000000000E+00 -0.00000000000E+00 -0.45574567641E+03  0.45574567641E+03  0.00000000000E+00 0.  1.
        -24    2    1    2    0    0  0.78632993079E+03  0.42669169749E+03  0.12989166058E+04  0.15793042505E+04  0.81467797444E+02 0.  0.
        254    2    1    2    0    0 -0.78632993079E+03 -0.42669169749E+03  0.95446808256E+03  0.15855717907E+04  0.89590625518E+03 0.  0.
         23    2    4    4    0    0  0.68083333232E+02 -0.46291181369E+02 -0.11091218313E+03  0.16510514562E+03  0.90443258499E+02 0.  0.
         23    2    4    4    0    0 -0.85441326402E+03 -0.38040051612E+03  0.10653802657E+04  0.14204666451E+04  0.89240130333E+02 0.  0.
          3    1    3    3  502    0  0.57440552416E+03  0.27951493665E+03  0.96587587185E+03  0.11580097175E+04  0.00000000000E+00 0. -1.
         -4    1    3    3    0  502  0.21192440663E+03  0.14717676084E+03  0.33304073395E+03  0.42129453299E+03  0.00000000000E+00 0.  1.
         11    1    5    5    0    0  0.71427844720E+02 -0.63041359741E+02 -0.11310814837E+03  0.14788374917E+03  0.00000000000E+00 0. -1.
        -11    1    5    5    0    0 -0.33445114876E+01  0.16750178372E+02  0.21959652423E+01  0.17221396457E+02  0.00000000000E+00 0.  1.
          3    1    6    6  503    0 -0.80688915581E+03 -0.34947569951E+03  0.96779473054E+03  0.13076046860E+04  0.00000000000E+00 0. -1.
         -3    1    6    6    0  503 -0.47524108216E+02 -0.30924816613E+02  0.97585535146E+02  0.11286195911E+03  0.00000000000E+00 0.  1.
<mgrwt>
<rscale>  0 0.22223181E+04</rscale>
<asrwt>0</asrwt>
<pdfrwt beam="1">  1        1 0.41678928E+00 0.22223181E+04</pdfrwt>
<pdfrwt beam="2">  1       -2 0.70114721E-01 0.22223181E+04</pdfrwt>
<totfact> 0.14325900E+00</totfact>
</mgrwt>
</event>
<event>
12    4  0.4381187E-008  0.1158218E+04  0.7818608E-02  0.9150236E-01
         -2   -1    0    0    0  501 -0.00000000000E+00  0.00000000000E+00  0.65761619992E+03  0.65761619992E+03  0.00000000000E+00 0.  1.
          1   -1    0    0  501    0  0.00000000000E+00 -0.00000000000E+00 -0.50997393736E+03  0.50997393736E+03  0.00000000000E+00 0. -1.
        -24    2    1    2    0    0 -0.88095271506E+02  0.19861222673E+03  0.71988259903E+02  0.24238042002E+03  0.79739356512E+02 0.  0.
        254    2    1    2    0    0  0.88095271506E+02 -0.19861222673E+03  0.75654002651E+02  0.92520971726E+03  0.89614836903E+03 0.  0.
         23    2    4    4    0    0  0.36293106760E+02  0.20780380929E+03 -0.28899502106E+03  0.36919387237E+03  0.91029558084E+02 0.  0.
         23    2    4    4    0    0  0.51802164745E+02 -0.40641603602E+03  0.36464902371E+03  0.55601584489E+03  0.91253770711E+02 0.  0.
          3    1    3    3  502    0 -0.41006909699E+02  0.13603036399E+03  0.98722337334E+01  0.14241940728E+03  0.00000000000E+00 0. -1.
         -4    1    3    3    0  502 -0.47088361806E+02  0.62581862744E+02  0.62116026170E+02  0.99961012746E+02  0.00000000000E+00 0.  1.
         11    1    5    5    0    0  0.51045206121E-01  0.13215720163E+03 -0.23446857565E+03  0.26914873493E+03  0.00000000000E+00 0. -1.
        -11    1    5    5    0    0  0.36242061554E+02  0.75646607654E+02 -0.54526445407E+02  0.10004513743E+03  0.00000000000E+00 0.  1.
          3    1    6    6  503    0  0.48284045701E+02 -0.90489322206E+02  0.10823843414E+03  0.14911480519E+03  0.00000000000E+00 0. -1.
         -3    1    6    6    0  503  0.35181190442E+01 -0.31592671382E+03  0.25641058957E+03  0.40690103970E+03  0.00000000000E+00 0.  1.
<mgrwt>
<rscale>  0 0.11582178E+04</rscale>
<asrwt>0</asrwt>
<pdfrwt beam="1">  1        1 0.78457529E-01 0.11582178E+04</pdfrwt>
<pdfrwt beam="2">  1       -2 0.10117172E+00 0.11582178E+04</pdfrwt>
<totfact> 0.30081082E+01</totfact>
</mgrwt>
</event>
<event>
12    4  0.4381187E-008  0.3546623E+04  0.7818608E-02  0.8102829E-01
         -2   -1    0    0    0  501 -0.00000000000E+00  0.00000000000E+00  0.27681306309E+04  0.27681306309E+04  0.00000000000E+00 0.  1.
          1   -1    0    0  501    0  0.00000000000E+00 -0.00000000000E+00 -0.11360134523E+04  0.11360134523E+04  0.00000000000E+00 0. -1.
        -24    2    1    2    0    0 -0.14205567993E+04  0.61314993382E+03  0.11795645081E+03  0.15538679227E+04  0.81592496980E+02 0.  0.
        254    2    1    2    0    0  0.14205567993E+04 -0.61314993382E+03  0.15141607278E+04  0.23502761604E+04  0.91497587918E+03 0.  0.
         23    2    4    4    0    0  0.12082841440E+04 -0.82115146882E+02  0.10963480764E+04  0.16361825065E+04  0.91763936519E+02 0.  0.
         23    2    4    4    0    0  0.21227265530E+03 -0.53103478693E+03  0.41781265140E+03  0.71409365395E+03  0.91130180606E+02 0.  0.
          3    1    3    3  502    0 -0.12107274316E+04  0.53362660883E+03  0.12774103225E+03  0.13292614651E+04  0.00000000000E+00 0. -1.
         -4    1    3    3    0  502 -0.20982936766E+03  0.79523324989E+02 -0.97845814446E+01  0.22460645758E+03  0.00000000000E+00 0.  1.
         11    1    5    5    0    0  0.10542797905E+04 -0.82190962615E+02  0.91613853912E+03  0.13991322503E+04  0.00000000000E+00 0. -1.
        -11    1    5    5    0    0  0.15400435344E+03  0.75815733713E-01  0.18020953724E+03  0.23705025615E+03  0.00000000000E+00 0.  1.
          1    1    6    6  503    0 -0.40394377415E+01 -0.52186508065E+02  0.52540608993E+02  0.74163766589E+02  0.00000000000E+00 0. -1.
         -1    1    6    6    0  503  0.21631209305E+03 -0.47884827887E+03  0.36527204241E+03  0.63992988736E+03  0.00000000000E+00 0.  1.
<mgrwt>
<rscale>  0 0.35466230E+04</rscale>
<asrwt>0</asrwt>
<pdfrwt beam="1">  1        1 0.17477130E+00 0.35466230E+04</pdfrwt>
<pdfrwt beam="2">  1       -2 0.42586625E+00 0.35466230E+04</pdfrwt>
<totfact> 0.42574746E-02</totfact>
</mgrwt>
</event>
<event>
12    4  0.4381187E-008  0.2984529E+04  0.7818608E-02  0.8248163E-01
          1   -1    0    0  501    0  0.00000000000E+00  0.00000000000E+00  0.23517409306E+04  0.23517409306E+04  0.00000000000E+00 0. -1.
         -2   -1    0    0    0  501 -0.00000000000E+00 -0.00000000000E+00 -0.94689573685E+03  0.94689573685E+03  0.00000000000E+00 0.  1.
        -24    2    1    2    0    0  0.85721505285E+02  0.45244525289E+02  0.21339622666E+04  0.21376607406E+04  0.80020266702E+02 0.  0.
        254    2    1    2    0    0 -0.85721505285E+02 -0.45244525289E+02 -0.72911707279E+03  0.11609759269E+04  0.89825283384E+03 0.  0.
         23    2    4    4    0    0  0.35786301440E+03  0.16126937108E+03 -0.28191237674E+03  0.49164308271E+03  0.90358095907E+02 0.  0.
         23    2    4    4    0    0 -0.44358451969E+03 -0.20651389637E+03 -0.44720469605E+03  0.66933284420E+03  0.92731875086E+02 0.  0.
          1    1    3    3  502    0  0.85734401305E+02  0.24673200369E+02  0.20119081426E+04  0.20138851826E+04  0.00000000000E+00 0. -1.
         -2    1    3    3    0  502 -0.12896020623E-01  0.20571324920E+02  0.12205412395E+03  0.12377555796E+03  0.00000000000E+00 0.  1.
         11    1    5    5    0    0  0.19219913411E+03  0.48954154764E+02 -0.10448662121E+03  0.22417508879E+03  0.00000000000E+00 0. -1.
        -11    1    5    5    0    0  0.16566388029E+03  0.11231521632E+03 -0.17742575553E+03  0.26746799393E+03  0.00000000000E+00 0.  1.
          2    1    6    6  503    0 -0.28953235622E+03 -0.14637186695E+03 -0.35117470339E+03  0.47809766893E+03  0.00000000000E+00 0. -1.
         -2    1    6    6    0  503 -0.15405216347E+03 -0.60142029421E+02 -0.96029992662E+02  0.19123517528E+03  0.00000000000E+00 0.  1.
<mgrwt>
<rscale>  0 0.29845291E+04</rscale>
<asrwt>0</asrwt>
<pdfrwt beam="1">  1        1 0.36180629E+00 0.29845291E+04</pdfrwt>
<pdfrwt beam="2">  1       -2 0.14567627E+00 0.29845291E+04</pdfrwt>
<totfact> 0.41602474E-01</totfact>
</mgrwt>
</event>
<event>
12    4  0.4381187E-008  0.1626770E+04  0.7818608E-02  0.8804269E-01
         -2   -1    0    0    0  501 -0.00000000000E+00  0.00000000000E+00  0.10071714642E+04  0.10071714642E+04  0.00000000000E+00 0.  1.
          1   -1    0    0  501    0  0.00000000000E+00 -0.00000000000E+00 -0.65688441287E+03  0.65688441287E+03  0.00000000000E+00 0. -1.
        -24    2    1    2    0    0 -0.18023472543E+03  0.29985496405E+03 -0.26445776645E+03  0.44595456668E+03  0.80870325808E+02 0.  0.
        254    2    1    2    0    0  0.18023472543E+03 -0.29985496405E+03  0.61474481779E+03  0.12181013104E+04  0.99169655424E+03 0.  0.
         23    2    4    4    0    0 -0.32954151523E+03  0.10177476972E+03  0.63764066938E+02  0.36253846916E+03  0.91720070705E+02 0.  0.
         23    2    4    4    0    0  0.50977624067E+03 -0.40162973377E+03  0.55098075086E+03  0.85556284125E+03  0.85027812600E+02 0.  0.
          1    1    3    3  502    0 -0.48480660657E+02  0.99473603881E+02 -0.40535744113E+02  0.11784956036E+03  0.00000000000E+00 0. -1.
         -2    1    3    3    0  502 -0.13175406478E+03  0.20038136016E+03 -0.22392202233E+03  0.32810500632E+03  0.00000000000E+00 0.  1.
         11    1    5    5    0    0 -0.16382976823E+03  0.79485998855E+02  0.70334529099E+02  0.19520543782E+03  0.00000000000E+00 0. -1.
        -11    1    5    5    0    0 -0.16571174700E+03  0.22288770870E+02 -0.65704621606E+01  0.16733303133E+03  0.00000000000E+00 0.  1.
          2    1    6    6  503    0  0.49997965115E+03 -0.37241210574E+03  0.51952247077E+03  0.81152573940E+03  0.00000000000E+00 0. -1.
         -2    1    6    6    0  503  0.97965895182E+01 -0.29217628026E+02  0.31458280082E+02  0.44037101850E+02  0.00000000000E+00 0.  1.
<mgrwt>
<rscale>  0 0.16267701E+04</rscale>
<asrwt>0</asrwt>
<pdfrwt beam="1">  1        1 0.10105914E+00 0.16267701E+04</pdfrwt>
<pdfrwt beam="2">  1       -2 0.15494946E+00 0.16267701E+04</pdfrwt>
<totfact> 0.69004836E+00</totfact>
</mgrwt>
</event>
<event>
12    4  0.4381187E-008  0.2059629E+04  0.7818608E-02  0.8579239E-01
          1   -1    0    0  501    0  0.00000000000E+00  0.00000000000E+00  0.11595243325E+04  0.11595243325E+04  0.00000000000E+00 0. -1.
         -2   -1    0    0    0  501 -0.00000000000E+00 -0.00000000000E+00 -0.91461424296E+03  0.91461424296E+03  0.00000000000E+00 0.  1.
        -24    2    1    2    0    0 -0.80869353982E+03 -0.15067463027E+03  0.72937733914E+01  0.82643907306E+03  0.79121784589E+02 0.  0.
        254    2    1    2    0    0  0.80869353982E+03  0.15067463027E+03  0.23761631616E+03  0.12476995024E+04  0.90752655557E+03 0.  0.
         23    2    4    4    0    0  0.10488917845E+03 -0.30057235338E+03 -0.90576146304E+02  0.34485840431E+03  0.96839048816E+02 0.  0.
         23    2    4    4    0    0  0.70380436137E+03  0.45124698364E+03  0.32819246247E+03  0.90284109811E+03  0.91909393858E+02 0.  0.
          3    1    3    3  502    0 -0.62300917508E+03 -0.11351774050E+03  0.38871904605E+02  0.63445861536E+03  0.00000000000E+00 0. -1.
         -4    1    3    3    0  502 -0.18568436475E+03 -0.37156889763E+02 -0.31578131214E+02  0.19198045770E+03  0.00000000000E+00 0.  1.
         11    1    5    5    0    0  0.96728755339E+02 -0.18388321463E+03 -0.93514372950E+02  0.22784737585E+03  0.00000000000E+00 0. -1.
        -11    1    5    5    0    0  0.81604231105E+01 -0.11668913875E+03  0.29382266465E+01  0.11701102846E+03  0.00000000000E+00 0.  1.
          2    1    6    6  503    0  0.68819218384E+03  0.43852261027E+03  0.33421061294E+03  0.88182044397E+03  0.00000000000E+00 0. -1.
         -2    1    6    6    0  503  0.15612177537E+02  0.12724373374E+02 -0.60181504693E+01  0.21020654136E+02  0.00000000000E+00 0.  1.
<mgrwt>
<rscale>  0 0.20596286E+04</rscale>
<asrwt>0</asrwt>
<pdfrwt beam="1">  1        1 0.17838836E+00 0.20596286E+04</pdfrwt>
<pdfrwt beam="2">  1       -2 0.14070988E+00 0.20596286E+04</pdfrwt>
<totfact> 0.32838389E+00</totfact>
</mgrwt>
</event>
<event>
12    4  0.4381187E-008  0.3200905E+04  0.7818608E-02  0.8188578E-01
         -2   -1    0    0    0  501 -0.00000000000E+00  0.00000000000E+00  0.16003453014E+04  0.16003453014E+04  0.00000000000E+00 0.  1.
          1   -1    0    0  501    0  0.00000000000E+00 -0.00000000000E+00 -0.16005595431E+04  0.16005595431E+04  0.00000000000E+00 0. -1.
        -24    2    1    2    0    0 -0.55180472998E+03 -0.67505143964E+03  0.11918906653E+04  0.14790340630E+04  0.82191819879E+02 0.  0.
        254    2    1    2    0    0  0.55180472998E+03  0.67505143964E+03 -0.11921049071E+04  0.17218707815E+04  0.88517906233E+03 0.  0.
         23    2    4    4    0    0 -0.95673823789E+02 -0.13107878991E+03 -0.87387985034E+02  0.20603550280E+03  0.92080610133E+02 0.  0.
         23    2    4    4    0    0  0.64747855377E+03  0.80613022955E+03 -0.11047169221E+04  0.15158352787E+04  0.91009283093E+02 0.  0.
          1    1    3    3  502    0 -0.63711154329E+02 -0.68557543007E+02  0.89752593535E+02  0.12967180085E+03  0.00000000000E+00 0. -1.
         -2    1    3    3    0  502 -0.48809357565E+03 -0.60649389663E+03  0.11021380718E+04  0.13493622622E+04  0.00000000000E+00 0.  1.
         11    1    5    5    0    0 -0.28491232219E+02 -0.10491003359E+02 -0.57162933859E+02  0.64725670890E+02  0.00000000000E+00 0.  1.
        -11    1    5    5    0    0 -0.67182591570E+02 -0.12058778655E+03 -0.30225051175E+02  0.14130983191E+03  0.00000000000E+00 0. -1.
          1    1    6    6  503    0  0.60379403419E+03  0.71512244505E+03 -0.97572990185E+03  0.13520414892E+04  0.00000000000E+00 0. -1.
         -1    1    6    6    0  503  0.43684519580E+02  0.91007784495E+02 -0.12898702021E+03  0.16379378948E+03  0.00000000000E+00 0.  1.
<mgrwt>
<rscale>  0 0.32009048E+04</rscale>
<asrwt>0</asrwt>
<pdfrwt beam="1">  1        1 0.24623993E+00 0.32009048E+04</pdfrwt>
<pdfrwt beam="2">  1       -2 0.24620697E+00 0.32009048E+04</pdfrwt>
<totfact> 0.27787592E-01</totfact>
</mgrwt>
</event>
<event>
12    4  0.4381187E-008  0.1367398E+04  0.7818608E-02  0.8977762E-01
         -2   -1    0    0    0  501 -0.00000000000E+00  0.00000000000E+00  0.20220952073E+03  0.20220952073E+03  0.00000000000E+00 0.  1.
          1   -1    0    0  501    0  0.00000000000E+00 -0.00000000000E+00 -0.23116815502E+04  0.23116815502E+04  0.00000000000E+00 0. -1.
        -24    2    1    2    0    0 -0.85486080406E+02 -0.18466117697E+03 -0.18842464751E+02  0.21959779403E+03  0.80377437392E+02 0.  0.
        254    2    1    2    0    0  0.85486080406E+02  0.18466117697E+03 -0.20906295647E+04  0.22942932769E+04  0.92284453911E+03 0.  0.
         23    2    4    4    0    0 -0.14336928938E+03 -0.17430986550E+03 -0.10979404174E+03  0.26629000144E+03  0.88977249432E+02 0.  0.
         23    2    4    4    0    0  0.22885536978E+03  0.35897104247E+03 -0.19808355230E+04  0.20280032755E+04  0.88616739989E+02 0.  0.
          3    1    3    3  502    0 -0.63764904851E+02 -0.84615756017E+02 -0.43107000994E+02  0.11438532595E+03  0.00000000000E+00 0. -1.
         -4    1    3    3    0  502 -0.21721175554E+02 -0.10004542095E+03  0.24264536243E+02  0.10521246808E+03  0.00000000000E+00 0.  1.
         11    1    5    5    0    0 -0.52358861564E+02 -0.64534308968E+02 -0.89710241433E+02  0.12228677294E+03  0.00000000000E+00 0. -1.
        -11    1    5    5    0    0 -0.91010427811E+02 -0.10977555654E+03 -0.20083800308E+02  0.14400322850E+03  0.00000000000E+00 0.  1.
          1    1    6    6  503    0  0.71438094949E+02  0.97350435789E+02 -0.39508477986E+03  0.41312527402E+03  0.00000000000E+00 0. -1.
         -1    1    6    6    0  503  0.15741727483E+03  0.26162060668E+03 -0.15857507431E+04  0.16148780014E+04  0.00000000000E+00 0.  1.
<mgrwt>
<rscale>  0 0.13673976E+04</rscale>
<asrwt>0</asrwt>
<pdfrwt beam="1">  1        1 0.35564333E+00 0.13673976E+04</pdfrwt>
<pdfrwt beam="2">  1       -2 0.31109156E-01 0.13673976E+04</pdfrwt>
<totfact> 0.15061797E+01</totfact>
</mgrwt>
</event>
<event>
12    4  0.4381187E-008  0.2737427E+04  0.7818608E-02  0.8322962E-01
         -2   -1    0    0    0  501 -0.00000000000E+00  0.00000000000E+00  0.41581555412E+03  0.41581555412E+03  0.00000000000E+00 0.  1.
          1   -1    0    0  501    0  0.00000000000E+00 -0.00000000000E+00 -0.45053070083E+04  0.45053070083E+04  0.00000000000E+00 0. -1.
        -24    2    1    2    0    0 -0.40183971690E+01  0.74377518652E+03 -0.85295839733E+02  0.75280974660E+03  0.78926919985E+02 0.  0.
        254    2    1    2    0    0  0.40183971690E+01 -0.74377518652E+03 -0.40041956145E+04  0.41683128159E+04  0.88771140368E+03 0.  0.
         23    2    4    4    0    0  0.38125427109E+03 -0.59363895570E+03 -0.29592061942E+04  0.30435190613E+04  0.91350684654E+02 0.  0.
         23    2    4    4    0    0 -0.37723587393E+03 -0.15013623083E+03 -0.10449894203E+04  0.11247937546E+04  0.91160898828E+02 0.  0.
          1    1    3    3  502    0  0.34292367789E+02  0.37429914466E+03 -0.58445901699E+02  0.38038367421E+03  0.00000000000E+00 0. -1.
         -2    1    3    3    0  502 -0.38310764958E+02  0.36947604187E+03 -0.26849938034E+02  0.37242607239E+03  0.00000000000E+00 0.  1.
         11    1    5    5    0    0  0.22102037159E+03 -0.38876475446E+03 -0.20242556005E+04  0.20730650678E+04  0.00000000000E+00 0. -1.
        -11    1    5    5    0    0  0.16023389950E+03 -0.20487420124E+03 -0.93495059366E+03  0.97045399348E+03  0.00000000000E+00 0.  1.
          1    1    6    6  503    0 -0.33225370537E+03 -0.13958359115E+03 -0.82945287739E+03  0.90436064678E+03  0.00000000000E+00 0. -1.
         -1    1    6    6    0  503 -0.44982168557E+02 -0.10552639679E+02 -0.21553654289E+03  0.22043310780E+03  0.00000000000E+00 0.  1.
<mgrwt>
<rscale>  0 0.27374271E+04</rscale>
<asrwt>0</asrwt>
<pdfrwt beam="1">  1        1 0.69312414E+00 0.27374271E+04</pdfrwt>
<pdfrwt beam="2">  1       -2 0.63971625E-01 0.27374271E+04</pdfrwt>
<totfact> 0.55141280E-02</totfact>
</mgrwt>
</event>
<event>
12    4  0.4381187E-008  0.2351120E+04  0.7818608E-02  0.8458033E-01
          1   -1    0    0  501    0  0.00000000000E+00  0.00000000000E+00  0.34624625741E+03  0.34624625741E+03  0.00000000000E+00 0. -1.
         -2   -1    0    0    0  501 -0.00000000000E+00 -0.00000000000E+00 -0.39912108048E+04  0.39912108048E+04  0.00000000000E+00 0.  1.
        -24    2    1    2    0    0  0.53783632541E+02 -0.50376986414E+03  0.36141485269E+02  0.51460519421E+03  0.82677347576E+02 0.  0.
        254    2    1    2    0    0 -0.53783632541E+02  0.50376986414E+03 -0.36811060327E+04  0.38228518680E+04  0.89831955668E+03 0.  0.
         23    2    4    4    0    0  0.20186545460E+03  0.67491009417E+03 -0.25413356535E+04  0.26387600775E+04  0.91730833777E+02 0.  0.
         23    2    4    4    0    0 -0.25564908715E+03 -0.17114023003E+03 -0.11397703792E+04  0.11840917906E+04  0.91386087849E+02 0.  0.
          1    1    3    3  502    0  0.76955843116E+01 -0.29090806481E+03  0.54386218650E+02  0.29604828149E+03  0.00000000000E+00 0. -1.
         -2    1    3    3    0  502  0.46088048230E+02 -0.21286179933E+03 -0.18244733381E+02  0.21855691272E+03  0.00000000000E+00 0.  1.
         11    1    5    5    0    0  0.33527325726E+02  0.17241980331E+03 -0.77414483046E+03  0.79382169829E+03  0.00000000000E+00 0. -1.
        -11    1    5    5    0    0  0.16833812888E+03  0.50249029086E+03 -0.17671908230E+04  0.18449383792E+04  0.00000000000E+00 0.  1.
          3    1    6    6  503    0 -0.56021931231E+02 -0.62759886230E+02 -0.19453380385E+03  0.21194494790E+03  0.00000000000E+00 0. -1.
         -3    1    6    6    0  503 -0.19962715591E+03 -0.10838034380E+03 -0.94523657539E+03  0.97214684269E+03  0.00000000000E+00 0.  1.
<mgrwt>
<rscale>  0 0.23511204E+04</rscale>
<asrwt>0</asrwt>
<pdfrwt beam="1">  1        1 0.53268652E-01 0.23511204E+04</pdfrwt>
<pdfrwt beam="2">  1       -2 0.61403247E+00 0.23511204E+04</pdfrwt>
<totfact> 0.25192428E-02</totfact>
</mgrwt>
</event>
<event>
12    4  0.4381187E-008  0.1221773E+04  0.7818608E-02  0.9094009E-01
         -2   -1    0    0    0  501 -0.00000000000E+00  0.00000000000E+00  0.14056827520E+03  0.14056827520E+03  0.00000000000E+00 0.  1.
          1   -1    0    0  501    0  0.00000000000E+00 -0.00000000000E+00 -0.26548135960E+04  0.26548135960E+04  0.00000000000E+00 0. -1.
        -24    2    1    2    0    0  0.16985774025E+03  0.13895499132E+03 -0.21465904825E+03  0.31712614795E+03  0.79563466379E+02 0.  0.
        254    2    1    2    0    0 -0.16985774025E+03 -0.13895499132E+03 -0.22995862726E+04  0.24782557233E+04  0.89749332220E+03 0.  0.
         23    2    4    4    0    0 -0.12846086917E+03 -0.27508411486E+03 -0.20105149864E+03  0.37292748432E+03  0.80496821706E+02 0.  0.
         23    2    4    4    0    0 -0.41396871087E+02  0.13612912354E+03 -0.20985347739E+04  0.21053282390E+04  0.91180903139E+02 0.  0.
          3    1    3    3  502    0 -0.59991224018E+01  0.10685087090E+02 -0.12883820654E+01  0.12321545522E+02  0.00000000000E+00 0. -1.
         -4    1    3    3    0  502  0.17585686265E+03  0.12826990423E+03 -0.21337066618E+03  0.30480460243E+03  0.00000000000E+00 0.  1.
         11    1    5    5    0    0 -0.36458010097E+02 -0.33704901483E+02 -0.76613356306E+01  0.50238460843E+02  0.00000000000E+00 0. -1.
        -11    1    5    5    0    0 -0.92002859068E+02 -0.24137921338E+03 -0.19339016301E+03  0.32268902348E+03  0.00000000000E+00 0.  1.
          2    1    6    6  503    0 -0.25437882337E+02  0.24897677345E+02 -0.10849163583E+04  0.10855001081E+04  0.00000000000E+00 0. -1.
         -2    1    6    6    0  503 -0.15958988750E+02  0.11123144619E+03 -0.10136184157E+04  0.10198281309E+04  0.00000000000E+00 0.  1.
<mgrwt>
<rscale>  0 0.12217734E+04</rscale>
<asrwt>0</asrwt>
<pdfrwt beam="1">  1        1 0.40843285E+00 0.12217734E+04</pdfrwt>
<pdfrwt beam="2">  1       -2 0.21625889E-01 0.12217734E+04</pdfrwt>
<totfact> 0.17187490E+01</totfact>
</mgrwt>
</event>
<event>
12    4  0.4381187E-008  0.1480808E+04  0.7818608E-02  0.8897317E-01
         -2   -1    0    0    0  501 -0.00000000000E+00  0.00000000000E+00  0.17558889212E+03  0.17558889212E+03  0.00000000000E+00 0.  1.
          1   -1    0    0  501    0  0.00000000000E+00 -0.00000000000E+00 -0.31220534256E+04  0.31220534256E+04  0.00000000000E+00 0. -1.
        -24    2    1    2    0    0 -0.17921483697E+03 -0.16959895435E+03 -0.18305358998E+04  0.18486611335E+04  0.76187551751E+02 0.  0.
        254    2    1    2    0    0  0.17921483697E+03  0.16959895435E+03 -0.11159286337E+04  0.14489811842E+04  0.89071207109E+03 0.  0.
         23    2    4    4    0    0 -0.34998408832E+02 -0.14308950204E+03  0.79916366423E+02  0.19116635101E+03  0.91969853322E+02 0.  0.
         23    2    4    4    0    0  0.21421324581E+03  0.31268845638E+03 -0.11958450002E+04  0.12578148332E+04  0.91605157478E+02 0.  0.
          3    1    3    3  502    0 -0.16457981389E+03 -0.16696029752E+03 -0.15397799383E+04  0.15575251248E+04  0.00000000000E+00 0. -1.
         -4    1    3    3    0  502 -0.14635023079E+02 -0.26386568272E+01 -0.29075596148E+03  0.29113600867E+03  0.00000000000E+00 0.  1.
         11    1    5    5    0    0 -0.20502219105E+01 -0.11707635430E+03  0.21217481592E+02  0.11900108265E+03  0.00000000000E+00 0.  1.
        -11    1    5    5    0    0 -0.32948186922E+02 -0.26013147737E+02  0.58698884831E+02  0.72165268357E+02  0.00000000000E+00 0. -1.
          4    1    6    6  503    0  0.11303139235E+03  0.20507005580E+03 -0.60362854734E+03  0.64745443593E+03  0.00000000000E+00 0.  1.
         -4    1    6    6    0  503  0.10118185345E+03  0.10761840058E+03 -0.59221645281E+03  0.61036039730E+03  0.00000000000E+00 0. -1.
<mgrwt>
<rscale>  0 0.14808078E+04</rscale>
<asrwt>0</asrwt>
<pdfrwt beam="1">  1        1 0.48031588E+00 0.14808078E+04</pdfrwt>
<pdfrwt beam="2">  1       -2 0.27013678E-01 0.14808078E+04</pdfrwt>
<totfact> 0.51894573E+00</totfact>
</mgrwt>
</event>
<event>
12    4  0.4381187E-008  0.1878690E+04  0.7818608E-02  0.8665537E-01
         -2   -1    0    0    0  501 -0.00000000000E+00  0.00000000000E+00  0.34573098837E+03  0.34573098837E+03  0.00000000000E+00 0.  1.
          1   -1    0    0  501    0  0.00000000000E+00 -0.00000000000E+00 -0.25521843282E+04  0.25521843282E+04  0.00000000000E+00 0. -1.
        -24    2    1    2    0    0  0.32272612258E+03  0.62871939312E+03 -0.69102835695E+03  0.99139989664E+03  0.76898240973E+02 0.  0.
        254    2    1    2    0    0 -0.32272612258E+03 -0.62871939312E+03 -0.15154249829E+04  0.19065154200E+04  0.91588642433E+03 0.  0.
         23    2    4    4    0    0 -0.55139985854E+03 -0.97983487388E+02 -0.66915047124E+03  0.87712529916E+03  0.89128387551E+02 0.  0.
         23    2    4    4    0    0  0.22867373596E+03 -0.53073590573E+03 -0.84627451168E+03  0.10293901208E+04  0.97422751823E+02 0.  0.
          1    1    3    3  502    0  0.25458498935E+02  0.91846590018E+02 -0.11899046554E+03  0.15245544318E+03  0.00000000000E+00 0. -1.
         -2    1    3    3    0  502  0.29726762364E+03  0.53687280310E+03 -0.57203789141E+03  0.83894445346E+03  0.00000000000E+00 0.  1.
         11    1    5    5    0    0 -0.43023550034E+03 -0.39856454884E+02 -0.49253405893E+03  0.65519533114E+03  0.00000000000E+00 0. -1.
        -11    1    5    5    0    0 -0.12116435820E+03 -0.58127032505E+02 -0.17661641231E+03  0.22192996802E+03  0.00000000000E+00 0.  1.
          4    1    6    6  503    0  0.14526084103E+03 -0.24343836444E+03 -0.46732607916E+03  0.54658632757E+03  0.00000000000E+00 0. -1.
         -4    1    6    6    0  503  0.83412894927E+02 -0.28729754129E+03 -0.37894843252E+03  0.48280379325E+03  0.00000000000E+00 0.  1.
<mgrwt>
<rscale>  0 0.18786902E+04</rscale>
<asrwt>0</asrwt>
<pdfrwt beam="1">  1        1 0.39264374E+00 0.18786902E+04</pdfrwt>
<pdfrwt beam="2">  1       -2 0.53189383E-01 0.18786902E+04</pdfrwt>
<totfact> 0.34221685E+00</totfact>
</mgrwt>
</event>
<event>
12    4  0.4381187E-008  0.3314518E+04  0.7818608E-02  0.8159211E-01
          1   -1    0    0  501    0  0.00000000000E+00  0.00000000000E+00  0.22968957487E+04  0.22968957487E+04  0.00000000000E+00 0. -1.
         -2   -1    0    0    0  501 -0.00000000000E+00 -0.00000000000E+00 -0.11957473656E+04  0.11957473656E+04  0.00000000000E+00 0.  1.
        -24    2    1    2    0    0 -0.42590491614E+03 -0.93123102822E+03  0.17119356111E+04  0.19964670646E+04  0.81061568912E+02 0.  0.
        254    2    1    2    0    0  0.42590491614E+03  0.93123102822E+03 -0.61078722806E+03  0.14961760496E+04  0.90382271935E+03 0.  0.
         23    2    4    4    0    0 -0.79352984599E+02  0.78469836144E+03 -0.18967739490E+03  0.81664132229E+03  0.94218472301E+02 0.  0.
         23    2    4    4    0    0  0.50525790074E+03  0.14653266678E+03 -0.42110983316E+03  0.67953472734E+03  0.87616125130E+02 0.  0.
          1    1    3    3  502    0 -0.35105127824E+03 -0.71971072351E+03  0.12828520326E+04  0.15122598530E+04  0.00000000000E+00 0. -1.
         -2    1    3    3    0  502 -0.74853637904E+02 -0.21152030472E+03  0.42908357851E+03  0.48420721160E+03  0.00000000000E+00 0.  1.
         11    1    5    5    0    0 -0.34059242444E+02  0.90242841317E+02 -0.48166710615E+01  0.96576408739E+02  0.00000000000E+00 0. -1.
        -11    1    5    5    0    0 -0.45293742155E+02  0.69445552013E+03 -0.18486072384E+03  0.72006491355E+03  0.00000000000E+00 0.  1.
          4    1    6    6  503    0  0.42299120134E+01  0.83814030251E+01  0.17079869238E+01  0.95423944397E+01  0.00000000000E+00 0. -1.
         -4    1    6    6    0  503  0.50102798873E+03  0.13815126375E+03 -0.42281782008E+03  0.66999233290E+03  0.00000000000E+00 0.  1.
<mgrwt>
<rscale>  0 0.33145178E+04</rscale>
<asrwt>0</asrwt>
<pdfrwt beam="1">  1        1 0.35336858E+00 0.33145178E+04</pdfrwt>
<pdfrwt beam="2">  1       -2 0.18396113E+00 0.33145178E+04</pdfrwt>
<totfact> 0.23215881E-01</totfact>
</mgrwt>
</event>
<event>
12    4  0.4381187E-008  0.1841548E+04  0.7818608E-02  0.8684512E-01
          1   -1    0    0  501    0  0.00000000000E+00  0.00000000000E+00  0.15769281345E+04  0.15769281345E+04  0.00000000000E+00 0. -1.
         -2   -1    0    0    0  501 -0.00000000000E+00 -0.00000000000E+00 -0.53764318486E+03  0.53764318486E+03  0.00000000000E+00 0.  1.
        -24    2    1    2    0    0  0.44886302866E+03 -0.28330597442E+03 -0.12761290584E+03  0.55185356894E+03  0.80728025957E+02 0.  0.
        254    2    1    2    0    0 -0.44886302866E+03  0.28330597442E+03  0.11668978555E+04  0.15627177505E+04  0.89369786212E+03 0.  0.
         23    2    4    4    0    0  0.15649989551E+03  0.36996812626E+03  0.55679819350E+03  0.69299110808E+03  0.94041564468E+02 0.  0.
         23    2    4    4    0    0 -0.60536292417E+03 -0.86662151836E+02  0.61009966201E+03  0.86972664238E+03  0.10113474354E+03 0.  0.
          1    1    3    3  502    0  0.70154494656E+02 -0.67254223687E+02 -0.48933694578E+02  0.10880850238E+03  0.00000000000E+00 0. -1.
         -4    1    3    3    0  502  0.37870853400E+03 -0.21605175074E+03 -0.78679211261E+02  0.44304506656E+03  0.00000000000E+00 0.  1.
         11    1    5    5    0    0  0.49209206242E+02  0.97600273591E+02  0.22743688798E+03  0.25233885431E+03  0.00000000000E+00 0. -1.
        -11    1    5    5    0    0  0.10729068927E+03  0.27236785267E+03  0.32936130552E+03  0.44065225376E+03  0.00000000000E+00 0.  1.
          4    1    6    6  503    0 -0.61531759035E+02 -0.60179366667E+00  0.25351901906E+02  0.66552524037E+02  0.00000000000E+00 0. -1.
         -4    1    6    6    0  503 -0.54383116514E+03 -0.86060358170E+02  0.58474776010E+03  0.80317411834E+03  0.00000000000E+00 0.  1.
<mgrwt>
<rscale>  0 0.18415479E+04</rscale>
<asrwt>0</asrwt>
<pdfrwt beam="1">  1        1 0.24260433E+00 0.18415479E+04</pdfrwt>
<pdfrwt beam="2">  1       -2 0.82714337E-01 0.18415479E+04</pdfrwt>
<totfact> 0.61230057E+00</totfact>
</mgrwt>
</event>
<event>
12    4  0.4381187E-008  0.1351178E+04  0.7818608E-02  0.8989937E-01
         -2   -1    0    0    0  501 -0.00000000000E+00  0.00000000000E+00  0.16990452895E+03  0.16990452895E+03  0.00000000000E+00 0.  1.
          1   -1    0    0  501    0  0.00000000000E+00 -0.00000000000E+00 -0.26863360422E+04  0.26863360422E+04  0.00000000000E+00 0. -1.
        -24    2    1    2    0    0 -0.21144551055E+03 -0.35568813528E+02 -0.66903917777E+02  0.23594865553E+03  0.72258490219E+02 0.  0.
        254    2    1    2    0    0  0.21144551055E+03  0.35568813528E+02 -0.24495275955E+04  0.26202919157E+04  0.90541147424E+03 0.  0.
         23    2    4    4    0    0  0.22927674614E+03  0.35639065867E+03 -0.20765224594E+04  0.21212932883E+04  0.91419705179E+02 0.  0.
         23    2    4    4    0    0 -0.17831235592E+02 -0.32082184514E+03 -0.37300513611E+03  0.49899862741E+03  0.81376835187E+02 0.  0.
          3    1    3    3  502    0 -0.12874092542E+03 -0.25009582189E+02 -0.34846272959E+01  0.13119393166E+03  0.00000000000E+00 0. -1.
         -4    1    3    3    0  502 -0.82704585131E+02 -0.10559231339E+02 -0.63419290481E+02  0.10475472387E+03  0.00000000000E+00 0.  1.
         11    1    5    5    0    0  0.16485484052E+03  0.29959762799E+03 -0.17816019644E+04  0.18141227678E+04  0.00000000000E+00 0. -1.
        -11    1    5    5    0    0  0.64421905624E+02  0.56793030679E+02 -0.29492049498E+03  0.30717052042E+03  0.00000000000E+00 0.  1.
          4    1    6    6  503    0  0.14994998354E+02 -0.27292988906E+03 -0.31116293961E+03  0.41417140088E+03  0.00000000000E+00 0. -1.
         -4    1    6    6    0  503 -0.32826233947E+02 -0.47891956079E+02 -0.61842196502E+02  0.84827226528E+02  0.00000000000E+00 0.  1.
<mgrwt>
<rscale>  0 0.13511782E+04</rscale>
<asrwt>0</asrwt>
<pdfrwt beam="1">  1        1 0.41328245E+00 0.13511782E+04</pdfrwt>
<pdfrwt beam="2">  1       -2 0.26139160E-01 0.13511782E+04</pdfrwt>
<totfact> 0.11470483E+01</totfact>
</mgrwt>
</event>
<event>
12    4  0.4381187E-008  0.1653935E+04  0.7818608E-02  0.8788082E-01
          1   -1    0    0  501    0  0.00000000000E+00  0.00000000000E+00  0.11227427156E+04  0.11227427156E+04  0.00000000000E+00 0. -1.
         -2   -1    0    0    0  501 -0.00000000000E+00 -0.00000000000E+00 -0.60911154959E+03  0.60911154959E+03  0.00000000000E+00 0.  1.
        -24    2    1    2    0    0  0.26107575069E+03 -0.49779492469E+03  0.31684693332E+03  0.64954321085E+03  0.74525626245E+02 0.  0.
        254    2    1    2    0    0 -0.26107575069E+03  0.49779492469E+03  0.19678423270E+03  0.10823110544E+04  0.90372166594E+03 0.  0.
         23    2    4    4    0    0  0.31071892638E+03  0.40952528218E+02  0.41653347707E+02  0.32853550661E+03  0.89315267176E+02 0.  0.
         23    2    4    4    0    0 -0.57179467707E+03  0.45684239647E+03  0.15513088500E+03  0.75377554774E+03  0.91966607878E+02 0.  0.
          1    1    3    3  502    0  0.25690324966E+03 -0.48470526005E+03  0.29274927085E+03  0.62180431359E+03  0.00000000000E+00 0. -1.
         -2    1    3    3    0  502  0.41725010260E+01 -0.13089664634E+02  0.24097662469E+02  0.27738897266E+02  0.00000000000E+00 0.  1.
         11    1    5    5    0    0 -0.21514466693E+01 -0.78227770433E+01  0.55600971186E+01  0.98356109829E+01  0.00000000000E+00 0. -1.
        -11    1    5    5    0    0  0.31287037305E+03  0.48775305262E+02  0.36093250589E+02  0.31869989562E+03  0.00000000000E+00 0.  1.
          4    1    6    6  503    0 -0.15485572595E+01 -0.22778515781E+01 -0.37300683866E+01  0.46368143769E+01  0.00000000000E+00 0. -1.
         -4    1    6    6    0  503 -0.57024611981E+03  0.45912024805E+03  0.15886095338E+03  0.74913873337E+03  0.00000000000E+00 0.  1.
<mgrwt>
<rscale>  0 0.16539354E+04</rscale>
<asrwt>0</asrwt>
<pdfrwt beam="1">  1        1 0.17272965E+00 0.16539354E+04</pdfrwt>
<pdfrwt beam="2">  1       -2 0.93709469E-01 0.16539354E+04</pdfrwt>
<totfact> 0.98262046E+00</totfact>
</mgrwt>
</event>
<event>
12    4  0.4381187E-008  0.1754557E+04  0.7818608E-02  0.8730846E-01
          3   -1    0    0  501    0  0.00000000000E+00  0.00000000000E+00  0.62089681429E+03  0.62089681429E+03  0.00000000000E+00 0. -1.
         -4   -1    0    0    0  501 -0.00000000000E+00 -0.00000000000E+00 -0.12395257920E+04  0.12395257920E+04  0.00000000000E+00 0.  1.
        -24    2    1    2    0    0  0.76820414143E+02 -0.63304645505E+03 -0.16841807043E+03  0.66447895332E+03  0.80736873065E+02 0.  0.
        254    2    1    2    0    0 -0.76820414143E+02  0.63304645505E+03 -0.45021090728E+03  0.11959436530E+04  0.90605859070E+03 0.  0.
         23    2    4    4    0    0 -0.71733498939E+02 -0.19594827444E+03  0.35205644042E+02  0.23106013750E+03  0.92778923474E+02 0.  0.
         23    2    4    4    0    0 -0.50869152037E+01  0.82899472949E+03 -0.48541655132E+03  0.96488351548E+03  0.90071260216E+02 0.  0.
          3    1    3    3  502    0  0.18621280570E+02 -0.22095143676E+03 -0.20051455143E+02  0.22263950761E+03  0.00000000000E+00 0. -1.
         -4    1    3    3    0  502  0.58199133573E+02 -0.41209501829E+03 -0.14836661529E+03  0.44183944571E+03  0.00000000000E+00 0.  1.
         11    1    5    5    0    0 -0.48747551139E+02 -0.19674381485E+03  0.42161690529E+02  0.20703154487E+03  0.00000000000E+00 0. -1.
        -11    1    5    5    0    0 -0.22985947800E+02  0.79554040852E+00 -0.69560464869E+01  0.24028592625E+02  0.00000000000E+00 0.  1.
          1    1    6    6  503    0  0.27774863992E+01  0.64248357314E+03 -0.41755840586E+03  0.76625575266E+03  0.00000000000E+00 0. -1.
         -1    1    6    6    0  503 -0.78644016029E+01  0.18651115635E+03 -0.67858145463E+02  0.19862776282E+03  0.00000000000E+00 0.  1.
<mgrwt>
<rscale>  0 0.17545571E+04</rscale>
<asrwt>0</asrwt>
<pdfrwt beam="1">  1        3 0.95522587E-01 0.17545571E+04</pdfrwt>
<pdfrwt beam="2">  1       -4 0.19069628E+00 0.17545571E+04</pdfrwt>
<totfact> 0.32015300E-01</totfact>
</mgrwt>
</event>
<event>
12    4  0.4381187E-008  0.1787622E+04  0.7818608E-02  0.8712910E-01
          1   -1    0    0  501    0  0.00000000000E+00  0.00000000000E+00  0.41237980188E+04  0.41237980188E+04  0.00000000000E+00 0. -1.
         -2   -1    0    0    0  501 -0.00000000000E+00 -0.00000000000E+00 -0.19372881268E+03  0.19372881268E+03  0.00000000000E+00 0.  1.
        -24    2    1    2    0    0 -0.39798925350E+02 -0.22894777213E+03  0.30101740462E+04  0.30202007406E+04  0.80397066502E+02 0.  0.
        254    2    1    2    0    0  0.39798925350E+02  0.22894777213E+03  0.91989515988E+03  0.12973260908E+04  0.88478632674E+03 0.  0.
         23    2    4    4    0    0 -0.41045094769E+03  0.57617035581E+02  0.43248383748E+03  0.60631778986E+03  0.93751209990E+02 0.  0.
         23    2    4    4    0    0  0.45024987304E+03  0.17133073655E+03  0.48741132240E+03  0.69100830098E+03  0.88563566826E+02 0.  0.
          1    1    3    3  502    0  0.24159075121E+02 -0.75901293939E+02  0.90065997653E+03  0.90417534840E+03  0.00000000000E+00 0. -1.
         -2    1    3    3    0  502 -0.63958000470E+02 -0.15304647819E+03  0.21095140697E+04  0.21160253922E+04  0.00000000000E+00 0.  1.
         11    1    5    5    0    0 -0.21654974005E+03  0.57235741384E+02  0.28618331615E+03  0.36341520393E+03  0.00000000000E+00 0. -1.
        -11    1    5    5    0    0 -0.19390120764E+03  0.38129419673E+00  0.14630052133E+03  0.24290258593E+03  0.00000000000E+00 0.  1.
          3    1    6    6  503    0  0.39814210860E+03  0.17984971040E+03  0.42960720654E+03  0.61271968215E+03  0.00000000000E+00 0.  1.
         -3    1    6    6    0  503  0.52107764434E+02 -0.85189738509E+01  0.57804115853E+02  0.78288618836E+02  0.00000000000E+00 0. -1.
<mgrwt>
<rscale>  0 0.17876224E+04</rscale>
<asrwt>0</asrwt>
<pdfrwt beam="1">  1        1 0.63443040E+00 0.17876224E+04</pdfrwt>
<pdfrwt beam="2">  1       -2 0.29804436E-01 0.17876224E+04</pdfrwt>
<totfact> 0.64894486E-01</totfact>
</mgrwt>
</event>
<event>
12    4  0.4381187E-008  0.2315852E+04  0.7818608E-02  0.8471697E-01
          1   -1    0    0  501    0  0.00000000000E+00  0.00000000000E+00  0.72369233669E+03  0.72369233669E+03  0.00000000000E+00 0. -1.
         -2   -1    0    0    0  501 -0.00000000000E+00 -0.00000000000E+00 -0.18527111100E+04  0.18527111100E+04  0.00000000000E+00 0.  1.
        -24    2    1    2    0    0  0.35303629707E+03 -0.15011299971E+03 -0.14834949453E+04  0.15343414050E+04  0.79232283464E+02 0.  0.
        254    2    1    2    0    0 -0.35303629707E+03  0.15011299971E+03  0.35447617201E+03  0.10420620416E+04  0.90170472015E+03 0.  0.
         23    2    4    4    0    0 -0.45864948634E+03  0.17594360145E+03  0.58669372812E+03  0.77046888724E+03  0.89984850788E+02 0.  0.
         23    2    4    4    0    0  0.10561318927E+03 -0.25830601734E+02 -0.23221755611E+03  0.27159315439E+03  0.89534811181E+02 0.  0.
          3    1    3    3  502    0  0.10487653791E+03 -0.10254368274E+02 -0.34379798299E+03  0.35958489036E+03  0.00000000000E+00 0. -1.
         -4    1    3    3    0  502  0.24815975915E+03 -0.13985863144E+03 -0.11396969623E+04  0.11747565147E+04  0.00000000000E+00 0.  1.
         11    1    5    5    0    0 -0.18240534447E+02 -0.75168435493E+01  0.41830906728E+02  0.46249808557E+02  0.00000000000E+00 0.  1.
        -11    1    5    5    0    0 -0.44040895189E+03  0.18346044500E+03  0.54486282139E+03  0.72421907868E+03  0.00000000000E+00 0. -1.
          4    1    6    6  503    0 -0.59459379957E+01 -0.26413193848E+02 -0.28374252981E+02  0.39218735575E+02  0.00000000000E+00 0.  1.
         -4    1    6    6    0  503  0.11155912727E+03  0.58259211313E+00 -0.20384330313E+03  0.23237441882E+03  0.00000000000E+00 0. -1.
<mgrwt>
<rscale>  0 0.23158522E+04</rscale>
<asrwt>0</asrwt>
<pdfrwt beam="1">  1        1 0.11133728E+00 0.23158522E+04</pdfrwt>
<pdfrwt beam="2">  1       -2 0.28503247E+00 0.23158522E+04</pdfrwt>
<totfact> 0.80376132E-01</totfact>
</mgrwt>
</event>
<event>
12    4  0.4381187E-008  0.2047251E+04  0.7818608E-02  0.8584843E-01
         -2   -1    0    0    0  501 -0.00000000000E+00  0.00000000000E+00  0.32659812805E+03  0.32659812805E+03  0.00000000000E+00 0.  1.
          1   -1    0    0  501    0  0.00000000000E+00 -0.00000000000E+00 -0.32082514568E+04  0.32082514568E+04  0.00000000000E+00 0. -1.
        -24    2    1    2    0    0 -0.65960733807E+03 -0.48037126535E+03 -0.14273220390E+04  0.16462582994E+04  0.84141501817E+02 0.  0.
        254    2    1    2    0    0  0.65960733807E+03  0.48037126535E+03 -0.14543312897E+04  0.18885912854E+04  0.88648697120E+03 0.  0.
         23    2    4    4    0    0  0.82546503400E+03  0.49392486428E+03 -0.13813788569E+04  0.16857244344E+04  0.90027932215E+02 0.  0.
         23    2    4    4    0    0 -0.16585769594E+03 -0.13553598934E+02 -0.72952432833E+02  0.20286685102E+03  0.90224311799E+02 0.  0.
          3    1    3    3  502    0 -0.13554380600E+03 -0.10718389705E+03 -0.37412854159E+03  0.41210760338E+03  0.00000000000E+00 0. -1.
         -4    1    3    3    0  502 -0.52406353207E+03 -0.37318736830E+03 -0.10531934974E+04  0.12341506960E+04  0.00000000000E+00 0.  1.
         11    1    5    5    0    0  0.52013588025E+03  0.26845367828E+03 -0.79534381718E+03  0.98751227782E+03  0.00000000000E+00 0.  1.
        -11    1    5    5    0    0  0.30532915375E+03  0.22547118600E+03 -0.58603503972E+03  0.69821215660E+03  0.00000000000E+00 0. -1.
          1    1    6    6  503    0 -0.45149889314E+02 -0.24649476336E+02  0.14443284873E+02  0.53429557986E+02  0.00000000000E+00 0. -1.
         -1    1    6    6    0  503 -0.12070780662E+03  0.11095877402E+02 -0.87395717705E+02  0.14943729303E+03  0.00000000000E+00 0.  1.
<mgrwt>
<rscale>  0 0.20472508E+04</rscale>
<asrwt>0</asrwt>
<pdfrwt beam="1">  1        1 0.49357715E+00 0.20472508E+04</pdfrwt>
<pdfrwt beam="2">  1       -2 0.50245866E-01 0.20472508E+04</pdfrwt>
<totfact> 0.12776169E+00</totfact>
</mgrwt>
</event>
<event>
12    4  0.4381187E-008  0.2318634E+04  0.7818608E-02  0.8470610E-01
         -2   -1    0    0    0  501 -0.00000000000E+00  0.00000000000E+00  0.11266491354E+04  0.11266491354E+04  0.00000000000E+00 0.  1.
          1   -1    0    0  501    0  0.00000000000E+00 -0.00000000000E+00 -0.11929325512E+04  0.11929325512E+04  0.00000000000E+00 0. -1.
        -24    2    1    2    0    0  0.46143199215E+02  0.31226563087E+03 -0.95931436381E+03  0.10131397547E+04  0.80802814826E+02 0.  0.
        254    2    1    2    0    0 -0.46143199215E+02 -0.31226563087E+03  0.89303094796E+03  0.13064419319E+04  0.89980399447E+03 0.  0.
         23    2    4    4    0    0 -0.36059060862E+03 -0.36533457721E+02  0.77667481836E+03  0.86279260743E+03  0.99131374416E+02 0.  0.
         23    2    4    4    0    0  0.31444740941E+03 -0.27573217315E+03  0.11635612960E+03  0.44364932452E+03  0.91545451308E+02 0.  0.
          1    1    3    3  502    0  0.51329333075E+02  0.19693504603E+03 -0.70620976642E+03  0.73494921388E+03  0.00000000000E+00 0. -1.
         -2    1    3    3    0  502 -0.51861338598E+01  0.11533058484E+03 -0.25310459739E+03  0.27819054082E+03  0.00000000000E+00 0.  1.
         11    1    5    5    0    0 -0.17463255039E+03 -0.67069048270E+02  0.37176821169E+03  0.41618071569E+03  0.00000000000E+00 0.  1.
        -11    1    5    5    0    0 -0.18595805823E+03  0.30535590549E+02  0.40490660667E+03  0.44661189174E+03  0.00000000000E+00 0. -1.
          3    1    6    6  503    0  0.20375638713E+03 -0.21425748074E+03  0.11435514379E+03  0.31701740056E+03  0.00000000000E+00 0. -1.
         -3    1    6    6    0  503  0.11069102228E+03 -0.61474692404E+02  0.20009858173E+01  0.12663192395E+03  0.00000000000E+00 0.  1.
<mgrwt>
<rscale>  0 0.23186344E+04</rscale>
<asrwt>0</asrwt>
<pdfrwt beam="1">  1        1 0.18352808E+00 0.23186344E+04</pdfrwt>
<pdfrwt beam="2">  1       -2 0.17333064E+00 0.23186344E+04</pdfrwt>
<totfact> 0.17283218E+00</totfact>
</mgrwt>
</event>
<event>
12    4  0.4381187E-008  0.1470586E+04  0.7818608E-02  0.8904252E-01
          1   -1    0    0  501    0  0.00000000000E+00  0.00000000000E+00  0.81111747168E+03  0.81111747168E+03  0.00000000000E+00 0. -1.
         -2   -1    0    0    0  501 -0.00000000000E+00 -0.00000000000E+00 -0.66655716605E+03  0.66655716605E+03  0.00000000000E+00 0.  1.
        -24    2    1    2    0    0 -0.41381405019E+03  0.17560491402E+03  0.15815914616E+02  0.45662909137E+03  0.78618254698E+02 0.  0.
        254    2    1    2    0    0  0.41381405019E+03 -0.17560491402E+03  0.12874439101E+03  0.10210455464E+04  0.90767821145E+03 0.  0.
         23    2    4    4    0    0 -0.26584735014E+03 -0.36216173540E+01 -0.64066648626E+02  0.28831296836E+03  0.91279255964E+02 0.  0.
         23    2    4    4    0    0  0.67966140033E+03 -0.17198329667E+03  0.19281103964E+03  0.73273257799E+03  0.90570748107E+02 0.  0.
          1    1    3    3  502    0 -0.16948057731E+03  0.53297027246E+02  0.40688810054E+02  0.18226304744E+03  0.00000000000E+00 0. -1.
         -2    1    3    3    0  502 -0.24433347288E+03  0.12230788678E+03 -0.24872895438E+02  0.27436604394E+03  0.00000000000E+00 0.  1.
         11    1    5    5    0    0 -0.19765829646E+03  0.37734035937E+02 -0.41963657815E+02  0.20555682476E+03  0.00000000000E+00 0. -1.
        -11    1    5    5    0    0 -0.68189053682E+02 -0.41355653291E+02 -0.22102990811E+02  0.82756143603E+02  0.00000000000E+00 0.  1.
          3    1    6    6  503    0  0.66541160598E+03 -0.17522974203E+03  0.19982037714E+03  0.71652372675E+03  0.00000000000E+00 0. -1.
         -3    1    6    6    0  503  0.14249794346E+02  0.32464453625E+01 -0.70093375052E+01  0.16208851244E+02  0.00000000000E+00 0.  1.
<mgrwt>
<rscale>  0 0.14705865E+04</rscale>
<asrwt>0</asrwt>
<pdfrwt beam="1">  1        1 0.12478730E+00 0.14705865E+04</pdfrwt>
<pdfrwt beam="2">  1       -2 0.10254726E+00 0.14705865E+04</pdfrwt>
<totfact> 0.14289048E+01</totfact>
</mgrwt>
</event>
<event>
12    4  0.4381187E-008  0.3606542E+04  0.7818608E-02  0.8088995E-01
          1   -1    0    0  501    0  0.00000000000E+00  0.00000000000E+00  0.32550615057E+04  0.32550615057E+04  0.00000000000E+00 0. -1.
         -2   -1    0    0    0  501 -0.00000000000E+00 -0.00000000000E+00 -0.99899404972E+03  0.99899404972E+03  0.00000000000E+00 0.  1.
        -24    2    1    2    0    0  0.15191776964E+04  0.23533670464E+03  0.22467387581E+03  0.15556290188E+04  0.78860989353E+02 0.  0.
        254    2    1    2    0    0 -0.15191776964E+04 -0.23533670464E+03  0.20313935802E+04  0.26984265366E+04  0.88975370646E+03 0.  0.
         23    2    4    4    0    0 -0.13733225206E+04 -0.21625656581E+02  0.19913754263E+04  0.24208763173E+04  0.92647940940E+02 0.  0.
         23    2    4    4    0    0 -0.14585517586E+03 -0.21371104806E+03  0.40018153892E+02  0.27755021929E+03  0.92122349078E+02 0.  0.
          3    1    3    3  502    0  0.15631369336E+03  0.36854140219E+02  0.44512022553E+02  0.16665388845E+03  0.00000000000E+00 0. -1.
         -4    1    3    3    0  502  0.13628640031E+04  0.19848256442E+03  0.18016185325E+03  0.13889751303E+04  0.00000000000E+00 0.  1.
         11    1    5    5    0    0 -0.63111109830E+03 -0.54491569693E+02  0.89513839335E+03  0.10966053496E+04  0.00000000000E+00 0. -1.
        -11    1    5    5    0    0 -0.74221142229E+03  0.32865913112E+02  0.10962370329E+04  0.13242709677E+04  0.00000000000E+00 0.  1.
          1    1    6    6  503    0 -0.21939956253E+02 -0.19776198077E+02 -0.24674770832E+02  0.38487712407E+02  0.00000000000E+00 0. -1.
         -1    1    6    6    0  503 -0.12391521961E+03 -0.19393484998E+03  0.64692924724E+02  0.23906250688E+03  0.00000000000E+00 0.  1.
<mgrwt>
<rscale>  0 0.36065424E+04</rscale>
<asrwt>0</asrwt>
<pdfrwt beam="1">  1        1 0.50077869E+00 0.36065424E+04</pdfrwt>
<pdfrwt beam="2">  1       -2 0.15369139E+00 0.36065424E+04</pdfrwt>
<totfact> 0.77188172E-02</totfact>
</mgrwt>
</event>
<event>
12    4  0.4381187E-008  0.1729753E+04  0.7818608E-02  0.8744574E-01
         -2   -1    0    0    0  501 -0.00000000000E+00  0.00000000000E+00  0.31070175932E+03  0.31070175932E+03  0.00000000000E+00 0.  1.
          1   -1    0    0  501    0  0.00000000000E+00 -0.00000000000E+00 -0.24074911666E+04  0.24074911666E+04  0.00000000000E+00 0. -1.
        -24    2    1    2    0    0 -0.32938016958E+03 -0.21410731379E+03 -0.14954570553E+04  0.15483357779E+04  0.81355018350E+02 0.  0.
        254    2    1    2    0    0  0.32938016958E+03  0.21410731379E+03 -0.60133235197E+03  0.11698571480E+04  0.92338069681E+03 0.  0.
         23    2    4    4    0    0  0.35326866838E+03 -0.28857514590E+03 -0.42148938133E+03  0.62787679798E+03  0.92204164617E+02 0.  0.
         23    2    4    4    0    0 -0.23888498804E+02  0.50268245969E+03 -0.17984297064E+03  0.54198035001E+03  0.90215797129E+02 0.  0.
          3    1    3    3  502    0 -0.23118589319E+03 -0.13720218756E+03 -0.87097765759E+03  0.91152259298E+03  0.00000000000E+00 0. -1.
         -4    1    3    3    0  502 -0.98194276384E+02 -0.76905126230E+02 -0.62447939773E+03  0.63681318496E+03  0.00000000000E+00 0.  1.
         11    1    5    5    0    0  0.35445485358E+03 -0.28712275366E+03 -0.42527779352E+03  0.62364967775E+03  0.00000000000E+00 0. -1.
        -11    1    5    5    0    0 -0.11861851973E+01 -0.14523922379E+01  0.37884121869E+01  0.42271202293E+01  0.00000000000E+00 0.  1.
          2    1    6    6  503    0 -0.47206118865E+02  0.22052153909E+03 -0.10712801941E+03  0.24966893960E+03  0.00000000000E+00 0.  1.
         -2    1    6    6    0  503  0.23317620062E+02  0.28216092060E+03 -0.72714951227E+02  0.29231141040E+03  0.00000000000E+00 0. -1.
<mgrwt>
<rscale>  0 0.17297534E+04</rscale>
<asrwt>0</asrwt>
<pdfrwt beam="1">  1        1 0.37038327E+00 0.17297534E+04</pdfrwt>
<pdfrwt beam="2">  1       -2 0.47800269E-01 0.17297534E+04</pdfrwt>
<totfact> 0.54330791E+00</totfact>
</mgrwt>
</event>
<event>
12    4  0.4381187E-008  0.1282913E+04  0.7818608E-02  0.9043226E-01
          1   -1    0    0  501    0  0.00000000000E+00  0.00000000000E+00  0.49488205885E+03  0.49488205885E+03  0.00000000000E+00 0. -1.
         -2   -1    0    0    0  501 -0.00000000000E+00 -0.00000000000E+00 -0.83144406387E+03  0.83144406387E+03  0.00000000000E+00 0.  1.
        -24    2    1    2    0    0 -0.19038431355E+03  0.25642458647E+03 -0.51122240289E+02  0.33365644862E+03  0.81935260191E+02 0.  0.
        254    2    1    2    0    0  0.19038431355E+03 -0.25642458647E+03 -0.28543976473E+03  0.99266967410E+03  0.89549844623E+03 0.  0.
         23    2    4    4    0    0  0.17909845454E+03 -0.71405958636E+02 -0.58859154816E+03  0.62609638761E+03  0.91551125978E+02 0.  0.
         23    2    4    4    0    0  0.11285859015E+02 -0.18501862783E+03  0.30315178343E+03  0.36657328649E+03  0.90087220605E+02 0.  0.
          1    1    3    3  502    0 -0.16303869421E+03  0.15722815863E+03 -0.28321643906E+02  0.22826393755E+03  0.00000000000E+00 0. -1.
         -2    1    3    3    0  502 -0.27345619345E+02  0.99196427842E+02 -0.22800596383E+02  0.10539251107E+03  0.00000000000E+00 0.  1.
         11    1    5    5    0    0 -0.13421229927E+01 -0.27696701837E+02 -0.81230631011E+02  0.85833117159E+02  0.00000000000E+00 0. -1.
        -11    1    5    5    0    0  0.18044057753E+03 -0.43709256799E+02 -0.50736091715E+03  0.54026327045E+03  0.00000000000E+00 0.  1.
          4    1    6    6  503    0  0.39439303416E+02 -0.10804413131E+03  0.12160224754E+03  0.16738010506E+03  0.00000000000E+00 0. -1.
         -4    1    6    6    0  503 -0.28153444402E+02 -0.76974496523E+02  0.18154953589E+03  0.19919318143E+03  0.00000000000E+00 0.  1.
<mgrwt>
<rscale>  0 0.12829135E+04</rscale>
<asrwt>0</asrwt>
<pdfrwt beam="1">  1        1 0.76135702E-01 0.12829135E+04</pdfrwt>
<pdfrwt beam="2">  1       -2 0.12791447E+00 0.12829135E+04</pdfrwt>
<totfact> 0.17489351E+01</totfact>
</mgrwt>
</event>
<event>
12    4  0.4381187E-008  0.1689445E+04  0.7818608E-02  0.8767407E-01
         -2   -1    0    0    0  501 -0.00000000000E+00  0.00000000000E+00  0.47020144440E+03  0.47020144440E+03  0.00000000000E+00 0.  1.
          1   -1    0    0  501    0  0.00000000000E+00 -0.00000000000E+00 -0.15175542620E+04  0.15175542620E+04  0.00000000000E+00 0. -1.
        -24    2    1    2    0    0 -0.16768704270E+03 -0.36005115288E+03  0.15141321155E+03  0.43669987114E+03  0.10012512092E+03 0.  0.
        254    2    1    2    0    0  0.16768704270E+03  0.36005115288E+03 -0.11987660292E+04  0.15510558353E+04  0.90054341066E+03 0.  0.
         23    2    4    4    0    0  0.33870931474E+03 -0.52234360958E+02 -0.98559519228E+03  0.10476174888E+04  0.93016619017E+02 0.  0.
         23    2    4    4    0    0 -0.17102227203E+03  0.41228551384E+03 -0.21317083689E+03  0.50343834649E+03  0.93703791623E+02 0.  0.
          1    1    3    3  502    0 -0.76078549867E+01 -0.10649223244E+03  0.17073716510E+02  0.10812024243E+03  0.00000000000E+00 0. -1.
         -2    1    3    3    0  502 -0.16007918772E+03 -0.25355892045E+03  0.13433949504E+03  0.32857962871E+03  0.00000000000E+00 0.  1.
         11    1    5    5    0    0  0.11231054945E+03 -0.45623933142E+02 -0.45129834869E+03  0.46729584026E+03  0.00000000000E+00 0.  1.
        -11    1    5    5    0    0  0.22639876529E+03 -0.66104278157E+01 -0.53429684359E+03  0.58032164853E+03  0.00000000000E+00 0. -1.
          2    1    6    6  503    0 -0.27254350099E+02  0.51493381998E+02 -0.66180970279E+02  0.88171927596E+02  0.00000000000E+00 0. -1.
         -2    1    6    6    0  503 -0.14376792193E+03  0.36079213184E+03 -0.14698986661E+03  0.41526641890E+03  0.00000000000E+00 0.  1.
<mgrwt>
<rscale>  0 0.16894451E+04</rscale>
<asrwt>0</asrwt>
<pdfrwt beam="1">  1        1 0.23346989E+00 0.16894451E+04</pdfrwt>
<pdfrwt beam="2">  1       -2 0.72338683E-01 0.16894451E+04</pdfrwt>
<totfact> 0.91952487E+00</totfact>
</mgrwt>
</event>
<event>
12    4  0.4381187E-008  0.1171489E+04  0.7818608E-02  0.9138184E-01
         -2   -1    0    0    0  501 -0.00000000000E+00  0.00000000000E+00  0.16064430989E+03  0.16064430989E+03  0.00000000000E+00 0.  1.
          1   -1    0    0  501    0  0.00000000000E+00 -0.00000000000E+00 -0.21357544877E+04  0.21357544877E+04  0.00000000000E+00 0. -1.
        -24    2    1    2    0    0 -0.11836841177E+03 -0.11337357553E+03 -0.73468014363E+03  0.75700463508E+03  0.80227523683E+02 0.  0.
        254    2    1    2    0    0  0.11836841177E+03  0.11337357553E+03 -0.12404300342E+04  0.15393941625E+04  0.89677370017E+03 0.  0.
         23    2    4    4    0    0  0.34738306719E+03 -0.26213116653E+03 -0.46981747222E+03  0.64673900481E+03  0.90305809905E+02 0.  0.
         23    2    4    4    0    0 -0.22901465542E+03  0.37550474206E+03 -0.77061256196E+03  0.89265515769E+03  0.97662614146E+02 0.  0.
          1    1    3    3  502    0 -0.12815373525E+03 -0.88492868912E+02 -0.63006937335E+03  0.64903141907E+03  0.00000000000E+00 0. -1.
         -2    1    3    3    0  502  0.97853234739E+01 -0.24880706619E+02 -0.10461077027E+03  0.10797321601E+03  0.00000000000E+00 0.  1.
         11    1    5    5    0    0  0.25514056471E+03 -0.20862475980E+03 -0.29692532924E+03  0.44360528548E+03  0.00000000000E+00 0. -1.
        -11    1    5    5    0    0  0.92242502485E+02 -0.53506406733E+02 -0.17289214298E+03  0.20313371933E+03  0.00000000000E+00 0.  1.
          3    1    6    6  503    0 -0.15894280675E+03  0.31355484561E+03 -0.66014304986E+03  0.74790928815E+03  0.00000000000E+00 0. -1.
         -3    1    6    6    0  503 -0.70071848671E+02  0.61949896450E+02 -0.11046951209E+03  0.14474586954E+03  0.00000000000E+00 0.  1.
<mgrwt>
<rscale>  0 0.11714893E+04</rscale>
<asrwt>0</asrwt>
<pdfrwt beam="1">  1        1 0.32857759E+00 0.11714893E+04</pdfrwt>
<pdfrwt beam="2">  1       -2 0.24714511E-01 0.11714893E+04</pdfrwt>
<totfact> 0.30828167E+01</totfact>
</mgrwt>
</event>
<event>
12    4  0.4381187E-008  0.1999171E+04  0.7818608E-02  0.8607008E-01
         -2   -1    0    0    0  501 -0.00000000000E+00  0.00000000000E+00  0.19507977537E+04  0.19507977537E+04  0.00000000000E+00 0.  1.
          1   -1    0    0  501    0  0.00000000000E+00 -0.00000000000E+00 -0.51218605693E+03  0.51218605693E+03  0.00000000000E+00 0. -1.
        -24    2    1    2    0    0 -0.15079523593E+03  0.57256674730E+03 -0.68000406583E+02  0.60130324452E+03  0.79810107650E+02 0.  0.
        254    2    1    2    0    0  0.15079523593E+03 -0.57256674730E+03  0.15066121034E+04  0.18616805662E+04  0.91945778426E+03 0.  0.
         23    2    4    4    0    0  0.38436995404E+02 -0.80232977196E+03  0.98992147438E+03  0.12780966360E+04  0.91520598851E+02 0.  0.
         23    2    4    4    0    0  0.11235824053E+03  0.22976302466E+03  0.51669062902E+03  0.58358393013E+03  0.90474171295E+02 0.  0.
          3    1    3    3  502    0 -0.10767379513E+03  0.51040079890E+03 -0.54835739695E+02  0.52450889414E+03  0.00000000000E+00 0. -1.
         -4    1    3    3    0  502 -0.43121440802E+02  0.62165948392E+02 -0.13164666889E+02  0.76794350382E+02  0.00000000000E+00 0.  1.
         11    1    5    5    0    0  0.26561807717E+02 -0.16319431279E+03  0.25673351497E+03  0.30536864781E+03  0.00000000000E+00 0.  1.
        -11    1    5    5    0    0  0.11875187687E+02 -0.63913545917E+03  0.73318795941E+03  0.97272798822E+03  0.00000000000E+00 0. -1.
          1    1    6    6  503    0  0.41663975232E+02  0.28799582996E+02  0.16302736843E+03  0.17071387076E+03  0.00000000000E+00 0. -1.
         -1    1    6    6    0  503  0.70694265299E+02  0.20096344167E+03  0.35366326059E+03  0.41287005937E+03  0.00000000000E+00 0.  1.
<mgrwt>
<rscale>  0 0.19991712E+04</rscale>
<asrwt>0</asrwt>
<pdfrwt beam="1">  1        1 0.78797856E-01 0.19991712E+04</pdfrwt>
<pdfrwt beam="2">  1       -2 0.30012273E+00 0.19991712E+04</pdfrwt>
<totfact> 0.11057158E+00</totfact>
</mgrwt>
</event>
<event>
12    4  0.4381187E-008  0.1677347E+04  0.7818608E-02  0.8774391E-01
          1   -1    0    0  501    0  0.00000000000E+00  0.00000000000E+00  0.22137684979E+04  0.22137684979E+04  0.00000000000E+00 0. -1.
         -4   -1    0    0    0  501 -0.00000000000E+00 -0.00000000000E+00 -0.31772651161E+03  0.31772651161E+03  0.00000000000E+00 0.  1.
        -24    2    1    2    0    0  0.24316785873E+03  0.22243098601E+03 -0.66758791617E+02  0.34596980988E+03  0.81438455477E+02 0.  0.
        254    2    1    2    0    0 -0.24316785873E+03 -0.22243098601E+03  0.19628007779E+04  0.21855251996E+04  0.90295479037E+03 0.  0.
         23    2    4    4    0    0 -0.66266332309E+02 -0.13400189407E+03 -0.34067255306E+02  0.17685937414E+03  0.88152855451E+02 0.  0.
         23    2    4    4    0    0 -0.17690152642E+03 -0.88429091939E+02  0.19968680332E+04  0.20086658255E+04  0.90236367987E+02 0.  0.
          1    1    3    3  502    0 -0.34150234380E+01  0.56120055433E+01  0.68280764506E+01  0.94752107795E+01  0.00000000000E+00 0. -1.
         -2    1    3    3    0  502  0.24658288217E+03  0.21681898047E+03 -0.73586868068E+02  0.33649459910E+03  0.00000000000E+00 0.  1.
         11    1    5    5    0    0 -0.27537435166E+02 -0.52498124541E+02  0.29757554825E+02  0.66331557233E+02  0.00000000000E+00 0. -1.
        -11    1    5    5    0    0 -0.38728897143E+02 -0.81503769534E+02 -0.63824810131E+02  0.11052781691E+03  0.00000000000E+00 0.  1.
          2    1    6    6  503    0 -0.81005105018E+00 -0.32117395195E+02  0.25577613066E+03  0.25778598153E+03  0.00000000000E+00 0. -1.
         -2    1    6    6    0  503 -0.17609147537E+03 -0.56311696744E+02  0.17410919025E+04  0.17508798440E+04  0.00000000000E+00 0.  1.
<mgrwt>
<rscale>  0 0.16773466E+04</rscale>
<asrwt>0</asrwt>
<pdfrwt beam="1">  1        1 0.34057976E+00 0.16773466E+04</pdfrwt>
<pdfrwt beam="2">  1       -4 0.48881003E-01 0.16773466E+04</pdfrwt>
<totfact> 0.40740890E+00</totfact>
</mgrwt>
</event>
<event>
12    4  0.4381187E-008  0.1758006E+04  0.7818608E-02  0.8728956E-01
          1   -1    0    0  501    0  0.00000000000E+00  0.00000000000E+00  0.12505161706E+04  0.12505161706E+04  0.00000000000E+00 0. -1.
         -2   -1    0    0    0  501 -0.00000000000E+00 -0.00000000000E+00 -0.61786215490E+03  0.61786215490E+03  0.00000000000E+00 0.  1.
        -24    2    1    2    0    0 -0.28920948557E+03 -0.42065575864E+03 -0.18458814556E+03  0.54875709955E+03  0.80424977477E+02 0.  0.
        254    2    1    2    0    0  0.28920948557E+03  0.42065575864E+03  0.81724216122E+03  0.13196212259E+04  0.90162189190E+03 0.  0.
         23    2    4    4    0    0  0.60766630164E+03  0.27760345393E+03  0.50397398886E+03  0.84176414432E+03  0.90857478628E+02 0.  0.
         23    2    4    4    0    0 -0.31845681607E+03  0.14305230470E+03  0.31326817236E+03  0.47785708159E+03  0.91278349181E+02 0.  0.
          3    1    3    3  502    0 -0.41937320784E+02 -0.10822418532E+03 -0.63605237390E+02  0.13235119715E+03  0.00000000000E+00 0. -1.
         -4    1    3    3    0  502 -0.24727216479E+03 -0.31243157332E+03 -0.12098290817E+03  0.41640590240E+03  0.00000000000E+00 0.  1.
         11    1    5    5    0    0  0.20829882269E+03  0.13938179210E+03  0.16584458071E+03  0.30053304054E+03  0.00000000000E+00 0.  1.
        -11    1    5    5    0    0  0.39936747895E+03  0.13822166184E+03  0.33812940815E+03  0.54123110378E+03  0.00000000000E+00 0. -1.
          1    1    6    6  503    0 -0.14408443031E+03  0.95583211625E+02  0.20086485896E+03  0.26503427130E+03  0.00000000000E+00 0. -1.
         -1    1    6    6    0  503 -0.17437238576E+03  0.47469093079E+02  0.11240331340E+03  0.21282281029E+03  0.00000000000E+00 0.  1.
<mgrwt>
<rscale>  0 0.17580064E+04</rscale>
<asrwt>0</asrwt>
<pdfrwt beam="1">  1        1 0.19238710E+00 0.17580064E+04</pdfrwt>
<pdfrwt beam="2">  1       -2 0.95055716E-01 0.17580064E+04</pdfrwt>
<totfact> 0.75912669E+00</totfact>
</mgrwt>
</event>
<event>
12    4  0.4381187E-008  0.1334790E+04  0.7818608E-02  0.9002423E-01
         -2   -1    0    0    0  501 -0.00000000000E+00  0.00000000000E+00  0.47148417946E+03  0.47148417946E+03  0.00000000000E+00 0.  1.
          1   -1    0    0  501    0  0.00000000000E+00 -0.00000000000E+00 -0.94471009198E+03  0.94471009198E+03  0.00000000000E+00 0. -1.
        -24    2    1    2    0    0 -0.14147861009E+03  0.30548315023E+03 -0.20537231473E+03  0.40227007000E+03  0.79418318871E+02 0.  0.
        254    2    1    2    0    0  0.14147861009E+03 -0.30548315023E+03 -0.26785359779E+03  0.10139242014E+04  0.91812884947E+03 0.  0.
         23    2    4    4    0    0 -0.11604657197E+03 -0.43796739948E+03  0.16077581936E+03  0.48929865250E+03  0.91005809608E+02 0.  0.
         23    2    4    4    0    0  0.25752518207E+03  0.13248424925E+03 -0.42862941715E+03  0.52462554894E+03  0.87392755149E+02 0.  0.
          3    1    3    3  502    0 -0.99155956403E+02  0.26496891604E+03 -0.19275769256E+03  0.34233895221E+03  0.00000000000E+00 0. -1.
         -4    1    3    3    0  502 -0.42322653691E+02  0.40514234185E+02 -0.12614622171E+02  0.59931117790E+02  0.00000000000E+00 0.  1.
         11    1    5    5    0    0 -0.65819098669E+02 -0.37851191175E+03  0.13760305125E+03  0.40809070168E+03  0.00000000000E+00 0.  1.
        -11    1    5    5    0    0 -0.50227473303E+02 -0.59455487729E+02  0.23172768111E+02  0.81207950827E+02  0.00000000000E+00 0. -1.
          4    1    6    6  503    0  0.12774802630E+03  0.84170513826E+02 -0.29435828466E+03  0.33173940581E+03  0.00000000000E+00 0. -1.
         -4    1    6    6    0  503  0.12977715576E+03  0.48313735422E+02 -0.13427113249E+03  0.19288614312E+03  0.00000000000E+00 0.  1.
<mgrwt>
<rscale>  0 0.13347897E+04</rscale>
<asrwt>0</asrwt>
<pdfrwt beam="1">  1        1 0.14534001E+00 0.13347897E+04</pdfrwt>
<pdfrwt beam="2">  1       -2 0.72536029E-01 0.13347897E+04</pdfrwt>
<totfact> 0.24720003E+01</totfact>
</mgrwt>
</event>
<event>
12    4  0.4381187E-008  0.1480040E+04  0.7818608E-02  0.8897836E-01
          1   -1    0    0  501    0  0.00000000000E+00  0.00000000000E+00  0.45997254209E+03  0.45997254209E+03  0.00000000000E+00 0. -1.
         -2   -1    0    0    0  501 -0.00000000000E+00 -0.00000000000E+00 -0.11905700603E+04  0.11905700603E+04  0.00000000000E+00 0.  1.
        -24    2    1    2    0    0  0.34914985833E+02  0.10202486714E+03 -0.72305118187E+03  0.73561751574E+03  0.81865671119E+02 0.  0.
        254    2    1    2    0    0 -0.34914985833E+02 -0.10202486714E+03 -0.75463363591E+01  0.91492508668E+03  0.90851683380E+03 0.  0.
         23    2    4    4    0    0  0.32781394996E+03 -0.25486380036E+03 -0.19625523915E+03  0.46897443004E+03  0.94886008512E+02 0.  0.
         23    2    4    4    0    0 -0.36272893579E+03  0.15283893322E+03  0.18870890279E+03  0.44595065664E+03  0.91262904817E+02 0.  0.
          3    1    3    3  502    0  0.32095781759E+02  0.14865699833E+02 -0.91928712338E+02  0.98498814157E+02  0.00000000000E+00 0. -1.
         -4    1    3    3    0  502  0.28192040740E+01  0.87159167309E+02 -0.63112246954E+03  0.63711870159E+03  0.00000000000E+00 0.  1.
         11    1    5    5    0    0  0.31254235920E+03 -0.20996237362E+03 -0.15922290828E+03  0.40880173575E+03  0.00000000000E+00 0. -1.
        -11    1    5    5    0    0  0.15271590757E+02 -0.44901426743E+02 -0.37032330876E+02  0.60172694289E+02  0.00000000000E+00 0.  1.
          2    1    6    6  503    0 -0.36766758786E+03  0.14635562841E+03  0.18294413438E+03  0.43596786743E+03  0.00000000000E+00 0. -1.
         -2    1    6    6    0  503  0.49386520662E+01  0.64833048168E+01  0.57647684098E+01  0.99827892093E+01  0.00000000000E+00 0.  1.
<mgrwt>
<rscale>  0 0.14800399E+04</rscale>
<asrwt>0</asrwt>
<pdfrwt beam="1">  1        1 0.70765007E-01 0.14800399E+04</pdfrwt>
<pdfrwt beam="2">  1       -2 0.18316462E+00 0.14800399E+04</pdfrwt>
<totfact> 0.72537316E+00</totfact>
</mgrwt>
</event>
<event>
12    4  0.4381187E-008  0.1581373E+04  0.7818608E-02  0.8832073E-01
         -2   -1    0    0    0  501 -0.00000000000E+00  0.00000000000E+00  0.30826087794E+03  0.30826087794E+03  0.00000000000E+00 0.  1.
          1   -1    0    0  501    0  0.00000000000E+00 -0.00000000000E+00 -0.20281053189E+04  0.20281053189E+04  0.00000000000E+00 0. -1.
        -24    2    1    2    0    0 -0.14417847016E+03  0.47997866957E+03 -0.83343425209E+03  0.97605463277E+03  0.83084529836E+02 0.  0.
        254    2    1    2    0    0  0.14417847016E+03 -0.47997866957E+03 -0.88641018891E+03  0.13603115641E+04  0.90197426458E+03 0.  0.
         23    2    4    4    0    0  0.40017356975E+02  0.13604567713E+03 -0.67082732346E+03  0.69252359909E+03  0.97313011847E+02 0.  0.
         23    2    4    4    0    0  0.10416111319E+03 -0.61602434670E+03 -0.21558286545E+03  0.66778796502E+03  0.95547167028E+02 0.  0.
          1    1    3    3  502    0  0.10220654562E+02  0.52305178019E+02 -0.84763834356E+02  0.10012592592E+03  0.00000000000E+00 0. -1.
         -2    1    3    3    0  502 -0.15439912473E+03  0.42767349155E+03 -0.74867041774E+03  0.87592870685E+03  0.00000000000E+00 0.  1.
         11    1    5    5    0    0  0.10266961068E+01 -0.10362387065E+02 -0.96104041407E+01  0.14170146024E+02  0.00000000000E+00 0. -1.
        -11    1    5    5    0    0  0.38990660868E+02  0.14640806419E+03 -0.66121691932E+03  0.67835345307E+03  0.00000000000E+00 0.  1.
          2    1    6    6  503    0  0.10095179174E+03 -0.32778951523E+03 -0.13381076436E+03  0.36816103977E+03  0.00000000000E+00 0.  1.
         -2    1    6    6    0  503  0.32093214475E+01 -0.28823483147E+03 -0.81772101092E+02  0.29962692525E+03  0.00000000000E+00 0. -1.
<mgrwt>
<rscale>  0 0.15813735E+04</rscale>
<asrwt>0</asrwt>
<pdfrwt beam="1">  1        1 0.31201621E+00 0.15813735E+04</pdfrwt>
<pdfrwt beam="2">  1       -2 0.47424750E-01 0.15813735E+04</pdfrwt>
<totfact> 0.10144060E+01</totfact>
</mgrwt>
</event>
<event>
12    4  0.4381187E-008  0.2321122E+04  0.7818608E-02  0.8469639E-01
         -2   -1    0    0    0  501 -0.00000000000E+00  0.00000000000E+00  0.11201572383E+04  0.11201572383E+04  0.00000000000E+00 0.  1.
          1   -1    0    0  501    0  0.00000000000E+00 -0.00000000000E+00 -0.12024219006E+04  0.12024219006E+04  0.00000000000E+00 0. -1.
        -24    2    1    2    0    0  0.35745204209E+03  0.72905952765E+03  0.52011865130E+03  0.96770596331E+03  0.81435021607E+02 0.  0.
        254    2    1    2    0    0 -0.35745204209E+03 -0.72905952765E+03 -0.60238331354E+03  0.13548731756E+04  0.90195116738E+03 0.  0.
         23    2    4    4    0    0 -0.13782038773E+03 -0.10236309255E+03 -0.65420216418E+03  0.68261642815E+03  0.92260795394E+02 0.  0.
         23    2    4    4    0    0 -0.21963165436E+03 -0.62669643510E+03  0.51818850641E+02  0.67225674747E+03  0.90870544634E+02 0.  0.
          3    1    3    3  502    0  0.16871571728E+03  0.39160389848E+03  0.23131452561E+03  0.48510309865E+03  0.00000000000E+00 0. -1.
         -4    1    3    3    0  502  0.18873632481E+03  0.33745562917E+03  0.28880412570E+03  0.48260286466E+03  0.00000000000E+00 0.  1.
         11    1    5    5    0    0 -0.66063950486E+02 -0.52541841670E+02 -0.48399870326E+03  0.49130421883E+03  0.00000000000E+00 0.  1.
        -11    1    5    5    0    0 -0.71756437244E+02 -0.49821250882E+02 -0.17020346092E+03  0.19131220932E+03  0.00000000000E+00 0. -1.
          3    1    6    6  503    0 -0.86243948448E+02 -0.25155374159E+03  0.65483785130E+02  0.27387119174E+03  0.00000000000E+00 0. -1.
         -3    1    6    6    0  503 -0.13338770591E+03 -0.37514269351E+03 -0.13664934489E+02  0.39838555573E+03  0.00000000000E+00 0.  1.
<mgrwt>
<rscale>  0 0.23211218E+04</rscale>
<asrwt>0</asrwt>
<pdfrwt beam="1">  1        1 0.18498798E+00 0.23211218E+04</pdfrwt>
<pdfrwt beam="2">  1       -2 0.17233188E+00 0.23211218E+04</pdfrwt>
<totfact> 0.17283576E+00</totfact>
</mgrwt>
</event>
<event>
12    4  0.4381187E-008  0.1157863E+04  0.7818608E-02  0.9150560E-01
          1   -1    0    0  501    0  0.00000000000E+00  0.00000000000E+00  0.12535029918E+04  0.12535029918E+04  0.00000000000E+00 0. -1.
         -2   -1    0    0    0  501 -0.00000000000E+00 -0.00000000000E+00 -0.26738009499E+03  0.26738009499E+03  0.00000000000E+00 0.  1.
        -24    2    1    2    0    0 -0.11182010633E+03 -0.18570288019E+03  0.27975411112E+03  0.36326670605E+03  0.81920944484E+02 0.  0.
        254    2    1    2    0    0  0.11182010633E+03  0.18570288019E+03  0.70636878570E+03  0.11576163807E+04  0.89113945467E+03 0.  0.
         23    2    4    4    0    0 -0.29011504240E+03  0.18380598726E+03  0.18678445794E+02  0.35585538731E+03  0.91284136442E+02 0.  0.
         23    2    4    4    0    0  0.40193514872E+03  0.18968929294E+01  0.68769033991E+03  0.80176099343E+03  0.91363149079E+02 0.  0.
          3    1    3    3  502    0 -0.94229316158E+02 -0.89059310209E+02  0.19117926578E+03  0.23099834723E+03  0.00000000000E+00 0. -1.
         -4    1    3    3    0  502 -0.17590790168E+02 -0.96643569984E+02  0.88574845336E+02  0.13226835882E+03  0.00000000000E+00 0.  1.
         11    1    5    5    0    0 -0.12672043415E+02 -0.43592698165E+01 -0.13574642205E+02  0.19074979126E+02  0.00000000000E+00 0.  1.
        -11    1    5    5    0    0 -0.27744299898E+03  0.18816525708E+03  0.32253087999E+02  0.33678040819E+03  0.00000000000E+00 0. -1.
          1    1    6    6  503    0  0.19928208894E+03 -0.30259466882E+02  0.27596476794E+03  0.34173899317E+03  0.00000000000E+00 0. -1.
         -1    1    6    6    0  503  0.20265305978E+03  0.32156359812E+02  0.41172557197E+03  0.46002200026E+03  0.00000000000E+00 0.  1.
<mgrwt>
<rscale>  0 0.11578631E+04</rscale>
<asrwt>0</asrwt>
<pdfrwt beam="1">  1        1 0.19284661E+00 0.11578631E+04</pdfrwt>
<pdfrwt beam="2">  1       -2 0.41135400E-01 0.11578631E+04</pdfrwt>
<totfact> 0.47599808E+01</totfact>
</mgrwt>
</event>
<event>
12    4  0.4381187E-008  0.1501213E+04  0.7818608E-02  0.8883647E-01
         -4   -1    0    0    0  501 -0.00000000000E+00  0.00000000000E+00  0.10117006880E+04  0.10117006880E+04  0.00000000000E+00 0.  1.
          3   -1    0    0  501    0  0.00000000000E+00 -0.00000000000E+00 -0.55689425222E+03  0.55689425222E+03  0.00000000000E+00 0. -1.
        -24    2    1    2    0    0  0.38468847989E+03  0.12199437391E+03  0.42851549173E+03  0.59205939234E+03  0.63568416510E+02 0.  0.
        254    2    1    2    0    0 -0.38468847989E+03 -0.12199437391E+03  0.26290944063E+02  0.97653554790E+03  0.88885466120E+03 0.  0.
         23    2    4    4    0    0 -0.47582864442E+01 -0.45228676636E+03 -0.19367904740E+02  0.46332884723E+03  0.98552243154E+02 0.  0.
         23    2    4    4    0    0 -0.37993019344E+03  0.33029239245E+03  0.45658848803E+02  0.51320670066E+03  0.88636170552E+02 0.  0.
          1    1    3    3  502    0  0.31770900100E+02  0.29260178665E+02  0.54337903936E+02  0.69412937936E+02  0.00000000000E+00 0. -1.
         -2    1    3    3    0  502  0.35291757979E+03  0.92734195245E+02  0.37417758780E+03  0.52264645440E+03  0.00000000000E+00 0.  1.
         11    1    5    5    0    0  0.36991887532E+01 -0.23287436694E+03 -0.58869613104E+02  0.24022861221E+03  0.00000000000E+00 0. -1.
        -11    1    5    5    0    0 -0.84574751974E+01 -0.21941239942E+03  0.39501708364E+02  0.22310023503E+03  0.00000000000E+00 0.  1.
          1    1    6    6  503    0 -0.35048394856E+03  0.28034391615E+03  0.61734299152E+02  0.45303734197E+03  0.00000000000E+00 0. -1.
         -1    1    6    6    0  503 -0.29446244882E+02  0.49948476297E+02 -0.16075450350E+02  0.60169358696E+02  0.00000000000E+00 0.  1.
<mgrwt>
<rscale>  0 0.15012132E+04</rscale>
<asrwt>0</asrwt>
<pdfrwt beam="1">  1        3 0.85676039E-01 0.15012132E+04</pdfrwt>
<pdfrwt beam="2">  1       -4 0.15564626E+00 0.15012132E+04</pdfrwt>
<totfact> 0.74388572E-01</totfact>
</mgrwt>
</event>
<event>
12    4  0.4381187E-008  0.2431517E+04  0.7818608E-02  0.8427798E-01
         -2   -1    0    0    0  501 -0.00000000000E+00  0.00000000000E+00  0.87090332642E+03  0.87090332642E+03  0.00000000000E+00 0.  1.
          1   -1    0    0  501    0  0.00000000000E+00 -0.00000000000E+00 -0.16971667996E+04  0.16971667996E+04  0.00000000000E+00 0. -1.
        -24    2    1    2    0    0  0.58795571367E+03  0.85976031809E+03 -0.25106405988E+03  0.10744838633E+04  0.81256904563E+02 0.  0.
        254    2    1    2    0    0 -0.58795571367E+03 -0.85976031809E+03 -0.57519941325E+03  0.14935862627E+04  0.90280996520E+03 0.  0.
         23    2    4    4    0    0 -0.48464799205E+03 -0.16983714344E+03  0.85379723624E+02  0.52852267629E+03  0.91204115396E+02 0.  0.
         23    2    4    4    0    0 -0.10330772162E+03 -0.68992317464E+03 -0.66057913688E+03  0.96506358638E+03  0.91194612948E+02 0.  0.
          3    1    3    3  502    0  0.39896480052E+03  0.60033651791E+03 -0.21076994311E+03  0.75099987730E+03  0.00000000000E+00 0. -1.
         -4    1    3    3    0  502  0.18899091315E+03  0.25942380018E+03 -0.40294116767E+02  0.32348398600E+03  0.00000000000E+00 0.  1.
         11    1    5    5    0    0 -0.18770376775E+03 -0.52342075449E+02  0.75636873915E+02  0.20902950506E+03  0.00000000000E+00 0.  1.
        -11    1    5    5    0    0 -0.29694422429E+03 -0.11749506799E+03  0.97428497082E+01  0.31949317123E+03  0.00000000000E+00 0. -1.
          2    1    6    6  503    0  0.10937383717E+02 -0.14987861259E+02 -0.23465218579E+02  0.29914525412E+02  0.00000000000E+00 0.  1.
         -2    1    6    6    0  503 -0.11424510534E+03 -0.67493531338E+03 -0.63711391830E+03  0.93514906097E+03  0.00000000000E+00 0. -1.
<mgrwt>
<rscale>  0 0.24315166E+04</rscale>
<asrwt>0</asrwt>
<pdfrwt beam="1">  1        1 0.26110258E+00 0.24315166E+04</pdfrwt>
<pdfrwt beam="2">  1       -2 0.13398513E+00 0.24315166E+04</pdfrwt>
<totfact> 0.15114248E+00</totfact>
</mgrwt>
</event>
<event>
12    4  0.4381187E-008  0.1934719E+04  0.7818608E-02  0.8637765E-01
          1   -1    0    0  501    0  0.00000000000E+00  0.00000000000E+00  0.15194273371E+04  0.15194273371E+04  0.00000000000E+00 0. -1.
         -2   -1    0    0    0  501 -0.00000000000E+00 -0.00000000000E+00 -0.61587946263E+03  0.61587946263E+03  0.00000000000E+00 0.  1.
        -24    2    1    2    0    0 -0.30018284788E+03  0.30363449159E+03 -0.32984986868E+03  0.54533734266E+03  0.79298390823E+02 0.  0.
        254    2    1    2    0    0  0.30018284788E+03 -0.30363449159E+03  0.12333977432E+04  0.15899694571E+04  0.90798085607E+03 0.  0.
         23    2    4    4    0    0  0.60303739967E+03 -0.22918030379E+03  0.98118916769E+03  0.11778766800E+04  0.92106315602E+02 0.  0.
         23    2    4    4    0    0 -0.30285455179E+03 -0.74454187803E+02  0.25220857551E+03  0.41209277715E+03  0.94588507727E+02 0.  0.
          3    1    3    3  502    0 -0.16342064025E+01 -0.31600249492E+01  0.16362893274E+01  0.39158435884E+01  0.00000000000E+00 0. -1.
         -4    1    3    3    0  502 -0.29854864147E+03  0.30679451654E+03 -0.33148615801E+03  0.54142149907E+03  0.00000000000E+00 0.  1.
         11    1    5    5    0    0  0.12587209148E+03 -0.88860877174E+02  0.24503530721E+03  0.28945179337E+03  0.00000000000E+00 0. -1.
        -11    1    5    5    0    0  0.47716530819E+03 -0.14031942662E+03  0.73615386048E+03  0.88842488660E+03  0.00000000000E+00 0.  1.
          4    1    6    6  503    0 -0.19059832072E+01 -0.76444333472E+01 -0.60510736855E+01  0.99340639183E+01  0.00000000000E+00 0.  1.
         -4    1    6    6    0  503 -0.30094856858E+03 -0.66809754456E+02  0.25825964920E+03  0.40215871323E+03  0.00000000000E+00 0. -1.
<mgrwt>
<rscale>  0 0.19347187E+04</rscale>
<asrwt>0</asrwt>
<pdfrwt beam="1">  1        1 0.23375805E+00 0.19347187E+04</pdfrwt>
<pdfrwt beam="2">  1       -2 0.94750687E-01 0.19347187E+04</pdfrwt>
<totfact> 0.48693195E+00</totfact>
</mgrwt>
</event>
<event>
12    4  0.4381187E-008  0.1241433E+04  0.7818608E-02  0.9077344E-01
         -2   -1    0    0    0  501 -0.00000000000E+00  0.00000000000E+00  0.41153078200E+03  0.41153078200E+03  0.00000000000E+00 0.  1.
          1   -1    0    0  501    0  0.00000000000E+00 -0.00000000000E+00 -0.93623410594E+03  0.93623410594E+03  0.00000000000E+00 0. -1.
        -24    2    1    2    0    0 -0.28376331184E+03  0.70269133788E+02 -0.13372662796E+03  0.33117591630E+03  0.79594649337E+02 0.  0.
        254    2    1    2    0    0  0.28376331184E+03 -0.70269133788E+02 -0.39097669598E+03  0.10165889716E+04  0.89170117874E+03 0.  0.
         23    2    4    4    0    0  0.24215159489E+03  0.27674772213E+01 -0.66619623844E+03  0.71475661864E+03  0.91730812345E+02 0.  0.
         23    2    4    4    0    0  0.41611716952E+02 -0.73036611010E+02  0.27521954246E+03  0.30183235301E+03  0.91055429452E+02 0.  0.
          1    1    3    3  502    0  0.35707729136E+01 -0.14033668900E+01  0.31224892082E+01  0.49466955317E+01  0.00000000000E+00 0. -1.
         -2    1    3    3    0  502 -0.28733408475E+03  0.71672500678E+02 -0.13684911717E+03  0.32622922077E+03  0.00000000000E+00 0.  1.
         11    1    5    5    0    0  0.66923592549E+01 -0.17165484045E+02 -0.22641616634E+02  0.29190483358E+02  0.00000000000E+00 0.  1.
        -11    1    5    5    0    0  0.23545923563E+03  0.19932961266E+02 -0.64355462181E+03  0.68556613528E+03  0.00000000000E+00 0. -1.
          4    1    6    6  503    0  0.90283754902E+01 -0.49073235815E+02  0.24825938880E+03  0.25322404737E+03  0.00000000000E+00 0. -1.
         -4    1    6    6    0  503  0.32583341462E+02 -0.23963375195E+02  0.26960153659E+02  0.48608305637E+02  0.00000000000E+00 0.  1.
<mgrwt>
<rscale>  0 0.12414333E+04</rscale>
<asrwt>0</asrwt>
<pdfrwt beam="1">  1        1 0.14403601E+00 0.12414333E+04</pdfrwt>
<pdfrwt beam="2">  1       -2 0.63312429E-01 0.12414333E+04</pdfrwt>
<totfact> 0.33973612E+01</totfact>
</mgrwt>
</event>
<event>
12    4  0.4381187E-008  0.1737130E+04  0.7818608E-02  0.8740466E-01
         -2   -1    0    0    0  501 -0.00000000000E+00  0.00000000000E+00  0.35145330989E+03  0.35145330989E+03  0.00000000000E+00 0.  1.
          1   -1    0    0  501    0  0.00000000000E+00 -0.00000000000E+00 -0.21465305808E+04  0.21465305808E+04  0.00000000000E+00 0. -1.
        -24    2    1    2    0    0  0.21095163715E+03 -0.38797780062E+03 -0.10590581418E+02  0.44827920256E+03  0.76254285442E+02 0.  0.
        254    2    1    2    0    0 -0.21095163715E+03  0.38797780062E+03 -0.17844866895E+04  0.20497046881E+04  0.90657001744E+03 0.  0.
         23    2    4    4    0    0 -0.20062822970E+03  0.62412285044E+03 -0.82385291707E+03  0.10568171224E+04  0.91366198752E+02 0.  0.
         23    2    4    4    0    0 -0.10323407450E+02 -0.23614504981E+03 -0.96063377239E+03  0.99288756567E+03  0.84483229831E+02 0.  0.
          3    1    3    3  502    0  0.44257951645E+02 -0.30602647968E+02 -0.20576136337E+01  0.53847210887E+02  0.00000000000E+00 0. -1.
         -4    1    3    3    0  502  0.16669368550E+03 -0.35737515265E+03 -0.85329677843E+01  0.39443199168E+03  0.00000000000E+00 0.  1.
         11    1    5    5    0    0 -0.17468252809E+03  0.41739083886E+03 -0.53543154126E+03  0.70101072271E+03  0.00000000000E+00 0. -1.
        -11    1    5    5    0    0 -0.25945701601E+02  0.20673201157E+03 -0.28842137582E+03  0.35580639970E+03  0.00000000000E+00 0.  1.
          2    1    6    6  503    0  0.14440554004E+02 -0.14805547253E+03 -0.44522375350E+03  0.46941787698E+03  0.00000000000E+00 0. -1.
         -2    1    6    6    0  503 -0.24763961453E+02 -0.88089577288E+02 -0.51541001888E+03  0.52346968869E+03  0.00000000000E+00 0.  1.
<mgrwt>
<rscale>  0 0.17371301E+04</rscale>
<asrwt>0</asrwt>
<pdfrwt beam="1">  1        1 0.33023548E+00 0.17371301E+04</pdfrwt>
<pdfrwt beam="2">  1       -2 0.54069739E-01 0.17371301E+04</pdfrwt>
<totfact> 0.63601211E+00</totfact>
</mgrwt>
</event>
<event>
12    4  0.4381187E-008  0.1500417E+04  0.7818608E-02  0.8884176E-01
         -2   -1    0    0    0  501 -0.00000000000E+00  0.00000000000E+00  0.19728193469E+03  0.19728193469E+03  0.00000000000E+00 0.  1.
          1   -1    0    0  501    0  0.00000000000E+00 -0.00000000000E+00 -0.28528348198E+04  0.28528348198E+04  0.00000000000E+00 0. -1.
        -24    2    1    2    0    0  0.83937441258E+02 -0.36209072677E+03 -0.26418376207E+03  0.46293103808E+03  0.79730153726E+02 0.  0.
        254    2    1    2    0    0 -0.83937441258E+02  0.36209072677E+03 -0.23913691231E+04  0.25871857164E+04  0.91472862652E+03 0.  0.
         23    2    4    4    0    0 -0.10430833689E+03 -0.12447717731E+03 -0.50828430491E+02  0.19476823286E+03  0.94743539985E+02 0.  0.
         23    2    4    4    0    0  0.20370895635E+02  0.48656790408E+03 -0.23405406926E+04  0.23924174836E+04  0.91473403206E+02 0.  0.
          3    1    3    3  502    0 -0.24497606001E+01  0.26207277214E+01  0.10905745463E+01  0.37495191197E+01  0.00000000000E+00 0. -1.
         -4    1    3    3    0  502  0.86387201858E+02 -0.36471145449E+03 -0.26527433662E+03  0.45918151896E+03  0.00000000000E+00 0.  1.
         11    1    5    5    0    0 -0.12027375790E+03 -0.11929554059E+03 -0.37923275633E+02  0.17359544257E+03  0.00000000000E+00 0. -1.
        -11    1    5    5    0    0  0.15965421006E+02 -0.51816367156E+01 -0.12905154857E+02  0.21172790294E+02  0.00000000000E+00 0.  1.
          4    1    6    6  503    0  0.32168857086E+02  0.39366249304E+03 -0.20297765453E+04  0.20678485964E+04  0.00000000000E+00 0. -1.
         -4    1    6    6    0  503 -0.11797961451E+02  0.92905411039E+02 -0.31076414723E+03  0.32456888714E+03  0.00000000000E+00 0.  1.
<mgrwt>
<rscale>  0 0.15004170E+04</rscale>
<asrwt>0</asrwt>
<pdfrwt beam="1">  1        1 0.43889766E+00 0.15004170E+04</pdfrwt>
<pdfrwt beam="2">  1       -2 0.30351067E-01 0.15004170E+04</pdfrwt>
<totfact> 0.65434439E+00</totfact>
</mgrwt>
</event>
<event>
12    4  0.4381187E-008  0.1477804E+04  0.7818608E-02  0.8899348E-01
          1   -1    0    0  501    0  0.00000000000E+00  0.00000000000E+00  0.64498794443E+03  0.64498794443E+03  0.00000000000E+00 0. -1.
         -2   -1    0    0    0  501 -0.00000000000E+00 -0.00000000000E+00 -0.84649072787E+03  0.84649072787E+03  0.00000000000E+00 0.  1.
        -24    2    1    2    0    0 -0.20727064532E+03 -0.29446057822E+03 -0.35098933135E+03  0.50871734931E+03  0.77017389159E+02 0.  0.
        254    2    1    2    0    0  0.20727064532E+03  0.29446057822E+03  0.14948654792E+03  0.98276132298E+03  0.90211165462E+03 0.  0.
         23    2    4    4    0    0  0.47874583636E+02 -0.29613722881E+03  0.18044485108E+03  0.36320771878E+03  0.96800148026E+02 0.  0.
         23    2    4    4    0    0  0.15939606168E+03  0.59059780702E+03 -0.30958303165E+02  0.61955360420E+03  0.93141708148E+02 0.  0.
          3    1    3    3  502    0 -0.32582747657E+02 -0.11875885232E+02 -0.21438586947E+02  0.40771130782E+02  0.00000000000E+00 0. -1.
         -4    1    3    3    0  502 -0.17468789766E+03 -0.28258469298E+03 -0.32955074441E+03  0.46794621853E+03  0.00000000000E+00 0.  1.
         11    1    5    5    0    0  0.40593852979E+01  0.45525632474E+01 -0.44144311592E+01  0.75293853387E+01  0.00000000000E+00 0.  1.
        -11    1    5    5    0    0  0.43815198338E+02 -0.30068979206E+03  0.18485928224E+03  0.35567833345E+03  0.00000000000E+00 0. -1.
          1    1    6    6  503    0  0.94482137024E+02  0.38301804668E+03 -0.63703069049E+02  0.39960953355E+03  0.00000000000E+00 0. -1.
         -1    1    6    6    0  503  0.64913924659E+02  0.20757976034E+03  0.32744765884E+02  0.21994407065E+03  0.00000000000E+00 0.  1.
<mgrwt>
<rscale>  0 0.14778042E+04</rscale>
<asrwt>0</asrwt>
<pdfrwt beam="1">  1        1 0.99228914E-01 0.14778042E+04</pdfrwt>
<pdfrwt beam="2">  1       -2 0.13022934E+00 0.14778042E+04</pdfrwt>
<totfact> 0.11294899E+01</totfact>
</mgrwt>
</event>
<event>
12    4  0.4381187E-008  0.3684009E+04  0.7818608E-02  0.8071515E-01
          1   -1    0    0  501    0  0.00000000000E+00  0.00000000000E+00  0.18174206220E+04  0.18174206220E+04  0.00000000000E+00 0. -1.
         -2   -1    0    0    0  501 -0.00000000000E+00 -0.00000000000E+00 -0.18669209592E+04  0.18669209592E+04  0.00000000000E+00 0.  1.
        -24    2    1    2    0    0 -0.39857040721E+03  0.96871073829E+03 -0.14101631620E+04  0.17580731785E+04  0.70726892540E+02 0.  0.
        254    2    1    2    0    0  0.39857040721E+03 -0.96871073829E+03  0.13606628248E+04  0.19262684028E+04  0.87283891578E+03 0.  0.
         23    2    4    4    0    0 -0.11680989538E+03 -0.27694981954E+03  0.88031218507E+03  0.93467231581E+03  0.91197809976E+02 0.  0.
         23    2    4    4    0    0  0.51538030260E+03 -0.69176091875E+03  0.48035063969E+03  0.99159608698E+03  0.91520695209E+02 0.  0.
          1    1    3    3  502    0 -0.23811097209E+02  0.11443727488E+03 -0.16613479893E+03  0.20313451121E+03  0.00000000000E+00 0. -1.
         -2    1    3    3    0  502 -0.37475931000E+03  0.85427346341E+03 -0.12440283631E+04  0.15549386672E+04  0.00000000000E+00 0.  1.
         11    1    5    5    0    0 -0.98905332828E+02 -0.26064752393E+03  0.85643093525E+03  0.90066272457E+03  0.00000000000E+00 0. -1.
        -11    1    5    5    0    0 -0.17904562554E+02 -0.16302295611E+02  0.23881249827E+02  0.34009591232E+02  0.00000000000E+00 0.  1.
          3    1    6    6  503    0  0.31336019552E+03 -0.48062902803E+03  0.34565128357E+03  0.66983108658E+03  0.00000000000E+00 0. -1.
         -3    1    6    6    0  503  0.20202010707E+03 -0.21113189073E+03  0.13469935613E+03  0.32176500040E+03  0.00000000000E+00 0.  1.
<mgrwt>
<rscale>  0 0.36840090E+04</rscale>
<asrwt>0</asrwt>
<pdfrwt beam="1">  1        1 0.27960317E+00 0.36840090E+04</pdfrwt>
<pdfrwt beam="2">  1       -2 0.28721861E+00 0.36840090E+04</pdfrwt>
<totfact> 0.10650045E-01</totfact>
</mgrwt>
</event>
<event>
12    4  0.4381187E-008  0.1671564E+04  0.7818608E-02  0.8777751E-01
         -4   -1    0    0    0  501 -0.00000000000E+00  0.00000000000E+00  0.38152182780E+03  0.38152182780E+03  0.00000000000E+00 0.  1.
          3   -1    0    0  501    0  0.00000000000E+00 -0.00000000000E+00 -0.18309074959E+04  0.18309074959E+04  0.00000000000E+00 0. -1.
        -24    2    1    2    0    0 -0.19110500088E+03 -0.39015251698E+03 -0.98914390748E+03  0.10834670623E+04  0.82189400622E+02 0.  0.
        254    2    1    2    0    0  0.19110500088E+03  0.39015251698E+03 -0.46024176062E+03  0.11289622614E+04  0.93487603538E+03 0.  0.
         23    2    4    4    0    0 -0.31124686801E+03  0.34443946447E+03 -0.38158104641E+03  0.60949071867E+03  0.10179235542E+03 0.  0.
         23    2    4    4    0    0  0.50235186889E+03  0.45713052508E+02 -0.78660714205E+02  0.51947154271E+03  0.96000481161E+02 0.  0.
          3    1    3    3  502    0 -0.84259181324E+02 -0.11513762511E+03 -0.39767346853E+03  0.42249315962E+03  0.00000000000E+00 0. -1.
         -4    1    3    3    0  502 -0.10684581955E+03 -0.27501489187E+03 -0.59147043895E+03  0.66097390271E+03  0.00000000000E+00 0.  1.
         11    1    5    5    0    0 -0.30232724221E+03  0.32503882988E+03 -0.32837944289E+03  0.55216398002E+03  0.00000000000E+00 0. -1.
        -11    1    5    5    0    0 -0.89196258037E+01  0.19400634593E+02 -0.53201603520E+02  0.57326738649E+02  0.00000000000E+00 0.  1.
          4    1    6    6  503    0  0.36406136625E+03  0.46570364792E+02 -0.97865001330E+02  0.37985133376E+03  0.00000000000E+00 0. -1.
         -4    1    6    6    0  503  0.13829050264E+03 -0.85731228388E+00  0.19204287124E+02  0.13962020896E+03  0.00000000000E+00 0.  1.
<mgrwt>
<rscale>  0 0.16715635E+04</rscale>
<asrwt>0</asrwt>
<pdfrwt beam="1">  1        3 0.28167808E+00 0.16715635E+04</pdfrwt>
<pdfrwt beam="2">  1       -4 0.58695664E-01 0.16715635E+04</pdfrwt>
<totfact> 0.29454219E-01</totfact>
</mgrwt>
</event>
<event>
12    4  0.4381187E-008  0.2200374E+04  0.7818608E-02  0.8518273E-01
          1   -1    0    0  501    0  0.00000000000E+00  0.00000000000E+00  0.13978270580E+04  0.13978270580E+04  0.00000000000E+00 0. -1.
         -2   -1    0    0    0  501 -0.00000000000E+00 -0.00000000000E+00 -0.86592329723E+03  0.86592329723E+03  0.00000000000E+00 0.  1.
        -24    2    1    2    0    0 -0.87619168671E+03  0.94360175740E+02  0.47118139593E+03  0.10025540888E+04  0.80542402101E+02 0.  0.
        254    2    1    2    0    0  0.87619168671E+03 -0.94360175740E+02  0.60722364844E+02  0.12611962664E+04  0.90017392884E+03 0.  0.
         23    2    4    4    0    0  0.16717268297E+03 -0.39976524070E+03  0.17387885843E+03  0.47578711655E+03  0.91545449138E+02 0.  0.
         23    2    4    4    0    0  0.70901900374E+03  0.30540506496E+03 -0.11315649359E+03  0.78540914985E+03  0.89905168136E+02 0.  0.
          1    1    3    3  502    0 -0.54069130592E+03  0.57437142725E+02  0.24590146697E+03  0.59675258283E+03  0.00000000000E+00 0. -1.
         -2    1    3    3    0  502 -0.33550038079E+03  0.36923033016E+02  0.22527992896E+03  0.40580150600E+03  0.00000000000E+00 0.  1.
         11    1    5    5    0    0  0.16354310078E+03 -0.37763497411E+03  0.18447620717E+03  0.45098335945E+03  0.00000000000E+00 0. -1.
        -11    1    5    5    0    0  0.36295821872E+01 -0.22130266590E+02 -0.10597348734E+02  0.24803757102E+02  0.00000000000E+00 0.  1.
          4    1    6    6  503    0  0.34166765467E+03  0.15198476010E+03 -0.10001579595E+03  0.38709083300E+03  0.00000000000E+00 0. -1.
         -4    1    6    6    0  503  0.36735134906E+03  0.15342030486E+03 -0.13140697644E+02  0.39831831685E+03  0.00000000000E+00 0.  1.
<mgrwt>
<rscale>  0 0.22003736E+04</rscale>
<asrwt>0</asrwt>
<pdfrwt beam="1">  1        1 0.21505032E+00 0.22003736E+04</pdfrwt>
<pdfrwt beam="2">  1       -2 0.13321897E+00 0.22003736E+04</pdfrwt>
<totfact> 0.25180141E+00</totfact>
</mgrwt>
</event>
<event>
12    4  0.4381187E-008  0.1420225E+04  0.7818608E-02  0.8939307E-01
          1   -1    0    0  501    0  0.00000000000E+00  0.00000000000E+00  0.16305327645E+04  0.16305327645E+04  0.00000000000E+00 0. -1.
         -2   -1    0    0    0  501 -0.00000000000E+00 -0.00000000000E+00 -0.30926093469E+03  0.30926093469E+03  0.00000000000E+00 0.  1.
        -24    2    1    2    0    0 -0.21628941260E+03  0.34259497386E+03  0.25345281967E+03  0.48447444481E+03  0.79528169621E+02 0.  0.
        254    2    1    2    0    0  0.21628941260E+03 -0.34259497386E+03  0.10678190101E+04  0.14553192543E+04  0.90197797511E+03 0.  0.
         23    2    4    4    0    0 -0.31149349358E+03  0.37848489194E+02  0.43143961209E+03  0.54076141320E+03  0.88442424508E+02 0.  0.
         23    2    4    4    0    0  0.52778290618E+03 -0.38044346305E+03  0.63637939801E+03  0.91455784113E+03  0.90251215635E+02 0.  0.
          1    1    3    3  502    0 -0.31720248364E+02  0.89453447366E+02  0.29550817836E+02  0.99404950766E+02  0.00000000000E+00 0. -1.
         -2    1    3    3    0  502 -0.18456916424E+03  0.25314152649E+03  0.22390200183E+03  0.38506949405E+03  0.00000000000E+00 0.  1.
         11    1    5    5    0    0 -0.28970674903E+03  0.38590708076E+02  0.42861833402E+03  0.51878022267E+03  0.00000000000E+00 0.  1.
        -11    1    5    5    0    0 -0.21786744554E+02 -0.74221888132E+00  0.28212780709E+01  0.21981190529E+02  0.00000000000E+00 0. -1.
          2    1    6    6  503    0  0.77009773658E+02 -0.79914518546E+02  0.72349569109E+02  0.13248130307E+03  0.00000000000E+00 0. -1.
         -2    1    6    6    0  503  0.45077313252E+03 -0.30052894451E+03  0.56402982890E+03  0.78207653806E+03  0.00000000000E+00 0.  1.
<mgrwt>
<rscale>  0 0.14202255E+04</rscale>
<asrwt>0</asrwt>
<pdfrwt beam="1">  1        1 0.25085119E+00 0.14202255E+04</pdfrwt>
<pdfrwt beam="2">  1       -2 0.47578606E-01 0.14202255E+04</pdfrwt>
<totfact> 0.19018265E+01</totfact>
</mgrwt>
</event>
<event>
12    4  0.4381187E-008  0.3921619E+04  0.7818608E-02  0.8020548E-01
         -2   -1    0    0    0  501 -0.00000000000E+00  0.00000000000E+00  0.17864845342E+04  0.17864845342E+04  0.00000000000E+00 0.  1.
          1   -1    0    0  501    0  0.00000000000E+00 -0.00000000000E+00 -0.21521448597E+04  0.21521448597E+04  0.00000000000E+00 0. -1.
        -24    2    1    2    0    0  0.11371598688E+04 -0.37289562710E+03 -0.16190934988E+04  0.20149913080E+04  0.80885707009E+02 0.  0.
        254    2    1    2    0    0 -0.11371598688E+04  0.37289562710E+03  0.12534331733E+04  0.19236380858E+04  0.83492817010E+03 0.  0.
         23    2    4    4    0    0 -0.18922112729E+03  0.28515023091E+03  0.77854089578E+03  0.85561710239E+03  0.94018138073E+02 0.  0.
         23    2    4    4    0    0 -0.94793874155E+03  0.87745396190E+02  0.47489227750E+03  0.10680209834E+04  0.94122438812E+02 0.  0.
          3    1    3    3  502    0  0.90260872402E+03 -0.28425286050E+03 -0.12259741870E+04  0.15487139518E+04  0.00000000000E+00 0. -1.
         -2    1    3    3    0  502  0.23455114481E+03 -0.88642766604E+02 -0.39311931182E+03  0.46627735623E+03  0.00000000000E+00 0.  1.
         11    1    5    5    0    0 -0.17564753086E+03  0.29094631956E+03  0.75245142866E+03  0.82564215521E+03  0.00000000000E+00 0. -1.
        -11    1    5    5    0    0 -0.13573596422E+02 -0.57960886502E+01  0.26089467129E+02  0.29974947182E+02  0.00000000000E+00 0.  1.
          3    1    6    6  503    0 -0.79577068008E+03  0.38719713830E+02  0.39957904274E+03  0.89129882919E+03  0.00000000000E+00 0. -1.
         -3    1    6    6    0  503 -0.15216806146E+03  0.49025682361E+02  0.75313234760E+02  0.17672215422E+03  0.00000000000E+00 0.  1.
<mgrwt>
<rscale>  0 0.39216188E+04</rscale>
<asrwt>0</asrwt>
<pdfrwt beam="1">  1        1 0.33109921E+00 0.39216188E+04</pdfrwt>
<pdfrwt beam="2">  1       -2 0.27484377E+00 0.39216188E+04</pdfrwt>
<totfact> 0.73648106E-02</totfact>
</mgrwt>
</event>
<event>
12    4  0.4381187E-008  0.1935529E+04  0.7818608E-02  0.8637371E-01
         -2   -1    0    0    0  501 -0.00000000000E+00  0.00000000000E+00  0.15937632476E+04  0.15937632476E+04  0.00000000000E+00 0.  1.
          1   -1    0    0  501    0  0.00000000000E+00 -0.00000000000E+00 -0.58764552356E+03  0.58764552356E+03  0.00000000000E+00 0. -1.
        -24    2    1    2    0    0  0.10412300072E+03 -0.45096818356E+03  0.10685779935E+04  0.11674888867E+04  0.83411453130E+02 0.  0.
        254    2    1    2    0    0 -0.10412300072E+03  0.45096818356E+03 -0.62460269466E+02  0.10139198845E+04  0.89995463496E+03 0.  0.
         23    2    4    4    0    0 -0.24214636297E+03  0.26549342030E+03  0.36471835075E+03  0.52007041781E+03  0.91280593716E+02 0.  0.
         23    2    4    4    0    0  0.13802336225E+03  0.18547476326E+03 -0.42717862021E+03  0.49384946665E+03  0.89187363512E+02 0.  0.
          1    1    3    3  502    0 -0.80553145862E+01 -0.36391314655E+01  0.26086868522E+02  0.27543712172E+02  0.00000000000E+00 0. -1.
         -2    1    3    3    0  502  0.11217831531E+03 -0.44732905210E+03  0.10424911250E+04  0.11399451745E+04  0.00000000000E+00 0.  1.
         11    1    5    5    0    0 -0.22683376317E+03  0.22540841905E+03  0.27974079093E+03  0.42487341833E+03  0.00000000000E+00 0.  1.
        -11    1    5    5    0    0 -0.15312599799E+02  0.40085001247E+02  0.84977559818E+02  0.95196999481E+02  0.00000000000E+00 0. -1.
          1    1    6    6  503    0 -0.82655364094E+01  0.42328752780E+02 -0.74164608348E+02  0.85792957377E+02  0.00000000000E+00 0. -1.
         -1    1    6    6    0  503  0.14628889866E+03  0.14314601048E+03 -0.35301401186E+03  0.40805650927E+03  0.00000000000E+00 0.  1.
<mgrwt>
<rscale>  0 0.19355287E+04</rscale>
<asrwt>0</asrwt>
<pdfrwt beam="1">  1        1 0.90407004E-01 0.19355287E+04</pdfrwt>
<pdfrwt beam="2">  1       -2 0.24519434E+00 0.19355287E+04</pdfrwt>
<totfact> 0.19825251E+00</totfact>
</mgrwt>
</event>
<event>
12    4  0.4381187E-008  0.1150553E+04  0.7818608E-02  0.9157273E-01
          1   -1    0    0  501    0  0.00000000000E+00  0.00000000000E+00  0.35889142204E+03  0.35889142204E+03  0.00000000000E+00 0. -1.
         -2   -1    0    0    0  501 -0.00000000000E+00 -0.00000000000E+00 -0.92212645370E+03  0.92212645370E+03  0.00000000000E+00 0.  1.
        -24    2    1    2    0    0 -0.76531144871E+01  0.31165265874E+02  0.12223841174E+03  0.14993905185E+03  0.80682377291E+02 0.  0.
        254    2    1    2    0    0  0.76531144871E+01 -0.31165265874E+02 -0.68547344340E+03  0.11310788239E+04  0.89913048014E+03 0.  0.
         23    2    4    4    0    0 -0.34291928227E+03  0.20149176542E+03 -0.12993027964E+03  0.42821472578E+03  0.91068150995E+02 0.  0.
         23    2    4    4    0    0  0.35057239675E+03 -0.23265703129E+03 -0.55554316376E+03  0.70286409812E+03  0.91429940648E+02 0.  0.
          3    1    3    3  502    0  0.12004767614E+02  0.24183958505E+02  0.12589727104E+03  0.12875985846E+03  0.00000000000E+00 0. -1.
         -4    1    3    3    0  502 -0.19657882101E+02  0.69813073688E+01 -0.36588592991E+01  0.21179193390E+02  0.00000000000E+00 0.  1.
         11    1    5    5    0    0 -0.30526899584E+03  0.20181920348E+03 -0.13534140159E+03  0.39017617265E+03  0.00000000000E+00 0.  1.
        -11    1    5    5    0    0 -0.37650286423E+02 -0.32743806309E+00  0.54111219566E+01  0.38038553131E+02  0.00000000000E+00 0. -1.
          3    1    6    6  503    0  0.12068503360E+02  0.76969952541E+01 -0.10677226442E+02  0.17857650287E+02  0.00000000000E+00 0. -1.
         -3    1    6    6    0  503  0.33850389339E+03 -0.24035402655E+03 -0.54486593732E+03  0.68500644783E+03  0.00000000000E+00 0.  1.
<mgrwt>
<rscale>  0 0.11505534E+04</rscale>
<asrwt>0</asrwt>
<pdfrwt beam="1">  1        1 0.55214067E-01 0.11505534E+04</pdfrwt>
<pdfrwt beam="2">  1       -2 0.14186560E+00 0.11505534E+04</pdfrwt>
<totfact> 0.20830844E+01</totfact>
</mgrwt>
</event>
<event>
12    4  0.4381187E-008  0.1863757E+04  0.7818608E-02  0.8673110E-01
          3   -1    0    0  501    0  0.00000000000E+00  0.00000000000E+00  0.74401621111E+03  0.74401621111E+03  0.00000000000E+00 0. -1.
         -4   -1    0    0    0  501 -0.00000000000E+00 -0.00000000000E+00 -0.11671758275E+04  0.11671758275E+04  0.00000000000E+00 0.  1.
        -24    2    1    2    0    0 -0.34632854890E+03  0.63093451177E+03 -0.85008882076E+02  0.72909630556E+03  0.79580718861E+02 0.  0.
        254    2    1    2    0    0  0.34632854890E+03 -0.63093451177E+03 -0.33815073428E+03  0.11820957330E+04  0.87463282640E+03 0.  0.
         23    2    4    4    0    0  0.30623230282E+03 -0.18911889827E+02  0.18410747544E+03  0.37119928509E+03  0.98779875847E+02 0.  0.
         23    2    4    4    0    0  0.40096246082E+02 -0.61202262194E+03 -0.52225820972E+03  0.81089644794E+03  0.92844024771E+02 0.  0.
          3    1    3    3  502    0 -0.14944473332E+03  0.30140225455E+03 -0.23337562411E+01  0.33642605991E+03  0.00000000000E+00 0. -1.
         -4    1    3    3    0  502 -0.19688381558E+03  0.32953225722E+03 -0.82675125835E+02  0.39267024565E+03  0.00000000000E+00 0.  1.
         11    1    5    5    0    0  0.32600062375E+02 -0.35155534071E+02  0.22138927634E+02  0.52809163593E+02  0.00000000000E+00 0.  1.
        -11    1    5    5    0    0  0.27363224044E+03  0.16243644244E+02  0.16196854781E+03  0.31839012150E+03  0.00000000000E+00 0. -1.
          1    1    6    6  503    0  0.17590598930E+02 -0.54460045807E+03 -0.49014657400E+03  0.73290023339E+03  0.00000000000E+00 0. -1.
         -1    1    6    6    0  503  0.22505647152E+02 -0.67422163872E+02 -0.32111635727E+02  0.77996214549E+02  0.00000000000E+00 0.  1.
<mgrwt>
<rscale>  0 0.18637572E+04</rscale>
<asrwt>0</asrwt>
<pdfrwt beam="1">  1        3 0.11446403E+00 0.18637572E+04</pdfrwt>
<pdfrwt beam="2">  1       -4 0.17956551E+00 0.18637572E+04</pdfrwt>
<totfact> 0.24687221E-01</totfact>
</mgrwt>
</event>
<event>
12    4  0.4381187E-008  0.1335476E+04  0.7818608E-02  0.9001896E-01
         -2   -1    0    0    0  501 -0.00000000000E+00  0.00000000000E+00  0.18212808670E+03  0.18212808670E+03  0.00000000000E+00 0.  1.
          1   -1    0    0  501    0  0.00000000000E+00 -0.00000000000E+00 -0.24481326623E+04  0.24481326623E+04  0.00000000000E+00 0. -1.
        -24    2    1    2    0    0 -0.75837465330E+02  0.75951897418E+02  0.30968952541E+02  0.13236543984E+03  0.71003674361E+02 0.  0.
        254    2    1    2    0    0  0.75837465330E+02 -0.75951897418E+02 -0.22969735281E+04  0.24978953091E+04  0.97564008458E+03 0.  0.
         23    2    4    4    0    0  0.37746658024E+02 -0.37619084340E+03 -0.34220218583E+03  0.51775881972E+03  0.89596308853E+02 0.  0.
         23    2    4    4    0    0  0.38090807307E+02  0.30023894599E+03 -0.19547713423E+04  0.19801364894E+04  0.90637639921E+02 0.  0.
          3    1    3    3  502    0  0.83007789132E+01  0.32865725941E+02  0.11950216364E+02  0.35942545032E+02  0.00000000000E+00 0. -1.
         -4    1    3    3    0  502 -0.84138244244E+02  0.43086171477E+02  0.19018736177E+02  0.96422894806E+02  0.00000000000E+00 0.  1.
         11    1    5    5    0    0  0.20386734390E+02 -0.22001230831E+03 -0.13960407552E+03  0.26136245455E+03  0.00000000000E+00 0. -1.
        -11    1    5    5    0    0  0.17359923633E+02 -0.15617853509E+03 -0.20259811030E+03  0.25639636517E+03  0.00000000000E+00 0.  1.
          4    1    6    6  503    0  0.56116984756E+02  0.24515198400E+03 -0.17214414354E+04  0.17397152717E+04  0.00000000000E+00 0. -1.
         -4    1    6    6    0  503 -0.18026177450E+02  0.55086961981E+02 -0.23332990692E+03  0.24042121770E+03  0.00000000000E+00 0.  1.
<mgrwt>
<rscale>  0 0.13354755E+04</rscale>
<asrwt>0</asrwt>
<pdfrwt beam="1">  1        1 0.37663577E+00 0.13354755E+04</pdfrwt>
<pdfrwt beam="2">  1       -2 0.28019708E-01 0.13354755E+04</pdfrwt>
<totfact> 0.14796422E+01</totfact>
</mgrwt>
</event>
<event>
12    4  0.4381187E-008  0.2614647E+04  0.7818608E-02  0.8363243E-01
          1   -1    0    0  501    0  0.00000000000E+00  0.00000000000E+00  0.20592063589E+04  0.20592063589E+04  0.00000000000E+00 0. -1.
         -2   -1    0    0    0  501 -0.00000000000E+00 -0.00000000000E+00 -0.82997762100E+03  0.82997762100E+03  0.00000000000E+00 0.  1.
        -24    2    1    2    0    0  0.36081169387E+03 -0.10462616673E+04  0.89061567743E+03  0.14226603675E+04  0.76926466660E+02 0.  0.
        254    2    1    2    0    0 -0.36081169387E+03  0.10462616673E+04  0.33861306044E+03  0.14665236124E+04  0.90065761869E+03 0.  0.
         23    2    4    4    0    0  0.18658034856E+03 -0.32033783499E+02  0.32491048554E+02  0.21575032539E+03  0.98255508316E+02 0.  0.
         23    2    4    4    0    0 -0.54739204244E+03  0.10782954508E+04  0.30612201189E+03  0.12507732870E+04  0.91454917699E+02 0.  0.
          3    1    3    3  502    0  0.26116413379E+03 -0.76389901507E+03  0.69244482171E+03  0.10635921404E+04  0.00000000000E+00 0. -1.
         -4    1    3    3    0  502  0.99647560082E+02 -0.28236265227E+03  0.19817085572E+03  0.35906822706E+03  0.00000000000E+00 0.  1.
         11    1    5    5    0    0  0.12340234067E+03 -0.62982601538E+02  0.69520836727E+00  0.13854756979E+03  0.00000000000E+00 0. -1.
        -11    1    5    5    0    0  0.63178007889E+02  0.30948818039E+02  0.31795840187E+02  0.77202755599E+02  0.00000000000E+00 0.  1.
          1    1    6    6  503    0 -0.54600228380E+03  0.10418089220E+04  0.29631218315E+03  0.12129654710E+04  0.00000000000E+00 0. -1.
         -1    1    6    6    0  503 -0.13897586340E+01  0.36486528842E+02  0.98098287433E+01  0.37807816070E+02  0.00000000000E+00 0.  1.
<mgrwt>
<rscale>  0 0.26146474E+04</rscale>
<asrwt>0</asrwt>
<pdfrwt beam="1">  1        1 0.31680098E+00 0.26146474E+04</pdfrwt>
<pdfrwt beam="2">  1       -2 0.12768887E+00 0.26146474E+04</pdfrwt>
<totfact> 0.95439734E-01</totfact>
</mgrwt>
</event>
<event>
12    4  0.4381187E-008  0.1842638E+04  0.7818608E-02  0.8683948E-01
          1   -1    0    0  501    0  0.00000000000E+00  0.00000000000E+00  0.51853253000E+03  0.51853253000E+03  0.00000000000E+00 0. -1.
         -2   -1    0    0    0  501 -0.00000000000E+00 -0.00000000000E+00 -0.16369824685E+04  0.16369824685E+04  0.00000000000E+00 0.  1.
        -24    2    1    2    0    0 -0.35085549736E+03  0.10475921849E+03 -0.11245269127E+04  0.11852614646E+04  0.78802843638E+02 0.  0.
        254    2    1    2    0    0  0.35085549736E+03 -0.10475921849E+03  0.60769742285E+01  0.97025353388E+03  0.89848812820E+03 0.  0.
         23    2    4    4    0    0 -0.16428003376E+02 -0.11601187576E+02  0.40311706144E+03  0.41409091270E+03  0.92538921054E+02 0.  0.
         23    2    4    4    0    0  0.36728350074E+03 -0.93158030917E+02 -0.39704008721E+03  0.55616262118E+03  0.90002453891E+02 0.  0.
          1    1    3    3  502    0 -0.32294609558E+02 -0.11990117833E+02 -0.82936018382E+02  0.89805834316E+02  0.00000000000E+00 0. -1.
         -2    1    3    3    0  502 -0.31856088781E+03  0.11674933633E+03 -0.10415908943E+04  0.10954556303E+04  0.00000000000E+00 0.  1.
         11    1    5    5    0    0 -0.52374649820E+02 -0.29718469469E+00  0.16804977834E+03  0.17602249931E+03  0.00000000000E+00 0.  1.
        -11    1    5    5    0    0  0.35946646444E+02 -0.11304002881E+02  0.23506728310E+03  0.23806841339E+03  0.00000000000E+00 0. -1.
          4    1    6    6  503    0  0.16620301735E+03 -0.52353575046E+02 -0.24564797592E+03  0.30117647296E+03  0.00000000000E+00 0.  1.
         -4    1    6    6    0  503  0.20108048339E+03 -0.40804455871E+02 -0.15139211130E+03  0.25498614822E+03  0.00000000000E+00 0. -1.
<mgrwt>
<rscale>  0 0.18426380E+04</rscale>
<asrwt>0</asrwt>
<pdfrwt beam="1">  1        1 0.79774236E-01 0.18426380E+04</pdfrwt>
<pdfrwt beam="2">  1       -2 0.25184345E+00 0.18426380E+04</pdfrwt>
<totfact> 0.21705553E+00</totfact>
</mgrwt>
</event>
<event>
12    4  0.4381187E-008  0.1644269E+04  0.7818608E-02  0.8793804E-01
         -2   -1    0    0    0  501 -0.00000000000E+00  0.00000000000E+00  0.61439153297E+03  0.61439153297E+03  0.00000000000E+00 0.  1.
          1   -1    0    0  501    0  0.00000000000E+00 -0.00000000000E+00 -0.11001207395E+04  0.11001207395E+04  0.00000000000E+00 0. -1.
        -24    2    1    2    0    0 -0.56184120312E+02 -0.62044049002E+02  0.44612361390E+03  0.46030075816E+03  0.76448608133E+02 0.  0.
        254    2    1    2    0    0  0.56184120312E+02  0.62044049002E+02 -0.93185282040E+03  0.12542115143E+04  0.83527883025E+03 0.  0.
         23    2    4    4    0    0  0.10550937265E+03 -0.34932276410E+03 -0.24717523572E+03  0.44870560775E+03  0.84157614257E+02 0.  0.
         23    2    4    4    0    0 -0.49325252335E+02  0.41136681311E+03 -0.68467758468E+03  0.80550590653E+03  0.91655523806E+02 0.  0.
          3    1    3    3  502    0  0.90937576731E+01 -0.11281302934E+02  0.20265433215E+03  0.20317170709E+03  0.00000000000E+00 0. -1.
         -4    1    3    3    0  502 -0.65277877985E+02 -0.50762746068E+02  0.24346928176E+03  0.25712905106E+03  0.00000000000E+00 0.  1.
         11    1    5    5    0    0  0.25864407164E+02 -0.18347426870E+02 -0.81318405815E+01  0.32737172480E+02  0.00000000000E+00 0. -1.
        -11    1    5    5    0    0  0.79644965482E+02 -0.33097533723E+03 -0.23904339514E+03  0.41596843527E+03  0.00000000000E+00 0.  1.
          3    1    6    6  503    0 -0.40138093305E+02  0.71277657546E+02 -0.16832261595E+03  0.18714719886E+03  0.00000000000E+00 0. -1.
         -3    1    6    6    0  503 -0.91871590302E+01  0.34008915556E+03 -0.51635496873E+03  0.61835870767E+03  0.00000000000E+00 0.  1.
<mgrwt>
<rscale>  0 0.16442687E+04</rscale>
<asrwt>0</asrwt>
<pdfrwt beam="1">  1        1 0.16924934E+00 0.16442687E+04</pdfrwt>
<pdfrwt beam="2">  1       -2 0.94521775E-01 0.16442687E+04</pdfrwt>
<totfact> 0.10022073E+01</totfact>
</mgrwt>
</event>
<event>
12    4  0.4381187E-008  0.2257469E+04  0.7818608E-02  0.8494882E-01
         -2   -1    0    0    0  501 -0.00000000000E+00  0.00000000000E+00  0.84241800461E+03  0.84241800461E+03  0.00000000000E+00 0.  1.
          1   -1    0    0  501    0  0.00000000000E+00 -0.00000000000E+00 -0.15123627227E+04  0.15123627227E+04  0.00000000000E+00 0. -1.
        -24    2    1    2    0    0  0.54444454543E+03 -0.75841762419E+03 -0.19299646507E+03  0.95674383664E+03  0.80585220013E+02 0.  0.
        254    2    1    2    0    0 -0.54444454543E+03  0.75841762419E+03 -0.47694825301E+03  0.13980368907E+04  0.92488396885E+03 0.  0.
         23    2    4    4    0    0  0.11872243584E+03  0.50148283275E+03 -0.43438524790E+03  0.67995126961E+03  0.89794972795E+02 0.  0.
         23    2    4    4    0    0 -0.66316698127E+03  0.25693479144E+03 -0.42563005116E+02  0.71808562105E+03  0.89607017832E+02 0.  0.
          1    1    3    3  502    0  0.67098667336E+02 -0.12295986081E+03 -0.52813339817E+02  0.14970172809E+03  0.00000000000E+00 0. -1.
         -2    1    3    3    0  502  0.47734587810E+03 -0.63545776338E+03 -0.14018312525E+03  0.80704210856E+03  0.00000000000E+00 0.  1.
         11    1    5    5    0    0  0.16623086887E+02  0.14605804512E+03 -0.17343450734E+03  0.22735172728E+03  0.00000000000E+00 0.  1.
        -11    1    5    5    0    0  0.10209934895E+03  0.35542478763E+03 -0.26095074056E+03  0.45259954233E+03  0.00000000000E+00 0. -1.
          3    1    6    6  503    0 -0.48147065901E+03  0.14358534822E+03 -0.38429103590E+02  0.50389239299E+03  0.00000000000E+00 0. -1.
         -3    1    6    6    0  503 -0.18169632226E+03  0.11334944322E+03 -0.41339015265E+01  0.21419322805E+03  0.00000000000E+00 0.  1.
<mgrwt>
<rscale>  0 0.22574690E+04</rscale>
<asrwt>0</asrwt>
<pdfrwt beam="1">  1        1 0.23267119E+00 0.22574690E+04</pdfrwt>
<pdfrwt beam="2">  1       -2 0.12960277E+00 0.22574690E+04</pdfrwt>
<totfact> 0.22359506E+00</totfact>
</mgrwt>
</event>
<event>
12    4  0.4381187E-008  0.1461137E+04  0.7818608E-02  0.8910716E-01
         -4   -1    0    0    0  501 -0.00000000000E+00  0.00000000000E+00  0.19898486361E+03  0.19898486361E+03  0.00000000000E+00 0.  1.
          1   -1    0    0  501    0  0.00000000000E+00 -0.00000000000E+00 -0.26822668574E+04  0.26822668574E+04  0.00000000000E+00 0. -1.
        -24    2    1    2    0    0  0.29137819698E+02  0.43325117813E+03 -0.97075476347E+03  0.10664141878E+04  0.79490962821E+02 0.  0.
        254    2    1    2    0    0 -0.29137819698E+02 -0.43325117813E+03 -0.15125272303E+04  0.18148375332E+04  0.90406916422E+03 0.  0.
         23    2    4    4    0    0 -0.11417424080E+03 -0.44405562397E+03 -0.22143622383E+03  0.51720208450E+03  0.90790090557E+02 0.  0.
         23    2    4    4    0    0  0.85036421099E+02  0.10804445843E+02 -0.12910910065E+04  0.12976354487E+04  0.97948158934E+02 0.  0.
          3    1    3    3  502    0  0.97415139291E+01  0.22712252475E+01 -0.20303004342E+02  0.22633328148E+02  0.00000000000E+00 0. -1.
         -4    1    3    3    0  502  0.19396305769E+02  0.43097995288E+03 -0.95045175913E+03  0.10437808596E+04  0.00000000000E+00 0.  1.
         11    1    5    5    0    0 -0.93087925721E+02 -0.20528496428E+03 -0.81755947814E+02  0.23977346283E+03  0.00000000000E+00 0.  1.
        -11    1    5    5    0    0 -0.21086315076E+02 -0.23877065969E+03 -0.13968027602E+03  0.27742862166E+03  0.00000000000E+00 0. -1.
          4    1    6    6  503    0  0.72338143550E+02 -0.68515176022E+01 -0.12397577129E+04  0.12418852350E+04  0.00000000000E+00 0. -1.
         -4    1    6    6    0  503  0.12698277549E+02  0.17655963445E+02 -0.51333293593E+02  0.55750213713E+02  0.00000000000E+00 0.  1.
<mgrwt>
<rscale>  0 0.14611372E+04</rscale>
<asrwt>0</asrwt>
<pdfrwt beam="1">  1        1 0.41265644E+00 0.14611372E+04</pdfrwt>
<pdfrwt beam="2">  1       -4 0.30613056E-01 0.14611372E+04</pdfrwt>
<totfact> 0.50801050E+00</totfact>
</mgrwt>
</event>
<event>
12    4  0.4381187E-008  0.1193259E+04  0.7818608E-02  0.9118778E-01
         -2   -1    0    0    0  501 -0.00000000000E+00  0.00000000000E+00  0.19239986623E+03  0.19239986623E+03  0.00000000000E+00 0.  1.
          1   -1    0    0  501    0  0.00000000000E+00 -0.00000000000E+00 -0.18501401409E+04  0.18501401409E+04  0.00000000000E+00 0. -1.
        -24    2    1    2    0    0 -0.15256262190E+03 -0.71212029789E+02 -0.65965891852E+03  0.68684902521E+03  0.90913078620E+02 0.  0.
        254    2    1    2    0    0  0.15256262190E+03  0.71212029789E+02 -0.99808135611E+03  0.13556909819E+04  0.90187867152E+03 0.  0.
         23    2    4    4    0    0 -0.21957323118E+02  0.33460891579E+03 -0.96435422143E+03  0.10250397799E+04  0.91006787301E+02 0.  0.
         23    2    4    4    0    0  0.17451994502E+03 -0.26339688600E+03 -0.33727134681E+02  0.33065120203E+03  0.91419729945E+02 0.  0.
          3    1    3    3  502    0 -0.98163386263E+02 -0.57778031020E+02 -0.56886420239E+03  0.58015586874E+03  0.00000000000E+00 0. -1.
         -4    1    3    3    0  502 -0.54399235640E+02 -0.13433998768E+02 -0.90794716125E+02  0.10669315647E+03  0.00000000000E+00 0.  1.
         11    1    5    5    0    0 -0.12505979376E+02  0.28727778093E+02 -0.18717505320E+03  0.18977930682E+03  0.00000000000E+00 0.  1.
        -11    1    5    5    0    0 -0.94513437414E+01  0.30588113769E+03 -0.77717916822E+03  0.83526047303E+03  0.00000000000E+00 0. -1.
          2    1    6    6  503    0  0.14424622369E+03 -0.23124932070E+03 -0.60264051286E+02  0.27913254423E+03  0.00000000000E+00 0. -1.
         -2    1    6    6    0  503  0.30273721327E+02 -0.32147565301E+02  0.26536916605E+02  0.51518657791E+02  0.00000000000E+00 0.  1.
<mgrwt>
<rscale>  0 0.11932589E+04</rscale>
<asrwt>0</asrwt>
<pdfrwt beam="1">  1        1 0.28463695E+00 0.11932589E+04</pdfrwt>
<pdfrwt beam="2">  1       -2 0.29599979E-01 0.11932589E+04</pdfrwt>
<totfact> 0.34459348E+01</totfact>
</mgrwt>
</event>
<event>
12    4  0.4381187E-008  0.1977781E+04  0.7818608E-02  0.8617080E-01
          1   -1    0    0  501    0  0.00000000000E+00  0.00000000000E+00  0.89457418822E+03  0.89457418822E+03  0.00000000000E+00 0. -1.
         -2   -1    0    0    0  501 -0.00000000000E+00 -0.00000000000E+00 -0.10931504326E+04  0.10931504326E+04  0.00000000000E+00 0.  1.
        -24    2    1    2    0    0  0.55736928960E+02 -0.21028051105E+03  0.71274126649E+03  0.74874917545E+03  0.72806017589E+02 0.  0.
        254    2    1    2    0    0 -0.55736928960E+02  0.21028051105E+03 -0.91131751084E+03  0.12389754454E+04  0.81070096216E+03 0.  0.
         23    2    4    4    0    0 -0.37184496064E+03  0.24485197048E+03 -0.30267455308E+03  0.54583446652E+03  0.90012318958E+02 0.  0.
         23    2    4    4    0    0  0.31610803168E+03 -0.34571459424E+02 -0.60864295777E+03  0.69314097883E+03  0.94226816787E+02 0.  0.
          1    1    3    3  502    0  0.22425249625E+02 -0.13806174909E+03  0.55149849151E+03  0.56895915892E+03  0.00000000000E+00 0. -1.
         -2    1    3    3    0  502  0.33311679335E+02 -0.72218761957E+02  0.16124277498E+03  0.17979001652E+03  0.00000000000E+00 0.  1.
         11    1    5    5    0    0 -0.14617133104E+02 -0.28104805765E+01 -0.27801226643E+02  0.31535180102E+02  0.00000000000E+00 0.  1.
        -11    1    5    5    0    0 -0.35722782753E+03  0.24766245105E+03 -0.27487332644E+03  0.51429928642E+03  0.00000000000E+00 0. -1.
          1    1    6    6  503    0  0.18988991449E+03 -0.58170813110E+02 -0.42437222139E+03  0.46854434732E+03  0.00000000000E+00 0. -1.
         -1    1    6    6    0  503  0.12621811718E+03  0.23599353685E+02 -0.18427073638E+03  0.22459663151E+03  0.00000000000E+00 0.  1.
<mgrwt>
<rscale>  0 0.19777807E+04</rscale>
<asrwt>0</asrwt>
<pdfrwt beam="1">  1        1 0.13762680E+00 0.19777807E+04</pdfrwt>
<pdfrwt beam="2">  1       -2 0.16817699E+00 0.19777807E+04</pdfrwt>
<totfact> 0.32878517E+00</totfact>
</mgrwt>
</event>
<event>
12    4  0.4381187E-008  0.1885084E+04  0.7818608E-02  0.8662317E-01
          1   -1    0    0  501    0  0.00000000000E+00  0.00000000000E+00  0.10595786849E+04  0.10595786849E+04  0.00000000000E+00 0. -1.
         -2   -1    0    0    0  501 -0.00000000000E+00 -0.00000000000E+00 -0.83843233969E+03  0.83843233969E+03  0.00000000000E+00 0.  1.
        -24    2    1    2    0    0 -0.30308872470E+03 -0.30660165798E+02  0.74996772400E+03  0.81349039540E+03  0.80698299608E+02 0.  0.
        254    2    1    2    0    0  0.30308872470E+03  0.30660165798E+02 -0.52882137878E+03  0.10845206292E+04  0.89650996854E+03 0.  0.
         23    2    4    4    0    0  0.82994993958E+02  0.34613327516E+03 -0.57927185588E+03  0.68605298939E+03  0.91740983446E+02 0.  0.
         23    2    4    4    0    0  0.22009373074E+03 -0.31547310936E+03  0.50450477103E+02  0.39846763981E+03  0.90921264235E+02 0.  0.
          1    1    3    3  502    0 -0.86821256866E+02 -0.15872568430E+02  0.32029142713E+03  0.33222954018E+03  0.00000000000E+00 0. -1.
         -2    1    3    3    0  502 -0.21626746783E+03 -0.14787597369E+02  0.42967629687E+03  0.48126085522E+03  0.00000000000E+00 0.  1.
         11    1    5    5    0    0  0.99814617821E+02  0.31395661153E+03 -0.54007970771E+03  0.63262769662E+03  0.00000000000E+00 0. -1.
        -11    1    5    5    0    0 -0.16819623863E+02  0.32176663632E+02 -0.39192148169E+02  0.53425292769E+02  0.00000000000E+00 0.  1.
          1    1    6    6  503    0  0.11929902162E+02 -0.44419066306E+02  0.32338756007E+02  0.56224293301E+02  0.00000000000E+00 0. -1.
         -1    1    6    6    0  503  0.20816382858E+03 -0.27105404306E+03  0.18111721096E+02  0.34224334651E+03  0.00000000000E+00 0.  1.
<mgrwt>
<rscale>  0 0.18850836E+04</rscale>
<asrwt>0</asrwt>
<pdfrwt beam="1">  1        1 0.16301210E+00 0.18850836E+04</pdfrwt>
<pdfrwt beam="2">  1       -2 0.12898959E+00 0.18850836E+04</pdfrwt>
<totfact> 0.49509306E+00</totfact>
</mgrwt>
</event>
<event>
12    4  0.4381187E-008  0.1956307E+04  0.7818608E-02  0.8627325E-01
          1   -1    0    0  501    0  0.00000000000E+00  0.00000000000E+00  0.16561598201E+04  0.16561598201E+04  0.00000000000E+00 0. -1.
         -2   -1    0    0    0  501 -0.00000000000E+00 -0.00000000000E+00 -0.57771253918E+03  0.57771253918E+03  0.00000000000E+00 0.  1.
        -24    2    1    2    0    0 -0.41252056624E+03 -0.14133192646E+03 -0.30780181597E+03  0.53958354186E+03  0.79123382876E+02 0.  0.
        254    2    1    2    0    0  0.41252056624E+03  0.14133192646E+03  0.13862490969E+04  0.16942888174E+04  0.87107985124E+03 0.  0.
         23    2    4    4    0    0  0.58429386954E+03  0.34469964312E+03  0.10550536900E+04  0.12577761342E+04  0.92980347562E+02 0.  0.
         23    2    4    4    0    0 -0.17177330330E+03 -0.20336771666E+03  0.33119540690E+03  0.43651268323E+03  0.99942129091E+02 0.  0.
          3    1    3    3  502    0 -0.99811547842E+02 -0.34031314313E+02 -0.11845735886E+03  0.15859577959E+03  0.00000000000E+00 0. -1.
         -4    1    3    3    0  502 -0.31270901840E+03 -0.10730061214E+03 -0.18934445711E+03  0.38098776226E+03  0.00000000000E+00 0.  1.
         11    1    5    5    0    0  0.25978137620E+03  0.19966449593E+03  0.46268986823E+03  0.56695166330E+03  0.00000000000E+00 0.  1.
        -11    1    5    5    0    0  0.32451249334E+03  0.14503514719E+03  0.59236382176E+03  0.69082447089E+03  0.00000000000E+00 0. -1.
          2    1    6    6  503    0 -0.12933760663E+03 -0.77889397998E+02  0.15897083433E+03  0.21924119362E+03  0.00000000000E+00 0. -1.
         -2    1    6    6    0  503 -0.42435696672E+02 -0.12547831866E+03  0.17222457256E+03  0.21727148962E+03  0.00000000000E+00 0.  1.
<mgrwt>
<rscale>  0 0.19563070E+04</rscale>
<asrwt>0</asrwt>
<pdfrwt beam="1">  1        1 0.25479382E+00 0.19563070E+04</pdfrwt>
<pdfrwt beam="2">  1       -2 0.88878853E-01 0.19563070E+04</pdfrwt>
<totfact> 0.45405809E+00</totfact>
</mgrwt>
</event>
<event>
12    4  0.4381187E-008  0.1401655E+04  0.7818608E-02  0.8952622E-01
          1   -1    0    0  501    0  0.00000000000E+00  0.00000000000E+00  0.26153525054E+03  0.26153525054E+03  0.00000000000E+00 0. -1.
         -2   -1    0    0    0  501 -0.00000000000E+00 -0.00000000000E+00 -0.18779835154E+04  0.18779835154E+04  0.00000000000E+00 0.  1.
        -24    2    1    2    0    0 -0.19283435852E+03 -0.33510444500E+03 -0.27277600291E+03  0.47981178101E+03  0.79577123309E+02 0.  0.
        254    2    1    2    0    0  0.19283435852E+03  0.33510444500E+03 -0.13436722620E+04  0.16597069849E+04  0.89425502481E+03 0.  0.
         23    2    4    4    0    0 -0.26012945562E+03 -0.13101400474E+03 -0.32418406460E+03  0.44731569147E+03  0.10081674948E+03 0.  0.
         23    2    4    4    0    0  0.45296381414E+03  0.46611844974E+03 -0.10194881974E+04  0.12123912935E+04  0.89965759074E+02 0.  0.
          3    1    3    3  502    0 -0.14190754679E+03 -0.25205265218E+03 -0.24345596631E+03  0.37807287503E+03  0.00000000000E+00 0. -1.
         -4    1    3    3    0  502 -0.50926811731E+02 -0.83051792823E+02 -0.29320036599E+02  0.10173890598E+03  0.00000000000E+00 0.  1.
         11    1    5    5    0    0 -0.15978586855E+02  0.16951259129E+01  0.47089181034E+01  0.16744031756E+02  0.00000000000E+00 0. -1.
        -11    1    5    5    0    0 -0.24415086876E+03 -0.13270913065E+03 -0.32889298270E+03  0.43057165971E+03  0.00000000000E+00 0.  1.
          3    1    6    6  503    0  0.32480934522E+02  0.85409539112E+01 -0.69656618275E+02  0.77330482157E+02  0.00000000000E+00 0. -1.
         -3    1    6    6    0  503  0.42048287962E+03  0.45757749583E+03 -0.94983157910E+03  0.11350608113E+04  0.00000000000E+00 0.  1.
<mgrwt>
<rscale>  0 0.14016546E+04</rscale>
<asrwt>0</asrwt>
<pdfrwt beam="1">  1        1 0.40236190E-01 0.14016546E+04</pdfrwt>
<pdfrwt beam="2">  1       -2 0.28892055E+00 0.14016546E+04</pdfrwt>
<totfact> 0.33275935E+00</totfact>
</mgrwt>
</event>
<event>
12    4  0.4381187E-008  0.2051429E+04  0.7818608E-02  0.8582946E-01
          1   -1    0    0  501    0  0.00000000000E+00  0.00000000000E+00  0.16530752798E+04  0.16530752798E+04  0.00000000000E+00 0. -1.
         -2   -1    0    0    0  501 -0.00000000000E+00 -0.00000000000E+00 -0.63644422396E+03  0.63644422396E+03  0.00000000000E+00 0.  1.
        -24    2    1    2    0    0  0.59829363771E+03  0.30997396278E+03 -0.12032708152E+03  0.68900257039E+03  0.78783252883E+02 0.  0.
        254    2    1    2    0    0 -0.59829363771E+03 -0.30997396278E+03  0.11369581374E+04  0.16005169334E+04  0.90274111094E+03 0.  0.
         23    2    4    4    0    0 -0.73533930731E+03 -0.27780578301E+03  0.11856074666E+04  0.14254570942E+04  0.91448962426E+02 0.  0.
         23    2    4    4    0    0  0.13704566961E+03 -0.32168179769E+02 -0.48649329223E+02  0.17505983914E+03  0.91993927501E+02 0.  0.
          1    1    3    3  502    0  0.16987804227E+03  0.12887359880E+03 -0.33441631612E+02  0.21583627230E+03  0.00000000000E+00 0. -1.
         -2    1    3    3    0  502  0.42841559544E+03  0.18110036397E+03 -0.86885449911E+02  0.47316629809E+03  0.00000000000E+00 0.  1.
         11    1    5    5    0    0 -0.26162908645E+02 -0.25909161335E+02  0.36566785795E+02  0.51893277535E+02  0.00000000000E+00 0.  1.
        -11    1    5    5    0    0 -0.70917639867E+03 -0.25189662167E+03  0.11490406808E+04  0.13735638167E+04  0.00000000000E+00 0. -1.
          3    1    6    6  503    0  0.10287710010E+03  0.88725907677E+01 -0.61428644591E+02  0.12014948593E+03  0.00000000000E+00 0. -1.
         -3    1    6    6    0  503  0.34168569503E+02 -0.41040770537E+02  0.12779315368E+02  0.54910353208E+02  0.00000000000E+00 0.  1.
<mgrwt>
<rscale>  0 0.20514290E+04</rscale>
<asrwt>0</asrwt>
<pdfrwt beam="1">  1        1 0.25431927E+00 0.20514290E+04</pdfrwt>
<pdfrwt beam="2">  1       -2 0.97914497E-01 0.20514290E+04</pdfrwt>
<totfact> 0.36122341E+00</totfact>
</mgrwt>
</event>
<event>
12    4  0.4381187E-008  0.1658416E+04  0.7818608E-02  0.8785443E-01
          1   -1    0    0  501    0  0.00000000000E+00  0.00000000000E+00  0.12545381542E+04  0.12545381542E+04  0.00000000000E+00 0. -1.
         -4   -1    0    0    0  501 -0.00000000000E+00 -0.00000000000E+00 -0.54807909469E+03  0.54807909469E+03  0.00000000000E+00 0.  1.
        -24    2    1    2    0    0 -0.49119840496E+03  0.17915425153E+03  0.55907012895E+03  0.76946789930E+03  0.78417600695E+02 0.  0.
        254    2    1    2    0    0  0.49119840496E+03 -0.17915425153E+03  0.14738893055E+03  0.10331493496E+04  0.87880712491E+03 0.  0.
         23    2    4    4    0    0  0.31273902914E+03  0.33539247270E+03  0.11431377349E+03  0.48118344647E+03  0.90421564117E+02 0.  0.
         23    2    4    4    0    0  0.17845937582E+03 -0.51454672423E+03  0.33075157062E+02  0.55196590310E+03  0.83464435182E+02 0.  0.
          3    1    3    3  502    0 -0.20896801603E+03  0.10943803540E+03  0.28468648759E+03  0.36971706957E+03  0.00000000000E+00 0. -1.
         -4    1    3    3    0  502 -0.28223038892E+03  0.69716216131E+02  0.27438364136E+03  0.39975082973E+03  0.00000000000E+00 0.  1.
         11    1    5    5    0    0  0.30736792080E+03  0.30986310888E+03  0.12339496387E+03  0.45355981093E+03  0.00000000000E+00 0.  1.
        -11    1    5    5    0    0  0.53711083385E+01  0.25529363822E+02 -0.90811903780E+01  0.27623635543E+02  0.00000000000E+00 0. -1.
          4    1    6    6  503    0  0.12516626484E+03 -0.39292680569E+03  0.59282987116E+02  0.41662038002E+03  0.00000000000E+00 0.  1.
         -4    1    6    6    0  503  0.53293110976E+02 -0.12161991854E+03 -0.26207830054E+02  0.13534552308E+03  0.00000000000E+00 0. -1.
<mgrwt>
<rscale>  0 0.16584163E+04</rscale>
<asrwt>0</asrwt>
<pdfrwt beam="1">  1        1 0.19300587E+00 0.16584163E+04</pdfrwt>
<pdfrwt beam="2">  1       -4 0.84319861E-01 0.16584163E+04</pdfrwt>
<totfact> 0.55980780E+00</totfact>
</mgrwt>
</event>
<event>
12    4  0.4381187E-008  0.1203394E+04  0.7818608E-02  0.9109891E-01
         -2   -1    0    0    0  501 -0.00000000000E+00  0.00000000000E+00  0.18676625505E+03  0.18676625505E+03  0.00000000000E+00 0.  1.
          1   -1    0    0  501    0  0.00000000000E+00 -0.00000000000E+00 -0.19384607486E+04  0.19384607486E+04  0.00000000000E+00 0. -1.
        -24    2    1    2    0    0 -0.25342367656E+03  0.12360433998E+02 -0.36083229576E+03  0.44854290176E+03  0.81329262144E+02 0.  0.
        254    2    1    2    0    0  0.25342367656E+03 -0.12360433998E+02 -0.13908621978E+04  0.16766841019E+04  0.90132989750E+03 0.  0.
         23    2    4    4    0    0 -0.11720956779E+03 -0.25839750137E+03 -0.10939739809E+04  0.11338959797E+04  0.91835017539E+02 0.  0.
         23    2    4    4    0    0  0.37063324435E+03  0.24603706737E+03 -0.29688821691E+03  0.54278812219E+03  0.92590992603E+02 0.  0.
          1    1    3    3  502    0 -0.22627946426E+03 -0.34425734694E+01 -0.34688072655E+03  0.41417446289E+03  0.00000000000E+00 0. -1.
         -2    1    3    3    0  502 -0.27144212303E+02  0.15803007468E+02 -0.13951569206E+02  0.34368438863E+02  0.00000000000E+00 0.  1.
         11    1    5    5    0    0 -0.70986063183E+02 -0.13526700762E+03 -0.75503945729E+03  0.77033808590E+03  0.00000000000E+00 0. -1.
        -11    1    5    5    0    0 -0.46223504604E+02 -0.12313049375E+03 -0.33893452363E+03  0.36355789385E+03  0.00000000000E+00 0.  1.
          2    1    6    6  503    0  0.15746311752E+03  0.57223271251E+02 -0.85195818070E+02  0.18795601498E+03  0.00000000000E+00 0. -1.
         -2    1    6    6    0  503  0.21317012683E+03  0.18881379612E+03 -0.21169239884E+03  0.35483210721E+03  0.00000000000E+00 0.  1.
<mgrwt>
<rscale>  0 0.12033936E+04</rscale>
<asrwt>0</asrwt>
<pdfrwt beam="1">  1        1 0.29822473E+00 0.12033936E+04</pdfrwt>
<pdfrwt beam="2">  1       -2 0.28733270E-01 0.12033936E+04</pdfrwt>
<totfact> 0.31713825E+01</totfact>
</mgrwt>
</event>
<event>
12    4  0.4381187E-008  0.1142192E+04  0.7818608E-02  0.9165018E-01
          1   -1    0    0  501    0  0.00000000000E+00  0.00000000000E+00  0.15086258420E+04  0.15086258420E+04  0.00000000000E+00 0. -1.
         -2   -1    0    0    0  501 -0.00000000000E+00 -0.00000000000E+00 -0.21619037827E+03  0.21619037827E+03  0.00000000000E+00 0.  1.
        -24    2    1    2    0    0  0.12312928419E+02  0.11182053295E+03 -0.13011436177E+02  0.13841409246E+03  0.79584695302E+02 0.  0.
        254    2    1    2    0    0 -0.12312928419E+02 -0.11182053295E+03  0.13054469000E+04  0.15864021279E+04  0.89432916919E+03 0.  0.
         23    2    4    4    0    0 -0.23442123715E+03 -0.39240328842E+03  0.10131460198E+04  0.11152777314E+04  0.91901596950E+02 0.  0.
         23    2    4    4    0    0  0.22210830873E+03  0.28058275548E+03  0.29230088018E+03  0.47112439648E+03  0.91976132357E+02 0.  0.
          3    1    3    3  502    0  0.57586878280E+01  0.11328089753E+02  0.27164484725E+02  0.29989953873E+02  0.00000000000E+00 0. -1.
         -4    1    3    3    0  502  0.65542405907E+01  0.10049244319E+03 -0.40175920902E+02  0.10842413859E+03  0.00000000000E+00 0.  1.
         11    1    5    5    0    0 -0.20754902884E+02 -0.26404568220E+02  0.14983739867E+03  0.15355524496E+03  0.00000000000E+00 0.  1.
        -11    1    5    5    0    0 -0.21366633426E+03 -0.36599872020E+03  0.86330862111E+03  0.96172248641E+03  0.00000000000E+00 0. -1.
          1    1    6    6  503    0  0.23048321023E+03  0.27682187943E+03  0.28333527044E+03  0.45829219785E+03  0.00000000000E+00 0. -1.
         -1    1    6    6    0  503 -0.83749014988E+01  0.37608760459E+01  0.89656097371E+01  0.12832198631E+02  0.00000000000E+00 0.  1.
<mgrwt>
<rscale>  0 0.11421916E+04</rscale>
<asrwt>0</asrwt>
<pdfrwt beam="1">  1        1 0.23209628E+00 0.11421916E+04</pdfrwt>
<pdfrwt beam="2">  1       -2 0.33260059E-01 0.11421916E+04</pdfrwt>
<totfact> 0.47498177E+01</totfact>
</mgrwt>
</event>
<event>
12    4  0.4381187E-008  0.2841832E+04  0.7818608E-02  0.8290398E-01
         -2   -1    0    0    0  501 -0.00000000000E+00  0.00000000000E+00  0.81463953980E+03  0.81463953980E+03  0.00000000000E+00 0.  1.
          1   -1    0    0  501    0  0.00000000000E+00 -0.00000000000E+00 -0.24784001597E+04  0.24784001597E+04  0.00000000000E+00 0. -1.
        -24    2    1    2    0    0  0.67945699735E+03  0.10212554054E+04 -0.33977909125E+03  0.12754251421E+04  0.81455803619E+02 0.  0.
        254    2    1    2    0    0 -0.67945699735E+03 -0.10212554054E+04 -0.13239815286E+04  0.20176145574E+04  0.90178545117E+03 0.  0.
         23    2    4    4    0    0 -0.24447437604E+03 -0.72876822872E+03 -0.12634589884E+04  0.14816411514E+04  0.89783263740E+02 0.  0.
         23    2    4    4    0    0 -0.43498262131E+03 -0.29248717663E+03 -0.60522540208E+02  0.53597340599E+03  0.94052563649E+02 0.  0.
          3    1    3    3  502    0  0.39321362155E+03  0.60026736004E+03 -0.15734028826E+03  0.73463856556E+03  0.00000000000E+00 0. -1.
         -4    1    3    3    0  502  0.28624337581E+03  0.42098804531E+03 -0.18243880299E+03  0.54078657650E+03  0.00000000000E+00 0.  1.
         11    1    5    5    0    0 -0.10348965275E+03 -0.21331268357E+03 -0.33568725804E+03  0.41097243753E+03  0.00000000000E+00 0. -1.
        -11    1    5    5    0    0 -0.14098472330E+03 -0.51545554515E+03 -0.92777173036E+03  0.10706687139E+04  0.00000000000E+00 0.  1.
          1    1    6    6  503    0 -0.61718501619E+02 -0.49176585694E+02  0.23960680444E+02  0.82471960265E+02  0.00000000000E+00 0. -1.
         -1    1    6    6    0  503 -0.37326411969E+03 -0.24331059093E+03 -0.84483220651E+02  0.45350144573E+03  0.00000000000E+00 0.  1.
<mgrwt>
<rscale>  0 0.28418323E+04</rscale>
<asrwt>0</asrwt>
<pdfrwt beam="1">  1        1 0.38129232E+00 0.28418323E+04</pdfrwt>
<pdfrwt beam="2">  1       -2 0.12532916E+00 0.28418323E+04</pdfrwt>
<totfact> 0.50664438E-01</totfact>
</mgrwt>
</event>
<event>
12    4  0.4381187E-008  0.1236295E+04  0.7818608E-02  0.9081667E-01
          1   -1    0    0  501    0  0.00000000000E+00  0.00000000000E+00  0.14928668624E+04  0.14928668624E+04  0.00000000000E+00 0. -1.
         -2   -1    0    0    0  501 -0.00000000000E+00 -0.00000000000E+00 -0.25595488266E+03  0.25595488266E+03  0.00000000000E+00 0.  1.
        -24    2    1    2    0    0 -0.14940253855E+03  0.61742198769E+02 -0.35342079653E+02  0.18370272129E+03  0.79777249759E+02 0.  0.
        254    2    1    2    0    0  0.14940253855E+03 -0.61742198769E+02  0.12722540594E+04  0.15651190238E+04  0.89712538104E+03 0.  0.
         23    2    4    4    0    0  0.95752516566E+02 -0.46123373734E+03  0.52494840086E+03  0.71106137697E+03  0.90179561781E+02 0.  0.
         23    2    4    4    0    0  0.53650021989E+02  0.39949153857E+03  0.74730565855E+03  0.85405764682E+03  0.92070095762E+02 0.  0.
          1    1    3    3  502    0 -0.12503022409E+02 -0.10445881165E+02  0.13768873423E+02  0.21331288710E+02  0.00000000000E+00 0. -1.
         -2    1    3    3    0  502 -0.13689951615E+03  0.72188079935E+02 -0.49110953076E+02  0.16237143258E+03  0.00000000000E+00 0.  1.
         11    1    5    5    0    0  0.97965018031E+02 -0.30408252466E+03  0.31349665512E+03  0.44759745233E+03  0.00000000000E+00 0.  1.
        -11    1    5    5    0    0 -0.22125014652E+01 -0.15715121268E+03  0.21145174575E+03  0.26346392465E+03  0.00000000000E+00 0. -1.
          1    1    6    6  503    0  0.40438029992E+02  0.55926396759E+02  0.14323067853E+03  0.15899063934E+03  0.00000000000E+00 0. -1.
         -1    1    6    6    0  503  0.13211991997E+02  0.34356514182E+03  0.60407498002E+03  0.69506700748E+03  0.00000000000E+00 0.  1.
<mgrwt>
<rscale>  0 0.12362954E+04</rscale>
<asrwt>0</asrwt>
<pdfrwt beam="1">  1        1 0.22967182E+00 0.12362954E+04</pdfrwt>
<pdfrwt beam="2">  1       -2 0.39377675E-01 0.12362954E+04</pdfrwt>
<totfact> 0.34948836E+01</totfact>
</mgrwt>
</event>
<event>
12    4  0.4381187E-008  0.1074732E+04  0.7818608E-02  0.9230176E-01
         -4   -1    0    0    0  501 -0.00000000000E+00  0.00000000000E+00  0.16440160896E+04  0.16440160896E+04  0.00000000000E+00 0.  1.
          3   -1    0    0  501    0  0.00000000000E+00 -0.00000000000E+00 -0.17564424591E+03  0.17564424591E+03  0.00000000000E+00 0. -1.
        -24    2    1    2    0    0 -0.87183121463E+02  0.31747471579E+02  0.38788598356E+03  0.40663810246E+03  0.79310853649E+02 0.  0.
        254    2    1    2    0    0  0.87183121463E+02 -0.31747471579E+02  0.10804858601E+04  0.14130222331E+04  0.90585503175E+03 0.  0.
         23    2    4    4    0    0  0.37761820316E+03 -0.19244388182E+03  0.94995221964E+03  0.10449203519E+04  0.99091710759E+02 0.  0.
         23    2    4    4    0    0 -0.29043508169E+03  0.16069641024E+03  0.13053364050E+03  0.36810188120E+03  0.91016980286E+02 0.  0.
          3    1    3    3  502    0 -0.15543961291E+02  0.43174805956E+02  0.10482565321E+03  0.11442943753E+03  0.00000000000E+00 0. -1.
         -4    1    3    3    0  502 -0.71639160172E+02 -0.11427334377E+02  0.28306033035E+03  0.29220866493E+03  0.00000000000E+00 0.  1.
         11    1    5    5    0    0  0.14432944687E+03 -0.21304752806E+02  0.32459903200E+03  0.35587836869E+03  0.00000000000E+00 0. -1.
        -11    1    5    5    0    0  0.23328875629E+03 -0.17113912901E+03  0.62535318764E+03  0.68904198317E+03  0.00000000000E+00 0.  1.
          1    1    6    6  503    0 -0.73918911944E+01 -0.30952008010E+01  0.22206408132E+02  0.23608152947E+02  0.00000000000E+00 0. -1.
         -1    1    6    6    0  503 -0.28304319050E+03  0.16379161104E+03  0.10832723237E+03  0.34449372826E+03  0.00000000000E+00 0.  1.
<mgrwt>
<rscale>  0 0.10747315E+04</rscale>
<asrwt>0</asrwt>
<pdfrwt beam="1">  1        3 0.27022193E-01 0.10747315E+04</pdfrwt>
<pdfrwt beam="2">  1       -4 0.25292554E+00 0.10747315E+04</pdfrwt>
<totfact> 0.18317250E+00</totfact>
</mgrwt>
</event>
<event>
12    4  0.4381187E-008  0.1350031E+04  0.7818608E-02  0.8990805E-01
         -2   -1    0    0    0  501 -0.00000000000E+00  0.00000000000E+00  0.35585918186E+03  0.35585918186E+03  0.00000000000E+00 0.  1.
          1   -1    0    0  501    0  0.00000000000E+00 -0.00000000000E+00 -0.12804106190E+04  0.12804106190E+04  0.00000000000E+00 0. -1.
        -24    2    1    2    0    0  0.25447087819E+03  0.21055702234E+03 -0.70566668185E+02  0.34692078403E+03  0.79276025575E+02 0.  0.
        254    2    1    2    0    0 -0.25447087819E+03 -0.21055702234E+03 -0.85398476893E+03  0.12893490168E+04  0.90776715851E+03 0.  0.
         23    2    4    4    0    0  0.76420964813E+02  0.27938895333E+03 -0.52662981217E+03  0.60786234239E+03  0.90880785208E+02 0.  0.
         23    2    4    4    0    0 -0.33089184300E+03 -0.48994597568E+03 -0.32735495676E+03  0.68148667441E+03  0.87899652134E+02 0.  0.
          1    1    3    3  502    0  0.90885773204E+02  0.12241650707E+03 -0.47389917710E+02  0.15966160864E+03  0.00000000000E+00 0. -1.
         -2    1    3    3    0  502  0.16358510498E+03  0.88140515278E+02 -0.23176750475E+02  0.18725917539E+03  0.00000000000E+00 0.  1.
         11    1    5    5    0    0  0.79995352138E+02  0.23231052728E+03 -0.48984381413E+03  0.54800948869E+03  0.00000000000E+00 0. -1.
        -11    1    5    5    0    0 -0.35743873251E+01  0.47078426053E+02 -0.36785998038E+02  0.59852853700E+02  0.00000000000E+00 0.  1.
          3    1    6    6  503    0 -0.32730016124E+03 -0.44855443061E+03 -0.29461057247E+03  0.62858719536E+03  0.00000000000E+00 0. -1.
         -3    1    6    6    0  503 -0.35916817556E+01 -0.41391545069E+02 -0.32744384294E+02  0.52899479050E+02  0.00000000000E+00 0.  1.
<mgrwt>
<rscale>  0 0.13500309E+04</rscale>
<asrwt>0</asrwt>
<pdfrwt beam="1">  1        1 0.19698625E+00 0.13500309E+04</pdfrwt>
<pdfrwt beam="2">  1       -2 0.54747567E-01 0.13500309E+04</pdfrwt>
<totfact> 0.25178132E+01</totfact>
</mgrwt>
</event>
<event>
12    4  0.4381187E-008  0.1607371E+04  0.7818608E-02  0.8816032E-01
          1   -1    0    0  501    0  0.00000000000E+00  0.00000000000E+00  0.22714224139E+04  0.22714224139E+04  0.00000000000E+00 0. -1.
         -2   -1    0    0    0  501 -0.00000000000E+00 -0.00000000000E+00 -0.28436386773E+03  0.28436386773E+03  0.00000000000E+00 0.  1.
        -24    2    1    2    0    0 -0.35355585388E+03 -0.30094191334E+03  0.77454086432E+03  0.90641206674E+03  0.78112145093E+02 0.  0.
        254    2    1    2    0    0  0.35355585388E+03  0.30094191334E+03  0.12125176818E+04  0.16493742149E+04  0.10171865094E+04 0.  0.
         23    2    4    4    0    0 -0.82710517775E+02  0.20881695711E+03 -0.98581124602E+02  0.26160876545E+03  0.90968987578E+02 0.  0.
         23    2    4    4    0    0  0.43626637165E+03  0.92124956231E+02  0.13110988064E+04  0.13877654494E+04  0.89986153305E+02 0.  0.
          1    1    3    3  502    0 -0.33385238743E+03 -0.27071177419E+03  0.67193338797E+03  0.79764450675E+03  0.00000000000E+00 0. -1.
         -2    1    3    3    0  502 -0.19703466451E+02 -0.30230139151E+02  0.10260747636E+03  0.10876756000E+03  0.00000000000E+00 0.  1.
         11    1    5    5    0    0  0.12280626775E+02  0.86248356404E+02 -0.31259080706E+02  0.92556592974E+02  0.00000000000E+00 0. -1.
        -11    1    5    5    0    0 -0.94991144550E+02  0.12256860071E+03 -0.67322043896E+02  0.16905217247E+03  0.00000000000E+00 0.  1.
          2    1    6    6  503    0  0.42503590571E+03  0.88820635302E+02  0.13032198386E+04  0.13736544595E+04  0.00000000000E+00 0. -1.
         -2    1    6    6    0  503  0.11230465947E+02  0.33043209286E+01  0.78789678153E+01  0.14110989902E+02  0.00000000000E+00 0.  1.
<mgrwt>
<rscale>  0 0.16073711E+04</rscale>
<asrwt>0</asrwt>
<pdfrwt beam="1">  1        1 0.34944959E+00 0.16073711E+04</pdfrwt>
<pdfrwt beam="2">  1       -2 0.43748289E-01 0.16073711E+04</pdfrwt>
<totfact> 0.81316658E+00</totfact>
</mgrwt>
</event>
<event>
12    4  0.4381187E-008  0.1289008E+04  0.7818608E-02  0.9038327E-01
          1   -1    0    0  501    0  0.00000000000E+00  0.00000000000E+00  0.16885897933E+04  0.16885897933E+04  0.00000000000E+00 0. -1.
         -2   -1    0    0    0  501 -0.00000000000E+00 -0.00000000000E+00 -0.24599562770E+03  0.24599562770E+03  0.00000000000E+00 0.  1.
        -24    2    1    2    0    0 -0.29144108213E+03 -0.50214151133E+02  0.50086361446E+03  0.58670682086E+03  0.76819060278E+02 0.  0.
        254    2    1    2    0    0  0.29144108213E+03  0.50214151133E+02  0.94173055117E+03  0.13478786002E+04  0.91785670148E+03 0.  0.
         23    2    4    4    0    0 -0.22544100739E+03 -0.22705810591E+03  0.52838310447E+03  0.62481921750E+03  0.93975093530E+02 0.  0.
         23    2    4    4    0    0  0.51688208953E+03  0.27727225704E+03  0.41334744670E+03  0.72305938266E+03  0.88948075676E+02 0.  0.
          1    1    3    3  502    0 -0.27606726918E+03 -0.46334298950E+02  0.49696178325E+03  0.57037796099E+03  0.00000000000E+00 0. -1.
         -2    1    3    3    0  502 -0.15373812956E+02 -0.38798521834E+01  0.39018312063E+01  0.16328859866E+02  0.00000000000E+00 0.  1.
         11    1    5    5    0    0 -0.14880204174E+03 -0.11953755759E+03  0.38614238082E+03  0.43074030873E+03  0.00000000000E+00 0. -1.
        -11    1    5    5    0    0 -0.76638965654E+02 -0.10752054832E+03  0.14224072364E+03  0.19407890877E+03  0.00000000000E+00 0.  1.
          2    1    6    6  503    0  0.51202306718E+03  0.26541117330E+03  0.41444620337E+03  0.71019459849E+03  0.00000000000E+00 0. -1.
         -2    1    6    6    0  503  0.48590223522E+01  0.11861083737E+02 -0.10987566720E+01  0.12864784175E+02  0.00000000000E+00 0.  1.
<mgrwt>
<rscale>  0 0.12890085E+04</rscale>
<asrwt>0</asrwt>
<pdfrwt beam="1">  1        1 0.25978304E+00 0.12890085E+04</pdfrwt>
<pdfrwt beam="2">  1       -2 0.37845482E-01 0.12890085E+04</pdfrwt>
<totfact> 0.27597867E+01</totfact>
</mgrwt>
</event>
<event>
12    4  0.4381187E-008  0.2013369E+04  0.7818608E-02  0.8600396E-01
          1   -1    0    0  501    0  0.00000000000E+00  0.00000000000E+00  0.14958801753E+04  0.14958801753E+04  0.00000000000E+00 0. -1.
         -2   -1    0    0    0  501 -0.00000000000E+00 -0.00000000000E+00 -0.67746995292E+03  0.67746995292E+03  0.00000000000E+00 0.  1.
        -24    2    1    2    0    0 -0.55629895176E+03  0.47528044709E+03 -0.42936043318E+02  0.73721050137E+03  0.79219899049E+02 0.  0.
        254    2    1    2    0    0  0.55629895176E+03 -0.47528044709E+03  0.86134626568E+03  0.14361396268E+04  0.88612618246E+03 0.  0.
         23    2    4    4    0    0  0.11109093297E+03 -0.44331268946E+03  0.50272154152E+01  0.46613938049E+03  0.91615026753E+02 0.  0.
         23    2    4    4    0    0  0.44520801878E+03 -0.31967757631E+02  0.85631905027E+03  0.97000024634E+03  0.91575348920E+02 0.  0.
          3    1    3    3  502    0 -0.42218378493E+02  0.60209634838E+02 -0.19446835733E+02  0.76064255928E+02  0.00000000000E+00 0. -1.
         -4    1    3    3    0  502 -0.51408057326E+03  0.41507081225E+03 -0.23489207585E+02  0.66114624544E+03  0.00000000000E+00 0.  1.
         11    1    5    5    0    0  0.11202787983E+02 -0.21559637684E+02  0.21446689749E+02  0.32408038152E+02  0.00000000000E+00 0.  1.
        -11    1    5    5    0    0  0.99888144991E+02 -0.42175305177E+03 -0.16419474334E+02  0.43373134234E+03  0.00000000000E+00 0. -1.
          1    1    6    6  503    0  0.24354784093E+03 -0.22107062213E+02  0.56397384436E+03  0.61471194079E+03  0.00000000000E+00 0. -1.
         -1    1    6    6    0  503  0.20166017785E+03 -0.98606954176E+01  0.29234520590E+03  0.35528830555E+03  0.00000000000E+00 0.  1.
<mgrwt>
<rscale>  0 0.20133692E+04</rscale>
<asrwt>0</asrwt>
<pdfrwt beam="1">  1        1 0.23013541E+00 0.20133692E+04</pdfrwt>
<pdfrwt beam="2">  1       -2 0.10422615E+00 0.20133692E+04</pdfrwt>
<totfact> 0.40072730E+00</totfact>
</mgrwt>
</event>
<event>
12    4  0.4381187E-008  0.1075438E+04  0.7818608E-02  0.9229468E-01
          1   -1    0    0  501    0  0.00000000000E+00  0.00000000000E+00  0.16233851447E+03  0.16233851447E+03  0.00000000000E+00 0. -1.
         -2   -1    0    0    0  501 -0.00000000000E+00 -0.00000000000E+00 -0.17811043915E+04  0.17811043915E+04  0.00000000000E+00 0.  1.
        -24    2    1    2    0    0  0.16049289733E+03  0.12583705896E+03 -0.61375551418E+03  0.65182314524E+03  0.81145831583E+02 0.  0.
        254    2    1    2    0    0 -0.16049289733E+03 -0.12583705896E+03 -0.10050103628E+04  0.12916197607E+04  0.78526609588E+03 0.  0.
         23    2    4    4    0    0  0.23693115536E+03 -0.25017131644E+03 -0.29088982605E+03  0.46007932671E+03  0.91290941590E+02 0.  0.
         23    2    4    4    0    0 -0.39742405268E+03  0.12433425748E+03 -0.71412053679E+03  0.83154043400E+03  0.89924785698E+02 0.  0.
          3    1    3    3  502    0  0.36441236700E+02  0.77046323870E+02 -0.21021444615E+03  0.22683521139E+03  0.00000000000E+00 0. -1.
         -4    1    3    3    0  502  0.12405166063E+03  0.48790735094E+02 -0.40354106803E+03  0.42498793385E+03  0.00000000000E+00 0.  1.
         11    1    5    5    0    0  0.18621563534E+03 -0.16596930516E+03 -0.15983802630E+03  0.29626047281E+03  0.00000000000E+00 0.  1.
        -11    1    5    5    0    0  0.50715520021E+02 -0.84202011279E+02 -0.13105179974E+03  0.16381885389E+03  0.00000000000E+00 0. -1.
          1    1    6    6  503    0 -0.20059582840E+03  0.85614524708E+02 -0.29482326023E+03  0.36672781185E+03  0.00000000000E+00 0. -1.
         -1    1    6    6    0  503 -0.19682822428E+03  0.38719732768E+02 -0.41929727656E+03  0.46481262215E+03  0.00000000000E+00 0.  1.
<mgrwt>
<rscale>  0 0.10754382E+04</rscale>
<asrwt>0</asrwt>
<pdfrwt beam="1">  1        1 0.24975156E-01 0.10754382E+04</pdfrwt>
<pdfrwt beam="2">  1       -2 0.27401606E+00 0.10754382E+04</pdfrwt>
<totfact> 0.78483562E+00</totfact>
</mgrwt>
</event>
<event>
12    4  0.4381187E-008  0.1551656E+04  0.7818608E-02  0.8850811E-01
         -2   -1    0    0    0  501 -0.00000000000E+00  0.00000000000E+00  0.49028420220E+03  0.49028420220E+03  0.00000000000E+00 0.  1.
          1   -1    0    0  501    0  0.00000000000E+00 -0.00000000000E+00 -0.12276739984E+04  0.12276739984E+04  0.00000000000E+00 0. -1.
        -24    2    1    2    0    0  0.34332418021E+03 -0.27875125682E+03 -0.51210120507E+03  0.68106299490E+03  0.77623468776E+02 0.  0.
        254    2    1    2    0    0 -0.34332418021E+03  0.27875125682E+03 -0.22528859111E+03  0.10368952057E+04  0.91039714540E+03 0.  0.
         23    2    4    4    0    0  0.83704483091E+02 -0.24851713107E+03 -0.21718155908E+03  0.35263496691E+03  0.91740859808E+02 0.  0.
         23    2    4    4    0    0 -0.42702866330E+03  0.52726838789E+03 -0.81070320371E+01  0.68426023876E+03  0.88209513249E+02 0.  0.
          1    1    3    3  502    0  0.89082654334E+02 -0.74096612239E+02 -0.18976759087E+03  0.22234604965E+03  0.00000000000E+00 0. -1.
         -2    1    3    3    0  502  0.25424152587E+03 -0.20465464458E+03 -0.32233361420E+03  0.45871694526E+03  0.00000000000E+00 0.  1.
         11    1    5    5    0    0  0.82908086124E+02 -0.25578645371E+03 -0.21664054027E+03  0.34530216382E+03  0.00000000000E+00 0. -1.
        -11    1    5    5    0    0  0.79639696720E+00  0.72693226425E+01 -0.54101880370E+00  0.73328030899E+01  0.00000000000E+00 0.  1.
          3    1    6    6  503    0 -0.19516411052E+03  0.31079911553E+03 -0.62617699743E+01  0.36704813037E+03  0.00000000000E+00 0. -1.
         -3    1    6    6    0  503 -0.23186455278E+03  0.21646927237E+03 -0.18452620628E+01  0.31721210839E+03  0.00000000000E+00 0.  1.
<mgrwt>
<rscale>  0 0.15516561E+04</rscale>
<asrwt>0</asrwt>
<pdfrwt beam="1">  1        1 0.18887292E+00 0.15516561E+04</pdfrwt>
<pdfrwt beam="2">  1       -2 0.75428339E-01 0.15516561E+04</pdfrwt>
<totfact> 0.13589175E+01</totfact>
</mgrwt>
</event>
<event>
12    4  0.4381187E-008  0.1837903E+04  0.7818608E-02  0.8686399E-01
         -2   -1    0    0    0  501 -0.00000000000E+00  0.00000000000E+00  0.40337539548E+03  0.40337539548E+03  0.00000000000E+00 0.  1.
          1   -1    0    0  501    0  0.00000000000E+00 -0.00000000000E+00 -0.20935131255E+04  0.20935131255E+04  0.00000000000E+00 0. -1.
        -24    2    1    2    0    0 -0.25340412935E+03  0.23789256200E+03  0.17265319363E+03  0.39645768651E+03  0.81012641551E+02 0.  0.
        254    2    1    2    0    0  0.25340412935E+03 -0.23789256200E+03 -0.18627909237E+04  0.21004308345E+04  0.90609775488E+03 0.  0.
         23    2    4    4    0    0  0.36425177129E+03  0.89904926569E+01 -0.17559454814E+04  0.17956281060E+04  0.90418911407E+02 0.  0.
         23    2    4    4    0    0 -0.11084764194E+03 -0.24688305466E+03 -0.10684544227E+03  0.30480272851E+03  0.90831230154E+02 0.  0.
          3    1    3    3  502    0  0.51849478486E+01  0.40832841367E+01  0.94554905467E+01  0.11530966786E+02  0.00000000000E+00 0. -1.
         -4    1    3    3    0  502 -0.25858907720E+03  0.23380927787E+03  0.16319770308E+03  0.38492671972E+03  0.00000000000E+00 0.  1.
         11    1    5    5    0    0  0.31746952822E+03  0.36645947376E+02 -0.15523806214E+04  0.15849338852E+04  0.00000000000E+00 0.  1.
        -11    1    5    5    0    0  0.46782243079E+02 -0.27655454719E+02 -0.20356486001E+03  0.21069422079E+03  0.00000000000E+00 0. -1.
          1    1    6    6  503    0  0.11422112458E+02 -0.22821157337E+02  0.51952512395E+01  0.26043435078E+02  0.00000000000E+00 0. -1.
         -1    1    6    6    0  503 -0.12226975440E+03 -0.22406189732E+03 -0.11204069351E+03  0.27875929343E+03  0.00000000000E+00 0.  1.
<mgrwt>
<rscale>  0 0.18379028E+04</rscale>
<asrwt>0</asrwt>
<pdfrwt beam="1">  1        1 0.32207894E+00 0.18379028E+04</pdfrwt>
<pdfrwt beam="2">  1       -2 0.62057753E-01 0.18379028E+04</pdfrwt>
<totfact> 0.51273652E+00</totfact>
</mgrwt>
</event>
<event>
12    4  0.4381187E-008  0.1563042E+04  0.7818608E-02  0.8843580E-01
         -2   -1    0    0    0  501 -0.00000000000E+00  0.00000000000E+00  0.63657734883E+03  0.63657734883E+03  0.00000000000E+00 0.  1.
          1   -1    0    0  501    0  0.00000000000E+00 -0.00000000000E+00 -0.95946768080E+03  0.95946768080E+03  0.00000000000E+00 0. -1.
        -24    2    1    2    0    0 -0.15079411591E+02  0.49866570950E+03  0.90021542264E+02  0.51134948334E+03  0.66929347512E+02 0.  0.
        254    2    1    2    0    0  0.15079411591E+02 -0.49866570950E+03 -0.41291187423E+03  0.10846955463E+04  0.87015707420E+03 0.  0.
         23    2    4    4    0    0 -0.15458607871E+03  0.19870122788E+03 -0.18710956245E+03  0.32658721834E+03  0.90940580194E+02 0.  0.
         23    2    4    4    0    0  0.16966549030E+03 -0.69736693738E+03 -0.22580231178E+03  0.75810832796E+03  0.92922166138E+02 0.  0.
          1    1    3    3  502    0 -0.25331900104E+01  0.14169191757E+03 -0.47584372245E+01  0.14179442613E+03  0.00000000000E+00 0. -1.
         -4    1    3    3    0  502 -0.12546221581E+02  0.35697379193E+03  0.94779979488E+02  0.36955505721E+03  0.00000000000E+00 0.  1.
         11    1    5    5    0    0 -0.11722142670E+02  0.14188317782E+02 -0.55945570186E+02  0.58895023676E+02  0.00000000000E+00 0. -1.
        -11    1    5    5    0    0 -0.14286393604E+03  0.18451291010E+03 -0.13116399227E+03  0.26769219466E+03  0.00000000000E+00 0.  1.
          2    1    6    6  503    0  0.34850779757E+02 -0.33924456775E+03 -0.10863834478E+03  0.35791583306E+03  0.00000000000E+00 0. -1.
         -2    1    6    6    0  503  0.13481471054E+03 -0.35812236963E+03 -0.11716396700E+03  0.40019249490E+03  0.00000000000E+00 0.  1.
<mgrwt>
<rscale>  0 0.15630424E+04</rscale>
<asrwt>0</asrwt>
<pdfrwt beam="1">  1        1 0.14761041E+00 0.15630424E+04</pdfrwt>
<pdfrwt beam="2">  1       -2 0.97934977E-01 0.15630424E+04</pdfrwt>
<totfact> 0.11924269E+01</totfact>
</mgrwt>
</event>
<event>
12    4  0.4381187E-008  0.1668135E+04  0.7818608E-02  0.8779749E-01
         -2   -1    0    0    0  501 -0.00000000000E+00  0.00000000000E+00  0.42617812807E+03  0.42617812807E+03  0.00000000000E+00 0.  1.
          1   -1    0    0  501    0  0.00000000000E+00 -0.00000000000E+00 -0.16323432428E+04  0.16323432428E+04  0.00000000000E+00 0. -1.
        -24    2    1    2    0    0 -0.46463975294E+03 -0.29764761586E+02 -0.61990091534E+02  0.47617527173E+03  0.78256481622E+02 0.  0.
        254    2    1    2    0    0  0.46463975294E+03  0.29764761586E+02 -0.11441750232E+04  0.15823460991E+04  0.98889162839E+03 0.  0.
         23    2    4    4    0    0 -0.28924936678E+03 -0.40809499997E+02 -0.48876262047E+03  0.57666692234E+03  0.91242691127E+02 0.  0.
         23    2    4    4    0    0  0.75388911972E+03  0.70574261583E+02 -0.65541240270E+03  0.10056791768E+04  0.92171892455E+02 0.  0.
          1    1    3    3  502    0 -0.39924076155E+03 -0.50228994087E+02 -0.64896558642E+02  0.40758766033E+03  0.00000000000E+00 0. -1.
         -2    1    3    3    0  502 -0.65398991398E+02  0.20464232501E+02  0.29064671083E+01  0.68587611409E+02  0.00000000000E+00 0.  1.
         11    1    5    5    0    0 -0.19403935022E+02 -0.67225095023E+01 -0.41596588853E+01  0.20952507974E+02  0.00000000000E+00 0.  1.
        -11    1    5    5    0    0 -0.26984543175E+03 -0.34086990495E+02 -0.48460296158E+03  0.55571441437E+03  0.00000000000E+00 0. -1.
          2    1    6    6  503    0  0.45086373146E+03  0.77554695518E+02 -0.35660792692E+03  0.58005348778E+03  0.00000000000E+00 0. -1.
         -2    1    6    6    0  503  0.30302538826E+03 -0.69804339346E+01 -0.29880447578E+03  0.42562568900E+03  0.00000000000E+00 0.  1.
<mgrwt>
<rscale>  0 0.16681355E+04</rscale>
<asrwt>0</asrwt>
<pdfrwt beam="1">  1        1 0.25112972E+00 0.16681355E+04</pdfrwt>
<pdfrwt beam="2">  1       -2 0.65565867E-01 0.16681355E+04</pdfrwt>
<totfact> 0.95138086E+00</totfact>
</mgrwt>
</event>
<event>
12    4  0.4381187E-008  0.2224237E+04  0.7818608E-02  0.8508407E-01
          1   -1    0    0  501    0  0.00000000000E+00  0.00000000000E+00  0.34215796931E+04  0.34215796931E+04  0.00000000000E+00 0. -1.
         -2   -1    0    0    0  501 -0.00000000000E+00 -0.00000000000E+00 -0.36147280423E+03  0.36147280423E+03  0.00000000000E+00 0.  1.
        -24    2    1    2    0    0 -0.96082836786E+02  0.57091494167E+03  0.25250850035E+04  0.25913215861E+04  0.60971351823E+02 0.  0.
        254    2    1    2    0    0  0.96082836786E+02 -0.57091494167E+03  0.53502188540E+03  0.11917309112E+04  0.89375520403E+03 0.  0.
         23    2    4    4    0    0  0.42048350906E+03 -0.57955625036E+03  0.31205888135E+03  0.78714229204E+03  0.97572607653E+02 0.  0.
         23    2    4    4    0    0 -0.32440067227E+03  0.86413086879E+01  0.22296300405E+03  0.40458861917E+03  0.93107363830E+02 0.  0.
          3    1    3    3  502    0 -0.10162558222E+03  0.46019863370E+03  0.20481883853E+04  0.21017103043E+04  0.00000000000E+00 0. -1.
         -4    1    3    3    0  502  0.55427454313E+01  0.11071630798E+03  0.47689661817E+03  0.48961128183E+03  0.00000000000E+00 0.  1.
         11    1    5    5    0    0  0.42334285552E+02 -0.71841874559E+02  0.71733390210E+02  0.10999602695E+03  0.00000000000E+00 0.  1.
        -11    1    5    5    0    0  0.37814922351E+03 -0.50771437580E+03  0.24032549114E+03  0.67714626509E+03  0.00000000000E+00 0. -1.
          4    1    6    6  503    0 -0.25311240953E+03  0.44266751331E+02  0.18282182145E+03  0.31535576026E+03  0.00000000000E+00 0. -1.
         -4    1    6    6    0  503 -0.71288262741E+02 -0.35625442643E+02  0.40141182601E+02  0.89232858907E+02  0.00000000000E+00 0.  1.
<mgrwt>
<rscale>  0 0.22242374E+04</rscale>
<asrwt>0</asrwt>
<pdfrwt beam="1">  1        1 0.52639685E+00 0.22242374E+04</pdfrwt>
<pdfrwt beam="2">  1       -2 0.55611203E-01 0.22242374E+04</pdfrwt>
<totfact> 0.70087926E-01</totfact>
</mgrwt>
</event>
<event>
12    4  0.4381187E-008  0.1020988E+04  0.7818608E-02  0.9285820E-01
         -2   -1    0    0    0  501 -0.00000000000E+00  0.00000000000E+00  0.13615911380E+03  0.13615911380E+03  0.00000000000E+00 0.  1.
          1   -1    0    0  501    0  0.00000000000E+00 -0.00000000000E+00 -0.19139688699E+04  0.19139688699E+04  0.00000000000E+00 0. -1.
        -24    2    1    2    0    0  0.34233409037E+01 -0.66692771216E+02 -0.29935921762E+03  0.31745642812E+03  0.81871836352E+02 0.  0.
        254    2    1    2    0    0 -0.34233409037E+01  0.66692771216E+02 -0.14784505385E+04  0.17326715556E+04  0.90104110882E+03 0.  0.
         23    2    4    4    0    0 -0.26289029836E+03  0.62392225699E+02 -0.14243675917E+04  0.14526776347E+04  0.91897634249E+02 0.  0.
         23    2    4    4    0    0  0.25946695746E+03  0.43005455168E+01 -0.54082946767E+02  0.27999392089E+03  0.90166700613E+02 0.  0.
          3    1    3    3  502    0  0.13402168432E+02 -0.74676112889E+02 -0.29394357215E+03  0.30357694834E+03  0.00000000000E+00 0. -1.
         -4    1    3    3    0  502 -0.99788275284E+01  0.79833416733E+01 -0.54156454633E+01  0.13879479778E+02  0.00000000000E+00 0.  1.
         11    1    5    5    0    0 -0.15234711960E+03  0.71952201127E+02 -0.99730451888E+03  0.10114361411E+04  0.00000000000E+00 0.  1.
        -11    1    5    5    0    0 -0.11054317877E+03 -0.95599754284E+01 -0.42706307287E+03  0.44124149364E+03  0.00000000000E+00 0. -1.
          1    1    6    6  503    0  0.36962580464E+02  0.13165593753E+01 -0.43667370159E+02  0.57225911088E+02  0.00000000000E+00 0. -1.
         -1    1    6    6    0  503  0.22250437700E+03  0.29839861415E+01 -0.10415576608E+02  0.22276800980E+03  0.00000000000E+00 0.  1.
<mgrwt>
<rscale>  0 0.10209884E+04</rscale>
<asrwt>0</asrwt>
<pdfrwt beam="1">  1        1 0.29445676E+00 0.10209884E+04</pdfrwt>
<pdfrwt beam="2">  1       -2 0.20947555E-01 0.10209884E+04</pdfrwt>
<totfact> 0.59220408E+01</totfact>
</mgrwt>
</event>
<event>
12    4  0.4381187E-008  0.1326988E+04  0.7818608E-02  0.9008433E-01
         -2   -1    0    0    0  501 -0.00000000000E+00  0.00000000000E+00  0.12281135069E+04  0.12281135069E+04  0.00000000000E+00 0.  1.
          1   -1    0    0  501    0  0.00000000000E+00 -0.00000000000E+00 -0.35845585961E+03  0.35845585961E+03  0.00000000000E+00 0. -1.
        -24    2    1    2    0    0 -0.88052016372E+02  0.76443742444E+02 -0.15694675476E+03  0.21093037443E+03  0.79136184404E+02 0.  0.
        254    2    1    2    0    0  0.88052016372E+02 -0.76443742444E+02  0.10266044021E+04  0.13756389921E+04  0.90822311956E+03 0.  0.
         23    2    4    4    0    0  0.41840542232E+03  0.19112248163E+03  0.42215121537E+03  0.63122655875E+03  0.92975370011E+02 0.  0.
         23    2    4    4    0    0 -0.33035340595E+03 -0.26756622407E+03  0.60445318671E+03  0.74441243336E+03  0.89783957004E+02 0.  0.
          1    1    3    3  502    0 -0.27274387398E+02 -0.12130652923E+02 -0.56310782098E+02  0.63733422384E+02  0.00000000000E+00 0. -1.
         -2    1    3    3    0  502 -0.60777628974E+02  0.88574395367E+02 -0.10063597266E+03  0.14719695205E+03  0.00000000000E+00 0.  1.
         11    1    5    5    0    0  0.19074061641E+03  0.52263333258E+02  0.22517766998E+03  0.29969721689E+03  0.00000000000E+00 0.  1.
        -11    1    5    5    0    0  0.22766480591E+03  0.13885914837E+03  0.19697354539E+03  0.33152934186E+03  0.00000000000E+00 0. -1.
          3    1    6    6  503    0 -0.23537410706E+03 -0.23323339852E+03  0.49297352783E+03  0.59398795241E+03  0.00000000000E+00 0. -1.
         -3    1    6    6    0  503 -0.94979298887E+02 -0.34332825550E+02  0.11147965888E+03  0.15042448096E+03  0.00000000000E+00 0.  1.
<mgrwt>
<rscale>  0 0.13269883E+04</rscale>
<asrwt>0</asrwt>
<pdfrwt beam="1">  1        1 0.55147056E-01 0.13269883E+04</pdfrwt>
<pdfrwt beam="2">  1       -2 0.18894054E+00 0.13269883E+04</pdfrwt>
<totfact> 0.93553894E+00</totfact>
</mgrwt>
</event>
<event>
12    4  0.4381187E-008  0.1091253E+04  0.7818608E-02  0.9213759E-01
         -2   -1    0    0    0  501 -0.00000000000E+00  0.00000000000E+00  0.20599046629E+03  0.20599046629E+03  0.00000000000E+00 0.  1.
          1   -1    0    0  501    0  0.00000000000E+00 -0.00000000000E+00 -0.14452538569E+04  0.14452538569E+04  0.00000000000E+00 0. -1.
        -24    2    1    2    0    0  0.16117801454E+03  0.10080504911E+03 -0.11818054384E+03  0.23881826300E+03  0.83231673687E+02 0.  0.
        254    2    1    2    0    0 -0.16117801454E+03 -0.10080504911E+03 -0.11210828467E+04  0.14124260602E+04  0.83784283480E+03 0.  0.
         23    2    4    4    0    0  0.10592558800E+03  0.19222157242E+03 -0.20321011539E+02  0.23893431701E+03  0.92235032615E+02 0.  0.
         23    2    4    4    0    0 -0.26710360254E+03 -0.29302662153E+03 -0.11007618352E+04  0.11734917431E+04  0.90539041009E+02 0.  0.
          1    1    3    3  502    0  0.97591722448E+02  0.97497498834E+02 -0.10604837540E+03  0.17400047269E+03  0.00000000000E+00 0. -1.
         -2    1    3    3    0  502  0.63586292091E+02  0.33075502790E+01 -0.12132168434E+02  0.64817790317E+02  0.00000000000E+00 0.  1.
         11    1    5    5    0    0  0.69784822655E+02  0.13673627431E+03 -0.56373808598E+02  0.16353818050E+03  0.00000000000E+00 0.  1.
        -11    1    5    5    0    0  0.36140765342E+02  0.55485298112E+02  0.36052797059E+02  0.75396136518E+02  0.00000000000E+00 0. -1.
          2    1    6    6  503    0 -0.23062314339E+02 -0.40437719196E+02 -0.22811570976E+03  0.23281721697E+03  0.00000000000E+00 0. -1.
         -2    1    6    6    0  503 -0.24404128820E+03 -0.25258890234E+03 -0.87264612545E+03  0.94067452617E+03  0.00000000000E+00 0.  1.
<mgrwt>
<rscale>  0 0.10912534E+04</rscale>
<asrwt>0</asrwt>
<pdfrwt beam="1">  1        1 0.22234674E+00 0.10912534E+04</pdfrwt>
<pdfrwt beam="2">  1       -2 0.31690841E-01 0.10912534E+04</pdfrwt>
<totfact> 0.57790515E+01</totfact>
</mgrwt>
</event>
<event>
12    4  0.4381187E-008  0.1585129E+04  0.7818608E-02  0.8829736E-01
         -2   -1    0    0    0  501 -0.00000000000E+00  0.00000000000E+00  0.37766828275E+03  0.37766828275E+03  0.00000000000E+00 0.  1.
          1   -1    0    0  501    0  0.00000000000E+00 -0.00000000000E+00 -0.16632545727E+04  0.16632545727E+04  0.00000000000E+00 0. -1.
        -24    2    1    2    0    0 -0.38525590383E+03 -0.83298528015E+02 -0.89033096911E+03  0.97701771157E+03  0.80706988340E+02 0.  0.
        254    2    1    2    0    0  0.38525590383E+03  0.83298528015E+02 -0.39525532089E+03  0.10639051439E+04  0.90570780629E+03 0.  0.
         23    2    4    4    0    0 -0.16823202793E+03  0.24889227016E+03  0.63275739737E+02  0.32066707283E+03  0.92596841156E+02 0.  0.
         23    2    4    4    0    0  0.55348793177E+03 -0.16559374214E+03 -0.45853106062E+03  0.74323807110E+03  0.91552819303E+02 0.  0.
          1    1    3    3  502    0 -0.17114556735E+03 -0.68091459536E+02 -0.47580627778E+03  0.51021452945E+03  0.00000000000E+00 0. -1.
         -2    1    3    3    0  502 -0.21411033649E+03 -0.15207068479E+02 -0.41452469132E+03  0.46680318212E+03  0.00000000000E+00 0.  1.
         11    1    5    5    0    0 -0.66195653551E+02  0.16133319130E+03  0.59080077688E+01  0.17448543699E+03  0.00000000000E+00 0. -1.
        -11    1    5    5    0    0 -0.10203637438E+03  0.87559078858E+02  0.57367731968E+02  0.14618163585E+03  0.00000000000E+00 0.  1.
          1    1    6    6  503    0  0.45483180543E+03 -0.13430387507E+03 -0.41772903365E+03  0.63198658818E+03  0.00000000000E+00 0. -1.
         -1    1    6    6    0  503  0.98656126337E+02 -0.31289867077E+02 -0.40802026975E+02  0.11125148291E+03  0.00000000000E+00 0.  1.
<mgrwt>
<rscale>  0 0.15851290E+04</rscale>
<asrwt>0</asrwt>
<pdfrwt beam="1">  1        1 0.25588532E+00 0.15851290E+04</pdfrwt>
<pdfrwt beam="2">  1       -2 0.58102812E-01 0.15851290E+04</pdfrwt>
<totfact> 0.11801424E+01</totfact>
</mgrwt>
</event>
<event>
12    4  0.4381187E-008  0.1588505E+04  0.7818608E-02  0.8827641E-01
         -2   -1    0    0    0  501 -0.00000000000E+00  0.00000000000E+00  0.64535427358E+03  0.64535427358E+03  0.00000000000E+00 0.  1.
          1   -1    0    0  501    0  0.00000000000E+00 -0.00000000000E+00 -0.97750554650E+03  0.97750554650E+03  0.00000000000E+00 0. -1.
        -24    2    1    2    0    0  0.11645736678E+03 -0.87041513226E+02  0.41281305232E+03  0.44509220507E+03  0.80956232270E+02 0.  0.
        254    2    1    2    0    0 -0.11645736678E+03  0.87041513226E+02 -0.74496432524E+03  0.11777676150E+04  0.90056991167E+03 0.  0.
         23    2    4    4    0    0 -0.18672995649E+03  0.33435366167E+03 -0.10120157167E+02  0.39397541140E+03  0.91944328156E+02 0.  0.
         23    2    4    4    0    0  0.70272589708E+02 -0.24731214844E+03 -0.73484416807E+03  0.78379220362E+03  0.90734400730E+02 0.  0.
          1    1    3    3  502    0  0.63701794232E+02 -0.84685886913E+02  0.33245528634E+03  0.34893571822E+03  0.00000000000E+00 0. -1.
         -2    1    3    3    0  502  0.52755572552E+02 -0.23556263133E+01  0.80357765980E+02  0.96156486853E+02  0.00000000000E+00 0.  1.
         11    1    5    5    0    0 -0.14515387123E+03  0.22254632167E+03  0.31667540494E+02  0.26758053880E+03  0.00000000000E+00 0. -1.
        -11    1    5    5    0    0 -0.41576085260E+02  0.11180733999E+03 -0.41787697661E+02  0.12639487259E+03  0.00000000000E+00 0.  1.
          2    1    6    6  503    0  0.29355998970E+02 -0.21559159765E+03 -0.63635689849E+03  0.67252629235E+03  0.00000000000E+00 0. -1.
         -2    1    6    6    0  503  0.40916590738E+02 -0.31720550797E+02 -0.98487269587E+02  0.11126591127E+03  0.00000000000E+00 0.  1.
<mgrwt>
<rscale>  0 0.15885054E+04</rscale>
<asrwt>0</asrwt>
<pdfrwt beam="1">  1        1 0.15038547E+00 0.15885054E+04</pdfrwt>
<pdfrwt beam="2">  1       -2 0.99285274E-01 0.15885054E+04</pdfrwt>
<totfact> 0.11147966E+01</totfact>
</mgrwt>
</event>
<event>
12    4  0.4381187E-008  0.1465981E+04  0.7818608E-02  0.8907396E-01
          1   -1    0    0  501    0  0.00000000000E+00  0.00000000000E+00  0.14304015868E+04  0.14304015868E+04  0.00000000000E+00 0. -1.
         -2   -1    0    0    0  501 -0.00000000000E+00 -0.00000000000E+00 -0.37561130063E+03  0.37561130063E+03  0.00000000000E+00 0.  1.
        -24    2    1    2    0    0 -0.29060207376E+03 -0.11967426341E+03  0.74891600553E+03  0.81596085811E+03  0.78392882637E+02 0.  0.
        254    2    1    2    0    0  0.29060207376E+03  0.11967426341E+03  0.30587428066E+03  0.99005202933E+03  0.88762179481E+03 0.  0.
         23    2    4    4    0    0  0.12895081494E+03 -0.32062360223E+03 -0.90909242987E+02  0.36881301733E+03  0.91272911152E+02 0.  0.
         23    2    4    4    0    0  0.16165125882E+03  0.44029786564E+03  0.39678352364E+03  0.62123901200E+03  0.92235597407E+02 0.  0.
          1    1    3    3  502    0 -0.22594806862E+03 -0.11827157212E+03  0.53862822572E+03  0.59595390763E+03  0.00000000000E+00 0. -1.
         -2    1    3    3    0  502 -0.64654005141E+02 -0.14026912883E+01  0.21028777981E+03  0.22000695048E+03  0.00000000000E+00 0.  1.
         11    1    5    5    0    0  0.43035040141E+02 -0.34286423114E+02 -0.33447014590E+02  0.64391585435E+02  0.00000000000E+00 0. -1.
        -11    1    5    5    0    0  0.85915774797E+02 -0.28633717912E+03 -0.57462228397E+02  0.30442143190E+03  0.00000000000E+00 0.  1.
          4    1    6    6  503    0  0.40106040027E+02  0.22881702219E+03  0.22044764667E+03  0.32025441295E+03  0.00000000000E+00 0. -1.
         -4    1    6    6    0  503  0.12154521879E+03  0.21148084345E+03  0.17633587698E+03  0.30098459905E+03  0.00000000000E+00 0.  1.
<mgrwt>
<rscale>  0 0.14659809E+04</rscale>
<asrwt>0</asrwt>
<pdfrwt beam="1">  1        1 0.22006178E+00 0.14659809E+04</pdfrwt>
<pdfrwt beam="2">  1       -2 0.57786355E-01 0.14659809E+04</pdfrwt>
<totfact> 0.17452565E+01</totfact>
</mgrwt>
</event>
<event>
12    4  0.4381187E-008  0.1290809E+04  0.7818608E-02  0.9036886E-01
         -2   -1    0    0    0  501 -0.00000000000E+00  0.00000000000E+00  0.50234546300E+03  0.50234546300E+03  0.00000000000E+00 0.  1.
          1   -1    0    0  501    0  0.00000000000E+00 -0.00000000000E+00 -0.82920359957E+03  0.82920359957E+03  0.00000000000E+00 0. -1.
        -24    2    1    2    0    0 -0.28987502289E+03 -0.94880196054E+02  0.26888413424E+02  0.31570878669E+03  0.76936796905E+02 0.  0.
        254    2    1    2    0    0  0.28987502289E+03  0.94880196054E+02 -0.35374654999E+03  0.10158402759E+04  0.90208927716E+03 0.  0.
         23    2    4    4    0    0 -0.13148157298E+03  0.35613777176E+03 -0.32889520496E+03  0.51089423524E+03  0.93377445030E+02 0.  0.
         23    2    4    4    0    0  0.42135659587E+03 -0.26125757571E+03 -0.24851345027E+02  0.50494604064E+03  0.92498718146E+02 0.  0.
          3    1    3    3  502    0 -0.11896530412E+03 -0.57649130849E+02 -0.22165221878E+02  0.13404276532E+03  0.00000000000E+00 0. -1.
         -4    1    3    3    0  502 -0.17090971877E+03 -0.37231065205E+02  0.49053635302E+02  0.18166602138E+03  0.00000000000E+00 0.  1.
         11    1    5    5    0    0 -0.11446514405E+01  0.30442709923E+02 -0.65560687495E+00  0.30471275568E+02  0.00000000000E+00 0. -1.
        -11    1    5    5    0    0 -0.13033692154E+03  0.32569506184E+03 -0.32823959809E+03  0.48042295967E+03  0.00000000000E+00 0.  1.
          2    1    6    6  503    0  0.10438138770E+03 -0.61709463988E+02 -0.46248897384E+02  0.12977862903E+03  0.00000000000E+00 0. -1.
         -2    1    6    6    0  503  0.31697520817E+03 -0.19954811172E+03  0.21397552357E+02  0.37516741161E+03  0.00000000000E+00 0.  1.
<mgrwt>
<rscale>  0 0.12908085E+04</rscale>
<asrwt>0</asrwt>
<pdfrwt beam="1">  1        1 0.12756978E+00 0.12908085E+04</pdfrwt>
<pdfrwt beam="2">  1       -2 0.77283918E-01 0.12908085E+04</pdfrwt>
<totfact> 0.26846591E+01</totfact>
</mgrwt>
</event>
<event>
12    4  0.4381187E-008  0.2281807E+04  0.7818608E-02  0.8485129E-01
          1   -1    0    0  501    0  0.00000000000E+00  0.00000000000E+00  0.20911663208E+04  0.20911663208E+04  0.00000000000E+00 0. -1.
         -2   -1    0    0    0  501 -0.00000000000E+00 -0.00000000000E+00 -0.62245677064E+03  0.62245677064E+03  0.00000000000E+00 0.  1.
        -24    2    1    2    0    0 -0.67732170037E+03 -0.62432175202E+03  0.30065899365E+03  0.97222276545E+03  0.79239758700E+02 0.  0.
        254    2    1    2    0    0  0.67732170037E+03  0.62432175202E+03  0.11680505566E+04  0.17414003260E+04  0.90531246372E+03 0.  0.
         23    2    4    4    0    0 -0.61156493926E+02  0.32866199411E+03  0.77634348042E+03  0.85009269897E+03  0.90496265880E+02 0.  0.
         23    2    4    4    0    0  0.73847819430E+03  0.29565975792E+03  0.39170707613E+03  0.89130762705E+03  0.90719990311E+02 0.  0.
          1    1    3    3  502    0 -0.31767194458E+03 -0.26600551987E+03  0.17108771285E+03  0.44826934589E+03  0.00000000000E+00 0. -1.
         -2    1    3    3    0  502 -0.35964975579E+03 -0.35831623215E+03  0.12957128079E+03  0.52395341956E+03  0.00000000000E+00 0.  1.
         11    1    5    5    0    0 -0.15256427946E+02  0.26204515942E+03  0.63708784115E+03  0.68904378781E+03  0.00000000000E+00 0.  1.
        -11    1    5    5    0    0 -0.45900065980E+02  0.66616834685E+02  0.13925563927E+03  0.16104891117E+03  0.00000000000E+00 0. -1.
          4    1    6    6  503    0  0.39156611769E+01  0.59118025699E+01 -0.39168220959E+01  0.81008214033E+01  0.00000000000E+00 0. -1.
         -4    1    6    6    0  503  0.73456253312E+03  0.28974795535E+03  0.39562389823E+03  0.88320680565E+03  0.00000000000E+00 0.  1.
<mgrwt>
<rscale>  0 0.22818069E+04</rscale>
<asrwt>0</asrwt>
<pdfrwt beam="1">  1        1 0.32171789E+00 0.22818069E+04</pdfrwt>
<pdfrwt beam="2">  1       -2 0.95762581E-01 0.22818069E+04</pdfrwt>
<totfact> 0.18798450E+00</totfact>
</mgrwt>
</event>
<event>
12    4  0.4381187E-008  0.2351864E+04  0.7818608E-02  0.8457748E-01
          1   -1    0    0  501    0  0.00000000000E+00  0.00000000000E+00  0.14860155451E+04  0.14860155451E+04  0.00000000000E+00 0. -1.
         -2   -1    0    0    0  501 -0.00000000000E+00 -0.00000000000E+00 -0.93055266751E+03  0.93055266751E+03  0.00000000000E+00 0.  1.
        -24    2    1    2    0    0  0.44692152658E+03 -0.72811467560E+03  0.84316921791E+03  0.12030041602E+04  0.79967792102E+02 0.  0.
        254    2    1    2    0    0 -0.44692152658E+03  0.72811467560E+03 -0.28770634029E+03  0.12135640524E+04  0.81244873025E+03 0.  0.
         23    2    4    4    0    0 -0.40075004560E+03  0.65638670876E+02 -0.34454011868E+03  0.54046397608E+03  0.92110704560E+02 0.  0.
         23    2    4    4    0    0 -0.46171480982E+02  0.66247600472E+03  0.56833778388E+02  0.67310007632E+03  0.93954094608E+02 0.  0.
          3    1    3    3  502    0  0.43661618543E+03 -0.72423720473E+03  0.82305349774E+03  0.11800721513E+04  0.00000000000E+00 0. -1.
         -4    1    3    3    0  502  0.10305341148E+02 -0.38774708633E+01  0.20115720169E+02  0.22932008948E+02  0.00000000000E+00 0.  1.
         11    1    5    5    0    0 -0.34677255060E+03  0.29099474680E+02 -0.31302702331E+03  0.46806398985E+03  0.00000000000E+00 0. -1.
        -11    1    5    5    0    0 -0.53977495000E+02  0.36539196196E+02 -0.31513095366E+02  0.72399986221E+02  0.00000000000E+00 0.  1.
          3    1    6    6  503    0 -0.32893911803E+01  0.54417092034E+03  0.34294756226E+02  0.54526043405E+03  0.00000000000E+00 0. -1.
         -3    1    6    6    0  503 -0.42882089801E+02  0.11830508438E+03  0.22539022161E+02  0.12783964227E+03  0.00000000000E+00 0.  1.
<mgrwt>
<rscale>  0 0.23518637E+04</rscale>
<asrwt>0</asrwt>
<pdfrwt beam="1">  1        1 0.22861778E+00 0.23518637E+04</pdfrwt>
<pdfrwt beam="2">  1       -2 0.14316195E+00 0.23518637E+04</pdfrwt>
<totfact> 0.17907837E+00</totfact>
</mgrwt>
</event>
<event>
12    4  0.4381187E-008  0.1698339E+04  0.7818608E-02  0.8762313E-01
          3   -1    0    0  501    0  0.00000000000E+00  0.00000000000E+00  0.83858315623E+03  0.83858315623E+03  0.00000000000E+00 0. -1.
         -4   -1    0    0    0  501 -0.00000000000E+00 -0.00000000000E+00 -0.85988903811E+03  0.85988903811E+03  0.00000000000E+00 0.  1.
        -24    2    1    2    0    0  0.49007822700E+03  0.19548899495E+03 -0.29745095685E+03  0.61103398948E+03  0.80578215734E+02 0.  0.
        254    2    1    2    0    0 -0.49007822700E+03 -0.19548899495E+03  0.27614507497E+03  0.10874382049E+04  0.90987533829E+03 0.  0.
         23    2    4    4    0    0 -0.18297245307E+03 -0.46904837311E+03  0.39622468916E+03  0.64749196002E+03  0.93629798098E+02 0.  0.
         23    2    4    4    0    0 -0.30710577392E+03  0.27355937817E+03 -0.12007961418E+03  0.43994624484E+03  0.99924445682E+02 0.  0.
          1    1    3    3  502    0  0.10823353670E+01 -0.29943708514E+01 -0.91263041550E+01  0.96657712662E+01  0.00000000000E+00 0. -1.
         -2    1    3    3    0  502  0.48899589163E+03  0.19848336580E+03 -0.28832465270E+03  0.60136821822E+03  0.00000000000E+00 0.  1.
         11    1    5    5    0    0 -0.16624023110E+03 -0.45296918002E+03  0.39612636375E+03  0.62428598298E+03  0.00000000000E+00 0.  1.
        -11    1    5    5    0    0 -0.16732221975E+02 -0.16079193087E+02  0.98325407644E-01  0.23205977041E+02  0.00000000000E+00 0. -1.
          1    1    6    6  503    0 -0.10515613077E+03  0.61531953882E+02  0.40645330216E+01  0.12190370633E+03  0.00000000000E+00 0. -1.
         -1    1    6    6    0  503 -0.20194964315E+03  0.21202742428E+03 -0.12414414720E+03  0.31804253851E+03  0.00000000000E+00 0.  1.
<mgrwt>
<rscale>  0 0.16983386E+04</rscale>
<asrwt>0</asrwt>
<pdfrwt beam="1">  1        3 0.12901279E+00 0.16983386E+04</pdfrwt>
<pdfrwt beam="2">  1       -4 0.13229062E+00 0.16983386E+04</pdfrwt>
<totfact> 0.42722050E-01</totfact>
</mgrwt>
</event>
<event>
12    4  0.4381187E-008  0.1756258E+04  0.7818608E-02  0.8729913E-01
          1   -1    0    0  501    0  0.00000000000E+00  0.00000000000E+00  0.20176358795E+04  0.20176358795E+04  0.00000000000E+00 0. -1.
         -2   -1    0    0    0  501 -0.00000000000E+00 -0.00000000000E+00 -0.38218511197E+03  0.38218511197E+03  0.00000000000E+00 0.  1.
        -24    2    1    2    0    0 -0.13341414537E+03 -0.17379432741E+03  0.14207289443E+04  0.14389824326E+04  0.64775811118E+02 0.  0.
        254    2    1    2    0    0  0.13341414537E+03  0.17379432741E+03  0.21472182320E+03  0.96083855885E+03  0.91055009330E+03 0.  0.
         23    2    4    4    0    0  0.44670120380E+03  0.26550252812E+03 -0.52543309068E+02  0.53005362881E+03  0.90346511659E+02 0.  0.
         23    2    4    4    0    0 -0.31328705844E+03 -0.91708200705E+02  0.26726513227E+03  0.43078493005E+03  0.87096670263E+02 0.  0.
          3    1    3    3  502    0 -0.27643675659E+02 -0.87346614310E+02  0.60377617241E+03  0.61068753893E+03  0.00000000000E+00 0. -1.
         -4    1    3    3    0  502 -0.10577046971E+03 -0.86447713102E+02  0.81695277190E+03  0.82829489367E+03  0.00000000000E+00 0.  1.
         11    1    5    5    0    0  0.14742331996E+03  0.68013770909E+02 -0.55185206928E+02  0.17147861489E+03  0.00000000000E+00 0. -1.
        -11    1    5    5    0    0  0.29927788384E+03  0.19748875721E+03  0.26418978602E+01  0.35857501391E+03  0.00000000000E+00 0.  1.
          2    1    6    6  503    0 -0.13695526335E+03  0.44077936798E+01  0.10893515591E+03  0.17505153812E+03  0.00000000000E+00 0. -1.
         -2    1    6    6    0  503 -0.17633179509E+03 -0.96115994385E+02  0.15832997636E+03  0.25573339193E+03  0.00000000000E+00 0.  1.
<mgrwt>
<rscale>  0 0.17562578E+04</rscale>
<asrwt>0</asrwt>
<pdfrwt beam="1">  1        1 0.31040551E+00 0.17562578E+04</pdfrwt>
<pdfrwt beam="2">  1       -2 0.58797710E-01 0.17562578E+04</pdfrwt>
<totfact> 0.65180050E+00</totfact>
</mgrwt>
</event>
<event>
12    4  0.4381187E-008  0.1940451E+04  0.7818608E-02  0.8634979E-01
          1   -1    0    0  501    0  0.00000000000E+00  0.00000000000E+00  0.24360535311E+04  0.24360535311E+04  0.00000000000E+00 0. -1.
         -2   -1    0    0    0  501 -0.00000000000E+00 -0.00000000000E+00 -0.38641908573E+03  0.38641908573E+03  0.00000000000E+00 0.  1.
        -24    2    1    2    0    0 -0.36339399009E+03 -0.43343321234E+03  0.15414462125E+04  0.16438171331E+04  0.78478018943E+02 0.  0.
        254    2    1    2    0    0  0.36339399009E+03  0.43343321234E+03  0.50818823284E+03  0.11786554837E+04  0.90058532504E+03 0.  0.
         23    2    4    4    0    0 -0.12987475352E+03  0.49302703569E+03  0.99604171419E+02  0.52903847015E+03  0.10008797339E+03 0.  0.
         23    2    4    4    0    0  0.49326874361E+03 -0.59593823347E+02  0.40858406142E+03  0.64961701355E+03  0.90530944128E+02 0.  0.
          1    1    3    3  502    0 -0.35256571053E+03 -0.42768940517E+03  0.14641091384E+04  0.15655147322E+04  0.00000000000E+00 0. -1.
         -2    1    3    3    0  502 -0.10828279554E+02 -0.57438071655E+01  0.77337074113E+02  0.78302400929E+02  0.00000000000E+00 0.  1.
         11    1    5    5    0    0 -0.10854598651E+03  0.31571736518E+03  0.10616705362E+03  0.35033002888E+03  0.00000000000E+00 0. -1.
        -11    1    5    5    0    0 -0.21328767011E+02  0.17730967051E+03 -0.65628822042E+01  0.17870844127E+03  0.00000000000E+00 0.  1.
          1    1    6    6  503    0  0.43995625749E+03 -0.78249732755E+02  0.34481644795E+03  0.56443149448E+03  0.00000000000E+00 0. -1.
         -1    1    6    6    0  503  0.53312486118E+02  0.18655909408E+02  0.63767613471E+02  0.85185519073E+02  0.00000000000E+00 0.  1.
<mgrwt>
<rscale>  0 0.19404511E+04</rscale>
<asrwt>0</asrwt>
<pdfrwt beam="1">  1        1 0.37477746E+00 0.19404511E+04</pdfrwt>
<pdfrwt beam="2">  1       -2 0.59449092E-01 0.19404511E+04</pdfrwt>
<totfact> 0.32465992E+00</totfact>
</mgrwt>
</event>
<event>
12    4  0.4381187E-008  0.2797075E+04  0.7818608E-02  0.8304177E-01
          1   -1    0    0  501    0  0.00000000000E+00  0.00000000000E+00  0.24744053330E+04  0.24744053330E+04  0.00000000000E+00 0. -1.
         -2   -1    0    0    0  501 -0.00000000000E+00 -0.00000000000E+00 -0.79045544146E+03  0.79045544146E+03  0.00000000000E+00 0.  1.
        -24    2    1    2    0    0 -0.58374193275E+03  0.29245153041E+02 -0.53615972254E+03  0.79681327234E+03  0.76382065158E+02 0.  0.
        254    2    1    2    0    0  0.58374193275E+03 -0.29245153041E+02  0.22201096141E+04  0.24680475021E+04  0.90595907807E+03 0.  0.
         23    2    4    4    0    0  0.61638679376E+03  0.45930187313E+02  0.22559025199E+04  0.23408518210E+04  0.91917391491E+02 0.  0.
         23    2    4    4    0    0 -0.32644861010E+02 -0.75175340354E+02 -0.35792905802E+02  0.12719568115E+03  0.90446616578E+02 0.  0.
          3    1    3    3  502    0 -0.21675662142E+03 -0.20670994700E+02 -0.17289618667E+03  0.27803563497E+03  0.00000000000E+00 0. -1.
         -4    1    3    3    0  502 -0.36698531133E+03  0.49916147742E+02 -0.36326353588E+03  0.51877763737E+03  0.00000000000E+00 0.  1.
         11    1    5    5    0    0  0.14856073992E+03 -0.24623224808E+02  0.60869826305E+03  0.62704877967E+03  0.00000000000E+00 0. -1.
        -11    1    5    5    0    0  0.46782605384E+03  0.70553412121E+02  0.16472042569E+04  0.17138030413E+04  0.00000000000E+00 0.  1.
          2    1    6    6  503    0  0.14344966309E+02  0.40931412195E+01 -0.31607781710E+02  0.34951162041E+02  0.00000000000E+00 0. -1.
         -2    1    6    6    0  503 -0.46989827318E+02 -0.79268481573E+02 -0.41851240923E+01  0.92244519111E+02  0.00000000000E+00 0.  1.
<mgrwt>
<rscale>  0 0.27970750E+04</rscale>
<asrwt>0</asrwt>
<pdfrwt beam="1">  1        1 0.38067774E+00 0.27970750E+04</pdfrwt>
<pdfrwt beam="2">  1       -2 0.12160853E+00 0.27970750E+04</pdfrwt>
<totfact> 0.55194095E-01</totfact>
</mgrwt>
</event>
<event>
12    4  0.4381187E-008  0.1380022E+04  0.7818608E-02  0.8968408E-01
          1   -1    0    0  501    0  0.00000000000E+00  0.00000000000E+00  0.18690095393E+04  0.18690095393E+04  0.00000000000E+00 0. -1.
         -2   -1    0    0    0  501 -0.00000000000E+00 -0.00000000000E+00 -0.25474203653E+03  0.25474203653E+03  0.00000000000E+00 0.  1.
        -24    2    1    2    0    0  0.21638329445E+03  0.32927900968E+03  0.50541271250E+03  0.64576811858E+03  0.79549083497E+02 0.  0.
        254    2    1    2    0    0 -0.21638329445E+03 -0.32927900968E+03  0.11088547902E+04  0.14779834572E+04  0.89422019528E+03 0.  0.
         23    2    4    4    0    0 -0.53894713275E+03 -0.25333789104E+03  0.51820651850E+03  0.79461558588E+03  0.90729458140E+02 0.  0.
         23    2    4    4    0    0  0.32256383830E+03 -0.75941118637E+02  0.59064827174E+03  0.68336787133E+03  0.91168982589E+02 0.  0.
          3    1    3    3  502    0  0.68881303439E+02  0.12589271790E+03  0.12751249916E+03  0.19197147659E+03  0.00000000000E+00 0. -1.
         -4    1    3    3    0  502  0.14750199101E+03  0.20338629178E+03  0.37790021334E+03  0.45379664199E+03  0.00000000000E+00 0.  1.
         11    1    5    5    0    0 -0.16844731962E+02 -0.40643079020E+01  0.41471207105E+02  0.44945796381E+02  0.00000000000E+00 0. -1.
        -11    1    5    5    0    0 -0.52210240079E+03 -0.24927358314E+03  0.47673531140E+03  0.74966978950E+03  0.00000000000E+00 0.  1.
          1    1    6    6  503    0  0.15377320072E+03 -0.67358191308E+02  0.22670501746E+03  0.28209659363E+03  0.00000000000E+00 0. -1.
         -1    1    6    6    0  503  0.16879063758E+03 -0.85829273291E+01  0.36394325428E+03  0.40127127770E+03  0.00000000000E+00 0.  1.
<mgrwt>
<rscale>  0 0.13800222E+04</rscale>
<asrwt>0</asrwt>
<pdfrwt beam="1">  1        1 0.28753992E+00 0.13800222E+04</pdfrwt>
<pdfrwt beam="2">  1       -2 0.39191084E-01 0.13800222E+04</pdfrwt>
<totfact> 0.19307865E+01</totfact>
</mgrwt>
</event>
<event>
12    4  0.4381187E-008  0.3110649E+04  0.7818608E-02  0.8212822E-01
         -2   -1    0    0    0  501 -0.00000000000E+00  0.00000000000E+00  0.13963325226E+04  0.13963325226E+04  0.00000000000E+00 0.  1.
          1   -1    0    0  501    0  0.00000000000E+00 -0.00000000000E+00 -0.17324196209E+04  0.17324196209E+04  0.00000000000E+00 0. -1.
        -24    2    1    2    0    0 -0.67543107467E+03 -0.10516506044E+04  0.53197449226E+03  0.13607349029E+04  0.80165361545E+02 0.  0.
        254    2    1    2    0    0  0.67543107467E+03  0.10516506044E+04 -0.86806159048E+03  0.17680172406E+04  0.90009883232E+03 0.  0.
         23    2    4    4    0    0  0.12581841643E+03 -0.31239851172E+02 -0.45463395100E+03  0.48200728833E+03  0.93982947323E+02 0.  0.
         23    2    4    4    0    0  0.54961265824E+03  0.10828904556E+04 -0.41342763948E+03  0.12860099523E+04  0.90406700380E+02 0.  0.
          1    1    3    3  502    0 -0.17170966052E+03 -0.20684361823E+03  0.11043255450E+03  0.29062663163E+03  0.00000000000E+00 0. -1.
         -2    1    3    3    0  502 -0.50372141415E+03 -0.84480698616E+03  0.42154193776E+03  0.10701082713E+04  0.00000000000E+00 0.  1.
         11    1    5    5    0    0  0.44377991088E+02 -0.36779427369E+02 -0.31528402795E+03  0.32050920525E+03  0.00000000000E+00 0. -1.
        -11    1    5    5    0    0  0.81440425341E+02  0.55395761967E+01 -0.13934992305E+03  0.16149808308E+03  0.00000000000E+00 0.  1.
          2    1    6    6  503    0  0.29926937591E+03  0.51222199919E+03 -0.23177504063E+03  0.63690910283E+03  0.00000000000E+00 0.  1.
         -2    1    6    6    0  503  0.25034328233E+03  0.57066845637E+03 -0.18165259885E+03  0.64910084946E+03  0.00000000000E+00 0. -1.
<mgrwt>
<rscale>  0 0.31106487E+04</rscale>
<asrwt>0</asrwt>
<pdfrwt beam="1">  1        1 0.26652609E+00 0.31106487E+04</pdfrwt>
<pdfrwt beam="2">  1       -2 0.21482039E+00 0.31106487E+04</pdfrwt>
<totfact> 0.35781543E-01</totfact>
</mgrwt>
</event>
<event>
12    4  0.4381187E-008  0.1587441E+04  0.7818608E-02  0.8828301E-01
         -2   -1    0    0    0  501 -0.00000000000E+00  0.00000000000E+00  0.77751441944E+03  0.77751441944E+03  0.00000000000E+00 0.  1.
          1   -1    0    0  501    0  0.00000000000E+00 -0.00000000000E+00 -0.81026412377E+03  0.81026412377E+03  0.00000000000E+00 0. -1.
        -24    2    1    2    0    0 -0.23499527210E+03 -0.20411123868E+03  0.42570253338E+03  0.53333299226E+03  0.79606896939E+02 0.  0.
        254    2    1    2    0    0  0.23499527210E+03  0.20411123868E+03 -0.45845223771E+03  0.10544455510E+04  0.89710244119E+03 0.  0.
         23    2    4    4    0    0  0.53893431975E+03  0.95837184689E+02 -0.45816310756E+03  0.71887380571E+03  0.85036159603E+02 0.  0.
         23    2    4    4    0    0 -0.30393904765E+03  0.10827405400E+03 -0.28913015224E+00  0.33557174524E+03  0.92228505089E+02 0.  0.
          3    1    3    3  502    0 -0.42421968807E+02 -0.32319047768E+01  0.66605065271E+02  0.79033558478E+02  0.00000000000E+00 0. -1.
         -4    1    3    3    0  502 -0.19257330329E+03 -0.20087933391E+03  0.35909746811E+03  0.45429943378E+03  0.00000000000E+00 0.  1.
         11    1    5    5    0    0  0.14761810430E+02  0.18898636663E+02 -0.16188862645E+02  0.28933523612E+02  0.00000000000E+00 0.  1.
        -11    1    5    5    0    0  0.52417250932E+03  0.76938548027E+02 -0.44197424491E+03  0.68994028210E+03  0.00000000000E+00 0. -1.
          2    1    6    6  503    0 -0.14005510097E+03  0.78925581966E+02  0.36977931135E+02  0.16496074135E+03  0.00000000000E+00 0. -1.
         -2    1    6    6    0  503 -0.16388394669E+03  0.29348472030E+02 -0.37267061287E+02  0.17061100389E+03  0.00000000000E+00 0.  1.
<mgrwt>
<rscale>  0 0.15874408E+04</rscale>
<asrwt>0</asrwt>
<pdfrwt beam="1">  1        1 0.12465602E+00 0.15874408E+04</pdfrwt>
<pdfrwt beam="2">  1       -2 0.11961760E+00 0.15874408E+04</pdfrwt>
<totfact> 0.97533591E+00</totfact>
</mgrwt>
</event>
<event>
12    4  0.4381187E-008  0.1722132E+04  0.7818608E-02  0.8748841E-01
         -2   -1    0    0    0  501 -0.00000000000E+00  0.00000000000E+00  0.35038067280E+03  0.35038067280E+03  0.00000000000E+00 0.  1.
          1   -1    0    0  501    0  0.00000000000E+00 -0.00000000000E+00 -0.21160828010E+04  0.21160828010E+04  0.00000000000E+00 0. -1.
        -24    2    1    2    0    0 -0.19000372933E+03 -0.27115067646E+03  0.11997655472E+03  0.36105034296E+03  0.79617020558E+02 0.  0.
        254    2    1    2    0    0  0.19000372933E+03  0.27115067646E+03 -0.18856786829E+04  0.21054131308E+04  0.87598872697E+03 0.  0.
         23    2    4    4    0    0 -0.17242764698E+02 -0.99737540685E+02  0.31092867195E+02  0.13991972428E+03  0.91465145799E+02 0.  0.
         23    2    4    4    0    0  0.20724649403E+03  0.37088821715E+03 -0.19167715501E+04  0.19654934066E+04  0.92962234157E+02 0.  0.
          1    1    3    3  502    0  0.29190141621E+01  0.26692575367E+01 -0.21760539123E+01  0.45145088443E+01  0.00000000000E+00 0. -1.
         -2    1    3    3    0  502 -0.19292274349E+03 -0.27381993400E+03  0.12215260863E+03  0.35653583411E+03  0.00000000000E+00 0.  1.
         11    1    5    5    0    0 -0.28534510582E+02 -0.17617301296E+01 -0.13579181387E+02  0.31649899752E+02  0.00000000000E+00 0.  1.
        -11    1    5    5    0    0  0.11291745883E+02 -0.97975810555E+02  0.44672048582E+02  0.10826982453E+03  0.00000000000E+00 0. -1.
          1    1    6    6  503    0  0.19681737495E+03  0.29621317221E+03 -0.14703111129E+04  0.15127108419E+04  0.00000000000E+00 0. -1.
         -1    1    6    6    0  503  0.10429119077E+02  0.74675044938E+02 -0.44646043726E+03  0.45278256471E+03  0.00000000000E+00 0.  1.
<mgrwt>
<rscale>  0 0.17221318E+04</rscale>
<asrwt>0</asrwt>
<pdfrwt beam="1">  1        1 0.32555120E+00 0.17221318E+04</pdfrwt>
<pdfrwt beam="2">  1       -2 0.53904718E-01 0.17221318E+04</pdfrwt>
<totfact> 0.67215414E+00</totfact>
</mgrwt>
</event>
<event>
12    4  0.4381187E-008  0.1214516E+04  0.7818608E-02  0.9100245E-01
          1   -1    0    0  501    0  0.00000000000E+00  0.00000000000E+00  0.24009323565E+03  0.24009323565E+03  0.00000000000E+00 0. -1.
         -2   -1    0    0    0  501 -0.00000000000E+00 -0.00000000000E+00 -0.15359135591E+04  0.15359135591E+04  0.00000000000E+00 0.  1.
        -24    2    1    2    0    0 -0.16940197832E+03 -0.10271401218E+03 -0.39229119199E+02  0.21757052319E+03  0.80937075630E+02 0.  0.
        254    2    1    2    0    0  0.16940197832E+03  0.10271401218E+03 -0.12565912043E+04  0.15584362716E+04  0.90025271973E+03 0.  0.
         23    2    4    4    0    0 -0.31090846925E+03  0.16651543715E+03 -0.83092453262E+03  0.90714471516E+03  0.89913782436E+02 0.  0.
         23    2    4    4    0    0  0.48031044757E+03 -0.63801424968E+02 -0.42566667168E+03  0.65129155644E+03  0.90663268445E+02 0.  0.
          3    1    3    3  502    0 -0.14077196416E+03 -0.95109763827E+02 -0.18802552629E+01  0.16990040738E+03  0.00000000000E+00 0. -1.
         -4    1    3    3    0  502 -0.28630014159E+02 -0.76042483500E+01 -0.37348863936E+02  0.47670115806E+02  0.00000000000E+00 0.  1.
         11    1    5    5    0    0 -0.23021899182E+03  0.14854573120E+03 -0.55243591668E+03  0.61664581446E+03  0.00000000000E+00 0. -1.
        -11    1    5    5    0    0 -0.80689477436E+02  0.17969705944E+02 -0.27848861594E+03  0.29049890070E+03  0.00000000000E+00 0.  1.
          3    1    6    6  503    0  0.40813110694E+03 -0.82674903761E+02 -0.38049047148E+03  0.56407370001E+03  0.00000000000E+00 0. -1.
         -3    1    6    6    0  503  0.72179340631E+02  0.18873478792E+02 -0.45176200202E+02  0.87217856431E+02  0.00000000000E+00 0.  1.
<mgrwt>
<rscale>  0 0.12145163E+04</rscale>
<asrwt>0</asrwt>
<pdfrwt beam="1">  1        1 0.36937422E-01 0.12145163E+04</pdfrwt>
<pdfrwt beam="2">  1       -2 0.23629439E+00 0.12145163E+04</pdfrwt>
<totfact> 0.79064562E+00</totfact>
</mgrwt>
</event>
<event>
12    4  0.4381187E-008  0.1467687E+04  0.7818608E-02  0.8906229E-01
         -4   -1    0    0    0  501 -0.00000000000E+00  0.00000000000E+00  0.10728634765E+04  0.10728634765E+04  0.00000000000E+00 0.  1.
          1   -1    0    0  501    0  0.00000000000E+00 -0.00000000000E+00 -0.50195249244E+03  0.50195249244E+03  0.00000000000E+00 0. -1.
        -24    2    1    2    0    0  0.16680006547E+03  0.32827252932E+03  0.45997033899E+03  0.59461860991E+03  0.80084100534E+02 0.  0.
        254    2    1    2    0    0 -0.16680006547E+03 -0.32827252932E+03  0.11094064509E+03  0.98019735905E+03  0.90160630023E+03 0.  0.
         23    2    4    4    0    0  0.66041194124E+02 -0.38000938567E+03 -0.29937879201E+03  0.49692207386E+03  0.92386762385E+02 0.  0.
         23    2    4    4    0    0 -0.23284125959E+03  0.51736856355E+02  0.41031943710E+03  0.48327528519E+03  0.91110956188E+02 0.  0.
          3    1    3    3  502    0  0.53155679064E+02  0.18178351481E+03  0.20160207485E+03  0.27661194670E+03  0.00000000000E+00 0. -1.
         -4    1    3    3    0  502  0.11364438640E+03  0.14648901451E+03  0.25836826414E+03  0.31800666322E+03  0.00000000000E+00 0.  1.
         11    1    5    5    0    0  0.29163342072E+02 -0.82178901782E+02 -0.26067347178E+02  0.91013070533E+02  0.00000000000E+00 0.  1.
        -11    1    5    5    0    0  0.36877852052E+02 -0.29783048389E+03 -0.27331144483E+03  0.40590900333E+03  0.00000000000E+00 0. -1.
          4    1    6    6  503    0 -0.14870920413E+03  0.36189467104E+02  0.17288635893E+03  0.23089780862E+03  0.00000000000E+00 0. -1.
         -4    1    6    6    0  503 -0.84132055465E+02  0.15547389252E+02  0.23743307818E+03  0.25237747657E+03  0.00000000000E+00 0.  1.
<mgrwt>
<rscale>  0 0.14676873E+04</rscale>
<asrwt>0</asrwt>
<pdfrwt beam="1">  1        1 0.77223460E-01 0.14676873E+04</pdfrwt>
<pdfrwt beam="2">  1       -4 0.16505592E+00 0.14676873E+04</pdfrwt>
<totfact> 0.47009928E+00</totfact>
</mgrwt>
</event>
<event>
12    4  0.4381187E-008  0.1228190E+04  0.7818608E-02  0.9088533E-01
          1   -1    0    0  501    0  0.00000000000E+00  0.00000000000E+00  0.74363976223E+03  0.74363976223E+03  0.00000000000E+00 0. -1.
         -2   -1    0    0    0  501 -0.00000000000E+00 -0.00000000000E+00 -0.50711770969E+03  0.50711770969E+03  0.00000000000E+00 0.  1.
        -24    2    1    2    0    0  0.25653547970E+03 -0.43187798651E+02 -0.14227110200E+02  0.27707523742E+03  0.94300785953E+02 0.  0.
        254    2    1    2    0    0 -0.25653547970E+03  0.43187798651E+02  0.25074916273E+03  0.97368223450E+03  0.90416055702E+03 0.  0.
         23    2    4    4    0    0 -0.47243534948E+03 -0.22618525345E+03 -0.11504714434E+02  0.53192932504E+03  0.91986521141E+02 0.  0.
         23    2    4    4    0    0  0.21589986978E+03  0.26937305210E+03  0.26225387717E+03  0.44175290946E+03  0.84817108864E+02 0.  0.
          3    1    3    3  502    0  0.83591584425E+02  0.28181416681E+01  0.36216225106E+02  0.91143347920E+02  0.00000000000E+00 0. -1.
         -4    1    3    3    0  502  0.17294389527E+03 -0.46005940319E+02 -0.50443335306E+02  0.18593188950E+03  0.00000000000E+00 0.  1.
         11    1    5    5    0    0 -0.17581759892E+03 -0.11820250728E+03  0.28409788378E+02  0.21375401024E+03  0.00000000000E+00 0.  1.
        -11    1    5    5    0    0 -0.29661775055E+03 -0.10798274617E+03 -0.39914502812E+02  0.31817531480E+03  0.00000000000E+00 0. -1.
          3    1    6    6  503    0  0.16594009642E+02 -0.47157877350E+00  0.11362436991E+01  0.16639549041E+02  0.00000000000E+00 0. -1.
         -3    1    6    6    0  503  0.19930586014E+03  0.26984463087E+03  0.26111763347E+03  0.42511336042E+03  0.00000000000E+00 0.  1.
<mgrwt>
<rscale>  0 0.12281904E+04</rscale>
<asrwt>0</asrwt>
<pdfrwt beam="1">  1        1 0.11440612E+00 0.12281904E+04</pdfrwt>
<pdfrwt beam="2">  1       -2 0.78018109E-01 0.12281904E+04</pdfrwt>
<totfact> 0.31409816E+01</totfact>
</mgrwt>
</event>
<event>
12    4  0.4381187E-008  0.2342043E+04  0.7818608E-02  0.8461526E-01
          1   -1    0    0  501    0  0.00000000000E+00  0.00000000000E+00  0.13115595128E+04  0.13115595128E+04  0.00000000000E+00 0. -1.
         -2   -1    0    0    0  501 -0.00000000000E+00 -0.00000000000E+00 -0.10455426396E+04  0.10455426396E+04  0.00000000000E+00 0.  1.
        -24    2    1    2    0    0  0.30455567404E+02 -0.26410947002E+03 -0.85885264497E+03  0.90258340656E+03  0.79671740821E+02 0.  0.
        254    2    1    2    0    0 -0.30455567404E+02  0.26410947002E+03  0.11248695182E+04  0.14545187459E+04  0.88295639491E+03 0.  0.
         23    2    4    4    0    0  0.30116548201E+03  0.17142239656E+03  0.10233646420E+04  0.10842869496E+04  0.91196013640E+02 0.  0.
         23    2    4    4    0    0 -0.33162104941E+03  0.92687073463E+02  0.10150487622E+03  0.37023179630E+03  0.90581063681E+02 0.  0.
          1    1    3    3  502    0 -0.98526562541E+01 -0.17765242990E+03 -0.48029865925E+03  0.51219553177E+03  0.00000000000E+00 0. -1.
         -2    1    3    3    0  502  0.40308223658E+02 -0.86457040117E+02 -0.37855398572E+03  0.39038787479E+03  0.00000000000E+00 0.  1.
         11    1    5    5    0    0  0.26048234051E+03  0.17489152648E+03  0.94803400434E+03  0.99860230780E+03  0.00000000000E+00 0. -1.
        -11    1    5    5    0    0  0.40683141494E+02 -0.34691299263E+01  0.75330637668E+02  0.85684641773E+02  0.00000000000E+00 0.  1.
          2    1    6    6  503    0 -0.17160015800E+02  0.31014266889E+02  0.13349555053E+02  0.37875605777E+02  0.00000000000E+00 0.  1.
         -2    1    6    6    0  503 -0.31446103361E+03  0.61672806575E+02  0.88155321171E+02  0.33235619053E+03  0.00000000000E+00 0. -1.
<mgrwt>
<rscale>  0 0.23420430E+04</rscale>
<asrwt>0</asrwt>
<pdfrwt beam="1">  1        1 0.20177839E+00 0.23420430E+04</pdfrwt>
<pdfrwt beam="2">  1       -2 0.16085271E+00 0.23420430E+04</pdfrwt>
<totfact> 0.17415735E+00</totfact>
</mgrwt>
</event>
<event>
12    4  0.4381187E-008  0.1316012E+04  0.7818608E-02  0.9016963E-01
         -2   -1    0    0    0  501 -0.00000000000E+00  0.00000000000E+00  0.47643779329E+03  0.47643779329E+03  0.00000000000E+00 0.  1.
          1   -1    0    0  501    0  0.00000000000E+00 -0.00000000000E+00 -0.90876955951E+03  0.90876955951E+03  0.00000000000E+00 0. -1.
        -24    2    1    2    0    0 -0.32891334796E+03 -0.99956887202E+02 -0.57104630035E+02  0.35658197826E+03  0.75593641802E+02 0.  0.
        254    2    1    2    0    0  0.32891334796E+03  0.99956887202E+02 -0.37522713619E+03  0.10286253745E+04  0.89392359163E+03 0.  0.
         23    2    4    4    0    0 -0.16199038756E+03 -0.26661175119E+03 -0.20767424492E+03  0.38656412554E+03  0.94765603545E+02 0.  0.
         23    2    4    4    0    0  0.49090373552E+03  0.36656863839E+03 -0.16755289127E+03  0.64206124901E+03  0.93859639378E+02 0.  0.
          1    1    3    3  502    0 -0.28344317554E+03 -0.10536556685E+03 -0.67016512029E+02  0.30973076909E+03  0.00000000000E+00 0. -1.
         -2    1    3    3    0  502 -0.45470172424E+02  0.54086796504E+01  0.99118819939E+01  0.46851209168E+02  0.00000000000E+00 0.  1.
         11    1    5    5    0    0 -0.27686978931E+02 -0.50597338954E+02  0.80426495005E+00  0.57682808129E+02  0.00000000000E+00 0. -1.
        -11    1    5    5    0    0 -0.13430340863E+03 -0.21601441224E+03 -0.20847850987E+03  0.32888131741E+03  0.00000000000E+00 0.  1.
          1    1    6    6  503    0  0.40745265961E+03  0.31653250601E+03 -0.17410372761E+03  0.54453889224E+03  0.00000000000E+00 0. -1.
         -1    1    6    6    0  503  0.83451075908E+02  0.50036132380E+02  0.65508363438E+01  0.97522356773E+02  0.00000000000E+00 0.  1.
<mgrwt>
<rscale>  0 0.13160124E+04</rscale>
<asrwt>0</asrwt>
<pdfrwt beam="1">  1        1 0.13981070E+00 0.13160124E+04</pdfrwt>
<pdfrwt beam="2">  1       -2 0.73298123E-01 0.13160124E+04</pdfrwt>
<totfact> 0.25865993E+01</totfact>
</mgrwt>
</event>
<event>
12    4  0.4381187E-008  0.1469615E+04  0.7818608E-02  0.8904914E-01
          1   -1    0    0  501    0  0.00000000000E+00  0.00000000000E+00  0.70277566146E+03  0.70277566146E+03  0.00000000000E+00 0. -1.
         -2   -1    0    0    0  501 -0.00000000000E+00 -0.00000000000E+00 -0.76829948359E+03  0.76829948359E+03  0.00000000000E+00 0.  1.
        -24    2    1    2    0    0 -0.38704361529E+03 -0.10600969553E+01 -0.27025001970E+03  0.47895936426E+03  0.81013057747E+02 0.  0.
        254    2    1    2    0    0  0.38704361529E+03  0.10600969553E+01  0.20472619757E+03  0.99211578079E+03  0.89026794988E+03 0.  0.
         23    2    4    4    0    0  0.57459857051E+03 -0.25811271983E+03  0.10710916092E+03  0.64522616224E+03  0.89770455718E+02 0.  0.
         23    2    4    4    0    0 -0.18755495522E+03  0.25917281679E+03  0.97617036657E+02  0.34688961855E+03  0.91956029835E+02 0.  0.
          1    1    3    3  502    0 -0.30123083919E+03 -0.81476713045E+01 -0.16701609663E+03  0.34452979488E+03  0.00000000000E+00 0. -1.
         -2    1    3    3    0  502 -0.85812776097E+02  0.70875743492E+01 -0.10323392307E+03  0.13442956938E+03  0.00000000000E+00 0.  1.
         11    1    5    5    0    0  0.38760147115E+03 -0.21632558706E+03  0.60080920235E+02  0.44793010284E+03  0.00000000000E+00 0. -1.
        -11    1    5    5    0    0  0.18699709936E+03 -0.41787132773E+02  0.47028240681E+02  0.19729605940E+03  0.00000000000E+00 0.  1.
          4    1    6    6  503    0 -0.17882468110E+03  0.24254044107E+03  0.11378614429E+03  0.32210467050E+03  0.00000000000E+00 0. -1.
         -4    1    6    6    0  503 -0.87302741217E+01  0.16632375713E+02 -0.16169107633E+02  0.24784948048E+02  0.00000000000E+00 0.  1.
<mgrwt>
<rscale>  0 0.14696152E+04</rscale>
<asrwt>0</asrwt>
<pdfrwt beam="1">  1        1 0.10811933E+00 0.14696152E+04</pdfrwt>
<pdfrwt beam="2">  1       -2 0.11819992E+00 0.14696152E+04</pdfrwt>
<totfact> 0.12673912E+01</totfact>
</mgrwt>
</event>
<event>
12    4  0.4381187E-008  0.2188882E+04  0.7818608E-02  0.8523070E-01
          1   -1    0    0  501    0  0.00000000000E+00  0.00000000000E+00  0.12006648877E+04  0.12006648877E+04  0.00000000000E+00 0. -1.
         -2   -1    0    0    0  501 -0.00000000000E+00 -0.00000000000E+00 -0.99761491436E+03  0.99761491436E+03  0.00000000000E+00 0.  1.
        -24    2    1    2    0    0 -0.72261122982E+03  0.45893770574E+03  0.38372323705E+03  0.94170280465E+03  0.82279052118E+02 0.  0.
        254    2    1    2    0    0  0.72261122982E+03 -0.45893770574E+03 -0.18067326369E+03  0.12565769974E+04  0.90197123846E+03 0.  0.
         23    2    4    4    0    0  0.29748272374E+03  0.91186133627E+02  0.27068932763E+03  0.42266077000E+03  0.92512337095E+02 0.  0.
         23    2    4    4    0    0  0.42512850608E+03 -0.55012383937E+03 -0.45136259132E+03  0.83391622742E+03  0.91200878238E+02 0.  0.
          1    1    3    3  502    0  0.20307576368E+01 -0.31105617131E+00  0.70723743066E+00  0.21727671998E+01  0.00000000000E+00 0. -1.
         -2    1    3    3    0  502 -0.72464198746E+03  0.45924876191E+03  0.38301599962E+03  0.93953003745E+03  0.00000000000E+00 0.  1.
         11    1    5    5    0    0  0.12966307961E+03 -0.37721246330E+01  0.13255256421E+03  0.18546408121E+03  0.00000000000E+00 0.  1.
        -11    1    5    5    0    0  0.16781964413E+03  0.94958258260E+02  0.13813676342E+03  0.23719668879E+03  0.00000000000E+00 0. -1.
          3    1    6    6  503    0  0.83496756036E+02 -0.12591950983E+03 -0.57049740045E+02  0.16149954819E+03  0.00000000000E+00 0. -1.
         -3    1    6    6    0  503  0.34163175005E+03 -0.42420432954E+03 -0.39431285127E+03  0.67241667924E+03  0.00000000000E+00 0.  1.
<mgrwt>
<rscale>  0 0.21888821E+04</rscale>
<asrwt>0</asrwt>
<pdfrwt beam="1">  1        1 0.18471767E+00 0.21888821E+04</pdfrwt>
<pdfrwt beam="2">  1       -2 0.15347922E+00 0.21888821E+04</pdfrwt>
<totfact> 0.24086985E+00</totfact>
</mgrwt>
</event>
<event>
12    4  0.4381187E-008  0.1333692E+04  0.7818608E-02  0.9003266E-01
          1   -1    0    0  501    0  0.00000000000E+00  0.00000000000E+00  0.68773952036E+03  0.68773952036E+03  0.00000000000E+00 0. -1.
         -2   -1    0    0    0  501 -0.00000000000E+00 -0.00000000000E+00 -0.64658696459E+03  0.64658696459E+03  0.00000000000E+00 0.  1.
        -24    2    1    2    0    0  0.18792669603E+02  0.25358438262E+02 -0.34483273216E+03  0.35554330500E+03  0.80654905249E+02 0.  0.
        254    2    1    2    0    0 -0.18792669603E+02 -0.25358438262E+02  0.38598528793E+03  0.97878317995E+03  0.89890803536E+03 0.  0.
         23    2    4    4    0    0  0.28390245797E+03  0.20694618969E+02  0.54415987954E+03  0.62061455209E+03  0.89574409628E+02 0.  0.
         23    2    4    4    0    0 -0.30269512758E+03 -0.46053057231E+02 -0.15817459162E+03  0.35816862786E+03  0.97572230729E+02 0.  0.
          3    1    3    3  502    0  0.21941865951E+02  0.51585450131E+01 -0.20198794416E+02  0.30266274365E+02  0.00000000000E+00 0. -1.
         -4    1    3    3    0  502 -0.31491963477E+01  0.20199893249E+02 -0.32463393775E+03  0.32527703064E+03  0.00000000000E+00 0.  1.
         11    1    5    5    0    0  0.18767885683E+03  0.55496768584E+02  0.34223810897E+03  0.39424632891E+03  0.00000000000E+00 0. -1.
        -11    1    5    5    0    0  0.96223601141E+02 -0.34802149615E+02  0.20192177057E+03  0.22636822318E+03  0.00000000000E+00 0.  1.
          3    1    6    6  503    0 -0.64212557285E+02 -0.49200616536E+02 -0.57707503195E+02  0.99368551895E+02  0.00000000000E+00 0. -1.
         -3    1    6    6    0  503 -0.23848257029E+03  0.31475593052E+01 -0.10046708842E+03  0.25880007596E+03  0.00000000000E+00 0.  1.
<mgrwt>
<rscale>  0 0.13336917E+04</rscale>
<asrwt>0</asrwt>
<pdfrwt beam="1">  1        1 0.10580608E+00 0.13336917E+04</pdfrwt>
<pdfrwt beam="2">  1       -2 0.99474918E-01 0.13336917E+04</pdfrwt>
<totfact> 0.20086444E+01</totfact>
</mgrwt>
</event>
<event>
12    4  0.4381187E-008  0.3208359E+04  0.7818608E-02  0.8186613E-01
         -2   -1    0    0    0  501 -0.00000000000E+00  0.00000000000E+00  0.14083527229E+04  0.14083527229E+04  0.00000000000E+00 0.  1.
          1   -1    0    0  501    0  0.00000000000E+00 -0.00000000000E+00 -0.18272357358E+04  0.18272357358E+04  0.00000000000E+00 0. -1.
        -24    2    1    2    0    0  0.18420284931E+02  0.14584223895E+04 -0.42562826734E+03  0.15214790709E+04  0.80024795355E+02 0.  0.
        254    2    1    2    0    0 -0.18420284931E+02 -0.14584223895E+04  0.67452543824E+01  0.17141093878E+04  0.90043896060E+03 0.  0.
         23    2    4    4    0    0  0.80174305689E+02 -0.34698405545E+03 -0.38074755961E+03  0.52936798171E+03  0.91847165937E+02 0.  0.
         23    2    4    4    0    0 -0.98594590620E+02 -0.11114383341E+04  0.38749281399E+03  0.11847414061E+04  0.91899154840E+02 0.  0.
          1    1    3    3  502    0  0.45131572077E+02  0.93245567698E+03 -0.25219779616E+03  0.96701301786E+03  0.00000000000E+00 0. -1.
         -2    1    3    3    0  502 -0.26711287145E+02  0.52596671256E+03 -0.17343047118E+03  0.55446605299E+03  0.00000000000E+00 0.  1.
         11    1    5    5    0    0  0.14782539793E+02 -0.22730341510E+03 -0.20135978356E+03  0.30402488127E+03  0.00000000000E+00 0. -1.
        -11    1    5    5    0    0  0.65391765897E+02 -0.11968064035E+03 -0.17938777605E+03  0.22534310044E+03  0.00000000000E+00 0.  1.
          3    1    6    6  503    0 -0.49534268951E+02 -0.93874030053E+03  0.32430330549E+03  0.99441421429E+03  0.00000000000E+00 0. -1.
         -3    1    6    6    0  503 -0.49060321670E+02 -0.17269803357E+03  0.63189508502E+02  0.19032719182E+03  0.00000000000E+00 0.  1.
<mgrwt>
<rscale>  0 0.32083593E+04</rscale>
<asrwt>0</asrwt>
<pdfrwt beam="1">  1        1 0.28111319E+00 0.32083593E+04</pdfrwt>
<pdfrwt beam="2">  1       -2 0.21666965E+00 0.32083593E+04</pdfrwt>
<totfact> 0.29771288E-01</totfact>
</mgrwt>
</event>
<event>
12    4  0.4381187E-008  0.2826713E+04  0.7818608E-02  0.8295023E-01
          1   -1    0    0  501    0  0.00000000000E+00  0.00000000000E+00  0.12500144006E+04  0.12500144006E+04  0.00000000000E+00 0. -1.
         -2   -1    0    0    0  501 -0.00000000000E+00 -0.00000000000E+00 -0.15980423508E+04  0.15980423508E+04  0.00000000000E+00 0.  1.
        -24    2    1    2    0    0 -0.82486110024E+03  0.44896705429E+03 -0.10207647268E+04  0.13894807953E+04  0.82030498329E+02 0.  0.
        254    2    1    2    0    0  0.82486110024E+03 -0.44896705429E+03  0.67273677651E+03  0.14585759561E+04  0.89045033473E+03 0.  0.
         23    2    4    4    0    0  0.15245019960E+03 -0.20173674342E+03  0.68552697266E+03  0.73624891440E+03  0.90423761876E+02 0.  0.
         23    2    4    4    0    0  0.67241090064E+03 -0.24723031086E+03 -0.12790196148E+02  0.72232704167E+03  0.91288115836E+02 0.  0.
          1    1    3    3  502    0 -0.33449020493E+03  0.22827121838E+03 -0.43682695500E+03  0.59565865640E+03  0.00000000000E+00 0. -1.
         -2    1    3    3    0  502 -0.49037089531E+03  0.22069583591E+03 -0.58393777175E+03  0.79382213892E+03  0.00000000000E+00 0.  1.
         11    1    5    5    0    0 -0.88112489773E+01 -0.34451997396E+01  0.90231350348E+01  0.13073808766E+02  0.00000000000E+00 0.  1.
        -11    1    5    5    0    0  0.16126144857E+03 -0.19829154368E+03  0.67650383762E+03  0.72317510563E+03  0.00000000000E+00 0. -1.
          4    1    6    6  503    0  0.60499391254E+03 -0.19458029933E+03  0.19995346636E+01  0.63551799757E+03  0.00000000000E+00 0. -1.
         -4    1    6    6    0  503  0.67416988108E+02 -0.52650011537E+02 -0.14789730811E+02  0.86809044102E+02  0.00000000000E+00 0.  1.
<mgrwt>
<rscale>  0 0.28267125E+04</rscale>
<asrwt>0</asrwt>
<pdfrwt beam="1">  1        1 0.19230991E+00 0.28267125E+04</pdfrwt>
<pdfrwt beam="2">  1       -2 0.24585267E+00 0.28267125E+04</pdfrwt>
<totfact> 0.50776678E-01</totfact>
</mgrwt>
</event>
<event>
12    4  0.4381187E-008  0.1119250E+04  0.7818608E-02  0.9186630E-01
         -2   -1    0    0    0  501 -0.00000000000E+00  0.00000000000E+00  0.72091251786E+03  0.72091251786E+03  0.00000000000E+00 0.  1.
          1   -1    0    0  501    0  0.00000000000E+00 -0.00000000000E+00 -0.43442220920E+03  0.43442220920E+03  0.00000000000E+00 0. -1.
        -24    2    1    2    0    0 -0.50561278936E+02  0.14483730115E+03  0.15416450534E+03  0.23192401032E+03  0.80546664273E+02 0.  0.
        254    2    1    2    0    0  0.50561278936E+02 -0.14483730115E+03  0.13232580332E+03  0.92341071674E+03  0.90091228587E+03 0.  0.
         23    2    4    4    0    0 -0.16524966155E+03 -0.31469183016E+03  0.38957191826E+03  0.53505341534E+03  0.90429415353E+02 0.  0.
         23    2    4    4    0    0  0.21581094048E+03  0.16985452901E+03 -0.25724611494E+03  0.38835730139E+03  0.96025553044E+02 0.  0.
          3    1    3    3  502    0 -0.27134383292E+02  0.23528005865E+02  0.20738559858E+01  0.35974194852E+02  0.00000000000E+00 0. -1.
         -2    1    3    3    0  502 -0.23426895644E+02  0.12130929529E+03  0.15209064935E+03  0.19594981547E+03  0.00000000000E+00 0.  1.
         11    1    5    5    0    0 -0.11981968688E+03 -0.28215043165E+03  0.29636264018E+03  0.42637593499E+03  0.00000000000E+00 0. -1.
        -11    1    5    5    0    0 -0.45429974666E+02 -0.32541398509E+02  0.93209278081E+02  0.10867748035E+03  0.00000000000E+00 0.  1.
          1    1    6    6  503    0  0.17599945900E+03  0.11682922351E+03 -0.13926800279E+03  0.25302263464E+03  0.00000000000E+00 0. -1.
         -1    1    6    6    0  503  0.39811481479E+02  0.53025305493E+02 -0.11797811215E+03  0.13533466676E+03  0.00000000000E+00 0.  1.
<mgrwt>
<rscale>  0 0.11192505E+04</rscale>
<asrwt>0</asrwt>
<pdfrwt beam="1">  1        1 0.66834186E-01 0.11192505E+04</pdfrwt>
<pdfrwt beam="2">  1       -2 0.11090962E+00 0.11192505E+04</pdfrwt>
<totfact> 0.30079950E+01</totfact>
</mgrwt>
</event>
<event>
12    4  0.4381187E-008  0.2883977E+04  0.7818608E-02  0.8277661E-01
          1   -1    0    0  501    0  0.00000000000E+00  0.00000000000E+00  0.22704464673E+04  0.22704464673E+04  0.00000000000E+00 0. -1.
         -2   -1    0    0    0  501 -0.00000000000E+00 -0.00000000000E+00 -0.91582494046E+03  0.91582494046E+03  0.00000000000E+00 0.  1.
        -24    2    1    2    0    0  0.66938336931E+03  0.11115475460E+04  0.70884820641E+03  0.14806841595E+04  0.79672819573E+02 0.  0.
        254    2    1    2    0    0 -0.66938336931E+03 -0.11115475460E+04  0.64577332045E+03  0.17055872483E+04  0.89910657766E+03 0.  0.
         23    2    4    4    0    0 -0.18704796573E+03  0.11936243608E+03  0.35327907784E+02  0.24655520469E+03  0.10152376698E+03 0.  0.
         23    2    4    4    0    0 -0.48233540357E+03 -0.12309099821E+04  0.61044541266E+03  0.14590320436E+04  0.91345918569E+02 0.  0.
          1    1    3    3  502    0  0.60529498237E+03  0.97723820482E+03  0.60305248831E+03  0.12980943064E+04  0.00000000000E+00 0. -1.
         -2    1    3    3    0  502  0.64088386939E+02  0.13430934122E+03  0.10579571810E+03  0.18258985308E+03  0.00000000000E+00 0.  1.
         11    1    5    5    0    0 -0.91917533822E+02  0.24415117068E+01  0.96336844943E+00  0.91955000311E+02  0.00000000000E+00 0. -1.
        -11    1    5    5    0    0 -0.95130431913E+02  0.11692092437E+03  0.34364539334E+02  0.15460020438E+03  0.00000000000E+00 0.  1.
          2    1    6    6  503    0 -0.33591691880E+03 -0.74353144111E+03  0.39339227515E+03  0.90577958820E+03  0.00000000000E+00 0.  1.
         -2    1    6    6    0  503 -0.14641848478E+03 -0.48737854100E+03  0.21705313752E+03  0.55325245541E+03  0.00000000000E+00 0. -1.
<mgrwt>
<rscale>  0 0.28839775E+04</rscale>
<asrwt>0</asrwt>
<pdfrwt beam="1">  1        1 0.34929946E+00 0.28839775E+04</pdfrwt>
<pdfrwt beam="2">  1       -2 0.14089614E+00 0.28839775E+04</pdfrwt>
<totfact> 0.52057923E-01</totfact>
</mgrwt>
</event>
<event>
12    4  0.4381187E-008  0.1096881E+04  0.7818608E-02  0.9208237E-01
         -4   -1    0    0    0  501 -0.00000000000E+00  0.00000000000E+00  0.48046141308E+03  0.48046141308E+03  0.00000000000E+00 0.  1.
          3   -1    0    0  501    0  0.00000000000E+00 -0.00000000000E+00 -0.62603753138E+03  0.62603753138E+03  0.00000000000E+00 0. -1.
        -24    2    1    2    0    0 -0.14458608474E+03  0.50975509773E+00  0.43726762352E+02  0.17077626626E+03  0.79668736772E+02 0.  0.
        254    2    1    2    0    0  0.14458608474E+03 -0.50975509773E+00 -0.18930288065E+03  0.93572267820E+03  0.90489554873E+03 0.  0.
         23    2    4    4    0    0 -0.32169188607E+03 -0.20801911340E+03 -0.12954863106E+03  0.41459905483E+03  0.91388770363E+02 0.  0.
         23    2    4    4    0    0  0.46627797081E+03  0.20750935830E+03 -0.59754249590E+02  0.52112362337E+03  0.86740882186E+02 0.  0.
          1    1    3    3  502    0 -0.85336073602E+02  0.27747750251E+02 -0.42241239670E+01  0.89833325248E+02  0.00000000000E+00 0. -1.
         -2    1    3    3    0  502 -0.59250011141E+02 -0.27237995153E+02  0.47950886319E+02  0.80942941008E+02  0.00000000000E+00 0.  1.
         11    1    5    5    0    0 -0.31778260456E+02 -0.21313464581E+02 -0.45917697867E+02  0.59770867381E+02  0.00000000000E+00 0.  1.
        -11    1    5    5    0    0 -0.28991362562E+03 -0.18670564882E+03 -0.83630933196E+02  0.35482818745E+03  0.00000000000E+00 0. -1.
          2    1    6    6  503    0  0.30057877914E+03  0.95561256456E+02 -0.60483696253E+02  0.32115079591E+03  0.00000000000E+00 0. -1.
         -2    1    6    6    0  503  0.16569919168E+03  0.11194810185E+03  0.72944666306E+00  0.19997282746E+03  0.00000000000E+00 0.  1.
<mgrwt>
<rscale>  0 0.10968808E+04</rscale>
<asrwt>0</asrwt>
<pdfrwt beam="1">  1        3 0.96313467E-01 0.10968808E+04</pdfrwt>
<pdfrwt beam="2">  1       -4 0.73917140E-01 0.10968808E+04</pdfrwt>
<totfact> 0.35945373E+00</totfact>
</mgrwt>
</event>
<event>
12    4  0.4381187E-008  0.1602851E+04  0.7818608E-02  0.8818799E-01
         -2   -1    0    0    0  501 -0.00000000000E+00  0.00000000000E+00  0.26775602957E+03  0.26775602957E+03  0.00000000000E+00 0.  1.
          1   -1    0    0  501    0  0.00000000000E+00 -0.00000000000E+00 -0.23987601458E+04  0.23987601458E+04  0.00000000000E+00 0. -1.
        -24    2    1    2    0    0  0.21757802088E+03  0.17928507294E+03 -0.15185244958E+04  0.15464574857E+04  0.78299285493E+02 0.  0.
        254    2    1    2    0    0 -0.21757802088E+03 -0.17928507294E+03 -0.61247962042E+03  0.11200586897E+04  0.89438070772E+03 0.  0.
         23    2    4    4    0    0 -0.23719132001E+03  0.67615968294E+01  0.17322880366E+03  0.30767219058E+03  0.91370219199E+02 0.  0.
         23    2    4    4    0    0  0.19613299138E+02 -0.18604666977E+03 -0.78570842408E+03  0.81238649909E+03  0.87384503199E+02 0.  0.
          3    1    3    3  502    0  0.13892094492E+03  0.11432746292E+03 -0.75459683468E+03  0.77574878706E+03  0.00000000000E+00 0. -1.
         -4    1    3    3    0  502  0.78657075953E+02  0.64957610017E+02 -0.76392766110E+03  0.77070869859E+03  0.00000000000E+00 0.  1.
         11    1    5    5    0    0 -0.12917624136E+03 -0.40072306947E+02  0.10799724248E+03  0.17307713743E+03  0.00000000000E+00 0.  1.
        -11    1    5    5    0    0 -0.10801507865E+03  0.46833903776E+02  0.65231561179E+02  0.13459505315E+03  0.00000000000E+00 0. -1.
          1    1    6    6  503    0  0.26984855286E+02 -0.10552560588E+03 -0.60048074062E+03  0.61027940795E+03  0.00000000000E+00 0. -1.
         -1    1    6    6    0  503 -0.73715561473E+01 -0.80521063887E+02 -0.18522768346E+03  0.20210709114E+03  0.00000000000E+00 0.  1.
<mgrwt>
<rscale>  0 0.16028506E+04</rscale>
<asrwt>0</asrwt>
<pdfrwt beam="1">  1        1 0.36904001E+00 0.16028506E+04</pdfrwt>
<pdfrwt beam="2">  1       -2 0.41193237E-01 0.16028506E+04</pdfrwt>
<totfact> 0.74970849E+00</totfact>
</mgrwt>
</event>
<event>
12    4  0.4381187E-008  0.1567429E+04  0.7818608E-02  0.8840811E-01
         -4   -1    0    0    0  501 -0.00000000000E+00  0.00000000000E+00  0.16555295213E+04  0.16555295213E+04  0.00000000000E+00 0.  1.
          3   -1    0    0  501    0  0.00000000000E+00 -0.00000000000E+00 -0.37100434827E+03  0.37100434827E+03  0.00000000000E+00 0. -1.
        -24    2    1    2    0    0 -0.17017768522E+02 -0.53302312022E+03  0.30412959179E+03  0.61920183686E+03  0.80702261616E+02 0.  0.
        254    2    1    2    0    0  0.17017768522E+02  0.53302312022E+03  0.98039558122E+03  0.14073320327E+04  0.85732415307E+03 0.  0.
         23    2    4    4    0    0  0.70933411585E+02  0.12720505071E+03 -0.13360272777E+03  0.21699575073E+03  0.89581209875E+02 0.  0.
         23    2    4    4    0    0 -0.53915643063E+02  0.40581806951E+03  0.11139983090E+04  0.11903362820E+04  0.91175817028E+02 0.  0.
          3    1    3    3  502    0  0.62463365548E+01 -0.29580010195E+03  0.21051725903E+03  0.36311738237E+03  0.00000000000E+00 0. -1.
         -4    1    3    3    0  502 -0.23264105077E+02 -0.23722301828E+03  0.93612332763E+02  0.25608445449E+03  0.00000000000E+00 0.  1.
         11    1    5    5    0    0  0.35827275250E+02  0.93209143551E+01 -0.23162296727E+01  0.37092290522E+02  0.00000000000E+00 0. -1.
        -11    1    5    5    0    0  0.35106136335E+02  0.11788413636E+03 -0.13128649810E+03  0.17990346021E+03  0.00000000000E+00 0.  1.
          1    1    6    6  503    0 -0.97930760202E+01  0.82965200771E+02  0.13733850051E+03  0.16075133779E+03  0.00000000000E+00 0. -1.
         -1    1    6    6    0  503 -0.44122567043E+02  0.32285286874E+03  0.97665980848E+03  0.10295849442E+04  0.00000000000E+00 0.  1.
<mgrwt>
<rscale>  0 0.15674293E+04</rscale>
<asrwt>0</asrwt>
<pdfrwt beam="1">  1        3 0.57077593E-01 0.15674293E+04</pdfrwt>
<pdfrwt beam="2">  1       -4 0.25469684E+00 0.15674293E+04</pdfrwt>
<totfact> 0.39225464E-01</totfact>
</mgrwt>
</event>
<event>
12    4  0.4381187E-008  0.1127649E+04  0.7818608E-02  0.9178655E-01
          1   -1    0    0  501    0  0.00000000000E+00  0.00000000000E+00  0.16461323414E+04  0.16461323414E+04  0.00000000000E+00 0. -1.
         -2   -1    0    0    0  501 -0.00000000000E+00 -0.00000000000E+00 -0.19311804512E+03  0.19311804512E+03  0.00000000000E+00 0.  1.
        -24    2    1    2    0    0  0.80605668844E+02 -0.83721332644E+02  0.17338055068E+02  0.14149398915E+03  0.78825157286E+02 0.  0.
        254    2    1    2    0    0 -0.80605668844E+02  0.83721332644E+02  0.14356762412E+04  0.16977563973E+04  0.89872352804E+03 0.  0.
         23    2    4    4    0    0 -0.41815387466E+03  0.26934689055E+03  0.71839495633E+03  0.87836817350E+03  0.89660050226E+02 0.  0.
         23    2    4    4    0    0  0.33754820581E+03 -0.18562555790E+03  0.71728128484E+03  0.81938822384E+03  0.92244136846E+02 0.  0.
          1    1    3    3  502    0 -0.54423947035E+01 -0.42349349280E+02 -0.62330199716E+01  0.43150174768E+02  0.00000000000E+00 0. -1.
         -2    1    3    3    0  502  0.86048063547E+02 -0.41371983364E+02  0.23571075040E+02  0.98343814377E+02  0.00000000000E+00 0.  1.
         11    1    5    5    0    0 -0.77720404325E+02  0.40400460549E+02  0.75064851610E+02  0.11535766298E+03  0.00000000000E+00 0.  1.
        -11    1    5    5    0    0 -0.34043347033E+03  0.22894643000E+03  0.64333010472E+03  0.76301051052E+03  0.00000000000E+00 0. -1.
          2    1    6    6  503    0  0.32460421648E+03 -0.19455248998E+03  0.66913440765E+03  0.76873885306E+03  0.00000000000E+00 0. -1.
         -2    1    6    6    0  503  0.12943989338E+02  0.89269320733E+01  0.48146877196E+02  0.50649370775E+02  0.00000000000E+00 0.  1.
<mgrwt>
<rscale>  0 0.11276486E+04</rscale>
<asrwt>0</asrwt>
<pdfrwt beam="1">  1        1 0.25325112E+00 0.11276486E+04</pdfrwt>
<pdfrwt beam="2">  1       -2 0.29710470E-01 0.11276486E+04</pdfrwt>
<totfact> 0.47306173E+01</totfact>
</mgrwt>
</event>
<event>
12    4  0.4381187E-008  0.1281195E+04  0.7818608E-02  0.9044612E-01
          1   -1    0    0  501    0  0.00000000000E+00  0.00000000000E+00  0.95239890226E+03  0.95239890226E+03  0.00000000000E+00 0. -1.
         -2   -1    0    0    0  501 -0.00000000000E+00 -0.00000000000E+00 -0.43087542905E+03  0.43087542905E+03  0.00000000000E+00 0.  1.
        -24    2    1    2    0    0 -0.70090013522E+02  0.61093751099E+02  0.50760433388E+03  0.52216689903E+03  0.79693501926E+02 0.  0.
        254    2    1    2    0    0  0.70090013522E+02 -0.61093751099E+02  0.13919139329E+02  0.86110743228E+03  0.85595981861E+03 0.  0.
         23    2    4    4    0    0 -0.41418241551E+02 -0.36802671040E+03  0.24053221710E+03  0.45291391637E+03  0.10057901312E+03 0.  0.
         23    2    4    4    0    0  0.11150825507E+03  0.30693295931E+03 -0.22661307777E+03  0.40819351591E+03  0.92879098591E+02 0.  0.
          3    1    3    3  502    0 -0.55715338956E+02  0.67255848457E+02  0.49330217004E+03  0.50097363115E+03  0.00000000000E+00 0. -1.
         -4    1    3    3    0  502 -0.14374674566E+02 -0.61620973587E+01  0.14302163845E+02  0.21193267879E+02  0.00000000000E+00 0.  1.
         11    1    5    5    0    0 -0.65560794999E+02 -0.25307252546E+03  0.19816540331E+03  0.32804488726E+03  0.00000000000E+00 0. -1.
        -11    1    5    5    0    0  0.24142553448E+02 -0.11495418494E+03  0.42366813782E+02  0.12486902912E+03  0.00000000000E+00 0.  1.
          1    1    6    6  503    0  0.10863976377E+03  0.30702497217E+03 -0.20162231182E+03  0.38303849471E+03  0.00000000000E+00 0. -1.
         -1    1    6    6    0  503  0.28684913053E+01 -0.92012859316E-01 -0.24990765952E+02  0.25155021201E+02  0.00000000000E+00 0.  1.
<mgrwt>
<rscale>  0 0.12811952E+04</rscale>
<asrwt>0</asrwt>
<pdfrwt beam="1">  1        1 0.14652291E+00 0.12811952E+04</pdfrwt>
<pdfrwt beam="2">  1       -2 0.66288528E-01 0.12811952E+04</pdfrwt>
<totfact> 0.29785184E+01</totfact>
</mgrwt>
</event>
<event>
12    4  0.4381187E-008  0.1436296E+04  0.7818608E-02  0.8927957E-01
          1   -1    0    0  501    0  0.00000000000E+00  0.00000000000E+00  0.31562996057E+04  0.31562996057E+04  0.00000000000E+00 0. -1.
         -2   -1    0    0    0  501 -0.00000000000E+00 -0.00000000000E+00 -0.16339911938E+03  0.16339911938E+03  0.00000000000E+00 0.  1.
        -24    2    1    2    0    0  0.71159054196E+02 -0.16052206229E+03  0.10858484332E+02  0.19343101867E+03  0.80415849358E+02 0.  0.
        254    2    1    2    0    0 -0.71159054196E+02  0.16052206229E+03  0.29820420020E+04  0.31262677064E+04  0.92203271473E+03 0.  0.
         23    2    4    4    0    0  0.15370500888E+03 -0.24498343613E+03  0.40347094254E+03  0.50477124039E+03  0.91449931206E+02 0.  0.
         23    2    4    4    0    0 -0.22486406307E+03  0.40550549842E+03  0.25785710594E+04  0.26214964660E+04  0.90644672257E+02 0.  0.
          3    1    3    3  502    0  0.81773960518E+02 -0.11002410971E+03  0.26265433015E+02  0.13957850231E+03  0.00000000000E+00 0. -1.
         -4    1    3    3    0  502 -0.10614906322E+02 -0.50497952574E+02 -0.15406948683E+02  0.53852516359E+02  0.00000000000E+00 0.  1.
         11    1    5    5    0    0  0.56679283813E+02 -0.99266505235E+02  0.89057035643E+02  0.14490526517E+03  0.00000000000E+00 0. -1.
        -11    1    5    5    0    0  0.97025725064E+02 -0.14571693090E+03  0.31441390690E+03  0.35986597522E+03  0.00000000000E+00 0.  1.
          4    1    6    6  503    0 -0.96432291201E+02  0.25453110769E+03  0.13695639367E+04  0.13963490424E+04  0.00000000000E+00 0.  1.
         -4    1    6    6    0  503 -0.12843177187E+03  0.15097439073E+03  0.12090071228E+04  0.12251474236E+04  0.00000000000E+00 0. -1.
<mgrwt>
<rscale>  0 0.14362960E+04</rscale>
<asrwt>0</asrwt>
<pdfrwt beam="1">  1        1 0.48558451E+00 0.14362960E+04</pdfrwt>
<pdfrwt beam="2">  1       -2 0.25138328E-01 0.14362960E+04</pdfrwt>
<totfact> 0.56077671E+00</totfact>
</mgrwt>
</event>
<event>
12    4  0.4381187E-008  0.1236735E+04  0.7818608E-02  0.9081296E-01
         -2   -1    0    0    0  501 -0.00000000000E+00  0.00000000000E+00  0.69186016047E+03  0.69186016047E+03  0.00000000000E+00 0.  1.
          1   -1    0    0  501    0  0.00000000000E+00 -0.00000000000E+00 -0.55268167040E+03  0.55268167040E+03  0.00000000000E+00 0. -1.
        -24    2    1    2    0    0  0.11143188824E+03  0.21071864631E+03 -0.10569715025E+03  0.27262284391E+03  0.79573323606E+02 0.  0.
        254    2    1    2    0    0 -0.11143188824E+03 -0.21071864631E+03  0.24487564032E+03  0.97191898696E+03  0.90985879364E+03 0.  0.
         23    2    4    4    0    0 -0.49794265376E+03 -0.19475429902E+03  0.15802982693E+03  0.56477876110E+03  0.90141551826E+02 0.  0.
         23    2    4    4    0    0  0.38651076552E+03 -0.15964347293E+02  0.86845813394E+02  0.40714022586E+03  0.92604189758E+02 0.  0.
          1    1    3    3  502    0  0.83064513727E+02  0.20515677599E+03 -0.10117923031E+03  0.24336444445E+03  0.00000000000E+00 0. -1.
         -2    1    3    3    0  502  0.28367374513E+02  0.55618703167E+01 -0.45179199411E+01  0.29258399457E+02  0.00000000000E+00 0.  1.
         11    1    5    5    0    0 -0.28209344069E+03 -0.62601877135E+02  0.77148150359E+02  0.29907781831E+03  0.00000000000E+00 0.  1.
        -11    1    5    5    0    0 -0.21584921307E+03 -0.13215242188E+03  0.80881676568E+02  0.26570094279E+03  0.00000000000E+00 0. -1.
          3    1    6    6  503    0  0.24882584663E+03  0.15269226774E+02  0.17666224198E+02  0.24991908034E+03  0.00000000000E+00 0. -1.
         -3    1    6    6    0  503  0.13768491889E+03 -0.31233574067E+02  0.69179589196E+02  0.15722114553E+03  0.00000000000E+00 0.  1.
<mgrwt>
<rscale>  0 0.12367351E+04</rscale>
<asrwt>0</asrwt>
<pdfrwt beam="1">  1        1 0.85027950E-01 0.12367351E+04</pdfrwt>
<pdfrwt beam="2">  1       -2 0.10644002E+00 0.12367351E+04</pdfrwt>
<totfact> 0.23666800E+01</totfact>
</mgrwt>
</event>
<event>
12    4  0.4381187E-008  0.1768179E+04  0.7818608E-02  0.8723407E-01
         -2   -1    0    0    0  501 -0.00000000000E+00  0.00000000000E+00  0.54689461714E+03  0.54689461714E+03  0.00000000000E+00 0.  1.
          1   -1    0    0  501    0  0.00000000000E+00 -0.00000000000E+00 -0.14291868521E+04  0.14291868521E+04  0.00000000000E+00 0. -1.
        -24    2    1    2    0    0  0.29650653370E+03  0.35383945140E+03  0.18479202924E+03  0.50379992888E+03  0.80918430364E+02 0.  0.
        254    2    1    2    0    0 -0.29650653370E+03 -0.35383945140E+03 -0.10670842642E+04  0.14722815404E+04  0.90323066009E+03 0.  0.
         23    2    4    4    0    0 -0.59987940026E+03 -0.23034137327E+03 -0.53514922263E+03  0.84110975039E+03  0.90379636091E+02 0.  0.
         23    2    4    4    0    0  0.30337286656E+03 -0.12349807813E+03 -0.53193504158E+03  0.63117178999E+03  0.90200158281E+02 0.  0.
          3    1    3    3  502    0  0.16584403825E+03  0.15885822594E+03  0.57286897823E+02  0.23668960610E+03  0.00000000000E+00 0. -1.
         -4    1    3    3    0  502  0.13066249545E+03  0.19498122546E+03  0.12750513141E+03  0.26711032278E+03  0.00000000000E+00 0.  1.
         11    1    5    5    0    0 -0.11890123625E+03 -0.65484414550E+02 -0.73562575730E+02  0.15439289193E+03  0.00000000000E+00 0.  1.
        -11    1    5    5    0    0 -0.48097816401E+03 -0.16485695872E+03 -0.46158664690E+03  0.68671685846E+03  0.00000000000E+00 0. -1.
          2    1    6    6  503    0  0.23987604263E+03 -0.12098726372E+03 -0.37029936107E+03  0.45749322467E+03  0.00000000000E+00 0. -1.
         -2    1    6    6    0  503  0.63496823923E+02 -0.25108144132E+01 -0.16163568051E+03  0.17367856532E+03  0.00000000000E+00 0.  1.
<mgrwt>
<rscale>  0 0.17681794E+04</rscale>
<asrwt>0</asrwt>
<pdfrwt beam="1">  1        1 0.21987490E+00 0.17681794E+04</pdfrwt>
<pdfrwt beam="2">  1       -2 0.84137635E-01 0.17681794E+04</pdfrwt>
<totfact> 0.75037643E+00</totfact>
</mgrwt>
</event>
<event>
12    4  0.4381187E-008  0.1793953E+04  0.7818608E-02  0.8709522E-01
         -2   -1    0    0    0  501 -0.00000000000E+00  0.00000000000E+00  0.88419147703E+03  0.88419147703E+03  0.00000000000E+00 0.  1.
          1   -1    0    0  501    0  0.00000000000E+00 -0.00000000000E+00 -0.90994602998E+03  0.90994602998E+03  0.00000000000E+00 0. -1.
        -24    2    1    2    0    0 -0.33136901228E+03 -0.51850763619E+03  0.36000743215E+03  0.71485124171E+03  0.52453364831E+02 0.  0.
        254    2    1    2    0    0  0.33136901228E+03  0.51850763619E+03 -0.38576198510E+03  0.10792862653E+04  0.79836767359E+03 0.  0.
         23    2    4    4    0    0  0.41715430890E+03  0.58227192378E+03 -0.60941460678E+02  0.72470147950E+03  0.91760896375E+02 0.  0.
         23    2    4    4    0    0 -0.85785296618E+02 -0.63764287592E+02 -0.32482052442E+03  0.35458478580E+03  0.93792301128E+02 0.  0.
          1    1    3    3  502    0 -0.48250359519E+02 -0.49630577929E+02  0.50949482893E+02  0.85948480303E+02  0.00000000000E+00 0. -1.
         -2    1    3    3    0  502 -0.28311865276E+03 -0.46887705826E+03  0.30905794925E+03  0.62890276140E+03  0.00000000000E+00 0.  1.
         11    1    5    5    0    0  0.52351884029E+02  0.86911354292E+02  0.22355481917E+02  0.10389451784E+03  0.00000000000E+00 0.  1.
        -11    1    5    5    0    0  0.36480242487E+03  0.49536056949E+03 -0.83296942594E+02  0.62080696166E+03  0.00000000000E+00 0. -1.
          3    1    6    6  503    0 -0.99012480946E+02 -0.73993187893E+02 -0.30180916154E+03  0.32613989825E+03  0.00000000000E+00 0. -1.
         -3    1    6    6    0  503  0.13227184328E+02  0.10228900301E+02 -0.23011362878E+02  0.28444887557E+02  0.00000000000E+00 0.  1.
<mgrwt>
<rscale>  0 0.17939526E+04</rscale>
<asrwt>0</asrwt>
<pdfrwt beam="1">  1        1 0.13999170E+00 0.17939526E+04</pdfrwt>
<pdfrwt beam="2">  1       -2 0.13602946E+00 0.17939526E+04</pdfrwt>
<totfact> 0.57159668E+00</totfact>
</mgrwt>
</event>
<event>
12    4  0.4381187E-008  0.2881658E+04  0.7818608E-02  0.8278356E-01
          1   -1    0    0  501    0  0.00000000000E+00  0.00000000000E+00  0.19093188598E+04  0.19093188598E+04  0.00000000000E+00 0. -1.
         -2   -1    0    0    0  501 -0.00000000000E+00 -0.00000000000E+00 -0.10872922977E+04  0.10872922977E+04  0.00000000000E+00 0.  1.
        -24    2    1    2    0    0  0.26848327750E+02  0.34847559461E+03  0.16771645428E+04  0.17145208860E+04  0.67415816579E+02 0.  0.
        254    2    1    2    0    0 -0.26848327750E+02 -0.34847559461E+03 -0.85513798073E+03  0.12820902715E+04  0.88900980055E+03 0.  0.
         23    2    4    4    0    0 -0.21285154683E+03 -0.12453867027E+03 -0.93123931415E+03  0.96773179321E+03  0.92100499476E+02 0.  0.
         23    2    4    4    0    0  0.18600321908E+03 -0.22393692434E+03  0.76101333415E+02  0.31435847830E+03  0.91021405947E+02 0.  0.
          1    1    3    3  502    0  0.10820541338E+02  0.88194336529E+02  0.58158561002E+03  0.58833421360E+03  0.00000000000E+00 0. -1.
         -2    1    3    3    0  502  0.16027786412E+02  0.26028125808E+03  0.10955789328E+04  0.11261866724E+04  0.00000000000E+00 0.  1.
         11    1    5    5    0    0 -0.80124281244E+02 -0.98830654416E+02 -0.41339304196E+03  0.43252884972E+03  0.00000000000E+00 0. -1.
        -11    1    5    5    0    0 -0.13272726558E+03 -0.25708015851E+02 -0.51784627219E+03  0.53520294350E+03  0.00000000000E+00 0.  1.
          1    1    6    6  503    0  0.13463290924E+03 -0.12201901866E+03  0.83540213511E+02  0.19998407047E+03  0.00000000000E+00 0. -1.
         -1    1    6    6    0  503  0.51370309836E+02 -0.10191790568E+03 -0.74388800961E+01  0.11437440783E+03  0.00000000000E+00 0.  1.
<mgrwt>
<rscale>  0 0.28816576E+04</rscale>
<asrwt>0</asrwt>
<pdfrwt beam="1">  1        1 0.29374136E+00 0.28816576E+04</pdfrwt>
<pdfrwt beam="2">  1       -2 0.16727574E+00 0.28816576E+04</pdfrwt>
<totfact> 0.57841002E-01</totfact>
</mgrwt>
</event>
<event>
12    4  0.4381187E-008  0.2057617E+04  0.7818608E-02  0.8580147E-01
          1   -1    0    0  501    0  0.00000000000E+00  0.00000000000E+00  0.94432363251E+03  0.94432363251E+03  0.00000000000E+00 0. -1.
         -2   -1    0    0    0  501 -0.00000000000E+00 -0.00000000000E+00 -0.11208520820E+04  0.11208520820E+04  0.00000000000E+00 0.  1.
        -24    2    1    2    0    0 -0.22375367434E+03  0.58419186723E+03  0.47795559887E+03  0.79147614022E+03  0.81529635872E+02 0.  0.
        254    2    1    2    0    0  0.22375367434E+03 -0.58419186723E+03 -0.65448404831E+03  0.12736995742E+04  0.89588804625E+03 0.  0.
         23    2    4    4    0    0  0.26158850434E+03  0.15294752381E+03 -0.58117323094E+02  0.32041435073E+03  0.86407420196E+02 0.  0.
         23    2    4    4    0    0 -0.37834830002E+02 -0.73713939105E+03 -0.59636672522E+03  0.95328522352E+03  0.91068601861E+02 0.  0.
          3    1    3    3  502    0 -0.83148363364E+01  0.80964493299E+01 -0.13871441849E+01  0.11688163416E+02  0.00000000000E+00 0. -1.
         -4    1    3    3    0  502 -0.21543883800E+03  0.57609541790E+03  0.47934274305E+03  0.77978797680E+03  0.00000000000E+00 0.  1.
         11    1    5    5    0    0  0.47585003617E+02 -0.67716410982E+01 -0.87673717352E+01  0.48857491744E+02  0.00000000000E+00 0. -1.
        -11    1    5    5    0    0  0.21400350072E+03  0.15971916491E+03 -0.49349951359E+02  0.27155685898E+03  0.00000000000E+00 0.  1.
          4    1    6    6  503    0 -0.13603483853E+02 -0.11231732192E+03 -0.53199305624E+02  0.12502160491E+03  0.00000000000E+00 0. -1.
         -4    1    6    6    0  503 -0.24231346148E+02 -0.62482206913E+03 -0.54316741959E+03  0.82826361861E+03  0.00000000000E+00 0.  1.
<mgrwt>
<rscale>  0 0.20576172E+04</rscale>
<asrwt>0</asrwt>
<pdfrwt beam="1">  1        1 0.14528056E+00 0.20576172E+04</pdfrwt>
<pdfrwt beam="2">  1       -2 0.17243878E+00 0.20576172E+04</pdfrwt>
<totfact> 0.27750556E+00</totfact>
</mgrwt>
</event>
<event>
12    4  0.4381187E-008  0.2227399E+04  0.7818608E-02  0.8507110E-01
          1   -1    0    0  501    0  0.00000000000E+00  0.00000000000E+00  0.13327158804E+04  0.13327158804E+04  0.00000000000E+00 0. -1.
         -2   -1    0    0    0  501 -0.00000000000E+00 -0.00000000000E+00 -0.93067585843E+03  0.93067585843E+03  0.00000000000E+00 0.  1.
        -24    2    1    2    0    0  0.45787938951E+03 -0.74546731513E+03 -0.14424773586E+03  0.89030586150E+03  0.80386966967E+02 0.  0.
        254    2    1    2    0    0 -0.45787938951E+03  0.74546731513E+03  0.54628775785E+03  0.13730858773E+04  0.90639917195E+03 0.  0.
         23    2    4    4    0    0  0.14800191158E+03  0.20929215912E+03 -0.14272907256E+03  0.30644937390E+03  0.88497779100E+02 0.  0.
         23    2    4    4    0    0 -0.60588130109E+03  0.53617515601E+03  0.68901683041E+03  0.10666365034E+04  0.91614894854E+02 0.  0.
          3    1    3    3  502    0  0.43043050343E+02 -0.12111304115E+03 -0.11620186842E+02  0.12905852030E+03  0.00000000000E+00 0. -1.
         -4    1    3    3    0  502  0.41483633916E+03 -0.62435427398E+03 -0.13262754902E+03  0.76124734121E+03  0.00000000000E+00 0.  1.
         11    1    5    5    0    0  0.13639453630E+03  0.18402309695E+03 -0.88603302117E+02  0.24559827949E+03  0.00000000000E+00 0. -1.
        -11    1    5    5    0    0  0.11607375282E+02  0.25269062173E+02 -0.54125770445E+02  0.60851094405E+02  0.00000000000E+00 0.  1.
          1    1    6    6  503    0 -0.25558830278E+03  0.26814428373E+03  0.27137421864E+03  0.45920660269E+03  0.00000000000E+00 0. -1.
         -1    1    6    6    0  503 -0.35029299831E+03  0.26803087228E+03  0.41764261177E+03  0.60742990075E+03  0.00000000000E+00 0.  1.
<mgrwt>
<rscale>  0 0.22273989E+04</rscale>
<asrwt>0</asrwt>
<pdfrwt beam="1">  1        1 0.20503321E+00 0.22273989E+04</pdfrwt>
<pdfrwt beam="2">  1       -2 0.14318090E+00 0.22273989E+04</pdfrwt>
<totfact> 0.23177386E+00</totfact>
</mgrwt>
</event>
<event>
12    4  0.4381187E-008  0.1191254E+04  0.7818608E-02  0.9120547E-01
         -2   -1    0    0    0  501 -0.00000000000E+00  0.00000000000E+00  0.21460756573E+04  0.21460756573E+04  0.00000000000E+00 0.  1.
          1   -1    0    0  501    0  0.00000000000E+00 -0.00000000000E+00 -0.16531164258E+03  0.16531164258E+03  0.00000000000E+00 0. -1.
        -24    2    1    2    0    0 -0.16926619756E+03  0.92393452294E+02  0.13060593079E+03  0.24661606909E+03  0.81080088264E+02 0.  0.
        254    2    1    2    0    0  0.16926619756E+03 -0.92393452294E+02  0.18501580839E+04  0.20647712308E+04  0.89610697145E+03 0.  0.
         23    2    4    4    0    0 -0.30874491590E+03 -0.11960820161E+03  0.12248379662E+04  0.12721832918E+04  0.92697030736E+02 0.  0.
         23    2    4    4    0    0  0.47801111346E+03  0.27214749312E+02  0.62532011765E+03  0.79258793891E+03  0.89079314075E+02 0.  0.
          1    1    3    3  502    0 -0.14323319397E+03  0.84098898278E+02  0.14050600042E+03  0.21755530033E+03  0.00000000000E+00 0. -1.
         -2    1    3    3    0  502 -0.26033003596E+02  0.82945540155E+01 -0.99000696323E+01  0.29060768766E+02  0.00000000000E+00 0.  1.
         11    1    5    5    0    0 -0.26130587853E+03 -0.77763849837E+02  0.10845749812E+04  0.11183160861E+04  0.00000000000E+00 0.  1.
        -11    1    5    5    0    0 -0.47439037371E+02 -0.41844351769E+02  0.14026298502E+03  0.15386720576E+03  0.00000000000E+00 0. -1.
          1    1    6    6  503    0  0.60982252554E+02  0.14829476939E+02  0.42375212850E+02  0.75725868611E+02  0.00000000000E+00 0. -1.
         -1    1    6    6    0  503  0.41702886091E+03  0.12385272373E+02  0.58294490480E+03  0.71686207030E+03  0.00000000000E+00 0.  1.
<mgrwt>
<rscale>  0 0.11912536E+04</rscale>
<asrwt>0</asrwt>
<pdfrwt beam="1">  1        1 0.25432562E-01 0.11912536E+04</pdfrwt>
<pdfrwt beam="2">  1       -2 0.33016547E+00 0.11912536E+04</pdfrwt>
<totfact> 0.34540100E+00</totfact>
</mgrwt>
</event>
<event>
12    4  0.4381187E-008  0.1361937E+04  0.7818608E-02  0.8981841E-01
          1   -1    0    0  501    0  0.00000000000E+00  0.00000000000E+00  0.22042133988E+04  0.22042133988E+04  0.00000000000E+00 0. -1.
         -2   -1    0    0    0  501 -0.00000000000E+00 -0.00000000000E+00 -0.21037802723E+03  0.21037802723E+03  0.00000000000E+00 0.  1.
        -24    2    1    2    0    0  0.31174960614E+03  0.13343705008E+03  0.82687103778E+03  0.89736658367E+03  0.80980300710E+02 0.  0.
        254    2    1    2    0    0 -0.31174960614E+03 -0.13343705008E+03  0.11669643338E+04  0.15172248424E+04  0.90838989572E+03 0.  0.
         23    2    4    4    0    0  0.24280345630E+02 -0.29000402788E+02  0.11482128932E+04  0.11527998496E+04  0.95520085408E+02 0.  0.
         23    2    4    4    0    0 -0.33602995177E+03 -0.10443664729E+03  0.18751440629E+02  0.36442499273E+03  0.92902190611E+02 0.  0.
          3    1    3    3  502    0  0.81466252161E+02  0.44927329793E+02  0.32628035942E+03  0.33928467126E+03  0.00000000000E+00 0. -1.
         -4    1    3    3    0  502  0.23028335398E+03  0.88509720282E+02  0.50059067835E+03  0.55808191241E+03  0.00000000000E+00 0.  1.
         11    1    5    5    0    0  0.14537108472E+02  0.38632829826E+01  0.10191996381E+04  0.10193106273E+04  0.00000000000E+00 0. -1.
        -11    1    5    5    0    0  0.97432371578E+01 -0.32863685771E+02  0.12901325502E+03  0.13348922235E+03  0.00000000000E+00 0.  1.
          1    1    6    6  503    0 -0.30828094772E+03 -0.11020215588E+03  0.38845765397E+02  0.32968265253E+03  0.00000000000E+00 0. -1.
         -1    1    6    6    0  503 -0.27749004051E+02  0.57655085958E+01 -0.20094324768E+02  0.34742340207E+02  0.00000000000E+00 0.  1.
<mgrwt>
<rscale>  0 0.13619370E+04</rscale>
<asrwt>0</asrwt>
<pdfrwt beam="1">  1        1 0.33910974E+00 0.13619370E+04</pdfrwt>
<pdfrwt beam="2">  1       -2 0.32365852E-01 0.13619370E+04</pdfrwt>
<totfact> 0.16553439E+01</totfact>
</mgrwt>
</event>
<event>
12    4  0.4381187E-008  0.2860160E+04  0.7818608E-02  0.8284831E-01
          1   -1    0    0  501    0  0.00000000000E+00  0.00000000000E+00  0.13222817822E+04  0.13222817822E+04  0.00000000000E+00 0. -1.
         -2   -1    0    0    0  501 -0.00000000000E+00 -0.00000000000E+00 -0.15466665656E+04  0.15466665656E+04  0.00000000000E+00 0.  1.
        -24    2    1    2    0    0 -0.10248177407E+04 -0.63467976323E+03 -0.54296779289E+03  0.13250533039E+04  0.88783053844E+02 0.  0.
        254    2    1    2    0    0  0.10248177407E+04  0.63467976323E+03  0.31858300953E+03  0.15438950439E+04  0.91052016395E+03 0.  0.
         23    2    4    4    0    0  0.11438179674E+04  0.66154544844E+03  0.38822177944E+03  0.13801904905E+04  0.90816943115E+02 0.  0.
         23    2    4    4    0    0 -0.11900022665E+03 -0.26865685213E+02 -0.69638769907E+02  0.16370455339E+03  0.84064282193E+02 0.  0.
          3    1    3    3  502    0 -0.22265413945E+03 -0.14774841455E+03 -0.16053337808E+03  0.31172973117E+03  0.00000000000E+00 0. -1.
         -4    1    3    3    0  502 -0.80216360125E+03 -0.48693134868E+03 -0.38243441481E+03  0.10133235728E+04  0.00000000000E+00 0.  1.
         11    1    5    5    0    0  0.66908878598E+03  0.40985933559E+03  0.18863709185E+03  0.80699964741E+03  0.00000000000E+00 0. -1.
        -11    1    5    5    0    0  0.47472918137E+03  0.25168611286E+03  0.19958468759E+03  0.57319084306E+03  0.00000000000E+00 0.  1.
          4    1    6    6  503    0 -0.12671873346E+03 -0.33127127286E+02 -0.47303118197E+02  0.13925741978E+03  0.00000000000E+00 0. -1.
         -4    1    6    6    0  503  0.77185068133E+01  0.62614420726E+01 -0.22335651709E+02  0.24447133606E+02  0.00000000000E+00 0.  1.
<mgrwt>
<rscale>  0 0.28601602E+04</rscale>
<asrwt>0</asrwt>
<pdfrwt beam="1">  1        1 0.20342797E+00 0.28601602E+04</pdfrwt>
<pdfrwt beam="2">  1       -2 0.23794870E+00 0.28601602E+04</pdfrwt>
<totfact> 0.50293689E-01</totfact>
</mgrwt>
</event>
<event>
12    4  0.4381187E-008  0.1424071E+04  0.7818608E-02  0.8936577E-01
         -2   -1    0    0    0  501 -0.00000000000E+00  0.00000000000E+00  0.19053356098E+03  0.19053356098E+03  0.00000000000E+00 0.  1.
          1   -1    0    0  501    0  0.00000000000E+00 -0.00000000000E+00 -0.26609189723E+04  0.26609189723E+04  0.00000000000E+00 0. -1.
        -24    2    1    2    0    0  0.31206103304E+03  0.20633324369E+03 -0.33798742082E+03  0.51045439544E+03  0.79829176377E+02 0.  0.
        254    2    1    2    0    0 -0.31206103304E+03 -0.20633324369E+03 -0.21323979905E+04  0.23409981379E+04  0.89061529051E+03 0.  0.
         23    2    4    4    0    0 -0.32973903368E+03  0.14336529448E+03 -0.18367158182E+04  0.18738933032E+04  0.93111101176E+02 0.  0.
         23    2    4    4    0    0  0.17678000644E+02 -0.34969853817E+03 -0.29568217236E+03  0.46710483465E+03  0.90318327009E+02 0.  0.
          3    1    3    3  502    0  0.28206561823E+03  0.20634948334E+03 -0.32669310819E+03  0.47840308235E+03  0.00000000000E+00 0. -1.
         -2    1    3    3    0  502  0.29995414806E+02 -0.16239650765E-01 -0.11294312631E+02  0.32051313092E+02  0.00000000000E+00 0.  1.
         11    1    5    5    0    0 -0.18755905188E+03  0.89617310344E+02 -0.82301828286E+03  0.84886321288E+03  0.00000000000E+00 0.  1.
        -11    1    5    5    0    0 -0.14217998180E+03  0.53747984135E+02 -0.10136975353E+04  0.10250300903E+04  0.00000000000E+00 0. -1.
          1    1    6    6  503    0  0.75292379216E+01 -0.10296675360E+03 -0.37501133143E+02  0.10984159848E+03  0.00000000000E+00 0. -1.
         -1    1    6    6    0  503  0.10148762723E+02 -0.24673178457E+03 -0.25818103922E+03  0.35726323616E+03  0.00000000000E+00 0.  1.
<mgrwt>
<rscale>  0 0.14240707E+04</rscale>
<asrwt>0</asrwt>
<pdfrwt beam="1">  1        1 0.40937215E+00 0.14240707E+04</pdfrwt>
<pdfrwt beam="2">  1       -2 0.29312855E-01 0.14240707E+04</pdfrwt>
<totfact> 0.96103722E+00</totfact>
</mgrwt>
</event>
<event>
12    4  0.4381187E-008  0.1464813E+04  0.7818608E-02  0.8908195E-01
         -2   -1    0    0    0  501 -0.00000000000E+00  0.00000000000E+00  0.37955930187E+03  0.37955930187E+03  0.00000000000E+00 0.  1.
          1   -1    0    0  501    0  0.00000000000E+00 -0.00000000000E+00 -0.14132690056E+04  0.14132690056E+04  0.00000000000E+00 0. -1.
        -24    2    1    2    0    0 -0.19163141008E+03 -0.18024327832E+03 -0.76882663382E+03  0.81650155455E+03  0.79813275812E+02 0.  0.
        254    2    1    2    0    0  0.19163141008E+03  0.18024327832E+03 -0.26488306989E+03  0.97632675290E+03  0.90213117173E+03 0.  0.
         23    2    4    4    0    0 -0.25986703821E+03  0.20765724591E+03  0.12893130341E+03  0.36818250068E+03  0.91009139565E+02 0.  0.
         23    2    4    4    0    0  0.45149844830E+03 -0.27413967587E+02 -0.39381437329E+03  0.60814425222E+03  0.10073379004E+03 0.  0.
          3    1    3    3  502    0 -0.19587440259E+03 -0.16779593964E+03 -0.75287232843E+03  0.79582598718E+03  0.00000000000E+00 0. -1.
         -2    1    3    3    0  502  0.42429925048E+01 -0.12447338680E+02 -0.15954305389E+02  0.20675567370E+02  0.00000000000E+00 0.  1.
         11    1    5    5    0    0 -0.12895155066E+03  0.52129007269E+02  0.30866666906E+02  0.14247346049E+03  0.00000000000E+00 0.  1.
        -11    1    5    5    0    0 -0.13091548755E+03  0.15552823864E+03  0.98064636503E+02  0.22570904020E+03  0.00000000000E+00 0. -1.
          1    1    6    6  503    0  0.43344005278E+03 -0.24390460075E+02 -0.39844630448E+03  0.58925769528E+03  0.00000000000E+00 0. -1.
         -1    1    6    6    0  503  0.18058395521E+02 -0.30235075121E+01  0.46319311822E+01  0.18886556937E+02  0.00000000000E+00 0.  1.
<mgrwt>
<rscale>  0 0.14648132E+04</rscale>
<asrwt>0</asrwt>
<pdfrwt beam="1">  1        1 0.21742600E+00 0.14648132E+04</pdfrwt>
<pdfrwt beam="2">  1       -2 0.58393739E-01 0.14648132E+04</pdfrwt>
<totfact> 0.17552797E+01</totfact>
</mgrwt>
</event>
<event>
12    4  0.4381187E-008  0.2755841E+04  0.7818608E-02  0.8317110E-01
         -4   -1    0    0    0  501 -0.00000000000E+00  0.00000000000E+00  0.27809231615E+04  0.27809231615E+04  0.00000000000E+00 0.  1.
          1   -1    0    0  501    0  0.00000000000E+00 -0.00000000000E+00 -0.68274641829E+03  0.68274641829E+03  0.00000000000E+00 0. -1.
        -24    2    1    2    0    0  0.26551014611E+03  0.79934801390E+03 -0.19333242939E+03  0.86782580165E+03  0.79317770721E+02 0.  0.
        254    2    1    2    0    0 -0.26551014611E+03 -0.79934801390E+03  0.22915091726E+04  0.25958437781E+04  0.88200779326E+03 0.  0.
         23    2    4    4    0    0 -0.32647448958E+03 -0.49576449662E+03  0.21687085671E+04  0.22504063175E+04  0.93079086448E+02 0.  0.
         23    2    4    4    0    0  0.60964343476E+02 -0.30358351727E+03  0.12280060549E+03  0.34543746064E+03  0.91473752336E+02 0.  0.
          3    1    3    3  502    0  0.18960262156E+03  0.61791402343E+03 -0.11696611012E+03  0.65684698779E+03  0.00000000000E+00 0. -1.
         -4    1    3    3    0  502  0.75907524543E+02  0.18143399047E+03 -0.76366319267E+02  0.21097881386E+03  0.00000000000E+00 0.  1.
         11    1    5    5    0    0 -0.17210413339E+03 -0.33048068748E+03  0.14386448086E+04  0.14861144649E+04  0.00000000000E+00 0. -1.
        -11    1    5    5    0    0 -0.15437035619E+03 -0.16528380915E+03  0.73006375853E+03  0.76429185260E+03  0.00000000000E+00 0.  1.
          4    1    6    6  503    0  0.36490029780E+02 -0.26676526858E+03  0.73259552875E+02  0.27903797749E+03  0.00000000000E+00 0. -1.
         -4    1    6    6    0  503  0.24474313696E+02 -0.36818248692E+02  0.49541052617E+02  0.66399483146E+02  0.00000000000E+00 0.  1.
<mgrwt>
<rscale>  0 0.27558413E+04</rscale>
<asrwt>0</asrwt>
<pdfrwt beam="1">  1        1 0.10503791E+00 0.27558413E+04</pdfrwt>
<pdfrwt beam="2">  1       -4 0.42783432E+00 0.27558413E+04</pdfrwt>
<totfact> 0.50412021E-02</totfact>
</mgrwt>
</event>
<event>
12    4  0.4381187E-008  0.2022428E+04  0.7818608E-02  0.8596206E-01
          1   -1    0    0  501    0  0.00000000000E+00  0.00000000000E+00  0.14124881653E+04  0.14124881653E+04  0.00000000000E+00 0. -1.
         -2   -1    0    0    0  501 -0.00000000000E+00 -0.00000000000E+00 -0.72393789659E+03  0.72393789659E+03  0.00000000000E+00 0.  1.
        -24    2    1    2    0    0  0.57480185398E+03 -0.21486511991E+03  0.83182119199E+03  0.10364487518E+04  0.75731951991E+02 0.  0.
        254    2    1    2    0    0 -0.57480185398E+03  0.21486511991E+03 -0.14327092324E+03  0.10999773101E+04  0.90158711962E+03 0.  0.
         23    2    4    4    0    0 -0.11029260249E+03 -0.33512564079E+03 -0.64787265311E+02  0.37003543068E+03  0.90858004240E+02 0.  0.
         23    2    4    4    0    0 -0.46450925150E+03  0.54999076070E+03 -0.78483657930E+02  0.72994187945E+03  0.91633952368E+02 0.  0.
          3    1    3    3  502    0  0.47980715190E+03 -0.18934126659E+03  0.73892530475E+03  0.90115238681E+03  0.00000000000E+00 0. -1.
         -4    1    3    3    0  502  0.94994702080E+02 -0.25523853324E+02  0.92895887234E+02  0.13529636498E+03  0.00000000000E+00 0.  1.
         11    1    5    5    0    0 -0.45969418167E+02 -0.72733439281E+02 -0.49897570247E+02  0.99464104644E+02  0.00000000000E+00 0.  1.
        -11    1    5    5    0    0 -0.64323184322E+02 -0.26239220151E+03 -0.14889695064E+02  0.27057132604E+03  0.00000000000E+00 0. -1.
          4    1    6    6  503    0 -0.76218499401E+02  0.14990031011E+03 -0.20066043375E+02  0.16935763555E+03  0.00000000000E+00 0.  1.
         -4    1    6    6    0  503 -0.38829075209E+03  0.40009045059E+03 -0.58417614555E+02  0.56058424390E+03  0.00000000000E+00 0. -1.
<mgrwt>
<rscale>  0 0.20224280E+04</rscale>
<asrwt>0</asrwt>
<pdfrwt beam="1">  1        1 0.21730587E+00 0.20224280E+04</pdfrwt>
<pdfrwt beam="2">  1       -2 0.11137506E+00 0.20224280E+04</pdfrwt>
<totfact> 0.39002712E+00</totfact>
</mgrwt>
</event>
<event>
12    4  0.5863176E-008  0.2254571E+04  0.7818608E-02  0.8496052E-01
          1   -1    0    0  501    0  0.00000000000E+00  0.00000000000E+00  0.16994397246E+04  0.16994397246E+04  0.00000000000E+00 0. -1.
         -2   -1    0    0    0  501 -0.00000000000E+00 -0.00000000000E+00 -0.74775988298E+03  0.74775988298E+03  0.00000000000E+00 0.  1.
        -24    2    1    2    0    0 -0.19194042024E+03 -0.17989862284E+03 -0.59486229045E+03  0.65542824229E+03  0.80748973740E+02 0.  0.
        254    2    1    2    0    0  0.19194042024E+03  0.17989862284E+03  0.15465421320E+04  0.17917713653E+04  0.86570631268E+03 0.  0.
         23    2    4    4    0    0  0.75310534225E+02 -0.60273379480E+02  0.14969933720E+04  0.15028112997E+04  0.90266770491E+02 0.  0.
         23    2    4    4    0    0  0.11662988601E+03  0.24017200232E+03  0.49548760078E+02  0.28896006561E+03  0.98781166625E+02 0.  0.
          3    1    3    3  502    0 -0.13631693427E+02 -0.14134395767E+02 -0.10255562376E+02  0.22153572376E+02  0.00000000000E+00 0. -1.
         -4    1    3    3    0  502 -0.17830872681E+03 -0.16576422708E+03 -0.58460672808E+03  0.63327466991E+03  0.00000000000E+00 0.  1.
         11    1    5    5    0    0  0.82749592949E+02 -0.76816250636E+02  0.13473653795E+04  0.13520879030E+04  0.00000000000E+00 0.  1.
        -11    1    5    5    0    0 -0.74390587240E+01  0.16542871156E+02  0.14962799243E+03  0.15072339665E+03  0.00000000000E+00 0. -1.
          1    1    6    6  503    0  0.18433913612E+02  0.13338444996E+01 -0.13801377766E+02  0.23066563256E+02  0.00000000000E+00 0. -1.
         -1    1    6    6    0  503  0.98195972402E+02  0.23883815782E+03  0.63350137844E+02  0.26589350235E+03  0.00000000000E+00 0.  1.
<mgrwt>
<rscale>  0 0.22545712E+04</rscale>
<asrwt>0</asrwt>
<pdfrwt beam="1">  1        1 0.26145227E+00 0.22545712E+04</pdfrwt>
<pdfrwt beam="2">  1       -2 0.11503998E+00 0.22545712E+04</pdfrwt>
<totfact> 0.22395994E+00</totfact>
</mgrwt>
</event>
<event>
12    4  0.4381187E-008  0.1168158E+04  0.7818608E-02  0.9141193E-01
          1   -1    0    0  501    0  0.00000000000E+00  0.00000000000E+00  0.50728676913E+03  0.50728676913E+03  0.00000000000E+00 0. -1.
         -2   -1    0    0    0  501 -0.00000000000E+00 -0.00000000000E+00 -0.67249638024E+03  0.67249638024E+03  0.00000000000E+00 0.  1.
        -24    2    1    2    0    0 -0.13833637440E+03  0.18330329994E+03 -0.74176506909E+01  0.24346132332E+03  0.80506783293E+02 0.  0.
        254    2    1    2    0    0  0.13833637440E+03 -0.18330329994E+03 -0.15779196042E+03  0.93632182606E+03  0.89390335435E+03 0.  0.
         23    2    4    4    0    0  0.43156405358E+03 -0.33101911142E+03 -0.21388845834E+03  0.59181491274E+03  0.93142009134E+02 0.  0.
         23    2    4    4    0    0 -0.29322767917E+03  0.14771581148E+03  0.56096497915E+02  0.34450691332E+03  0.87953188983E+02 0.  0.
          1    1    3    3  502    0 -0.26050135783E+02 -0.25557861821E+01  0.35479314684E+00  0.26177614397E+02  0.00000000000E+00 0. -1.
         -2    1    3    3    0  502 -0.11228623862E+03  0.18585908613E+03 -0.77724438377E+01  0.21728370892E+03  0.00000000000E+00 0.  1.
         11    1    5    5    0    0  0.31477681061E+03 -0.19009319839E+03 -0.12538495564E+03  0.38851158500E+03  0.00000000000E+00 0. -1.
        -11    1    5    5    0    0  0.11678724296E+03 -0.14092591303E+03 -0.88503502699E+02  0.20330332774E+03  0.00000000000E+00 0.  1.
          4    1    6    6  503    0 -0.15820550710E+03  0.35648360920E+02  0.71170337321E+01  0.16232818696E+03  0.00000000000E+00 0. -1.
         -4    1    6    6    0  503 -0.13502217208E+03  0.11206745056E+03  0.48979464183E+02  0.18217872636E+03  0.00000000000E+00 0.  1.
<mgrwt>
<rscale>  0 0.11681584E+04</rscale>
<asrwt>0</asrwt>
<pdfrwt beam="1">  1        1 0.78044118E-01 0.11681584E+04</pdfrwt>
<pdfrwt beam="2">  1       -2 0.10346098E+00 0.11681584E+04</pdfrwt>
<totfact> 0.28702993E+01</totfact>
</mgrwt>
</event>
<event>
12    4  0.4381187E-008  0.1499959E+04  0.7818608E-02  0.8884480E-01
          1   -1    0    0  501    0  0.00000000000E+00  0.00000000000E+00  0.10691851100E+04  0.10691851100E+04  0.00000000000E+00 0. -1.
         -2   -1    0    0    0  501 -0.00000000000E+00 -0.00000000000E+00 -0.52607308713E+03  0.52607308713E+03  0.00000000000E+00 0.  1.
        -24    2    1    2    0    0 -0.18272156257E+03 -0.28048287655E+03 -0.19165906745E+03  0.39439666295E+03  0.82205329177E+02 0.  0.
        254    2    1    2    0    0  0.18272156257E+03  0.28048287655E+03  0.73477109033E+03  0.12008615342E+04  0.88888810074E+03 0.  0.
         23    2    4    4    0    0  0.27040031256E+03  0.37367627797E+03  0.22307000776E+02  0.47099961541E+03  0.92697064060E+02 0.  0.
         23    2    4    4    0    0 -0.87678749997E+02 -0.93193401414E+02  0.71246408955E+03  0.72986191877E+03  0.93385053996E+02 0.  0.
          3    1    3    3  502    0 -0.43509301262E+02 -0.35088884923E+02 -0.50248523253E+01  0.56120747343E+02  0.00000000000E+00 0. -1.
         -4    1    3    3    0  502 -0.13921226130E+03 -0.24539399163E+03 -0.18663421512E+03  0.33827591561E+03  0.00000000000E+00 0.  1.
         11    1    5    5    0    0  0.22103304589E+03  0.35396607005E+03  0.19128254743E+02  0.41774810143E+03  0.00000000000E+00 0.  1.
        -11    1    5    5    0    0  0.49367266669E+02  0.19710207918E+02  0.31787460325E+01  0.53251513977E+02  0.00000000000E+00 0. -1.
          3    1    6    6  503    0 -0.94863133812E+02 -0.37171314678E+02  0.45025423385E+03  0.46163794892E+03  0.00000000000E+00 0. -1.
         -3    1    6    6    0  503  0.71843838151E+01 -0.56022086737E+02  0.26220985571E+03  0.26822396985E+03  0.00000000000E+00 0.  1.
<mgrwt>
<rscale>  0 0.14999593E+04</rscale>
<asrwt>0</asrwt>
<pdfrwt beam="1">  1        1 0.16449002E+00 0.14999593E+04</pdfrwt>
<pdfrwt beam="2">  1       -2 0.80934322E-01 0.14999593E+04</pdfrwt>
<totfact> 0.15282124E+01</totfact>
</mgrwt>
</event>
<event>
12    4  0.4381187E-008  0.1563349E+04  0.7818608E-02  0.8843386E-01
          1   -1    0    0  501    0  0.00000000000E+00  0.00000000000E+00  0.31055210310E+04  0.31055210310E+04  0.00000000000E+00 0. -1.
         -2   -1    0    0    0  501 -0.00000000000E+00 -0.00000000000E+00 -0.19675111206E+03  0.19675111206E+03  0.00000000000E+00 0.  1.
        -24    2    1    2    0    0  0.47964024197E+03 -0.11398879583E+03  0.13890912738E+04  0.14762373576E+04  0.81571818979E+02 0.  0.
        254    2    1    2    0    0 -0.47964024197E+03  0.11398879583E+03  0.15196786451E+04  0.18260347855E+04  0.88426898962E+03 0.  0.
         23    2    4    4    0    0 -0.69371365745E+03  0.22524301216E+03  0.95453229742E+03  0.12047958419E+04  0.91804470803E+02 0.  0.
         23    2    4    4    0    0  0.21407341548E+03 -0.11125421633E+03  0.56514634771E+03  0.62123894354E+03  0.91337302225E+02 0.  0.
          3    1    3    3  502    0  0.30399838722E+03 -0.98781801580E+02  0.80572742583E+03  0.86681575233E+03  0.00000000000E+00 0. -1.
         -4    1    3    3    0  502  0.17564185475E+03 -0.15206994247E+02  0.58336384801E+03  0.60942160528E+03  0.00000000000E+00 0.  1.
         11    1    5    5    0    0 -0.60509493968E+03  0.17811093173E+03  0.77638956529E+03  0.10003220217E+04  0.00000000000E+00 0. -1.
        -11    1    5    5    0    0 -0.88618717766E+02  0.47132080432E+02  0.17814273213E+03  0.20447382022E+03  0.00000000000E+00 0.  1.
          2    1    6    6  503    0  0.17329644695E+03 -0.67328647770E+02  0.33199156072E+03  0.38050387873E+03  0.00000000000E+00 0. -1.
         -2    1    6    6    0  503  0.40776968525E+02 -0.43925568564E+02  0.23315478699E+03  0.24073506481E+03  0.00000000000E+00 0.  1.
<mgrwt>
<rscale>  0 0.15633486E+04</rscale>
<asrwt>0</asrwt>
<pdfrwt beam="1">  1        1 0.47777243E+00 0.15633486E+04</pdfrwt>
<pdfrwt beam="2">  1       -2 0.30269404E-01 0.15633486E+04</pdfrwt>
<totfact> 0.42879478E+00</totfact>
</mgrwt>
</event>
<event>
12    4  0.4381187E-008  0.3374694E+04  0.7818608E-02  0.8144145E-01
         -2   -1    0    0    0  501 -0.00000000000E+00  0.00000000000E+00  0.14832552467E+04  0.14832552467E+04  0.00000000000E+00 0.  1.
          1   -1    0    0  501    0  0.00000000000E+00 -0.00000000000E+00 -0.19195207136E+04  0.19195207136E+04  0.00000000000E+00 0. -1.
        -24    2    1    2    0    0  0.70414691933E+03  0.11307372037E+04  0.63411047990E+03  0.14774448350E+04  0.79734758804E+02 0.  0.
        254    2    1    2    0    0 -0.70414691933E+03 -0.11307372037E+04 -0.10703759468E+04  0.19253311254E+04  0.88702072516E+03 0.  0.
         23    2    4    4    0    0 -0.24288507253E+03  0.66595669018E+02 -0.28149391074E+02  0.26982792643E+03  0.92663801324E+02 0.  0.
         23    2    4    4    0    0 -0.46126184681E+03 -0.11973328727E+04 -0.10422265558E+04  0.16555031989E+04  0.89923015411E+02 0.  0.
          1    1    3    3  502    0  0.44441750328E+03  0.68974693476E+03  0.34969277976E+03  0.89193205540E+03  0.00000000000E+00 0. -1.
         -4    1    3    3    0  502  0.25972941606E+03  0.44099026895E+03  0.28441770015E+03  0.58551277956E+03  0.00000000000E+00 0.  1.
         11    1    5    5    0    0 -0.81433860605E+02  0.11054749985E+01  0.29024237729E+02  0.86458672808E+02  0.00000000000E+00 0. -1.
        -11    1    5    5    0    0 -0.16145121192E+03  0.65490194020E+02 -0.57173628803E+02  0.18336925362E+03  0.00000000000E+00 0.  1.
          4    1    6    6  503    0 -0.38945195627E+03 -0.10174648125E+04 -0.84172840374E+03  0.13767404173E+04  0.00000000000E+00 0. -1.
         -4    1    6    6    0  503 -0.71809890543E+02 -0.17986806025E+03 -0.20049815203E+03  0.27876278167E+03  0.00000000000E+00 0.  1.
<mgrwt>
<rscale>  0 0.33746936E+04</rscale>
<asrwt>0</asrwt>
<pdfrwt beam="1">  1        1 0.29531088E+00 0.33746936E+04</pdfrwt>
<pdfrwt beam="2">  1       -2 0.22819312E+00 0.33746936E+04</pdfrwt>
<totfact> 0.21494974E-01</totfact>
</mgrwt>
</event>
<event>
12    4  0.4381187E-008  0.1748630E+04  0.7818608E-02  0.8734105E-01
         -2   -1    0    0    0  501 -0.00000000000E+00  0.00000000000E+00  0.18979837796E+04  0.18979837796E+04  0.00000000000E+00 0.  1.
          1   -1    0    0  501    0  0.00000000000E+00 -0.00000000000E+00 -0.40275736483E+03  0.40275736483E+03  0.00000000000E+00 0. -1.
        -24    2    1    2    0    0  0.25261296079E+03 -0.64462361449E+03  0.72079191760E+03  0.10025244005E+04  0.78493776099E+02 0.  0.
        254    2    1    2    0    0 -0.25261296079E+03  0.64462361449E+03  0.77443449722E+03  0.12982167439E+04  0.77863021482E+03 0.  0.
         23    2    4    4    0    0 -0.12143833532E+03  0.27111507842E+01  0.59364327525E+03  0.61265933615E+03  0.90468250214E+02 0.  0.
         23    2    4    4    0    0 -0.13117462547E+03  0.64191246371E+03  0.18079122197E+03  0.68555740779E+03  0.89694481437E+02 0.  0.
          3    1    3    3  502    0  0.29325029641E+02 -0.51721332127E+02  0.35526686430E+02  0.69261814942E+02  0.00000000000E+00 0. -1.
         -4    1    3    3    0  502  0.22328793115E+03 -0.59290228236E+03  0.68526523117E+03  0.93326258560E+03  0.00000000000E+00 0.  1.
         11    1    5    5    0    0 -0.64936213420E+02 -0.14239372067E+02  0.48035019099E+03  0.48492863137E+03  0.00000000000E+00 0. -1.
        -11    1    5    5    0    0 -0.56502121900E+02  0.16950522851E+02  0.11329308426E+03  0.12773070478E+03  0.00000000000E+00 0.  1.
          1    1    6    6  503    0 -0.12818499276E+03  0.64038870328E+03  0.18626715136E+03  0.67913513776E+03  0.00000000000E+00 0. -1.
         -1    1    6    6    0  503 -0.29896327108E+01  0.15237604231E+01 -0.54759293942E+01  0.64222700272E+01  0.00000000000E+00 0.  1.
<mgrwt>
<rscale>  0 0.17486303E+04</rscale>
<asrwt>0</asrwt>
<pdfrwt beam="1">  1        1 0.61962673E-01 0.17486303E+04</pdfrwt>
<pdfrwt beam="2">  1       -2 0.29199750E+00 0.17486303E+04</pdfrwt>
<totfact> 0.17556999E+00</totfact>
</mgrwt>
</event>
<event>
12    4  0.4381187E-008  0.1119862E+04  0.7818608E-02  0.9186046E-01
         -2   -1    0    0    0  501 -0.00000000000E+00  0.00000000000E+00  0.10975550264E+04  0.10975550264E+04  0.00000000000E+00 0.  1.
          1   -1    0    0  501    0  0.00000000000E+00 -0.00000000000E+00 -0.28565579511E+03  0.28565579511E+03  0.00000000000E+00 0. -1.
        -24    2    1    2    0    0 -0.34862990233E+02  0.42013946535E+02  0.35163075802E+03  0.36454671039E+03  0.79180264455E+02 0.  0.
        254    2    1    2    0    0  0.34862990233E+02 -0.42013946535E+02  0.46026847328E+03  0.10186641111E+04  0.90711019397E+03 0.  0.
         23    2    4    4    0    0 -0.49998582089E+02 -0.18195274262E+03  0.69081177856E+03  0.72164284073E+03  0.89111264325E+02 0.  0.
         23    2    4    4    0    0  0.84861572322E+02  0.13993879609E+03 -0.23054330528E+03  0.29702127039E+03  0.91033325493E+02 0.  0.
          1    1    3    3  502    0  0.18639043940E+02 -0.97366478139E+01  0.97340889136E+02  0.99586469801E+02  0.00000000000E+00 0. -1.
         -2    1    3    3    0  502 -0.53502034173E+02  0.51750594349E+02  0.25428986888E+03  0.26496024059E+03  0.00000000000E+00 0.  1.
         11    1    5    5    0    0 -0.41424656132E+02 -0.18784639333E+03  0.67980771319E+03  0.70649897136E+03  0.00000000000E+00 0.  1.
        -11    1    5    5    0    0 -0.85739259568E+01  0.58936507043E+01  0.11004065364E+02  0.15143869369E+02  0.00000000000E+00 0. -1.
          1    1    6    6  503    0  0.46143984456E+02  0.25368133322E+02 -0.24431055799E+02  0.58048996349E+02  0.00000000000E+00 0. -1.
         -1    1    6    6    0  503  0.38717587867E+02  0.11457066277E+03 -0.20611224948E+03  0.23897227404E+03  0.00000000000E+00 0.  1.
<mgrwt>
<rscale>  0 0.11198624E+04</rscale>
<asrwt>0</asrwt>
<pdfrwt beam="1">  1        1 0.43947046E-01 0.11198624E+04</pdfrwt>
<pdfrwt beam="2">  1       -2 0.16885462E+00 0.11198624E+04</pdfrwt>
<totfact> 0.17605997E+01</totfact>
</mgrwt>
</event>
<event>
12    4  0.4381187E-008  0.2023319E+04  0.7818608E-02  0.8595795E-01
          1   -1    0    0  501    0  0.00000000000E+00  0.00000000000E+00  0.10847644236E+04  0.10847644236E+04  0.00000000000E+00 0. -1.
         -2   -1    0    0    0  501 -0.00000000000E+00 -0.00000000000E+00 -0.94348131732E+03  0.94348131732E+03  0.00000000000E+00 0.  1.
        -24    2    1    2    0    0  0.81334420502E+02 -0.16945839652E+03 -0.73290397869E+03  0.76059618222E+03  0.77632946140E+02 0.  0.
        254    2    1    2    0    0 -0.81334420502E+02  0.16945839652E+03  0.87418708494E+03  0.12676495587E+04  0.89855489982E+03 0.  0.
         23    2    4    4    0    0 -0.16395159452E+03 -0.32893902629E+03  0.22613883962E+03  0.44089215659E+03  0.90366534715E+02 0.  0.
         23    2    4    4    0    0  0.82617174017E+02  0.49839742281E+03  0.64804824532E+03  0.82675740207E+03  0.91299973253E+02 0.  0.
          1    1    3    3  502    0 -0.90168227899E+01 -0.24700123468E+02 -0.47736182194E+02  0.54499011762E+02  0.00000000000E+00 0. -1.
         -4    1    3    3    0  502  0.90351243292E+02 -0.14475827305E+03 -0.68516779649E+03  0.70609717046E+03  0.00000000000E+00 0.  1.
         11    1    5    5    0    0 -0.99751268873E+02 -0.28019974182E+03  0.16897000933E+03  0.34207173957E+03  0.00000000000E+00 0.  1.
        -11    1    5    5    0    0 -0.64200325646E+02 -0.48739284467E+02  0.57168830289E+02  0.98820417020E+02  0.00000000000E+00 0. -1.
          3    1    6    6  503    0  0.55635443703E+01  0.25194745169E+02  0.79127829194E+01  0.26987781376E+02  0.00000000000E+00 0. -1.
         -3    1    6    6    0  503  0.77053629646E+02  0.47320267764E+03  0.64013546240E+03  0.79976962070E+03  0.00000000000E+00 0.  1.
<mgrwt>
<rscale>  0 0.20233190E+04</rscale>
<asrwt>0</asrwt>
<pdfrwt beam="1">  1        1 0.16688683E+00 0.20233190E+04</pdfrwt>
<pdfrwt beam="2">  1       -2 0.14515097E+00 0.20233190E+04</pdfrwt>
<totfact> 0.34538290E+00</totfact>
</mgrwt>
</event>
<event>
12    4  0.4381187E-008  0.1421350E+04  0.7818608E-02  0.8938508E-01
          1   -1    0    0  501    0  0.00000000000E+00  0.00000000000E+00  0.23857345047E+04  0.23857345047E+04  0.00000000000E+00 0. -1.
         -2   -1    0    0    0  501 -0.00000000000E+00 -0.00000000000E+00 -0.21169959204E+03  0.21169959204E+03  0.00000000000E+00 0.  1.
        -24    2    1    2    0    0 -0.35623759189E+02 -0.36545976319E+03  0.29131408048E+03  0.47567949265E+03  0.81099910679E+02 0.  0.
        254    2    1    2    0    0  0.35623759189E+02  0.36545976319E+03  0.18827208322E+04  0.21217546041E+04  0.90684892752E+03 0.  0.
         23    2    4    4    0    0  0.75760416898E+02  0.57274043272E+03  0.17724487855E+04  0.18663297081E+04  0.88547378415E+02 0.  0.
         23    2    4    4    0    0 -0.40136657709E+02 -0.20728066954E+03  0.11027204668E+03  0.25542489595E+03  0.92226492606E+02 0.  0.
          3    1    3    3  502    0  0.10845153748E+02 -0.18065345112E+03  0.17867814052E+03  0.25432098746E+03  0.00000000000E+00 0. -1.
         -4    1    3    3    0  502 -0.46468912938E+02 -0.18480631207E+03  0.11263593996E+03  0.22135850519E+03  0.00000000000E+00 0.  1.
         11    1    5    5    0    0  0.46780013373E+02  0.14296666188E+03  0.37668077256E+03  0.40560601632E+03  0.00000000000E+00 0.  1.
        -11    1    5    5    0    0  0.28980403526E+02  0.42977377084E+03  0.13957680129E+04  0.14607236918E+04  0.00000000000E+00 0. -1.
          4    1    6    6  503    0 -0.46684052163E+02 -0.19012086880E+03  0.64524206684E+02  0.20612791836E+03  0.00000000000E+00 0. -1.
         -4    1    6    6    0  503  0.65473944539E+01 -0.17159800738E+02  0.45747839999E+02  0.49296977595E+02  0.00000000000E+00 0.  1.
<mgrwt>
<rscale>  0 0.14213501E+04</rscale>
<asrwt>0</asrwt>
<pdfrwt beam="1">  1        1 0.36703606E+00 0.14213501E+04</pdfrwt>
<pdfrwt beam="2">  1       -2 0.32569170E-01 0.14213501E+04</pdfrwt>
<totfact> 0.12235388E+01</totfact>
</mgrwt>
</event>
<event>
12    4  0.4381187E-008  0.1869528E+04  0.7818608E-02  0.8670175E-01
         -2   -1    0    0    0  501 -0.00000000000E+00  0.00000000000E+00  0.84442610620E+03  0.84442610620E+03  0.00000000000E+00 0.  1.
          1   -1    0    0  501    0  0.00000000000E+00 -0.00000000000E+00 -0.10347664249E+04  0.10347664249E+04  0.00000000000E+00 0. -1.
        -24    2    1    2    0    0  0.51951359493E+03  0.49811392073E+03  0.81735451315E+02  0.72857420410E+03  0.78280480007E+02 0.  0.
        254    2    1    2    0    0 -0.51951359493E+03 -0.49811392073E+03 -0.27207577005E+03  0.11506183270E+04  0.85550304297E+03 0.  0.
         23    2    4    4    0    0 -0.61377646211E+03 -0.15365270858E+03 -0.40874636757E+03  0.75862365878E+03  0.90030896730E+02 0.  0.
         23    2    4    4    0    0  0.94262867184E+02 -0.34446121215E+03  0.13667059752E+03  0.39199466826E+03  0.86266754356E+02 0.  0.
          1    1    3    3  502    0  0.31071912806E+03  0.31472361359E+03  0.13731953457E+02  0.44247700058E+03  0.00000000000E+00 0. -1.
         -2    1    3    3    0  502  0.20879446686E+03  0.18339030714E+03  0.68003497858E+02  0.28609720353E+03  0.00000000000E+00 0.  1.
         11    1    5    5    0    0 -0.59460579182E+03 -0.14666591862E+03 -0.37189448681E+03  0.71650013864E+03  0.00000000000E+00 0. -1.
        -11    1    5    5    0    0 -0.19170670287E+02 -0.69867899559E+01 -0.36851880765E+02  0.42123520141E+02  0.00000000000E+00 0.  1.
          1    1    6    6  503    0  0.29286917022E+02 -0.18483732072E+02  0.78197376189E+01  0.35503804816E+02  0.00000000000E+00 0. -1.
         -1    1    6    6    0  503  0.64975950162E+02 -0.32597748008E+03  0.12885085990E+03  0.35649086344E+03  0.00000000000E+00 0.  1.
<mgrwt>
<rscale>  0 0.18695281E+04</rscale>
<asrwt>0</asrwt>
<pdfrwt beam="1">  1        1 0.15919483E+00 0.18695281E+04</pdfrwt>
<pdfrwt beam="2">  1       -2 0.12991171E+00 0.18695281E+04</pdfrwt>
<totfact> 0.50869022E+00</totfact>
</mgrwt>
</event>
<event>
12    4  0.4381187E-008  0.1793099E+04  0.7818608E-02  0.8709978E-01
         -2   -1    0    0    0  501 -0.00000000000E+00  0.00000000000E+00  0.47535190546E+03  0.47535190546E+03  0.00000000000E+00 0.  1.
          1   -1    0    0  501    0  0.00000000000E+00 -0.00000000000E+00 -0.16909593994E+04  0.16909593994E+04  0.00000000000E+00 0. -1.
        -24    2    1    2    0    0 -0.11452770123E+03  0.10356110764E+03 -0.12365477150E+04  0.12486840880E+04  0.79499702414E+02 0.  0.
        254    2    1    2    0    0  0.11452770123E+03 -0.10356110764E+03  0.20940221101E+02  0.91762721687E+03  0.90430067948E+03 0.  0.
         23    2    4    4    0    0 -0.42884940090E+02  0.25154155986E+03 -0.30058756530E+03  0.40521338731E+03  0.93449079308E+02 0.  0.
         23    2    4    4    0    0  0.15741264132E+03 -0.35510266750E+03  0.32152778640E+03  0.51241382955E+03  0.91165624978E+02 0.  0.
          1    1    3    3  502    0 -0.23099658060E+02  0.42288118770E+02 -0.65790435798E+03  0.65966660021E+03  0.00000000000E+00 0. -1.
         -2    1    3    3    0  502 -0.91428043174E+02  0.61272988867E+02 -0.57864335706E+03  0.58901748778E+03  0.00000000000E+00 0.  1.
         11    1    5    5    0    0 -0.34686005513E+02  0.34045769299E+02 -0.26959010258E+02  0.55578967422E+02  0.00000000000E+00 0.  1.
        -11    1    5    5    0    0 -0.81989345770E+01  0.21749579056E+03 -0.27362855504E+03  0.34963441989E+03  0.00000000000E+00 0. -1.
          4    1    6    6  503    0  0.14604545489E+03 -0.25867020367E+03  0.20595466089E+03  0.36146489664E+03  0.00000000000E+00 0. -1.
         -4    1    6    6    0  503  0.11367186432E+02 -0.96432463827E+02  0.11557312551E+03  0.15094893291E+03  0.00000000000E+00 0.  1.
<mgrwt>
<rscale>  0 0.17930987E+04</rscale>
<asrwt>0</asrwt>
<pdfrwt beam="1">  1        1 0.26014760E+00 0.17930987E+04</pdfrwt>
<pdfrwt beam="2">  1       -2 0.73131062E-01 0.17930987E+04</pdfrwt>
<totfact> 0.67649715E+00</totfact>
</mgrwt>
</event>
<event>
12    4  0.4381187E-008  0.1959824E+04  0.7818608E-02  0.8625638E-01
         -2   -1    0    0    0  501 -0.00000000000E+00  0.00000000000E+00  0.39315423422E+03  0.39315423422E+03  0.00000000000E+00 0.  1.
          1   -1    0    0  501    0  0.00000000000E+00 -0.00000000000E+00 -0.24423674501E+04  0.24423674501E+04  0.00000000000E+00 0. -1.
        -24    2    1    2    0    0 -0.15137348817E+03 -0.57063075402E+03 -0.10175878501E+03  0.60476726022E+03  0.82796125222E+02 0.  0.
        254    2    1    2    0    0  0.15137348817E+03  0.57063075402E+03 -0.19474544309E+04  0.22307544241E+04  0.91386714025E+03 0.  0.
         23    2    4    4    0    0  0.25549986676E+03  0.45318276620E+03 -0.37409131888E+03  0.64697515305E+03  0.89318152207E+02 0.  0.
         23    2    4    4    0    0 -0.10412637859E+03  0.11744798782E+03 -0.15733631120E+04  0.15837792711E+04  0.90823811255E+02 0.  0.
          3    1    3    3  502    0 -0.35283793740E+02 -0.24711872487E+03 -0.71841777284E+02  0.25975729296E+03  0.00000000000E+00 0. -1.
         -4    1    3    3    0  502 -0.11608969443E+03 -0.32351202915E+03 -0.29917007730E+02  0.34500996726E+03  0.00000000000E+00 0.  1.
         11    1    5    5    0    0  0.24502801710E+03  0.40224783381E+03 -0.30752905339E+03  0.56250881561E+03  0.00000000000E+00 0. -1.
        -11    1    5    5    0    0  0.10471849660E+02  0.50934932393E+02 -0.66562265491E+02  0.84466337440E+02  0.00000000000E+00 0.  1.
          1    1    6    6  503    0 -0.12068690379E+03  0.10358560406E+03 -0.13352497213E+04  0.13446884859E+04  0.00000000000E+00 0. -1.
         -1    1    6    6    0  503  0.16560525199E+02  0.13862383763E+02 -0.23811339078E+03  0.23909078516E+03  0.00000000000E+00 0.  1.
<mgrwt>
<rscale>  0 0.19598236E+04</rscale>
<asrwt>0</asrwt>
<pdfrwt beam="1">  1        1 0.37574884E+00 0.19598236E+04</pdfrwt>
<pdfrwt beam="2">  1       -2 0.60485267E-01 0.19598236E+04</pdfrwt>
<totfact> 0.30935301E+00</totfact>
</mgrwt>
</event>
<event>
12    4  0.4381187E-008  0.2101929E+04  0.7818608E-02  0.8560394E-01
         -2   -1    0    0    0  501 -0.00000000000E+00  0.00000000000E+00  0.47637201391E+03  0.47637201391E+03  0.00000000000E+00 0.  1.
          1   -1    0    0  501    0  0.00000000000E+00 -0.00000000000E+00 -0.23186211115E+04  0.23186211115E+04  0.00000000000E+00 0. -1.
        -24    2    1    2    0    0 -0.27216756923E+03  0.74159574250E+03 -0.11869283415E+04  0.14280774905E+04  0.81037028306E+02 0.  0.
        254    2    1    2    0    0  0.27216756923E+03 -0.74159574250E+03 -0.65532075605E+03  0.13669156349E+04  0.90275889836E+03 0.  0.
         23    2    4    4    0    0  0.95534596081E+02  0.11690294477E+03 -0.41858293641E+03  0.45434430152E+03  0.91781872527E+02 0.  0.
         23    2    4    4    0    0  0.17663297315E+03 -0.85849868727E+03 -0.23673781964E+03  0.91257133338E+03  0.92317062378E+02 0.  0.
          1    1    3    3  502    0 -0.23571295649E+03  0.59877977117E+03 -0.10127897115E+04  0.11999336698E+04  0.00000000000E+00 0. -1.
         -2    1    3    3    0  502 -0.36454612741E+02  0.14281597133E+03 -0.17413862999E+03  0.22814382067E+03  0.00000000000E+00 0.  1.
         11    1    5    5    0    0  0.76982583530E+02  0.12461611147E+03 -0.29748916772E+03  0.33159508186E+03  0.00000000000E+00 0. -1.
        -11    1    5    5    0    0  0.18552012551E+02 -0.77131667023E+01 -0.12109376869E+03  0.12274921966E+03  0.00000000000E+00 0.  1.
          4    1    6    6  503    0  0.36906949878E+02 -0.26818615995E+03 -0.11356371615E+03  0.29356882833E+03  0.00000000000E+00 0. -1.
         -4    1    6    6    0  503  0.13972602327E+03 -0.59031252732E+03 -0.12317410349E+03  0.61900250505E+03  0.00000000000E+00 0.  1.
<mgrwt>
<rscale>  0 0.21019288E+04</rscale>
<asrwt>0</asrwt>
<pdfrwt beam="1">  1        1 0.35671093E+00 0.21019288E+04</pdfrwt>
<pdfrwt beam="2">  1       -2 0.73288004E-01 0.21019288E+04</pdfrwt>
<totfact> 0.24536576E+00</totfact>
</mgrwt>
</event>
<event>
12    4  0.4381187E-008  0.1559197E+04  0.7818608E-02  0.8846015E-01
         -2   -1    0    0    0  501 -0.00000000000E+00  0.00000000000E+00  0.17706542438E+03  0.17706542438E+03  0.00000000000E+00 0.  1.
          1   -1    0    0  501    0  0.00000000000E+00 -0.00000000000E+00 -0.34324797955E+04  0.34324797955E+04  0.00000000000E+00 0. -1.
        -24    2    1    2    0    0 -0.28638844138E+03 -0.36670092352E+00 -0.21173828617E+04  0.21381406710E+04  0.79478752757E+02 0.  0.
        254    2    1    2    0    0  0.28638844138E+03  0.36670092352E+00 -0.11380315095E+04  0.14714045489E+04  0.88763571143E+03 0.  0.
         23    2    4    4    0    0  0.59095960857E+03  0.71207814127E+02 -0.81333461981E+03  0.10116676773E+04  0.87489850027E+02 0.  0.
         23    2    4    4    0    0 -0.30457116720E+03 -0.70841113203E+02 -0.32469688965E+03  0.45973687156E+03  0.90265506789E+02 0.  0.
          1    1    3    3  502    0 -0.24879975818E+03 -0.50527476897E+01 -0.15854635201E+04  0.16048742703E+04  0.00000000000E+00 0. -1.
         -2    1    3    3    0  502 -0.37588683198E+02  0.46860467661E+01 -0.53191934159E+03  0.53326640068E+03  0.00000000000E+00 0.  1.
         11    1    5    5    0    0  0.43121997256E+02 -0.76050475217E+01 -0.32331966957E+02  0.54430685118E+02  0.00000000000E+00 0. -1.
        -11    1    5    5    0    0  0.54783761132E+03  0.78812861649E+02 -0.78100265285E+03  0.95723699223E+03  0.00000000000E+00 0.  1.
          3    1    6    6  503    0 -0.11456131375E+02 -0.26466714439E+02 -0.33208597699E+02  0.43983415970E+02  0.00000000000E+00 0. -1.
         -3    1    6    6    0  503 -0.29311503582E+03 -0.44374398765E+02 -0.29148829195E+03  0.41575345559E+03  0.00000000000E+00 0.  1.
<mgrwt>
<rscale>  0 0.15591966E+04</rscale>
<asrwt>0</asrwt>
<pdfrwt beam="1">  1        1 0.52807383E+00 0.15591966E+04</pdfrwt>
<pdfrwt beam="2">  1       -2 0.27240833E-01 0.15591966E+04</pdfrwt>
<totfact> 0.29553481E+00</totfact>
</mgrwt>
</event>
<event>
12    4  0.4381187E-008  0.1458825E+04  0.7818608E-02  0.8912305E-01
          1   -1    0    0  501    0  0.00000000000E+00  0.00000000000E+00  0.75821262055E+03  0.75821262055E+03  0.00000000000E+00 0. -1.
         -2   -1    0    0    0  501 -0.00000000000E+00 -0.00000000000E+00 -0.70170596083E+03  0.70170596083E+03  0.00000000000E+00 0.  1.
        -24    2    1    2    0    0 -0.20018892211E+03 -0.11815212231E+02 -0.38157307422E+03  0.43836895765E+03  0.79712786198E+02 0.  0.
        254    2    1    2    0    0  0.20018892211E+03  0.11815212231E+02  0.43807973394E+03  0.10215496237E+04  0.90079663448E+03 0.  0.
         23    2    4    4    0    0 -0.47348445701E+02  0.11493026699E+03  0.64975582777E+03  0.66800951346E+03  0.92753613234E+02 0.  0.
         23    2    4    4    0    0  0.24753736782E+03 -0.10311505476E+03 -0.21167609384E+03  0.35354011027E+03  0.90974600227E+02 0.  0.
          3    1    3    3  502    0 -0.68938484243E+02 -0.25949564761E+01 -0.61936437108E+02  0.92711221815E+02  0.00000000000E+00 0. -1.
         -4    1    3    3    0  502 -0.13125043787E+03 -0.92202557554E+01 -0.31963663711E+03  0.34565773583E+03  0.00000000000E+00 0.  1.
         11    1    5    5    0    0 -0.28882988159E+02  0.22778544001E+02  0.56928751964E+02  0.67778845313E+02  0.00000000000E+00 0. -1.
        -11    1    5    5    0    0 -0.18465457542E+02  0.92151722992E+02  0.59282707581E+03  0.60023066815E+03  0.00000000000E+00 0.  1.
          3    1    6    6  503    0  0.22628350508E+03 -0.11989807209E+03 -0.19119323909E+03  0.31958508575E+03  0.00000000000E+00 0. -1.
         -3    1    6    6    0  503  0.21253862736E+02  0.16783017324E+02 -0.20482854749E+02  0.33955024524E+02  0.00000000000E+00 0.  1.
<mgrwt>
<rscale>  0 0.14588246E+04</rscale>
<asrwt>0</asrwt>
<pdfrwt beam="1">  1        1 0.11664810E+00 0.14588246E+04</pdfrwt>
<pdfrwt beam="2">  1       -2 0.10795476E+00 0.14588246E+04</pdfrwt>
<totfact> 0.14072137E+01</totfact>
</mgrwt>
</event>
<event>
12    4  0.4381187E-008  0.1685205E+04  0.7818608E-02  0.8769848E-01
         -2   -1    0    0    0  501 -0.00000000000E+00  0.00000000000E+00  0.38342568250E+03  0.38342568250E+03  0.00000000000E+00 0.  1.
          1   -1    0    0  501    0  0.00000000000E+00 -0.00000000000E+00 -0.18516729859E+04  0.18516729859E+04  0.00000000000E+00 0. -1.
        -24    2    1    2    0    0 -0.39921135852E+03 -0.37269060189E+02 -0.11365801294E+04  0.12079633920E+04  0.81255610663E+02 0.  0.
        254    2    1    2    0    0  0.39921135852E+03  0.37269060189E+02 -0.33166717400E+03  0.10271352764E+04  0.88557612325E+03 0.  0.
         23    2    4    4    0    0  0.61704565095E+03 -0.10359722942E+03 -0.52621859545E+02  0.63471583060E+03  0.92829974802E+02 0.  0.
         23    2    4    4    0    0 -0.21783429242E+03  0.14086628961E+03 -0.27904531446E+03  0.39241944579E+03  0.93976823787E+02 0.  0.
          1    1    3    3  502    0 -0.33595247810E+03 -0.57301375941E+01 -0.88483170089E+03  0.94647981538E+03  0.00000000000E+00 0. -1.
         -2    1    3    3    0  502 -0.63258880428E+02 -0.31538922595E+02 -0.25174842846E+03  0.26148357659E+03  0.00000000000E+00 0.  1.
         11    1    5    5    0    0  0.12064140000E+03 -0.49811805189E+02 -0.34837411070E+02  0.13508963150E+03  0.00000000000E+00 0. -1.
        -11    1    5    5    0    0  0.49640425095E+03 -0.53785424226E+02 -0.17784448474E+02  0.49962619910E+03  0.00000000000E+00 0.  1.
          4    1    6    6  503    0 -0.22686188267E+02 -0.82360962861E+01 -0.54691607619E+02  0.59780166979E+02  0.00000000000E+00 0. -1.
         -4    1    6    6    0  503 -0.19514810415E+03  0.14910238589E+03 -0.22435370684E+03  0.33263927881E+03  0.00000000000E+00 0.  1.
<mgrwt>
<rscale>  0 0.16852050E+04</rscale>
<asrwt>0</asrwt>
<pdfrwt beam="1">  1        1 0.28487276E+00 0.16852050E+04</pdfrwt>
<pdfrwt beam="2">  1       -2 0.58988567E-01 0.16852050E+04</pdfrwt>
<totfact> 0.84387677E+00</totfact>
</mgrwt>
</event>
<event>
12    4  0.4381187E-008  0.1191738E+04  0.7818608E-02  0.9120119E-01
         -2   -1    0    0    0  501 -0.00000000000E+00  0.00000000000E+00  0.10720904420E+04  0.10720904420E+04  0.00000000000E+00 0.  1.
          1   -1    0    0  501    0  0.00000000000E+00 -0.00000000000E+00 -0.33118440973E+03  0.33118440973E+03  0.00000000000E+00 0. -1.
        -24    2    1    2    0    0 -0.90201828968E+02 -0.46150160450E+01  0.44280552088E+03  0.45860742733E+03  0.78015221295E+02 0.  0.
        254    2    1    2    0    0  0.90201828968E+02  0.46150160450E+01  0.29810051137E+03  0.94466742438E+03  0.89183796706E+03 0.  0.
         23    2    4    4    0    0 -0.19269710354E+03 -0.18489530912E+03  0.47314335492E+03  0.55120436983E+03  0.92968671997E+02 0.  0.
         23    2    4    4    0    0  0.28289893251E+03  0.18951032516E+03 -0.17504284354E+03  0.39346305455E+03  0.90703962741E+02 0.  0.
          3    1    3    3  502    0  0.34011591149E+01 -0.17312797968E+02  0.27339265210E+02  0.32538227964E+02  0.00000000000E+00 0. -1.
         -4    1    3    3    0  502 -0.93602988083E+02  0.12697781923E+02  0.41546625567E+03  0.42606919936E+03  0.00000000000E+00 0.  1.
         11    1    5    5    0    0 -0.46491895985E+02 -0.32777047507E+01  0.52011435566E+02  0.69838593703E+02  0.00000000000E+00 0. -1.
        -11    1    5    5    0    0 -0.14620520756E+03 -0.18161760437E+03  0.42113191935E+03  0.48136577613E+03  0.00000000000E+00 0.  1.
          3    1    6    6  503    0  0.88688475214E+02  0.78852124647E+02 -0.17401661221E+02  0.11994215694E+03  0.00000000000E+00 0. -1.
         -3    1    6    6    0  503  0.19421045730E+03  0.11065820052E+03 -0.15764118232E+03  0.27352089761E+03  0.00000000000E+00 0.  1.
<mgrwt>
<rscale>  0 0.11917376E+04</rscale>
<asrwt>0</asrwt>
<pdfrwt beam="1">  1        1 0.50951448E-01 0.11917376E+04</pdfrwt>
<pdfrwt beam="2">  1       -2 0.16493699E+00 0.11917376E+04</pdfrwt>
<totfact> 0.15415130E+01</totfact>
</mgrwt>
</event>
<event>
12    4  0.4381187E-008  0.1342778E+04  0.7818608E-02  0.8996313E-01
          1   -1    0    0  501    0  0.00000000000E+00  0.00000000000E+00  0.46581776918E+03  0.46581776918E+03  0.00000000000E+00 0. -1.
         -2   -1    0    0    0  501 -0.00000000000E+00 -0.00000000000E+00 -0.96768157205E+03  0.96768157205E+03  0.00000000000E+00 0.  1.
        -24    2    1    2    0    0 -0.11784693820E+03 -0.22664806864E+03 -0.41290341848E+03  0.49198472228E+03  0.79388198718E+02 0.  0.
        254    2    1    2    0    0  0.11784693820E+03  0.22664806864E+03 -0.88960384386E+02  0.94151461895E+03  0.90181959385E+03 0.  0.
         23    2    4    4    0    0  0.36535710673E+03  0.19441080177E+03  0.26432725165E+03  0.49956836831E+03  0.91751203656E+02 0.  0.
         23    2    4    4    0    0 -0.24751016852E+03  0.32237266864E+02 -0.35328763603E+03  0.44194625064E+03  0.90574884960E+02 0.  0.
          3    1    3    3  502    0  0.70595968507E+01 -0.31104035128E+02 -0.80668831340E+02  0.86745370244E+02  0.00000000000E+00 0. -1.
         -4    1    3    3    0  502 -0.12490653506E+03 -0.19554403351E+03 -0.33223458714E+03  0.40523935203E+03  0.00000000000E+00 0.  1.
         11    1    5    5    0    0  0.27090160191E+03  0.17739544367E+03  0.17321888317E+03  0.36723507844E+03  0.00000000000E+00 0. -1.
        -11    1    5    5    0    0  0.94455504823E+02  0.17015358108E+02  0.91108368474E+02  0.13233328987E+03  0.00000000000E+00 0.  1.
          4    1    6    6  503    0 -0.23088220428E+03  0.78537413959E+01 -0.28038443351E+03  0.36329561525E+03  0.00000000000E+00 0. -1.
         -4    1    6    6    0  503 -0.16627964244E+02  0.24383525468E+02 -0.72903202521E+02  0.78650635389E+02  0.00000000000E+00 0.  1.
<mgrwt>
<rscale>  0 0.13427781E+04</rscale>
<asrwt>0</asrwt>
<pdfrwt beam="1">  1        1 0.71664273E-01 0.13427781E+04</pdfrwt>
<pdfrwt beam="2">  1       -2 0.14887409E+00 0.13427781E+04</pdfrwt>
<totfact> 0.12774065E+01</totfact>
</mgrwt>
</event>
<event>
12    4  0.4381187E-008  0.1406724E+04  0.7818608E-02  0.8948966E-01
          1   -1    0    0  501    0  0.00000000000E+00  0.00000000000E+00  0.80605439557E+03  0.80605439557E+03  0.00000000000E+00 0. -1.
         -2   -1    0    0    0  501 -0.00000000000E+00 -0.00000000000E+00 -0.61375263014E+03  0.61375263014E+03  0.00000000000E+00 0.  1.
        -24    2    1    2    0    0 -0.24099166980E+03 -0.24338072981E+03 -0.14615861821E+03  0.38067993932E+03  0.79017149848E+02 0.  0.
        254    2    1    2    0    0  0.24099166980E+03  0.24338072981E+03  0.33846038363E+03  0.10391270864E+04  0.92082490508E+03 0.  0.
         23    2    4    4    0    0  0.22589953694E+03  0.64298537371E+02  0.63373521717E+03  0.68188639682E+03  0.90464523419E+02 0.  0.
         23    2    4    4    0    0  0.15092132863E+02  0.17908219244E+03 -0.29527483353E+03  0.35724068956E+03  0.90196889296E+02 0.  0.
          3    1    3    3  502    0 -0.32326464323E+02 -0.75708149217E+01  0.76932144693E+00  0.33210079640E+02  0.00000000000E+00 0. -1.
         -4    1    3    3    0  502 -0.20866520548E+03 -0.23580991489E+03 -0.14692793966E+03  0.34746985968E+03  0.00000000000E+00 0.  1.
         11    1    5    5    0    0  0.17416384686E+03  0.85735596856E+02  0.45790922269E+03  0.49735751160E+03  0.00000000000E+00 0. -1.
        -11    1    5    5    0    0  0.51735690073E+02 -0.21437059485E+02  0.17582599448E+03  0.18452888522E+03  0.00000000000E+00 0.  1.
          3    1    6    6  503    0 -0.98850932000E+01  0.11686729129E+03 -0.25057172173E+03  0.27666200782E+03  0.00000000000E+00 0. -1.
         -3    1    6    6    0  503  0.24977226063E+02  0.62214901148E+02 -0.44703111809E+02  0.80578681747E+02  0.00000000000E+00 0.  1.
<mgrwt>
<rscale>  0 0.14067239E+04</rscale>
<asrwt>0</asrwt>
<pdfrwt beam="1">  1        1 0.12400837E+00 0.14067239E+04</pdfrwt>
<pdfrwt beam="2">  1       -2 0.94423482E-01 0.14067239E+04</pdfrwt>
<totfact> 0.17631058E+01</totfact>
</mgrwt>
</event>
<event>
12    4  0.4381187E-008  0.1278412E+04  0.7818608E-02  0.9046862E-01
         -2   -1    0    0    0  501 -0.00000000000E+00  0.00000000000E+00  0.24326504548E+03  0.24326504548E+03  0.00000000000E+00 0.  1.
          1   -1    0    0  501    0  0.00000000000E+00 -0.00000000000E+00 -0.16795846718E+04  0.16795846718E+04  0.00000000000E+00 0. -1.
        -24    2    1    2    0    0  0.29763146147E+03  0.41229528535E+02 -0.43927906028E+03  0.53921891067E+03  0.86640521325E+02 0.  0.
        254    2    1    2    0    0 -0.29763146147E+03 -0.41229528535E+02 -0.99704056599E+03  0.13836308066E+04  0.91107626342E+03 0.  0.
         23    2    4    4    0    0 -0.35119967325E+03  0.36403551009E+03 -0.38646043669E+03  0.64329193187E+03  0.92788886126E+02 0.  0.
         23    2    4    4    0    0  0.53568211772E+02 -0.40526503862E+03 -0.61058012930E+03  0.74033887470E+03  0.90466846150E+02 0.  0.
          3    1    3    3  502    0  0.14523679868E+03 -0.20102180961E+02 -0.23631902405E+03  0.27810880334E+03  0.00000000000E+00 0. -1.
         -4    1    3    3    0  502  0.15239466280E+03  0.61331709496E+02 -0.20296003624E+03  0.26111010733E+03  0.00000000000E+00 0.  1.
         11    1    5    5    0    0 -0.34430609185E+03  0.35600312454E+03 -0.35297817913E+03  0.60817637615E+03  0.00000000000E+00 0. -1.
        -11    1    5    5    0    0 -0.68935813931E+01  0.80323855495E+01 -0.33482257558E+02  0.35115555716E+02  0.00000000000E+00 0.  1.
          4    1    6    6  503    0  0.73823012898E+02 -0.28675876750E+03 -0.46834079538E+03  0.55409703897E+03  0.00000000000E+00 0. -1.
         -4    1    6    6    0  503 -0.20254801125E+02 -0.11850627112E+03 -0.14223933391E+03  0.18624183573E+03  0.00000000000E+00 0.  1.
<mgrwt>
<rscale>  0 0.12784119E+04</rscale>
<asrwt>0</asrwt>
<pdfrwt beam="1">  1        1 0.25839764E+00 0.12784119E+04</pdfrwt>
<pdfrwt beam="2">  1       -2 0.37425392E-01 0.12784119E+04</pdfrwt>
<totfact> 0.28626122E+01</totfact>
</mgrwt>
</event>
<event>
12    4  0.4381187E-008  0.1590866E+04  0.7818608E-02  0.8826179E-01
         -2   -1    0    0    0  501 -0.00000000000E+00  0.00000000000E+00  0.38590953685E+03  0.38590953685E+03  0.00000000000E+00 0.  1.
          1   -1    0    0  501    0  0.00000000000E+00 -0.00000000000E+00 -0.16395386153E+04  0.16395386153E+04  0.00000000000E+00 0. -1.
        -24    2    1    2    0    0  0.11241565045E+03 -0.18869393053E+03  0.18997828907E+03  0.30157365585E+03  0.81315691597E+02 0.  0.
        254    2    1    2    0    0 -0.11241565045E+03  0.18869393053E+03 -0.14436073675E+04  0.17238744963E+04  0.91624143628E+03 0.  0.
         23    2    4    4    0    0  0.20043851428E+03 -0.26276723649E+03 -0.81314063335E+03  0.88274567639E+03  0.93914966939E+02 0.  0.
         23    2    4    4    0    0 -0.31285416473E+03  0.45146116701E+03 -0.63046673414E+03  0.84112881988E+03  0.91183743415E+02 0.  0.
          3    1    3    3  502    0  0.59128684773E+02 -0.32671593745E+02  0.38918012695E+02  0.77963107384E+02  0.00000000000E+00 0. -1.
         -4    1    3    3    0  502  0.53286965677E+02 -0.15602233678E+03  0.15106027638E+03  0.22361054847E+03  0.00000000000E+00 0.  1.
         11    1    5    5    0    0  0.45693458650E+02 -0.15871073460E+02 -0.16858839035E+03  0.17539050287E+03  0.00000000000E+00 0. -1.
        -11    1    5    5    0    0  0.15474505563E+03 -0.24689616303E+03 -0.64455224300E+03  0.70735517352E+03  0.00000000000E+00 0.  1.
          4    1    6    6  503    0 -0.20444755797E+03  0.36147872594E+03 -0.45330937067E+03  0.61478049644E+03  0.00000000000E+00 0.  1.
         -4    1    6    6    0  503 -0.10840660676E+03  0.89982441071E+02 -0.17715736347E+03  0.22634832344E+03  0.00000000000E+00 0. -1.
<mgrwt>
<rscale>  0 0.15908659E+04</rscale>
<asrwt>0</asrwt>
<pdfrwt beam="1">  1        1 0.25223670E+00 0.15908659E+04</pdfrwt>
<pdfrwt beam="2">  1       -2 0.59370699E-01 0.15908659E+04</pdfrwt>
<totfact> 0.11700133E+01</totfact>
</mgrwt>
</event>
<event>
12    4  0.4381187E-008  0.1580667E+04  0.7818608E-02  0.8832514E-01
          3   -1    0    0  501    0  0.00000000000E+00  0.00000000000E+00  0.86041663846E+03  0.86041663846E+03  0.00000000000E+00 0. -1.
         -4   -1    0    0    0  501 -0.00000000000E+00 -0.00000000000E+00 -0.72595858894E+03  0.72595858894E+03  0.00000000000E+00 0.  1.
        -24    2    1    2    0    0  0.38744742528E+03 -0.29464086037E+02  0.40149768894E+03  0.56500501510E+03  0.83944226400E+02 0.  0.
        254    2    1    2    0    0 -0.38744742528E+03  0.29464086037E+02 -0.26703963942E+03  0.10213702123E+04  0.90603714152E+03 0.  0.
         23    2    4    4    0    0 -0.42499586511E+02 -0.21680325382E+03 -0.48119442338E+03  0.53771380168E+03  0.93692015194E+02 0.  0.
         23    2    4    4    0    0 -0.34494783877E+03  0.24626733986E+03  0.21415478395E+03  0.48365641061E+03  0.91785826179E+02 0.  0.
          3    1    3    3  502    0  0.40221255187E+02 -0.13208033217E+02  0.84722574462E+02  0.94710697040E+02  0.00000000000E+00 0. -1.
         -4    1    3    3    0  502  0.34722617009E+03 -0.16256052820E+02  0.31677511448E+03  0.47029431806E+03  0.00000000000E+00 0.  1.
         11    1    5    5    0    0 -0.24000165420E+00 -0.88931886223E+02 -0.10205845269E+03  0.13536936785E+03  0.00000000000E+00 0. -1.
        -11    1    5    5    0    0 -0.42259584857E+02 -0.12787136760E+03 -0.37913597069E+03  0.40234443383E+03  0.00000000000E+00 0.  1.
          2    1    6    6  503    0 -0.14386941270E+02  0.42749803464E+02  0.28517164978E+02  0.53364393313E+02  0.00000000000E+00 0. -1.
         -2    1    6    6    0  503 -0.33056089750E+03  0.20351753639E+03  0.18563761897E+03  0.43029201730E+03  0.00000000000E+00 0.  1.
<mgrwt>
<rscale>  0 0.15806668E+04</rscale>
<asrwt>0</asrwt>
<pdfrwt beam="1">  1        3 0.13237179E+00 0.15806668E+04</pdfrwt>
<pdfrwt beam="2">  1       -4 0.11168594E+00 0.15806668E+04</pdfrwt>
<totfact> 0.61794258E-01</totfact>
</mgrwt>
</event>
<event>
12    4  0.4381187E-008  0.2770215E+04  0.7818608E-02  0.8312576E-01
         -2   -1    0    0    0  501 -0.00000000000E+00  0.00000000000E+00  0.19344342110E+04  0.19344342110E+04  0.00000000000E+00 0.  1.
          1   -1    0    0  501    0  0.00000000000E+00 -0.00000000000E+00 -0.99177432503E+03  0.99177432503E+03  0.00000000000E+00 0. -1.
        -24    2    1    2    0    0  0.83832417997E+03 -0.48264829229E+03  0.12231998654E+04  0.15618067976E+04  0.85356649896E+02 0.  0.
        254    2    1    2    0    0 -0.83832417997E+03  0.48264829229E+03 -0.28053997936E+03  0.13644017384E+04  0.92040894122E+03 0.  0.
         23    2    4    4    0    0  0.11200394507E+03 -0.84800496596E+02 -0.18535291899E+03  0.24984762231E+03  0.91280457191E+02 0.  0.
         23    2    4    4    0    0 -0.95032812504E+03  0.56744878889E+03 -0.95187060377E+02  0.11145541161E+04  0.89714146439E+02 0.  0.
          1    1    3    3  502    0  0.18486414745E+03 -0.11211427082E+03  0.21920285782E+03  0.30788675777E+03  0.00000000000E+00 0. -1.
         -2    1    3    3    0  502  0.65346003252E+03 -0.37053402147E+03  0.10039970076E+04  0.12539200399E+04  0.00000000000E+00 0.  1.
         11    1    5    5    0    0  0.66993202094E+02 -0.89231381383E+02 -0.16741561078E+03  0.20119223465E+03  0.00000000000E+00 0. -1.
        -11    1    5    5    0    0  0.45010742975E+02  0.44308847871E+01 -0.17937308209E+02  0.48655387666E+02  0.00000000000E+00 0.  1.
          4    1    6    6  503    0 -0.25252874318E+03  0.13595485441E+03  0.12562528886E+02  0.28707543556E+03  0.00000000000E+00 0. -1.
         -4    1    6    6    0  503 -0.69779938186E+03  0.43149393448E+03 -0.10774958926E+03  0.82747868058E+03  0.00000000000E+00 0.  1.
<mgrwt>
<rscale>  0 0.27702146E+04</rscale>
<asrwt>0</asrwt>
<pdfrwt beam="1">  1        1 0.15258067E+00 0.27702146E+04</pdfrwt>
<pdfrwt beam="2">  1       -2 0.29760526E+00 0.27702146E+04</pdfrwt>
<totfact> 0.38442672E-01</totfact>
</mgrwt>
</event>
<event>
12    4  0.4381187E-008  0.1381882E+04  0.7818608E-02  0.8967038E-01
          1   -1    0    0  501    0  0.00000000000E+00  0.00000000000E+00  0.16926017547E+04  0.16926017547E+04  0.00000000000E+00 0. -1.
         -2   -1    0    0    0  501 -0.00000000000E+00 -0.00000000000E+00 -0.28205084178E+03  0.28205084178E+03  0.00000000000E+00 0.  1.
        -24    2    1    2    0    0  0.36724123838E+03 -0.29808608940E+02  0.34102686401E+03  0.50813903448E+03  0.78430071071E+02 0.  0.
        254    2    1    2    0    0 -0.36724123838E+03  0.29808608940E+02  0.10695240489E+04  0.14665135620E+04  0.93328755271E+03 0.  0.
         23    2    4    4    0    0  0.13531622784E+02  0.41607155232E+03  0.29685805086E+03  0.51803718571E+03  0.83301752403E+02 0.  0.
         23    2    4    4    0    0 -0.38077286117E+03 -0.38626294338E+03  0.77266599807E+03  0.94847637632E+03  0.91693285669E+02 0.  0.
          3    1    3    3  502    0  0.19703877225E+03 -0.31481097143E+02  0.23199379241E+03  0.30600074667E+03  0.00000000000E+00 0. -1.
         -4    1    3    3    0  502  0.17020246613E+03  0.16724882034E+01  0.10903307160E+03  0.20213828780E+03  0.00000000000E+00 0.  1.
         11    1    5    5    0    0  0.36669014910E+02  0.23510999083E+03  0.13180038748E+03  0.27201593075E+03  0.00000000000E+00 0. -1.
        -11    1    5    5    0    0 -0.23137392127E+02  0.18096156149E+03  0.16505766338E+03  0.24602125496E+03  0.00000000000E+00 0.  1.
          3    1    6    6  503    0 -0.83909932092E+02 -0.37404195229E+02  0.13733049902E+03  0.16522595585E+03  0.00000000000E+00 0. -1.
         -3    1    6    6    0  503 -0.29686292907E+03 -0.34885874815E+03  0.63533549904E+03  0.78325042047E+03  0.00000000000E+00 0.  1.
<mgrwt>
<rscale>  0 0.13818824E+04</rscale>
<asrwt>0</asrwt>
<pdfrwt beam="1">  1        1 0.26040026E+00 0.13818824E+04</pdfrwt>
<pdfrwt beam="2">  1       -2 0.43392438E-01 0.13818824E+04</pdfrwt>
<totfact> 0.20812411E+01</totfact>
</mgrwt>
</event>
<event>
12    4  0.4381187E-008  0.1309160E+04  0.7818608E-02  0.9022332E-01
         -2   -1    0    0    0  501 -0.00000000000E+00  0.00000000000E+00  0.38446215958E+03  0.38446215958E+03  0.00000000000E+00 0.  1.
          1   -1    0    0  501    0  0.00000000000E+00 -0.00000000000E+00 -0.11144793487E+04  0.11144793487E+04  0.00000000000E+00 0. -1.
        -24    2    1    2    0    0 -0.18576071929E+03  0.19672633516E+03 -0.43082136951E+03  0.51485716856E+03  0.79136311576E+02 0.  0.
        254    2    1    2    0    0  0.18576071929E+03 -0.19672633516E+03 -0.29919581961E+03  0.98408433973E+03  0.89760545534E+03 0.  0.
         23    2    4    4    0    0  0.28557270821E+03  0.24572848181E+03 -0.34417330833E+03  0.51819531061E+03  0.90204519388E+02 0.  0.
         23    2    4    4    0    0 -0.99811988922E+02 -0.44245481697E+03  0.44977488720E+02  0.46588902912E+03  0.96441250343E+02 0.  0.
          3    1    3    3  502    0 -0.30758729582E+01  0.42974764618E+02 -0.69268681791E+02  0.81574761204E+02  0.00000000000E+00 0. -1.
         -4    1    3    3    0  502 -0.18268484633E+03  0.15375157054E+03 -0.36155268772E+03  0.43328240735E+03  0.00000000000E+00 0.  1.
         11    1    5    5    0    0  0.10967771716E+03  0.52413464577E+02 -0.14730448521E+03  0.19098425138E+03  0.00000000000E+00 0.  1.
        -11    1    5    5    0    0  0.17589499105E+03  0.19331501724E+03 -0.19686882312E+03  0.32721105923E+03  0.00000000000E+00 0. -1.
          4    1    6    6  503    0 -0.11688579901E+03 -0.41502102782E+03  0.38054775764E+02  0.43284282309E+03  0.00000000000E+00 0. -1.
         -4    1    6    6    0  503  0.17073810089E+02 -0.27433789154E+02  0.69227129556E+01  0.33046206030E+02  0.00000000000E+00 0.  1.
<mgrwt>
<rscale>  0 0.13091602E+04</rscale>
<asrwt>0</asrwt>
<pdfrwt beam="1">  1        1 0.17145835E+00 0.13091602E+04</pdfrwt>
<pdfrwt beam="2">  1       -2 0.59148027E-01 0.13091602E+04</pdfrwt>
<totfact> 0.28418242E+01</totfact>
</mgrwt>
</event>
<event>
12    4  0.4381187E-008  0.1316505E+04  0.7818608E-02  0.9016578E-01
         -4   -1    0    0    0  501 -0.00000000000E+00  0.00000000000E+00  0.37910141057E+03  0.37910141057E+03  0.00000000000E+00 0.  1.
          3   -1    0    0  501    0  0.00000000000E+00 -0.00000000000E+00 -0.11429565991E+04  0.11429565991E+04  0.00000000000E+00 0. -1.
        -24    2    1    2    0    0  0.14450313190E+03  0.13235409008E+03  0.11649083984E+03  0.24373856642E+03  0.86253189521E+02 0.  0.
        254    2    1    2    0    0 -0.14450313190E+03 -0.13235409008E+03 -0.88034602833E+03  0.12783194432E+04  0.90592091764E+03 0.  0.
         23    2    4    4    0    0 -0.36966850028E+03  0.22001042701E+03 -0.22710545184E+03  0.49600269922E+03  0.96862806513E+02 0.  0.
         23    2    4    4    0    0  0.22516536838E+03 -0.35236451708E+03 -0.65324057650E+03  0.78231674400E+03  0.10215694371E+03 0.  0.
          3    1    3    3  502    0  0.88671264745E+02  0.67310456736E+02  0.17334537979E+02  0.11266666315E+03  0.00000000000E+00 0. -1.
         -4    1    3    3    0  502  0.55831867158E+02  0.65043633342E+02  0.99156301859E+02  0.13107190327E+03  0.00000000000E+00 0.  1.
         11    1    5    5    0    0 -0.10557749775E+03  0.53353827430E+02 -0.16728723374E+02  0.11947003439E+03  0.00000000000E+00 0. -1.
        -11    1    5    5    0    0 -0.26409100253E+03  0.16665659958E+03 -0.21037672846E+03  0.37653266482E+03  0.00000000000E+00 0.  1.
          1    1    6    6  503    0  0.86590000707E+02 -0.96701000363E+02 -0.28442720484E+03  0.31264636020E+03  0.00000000000E+00 0. -1.
         -1    1    6    6    0  503  0.13857536767E+03 -0.25566351672E+03 -0.36881337165E+03  0.46967038380E+03  0.00000000000E+00 0.  1.
<mgrwt>
<rscale>  0 0.13165052E+04</rscale>
<asrwt>0</asrwt>
<pdfrwt beam="1">  1        3 0.17583948E+00 0.13165052E+04</pdfrwt>
<pdfrwt beam="2">  1       -4 0.58323294E-01 0.13165052E+04</pdfrwt>
<totfact> 0.13241040E+00</totfact>
</mgrwt>
</event>
<event>
12    4  0.4381187E-008  0.1224974E+04  0.7818608E-02  0.9091274E-01
         -2   -1    0    0    0  501 -0.00000000000E+00  0.00000000000E+00  0.95047039652E+03  0.95047039652E+03  0.00000000000E+00 0.  1.
          1   -1    0    0  501    0  0.00000000000E+00 -0.00000000000E+00 -0.39468881988E+03  0.39468881988E+03  0.00000000000E+00 0. -1.
        -24    2    1    2    0    0  0.17814191284E+02 -0.10938410484E+03 -0.14670042699E+03  0.19921346556E+03  0.76699164127E+02 0.  0.
        254    2    1    2    0    0 -0.17814191284E+02  0.10938410484E+03  0.70248200363E+03  0.11459457509E+04  0.89857023691E+03 0.  0.
         23    2    4    4    0    0  0.39954941762E+03  0.21842555383E+03  0.36107902736E+03  0.58829124289E+03  0.91427910215E+02 0.  0.
         23    2    4    4    0    0 -0.41736360891E+03 -0.10904144899E+03  0.34140297627E+03  0.55765450797E+03  0.91324358260E+02 0.  0.
          3    1    3    3  502    0  0.43962734696E+02 -0.83447995403E+02 -0.83034733982E+02  0.12566247263E+03  0.00000000000E+00 0. -1.
         -4    1    3    3    0  502 -0.26148543412E+02 -0.25936109435E+02 -0.63665693005E+02  0.73550992930E+02  0.00000000000E+00 0.  1.
         11    1    5    5    0    0  0.38887851578E+03  0.19252740285E+03  0.35230626269E+03  0.55893917702E+03  0.00000000000E+00 0. -1.
        -11    1    5    5    0    0  0.10670901841E+02  0.25898150979E+02  0.87727646770E+01  0.29352065861E+02  0.00000000000E+00 0.  1.
          4    1    6    6  503    0 -0.40083000463E+03 -0.92817753368E+02  0.34117314465E+03  0.53448942233E+03  0.00000000000E+00 0. -1.
         -4    1    6    6    0  503 -0.16533604280E+02 -0.16223695623E+02  0.22983162172E+00  0.23165085640E+02  0.00000000000E+00 0.  1.
<mgrwt>
<rscale>  0 0.12249735E+04</rscale>
<asrwt>0</asrwt>
<pdfrwt beam="1">  1        1 0.60721357E-01 0.12249735E+04</pdfrwt>
<pdfrwt beam="2">  1       -2 0.14622621E+00 0.12249735E+04</pdfrwt>
<totfact> 0.16879394E+01</totfact>
</mgrwt>
</event>
<event>
12    4  0.4381187E-008  0.1339915E+04  0.7818608E-02  0.8998498E-01
         -2   -1    0    0    0  501 -0.00000000000E+00  0.00000000000E+00  0.19994134640E+03  0.19994134640E+03  0.00000000000E+00 0.  1.
          1   -1    0    0  501    0  0.00000000000E+00 -0.00000000000E+00 -0.22448737191E+04  0.22448737191E+04  0.00000000000E+00 0. -1.
        -24    2    1    2    0    0  0.16879336897E+03 -0.34234104761E+02  0.28576193445E+02  0.19216969961E+03  0.80308276524E+02 0.  0.
        254    2    1    2    0    0 -0.16879336897E+03  0.34234104761E+02 -0.20735085661E+04  0.22526453659E+04  0.86331349769E+03 0.  0.
         23    2    4    4    0    0 -0.23868538611E+03 -0.37483383296E+03 -0.11532451696E+04  0.12386959766E+04  0.83199672107E+02 0.  0.
         23    2    4    4    0    0  0.69892017141E+02  0.40906793772E+03 -0.92026339654E+03  0.10139493893E+04  0.94800702763E+02 0.  0.
          3    1    3    3  502    0  0.30174079900E+02 -0.25961274466E+02 -0.20642404370E+02  0.44839399281E+02  0.00000000000E+00 0. -1.
         -4    1    3    3    0  502  0.13861928907E+03 -0.82728302943E+01  0.49218597815E+02  0.14733030032E+03  0.00000000000E+00 0.  1.
         11    1    5    5    0    0  0.55891190446E+01 -0.13722256092E+01 -0.17662703194E+02  0.18576661135E+02  0.00000000000E+00 0.  1.
        -11    1    5    5    0    0 -0.24427450515E+03 -0.37346160735E+03 -0.11355824664E+04  0.12201193155E+04  0.00000000000E+00 0. -1.
          4    1    6    6  503    0  0.74374945698E+01  0.28052592823E+03 -0.56007964346E+03  0.62644977432E+03  0.00000000000E+00 0. -1.
         -4    1    6    6    0  503  0.62454522571E+02  0.12854200949E+03 -0.36018375309E+03  0.38749961494E+03  0.00000000000E+00 0.  1.
<mgrwt>
<rscale>  0 0.13399150E+04</rscale>
<asrwt>0</asrwt>
<pdfrwt beam="1">  1        1 0.34536521E+00 0.13399150E+04</pdfrwt>
<pdfrwt beam="2">  1       -2 0.30760205E-01 0.13399150E+04</pdfrwt>
<totfact> 0.17125084E+01</totfact>
</mgrwt>
</event>
<event>
12    4  0.4381187E-008  0.1059982E+04  0.7818608E-02  0.9245099E-01
          1   -1    0    0  501    0  0.00000000000E+00  0.00000000000E+00  0.29823338452E+04  0.29823338452E+04  0.00000000000E+00 0. -1.
         -2   -1    0    0    0  501 -0.00000000000E+00 -0.00000000000E+00 -0.94184771831E+02  0.94184771831E+02  0.00000000000E+00 0.  1.
        -24    2    1    2    0    0  0.86818336332E+02 -0.58968159053E+02  0.20404534264E+03  0.24294019898E+03  0.79817110443E+02 0.  0.
        254    2    1    2    0    0 -0.86818336332E+02  0.58968159053E+02  0.26841037307E+04  0.28335784180E+04  0.90207491188E+03 0.  0.
         23    2    4    4    0    0  0.55481589434E+02  0.18629247139E+03  0.93929580602E+02  0.23476524441E+03  0.92243494142E+02 0.  0.
         23    2    4    4    0    0 -0.14229992577E+03 -0.12732431233E+03  0.25901741501E+04  0.25988131736E+04  0.91471493473E+02 0.  0.
          3    1    3    3  502    0  0.92173612545E+01  0.29101108791E+01  0.94996099444E+02  0.95486582321E+02  0.00000000000E+00 0. -1.
         -4    1    3    3    0  502  0.77600975077E+02 -0.61878269932E+02  0.10904924320E+03  0.14745361666E+03  0.00000000000E+00 0.  1.
         11    1    5    5    0    0  0.36929539943E+02  0.18885716435E+03  0.97460730034E+02  0.21570677631E+03  0.00000000000E+00 0. -1.
        -11    1    5    5    0    0  0.18552049491E+02 -0.25646929610E+01 -0.35311494326E+01  0.19058468107E+02  0.00000000000E+00 0.  1.
          3    1    6    6  503    0 -0.10101645292E+03 -0.13345498365E+03  0.18902680882E+04  0.18976638274E+04  0.00000000000E+00 0. -1.
         -3    1    6    6    0  503 -0.41283472842E+02  0.61306713177E+01  0.69990606186E+03  0.70114934621E+03  0.00000000000E+00 0.  1.
<mgrwt>
<rscale>  0 0.10599819E+04</rscale>
<asrwt>0</asrwt>
<pdfrwt beam="1">  1        1 0.45882052E+00 0.10599819E+04</pdfrwt>
<pdfrwt beam="2">  1       -2 0.14489967E-01 0.10599819E+04</pdfrwt>
<totfact> 0.20492399E+01</totfact>
</mgrwt>
</event>
<event>
12    4  0.4381187E-008  0.1585784E+04  0.7818608E-02  0.8829329E-01
         -2   -1    0    0    0  501 -0.00000000000E+00  0.00000000000E+00  0.54182006507E+03  0.54182006507E+03  0.00000000000E+00 0.  1.
          1   -1    0    0  501    0  0.00000000000E+00 -0.00000000000E+00 -0.11603070115E+04  0.11603070115E+04  0.00000000000E+00 0. -1.
        -24    2    1    2    0    0 -0.26355189642E+03  0.31121266551E+03  0.15746291632E+03  0.44457060989E+03  0.80842636528E+02 0.  0.
        254    2    1    2    0    0  0.26355189642E+03 -0.31121266551E+03 -0.77594986278E+03  0.12575564667E+04  0.90168572804E+03 0.  0.
         23    2    4    4    0    0 -0.88332825089E+02  0.16317041565E+03 -0.59978537151E+03  0.63449491840E+03  0.91728060359E+02 0.  0.
         23    2    4    4    0    0  0.35188472151E+03 -0.47438308115E+03 -0.17616449127E+03  0.62306154832E+03  0.91157007940E+02 0.  0.
          1    1    3    3  502    0 -0.34861467546E+01  0.35614841375E+02  0.50614628279E+01  0.36141230628E+02  0.00000000000E+00 0. -1.
         -2    1    3    3    0  502 -0.26006574966E+03  0.27559782413E+03  0.15240145349E+03  0.40842937926E+03  0.00000000000E+00 0.  1.
         11    1    5    5    0    0 -0.40439775575E+02  0.15200458476E+03 -0.47516744852E+03  0.50052459816E+03  0.00000000000E+00 0.  1.
        -11    1    5    5    0    0 -0.47893049514E+02  0.11165830889E+02 -0.12461792300E+03  0.13397032023E+03  0.00000000000E+00 0. -1.
          1    1    6    6  503    0  0.25590206391E+03 -0.27144976291E+03 -0.10459565030E+03  0.38744172486E+03  0.00000000000E+00 0. -1.
         -1    1    6    6    0  503  0.95982657599E+02 -0.20293331824E+03 -0.71568840963E+02  0.23561982346E+03  0.00000000000E+00 0.  1.
<mgrwt>
<rscale>  0 0.15857839E+04</rscale>
<asrwt>0</asrwt>
<pdfrwt beam="1">  1        1 0.17850877E+00 0.15857839E+04</pdfrwt>
<pdfrwt beam="2">  1       -2 0.83356933E-01 0.15857839E+04</pdfrwt>
<totfact> 0.12129235E+01</totfact>
</mgrwt>
</event>
<event>
12    4  0.4381187E-008  0.2596279E+04  0.7818608E-02  0.8369466E-01
          1   -1    0    0  501    0  0.00000000000E+00  0.00000000000E+00  0.15950845228E+04  0.15950845228E+04  0.00000000000E+00 0. -1.
         -2   -1    0    0    0  501 -0.00000000000E+00 -0.00000000000E+00 -0.10564748065E+04  0.10564748065E+04  0.00000000000E+00 0.  1.
        -24    2    1    2    0    0 -0.10052523262E+03 -0.68615926233E+03  0.11688854119E+04  0.13614679524E+04  0.79887568748E+02 0.  0.
        254    2    1    2    0    0  0.10052523262E+03  0.68615926233E+03 -0.63027569559E+03  0.12900913769E+04  0.88666140807E+03 0.  0.
         23    2    4    4    0    0  0.31602237319E+03 -0.30080532671E+02 -0.36404249192E+03  0.49100154126E+03  0.88207702566E+02 0.  0.
         23    2    4    4    0    0 -0.21549714057E+03  0.71623979500E+03 -0.26623320366E+03  0.79908983561E+03  0.90697216645E+02 0.  0.
          1    1    3    3  502    0 -0.67297340475E+02 -0.23546997389E+03  0.45047372563E+03  0.51273932765E+03  0.00000000000E+00 0. -1.
         -2    1    3    3    0  502 -0.33227892147E+02 -0.45068928844E+03  0.71841168625E+03  0.84872862475E+03  0.00000000000E+00 0.  1.
         11    1    5    5    0    0  0.19799820975E+03 -0.22607273806E+02 -0.16170118688E+03  0.25663525426E+03  0.00000000000E+00 0.  1.
        -11    1    5    5    0    0  0.11802416345E+03 -0.74732588646E+01 -0.20234130505E+03  0.23436628700E+03  0.00000000000E+00 0. -1.
          3    1    6    6  503    0 -0.22666410029E+02  0.13772042338E+03 -0.18150443014E+02  0.14074842714E+03  0.00000000000E+00 0. -1.
         -3    1    6    6    0  503 -0.19283073054E+03  0.57851937162E+03 -0.24808276065E+03  0.65834140847E+03  0.00000000000E+00 0.  1.
<mgrwt>
<rscale>  0 0.25962793E+04</rscale>
<asrwt>0</asrwt>
<pdfrwt beam="1">  1        1 0.24539762E+00 0.25962793E+04</pdfrwt>
<pdfrwt beam="2">  1       -2 0.16253459E+00 0.25962793E+04</pdfrwt>
<totfact> 0.10500995E+00</totfact>
</mgrwt>
</event>
<event>
12    4  0.4381187E-008  0.2209947E+04  0.7818608E-02  0.8514299E-01
          1   -1    0    0  501    0  0.00000000000E+00  0.00000000000E+00  0.30291364373E+04  0.30291364373E+04  0.00000000000E+00 0. -1.
         -2   -1    0    0    0  501 -0.00000000000E+00 -0.00000000000E+00 -0.40307406133E+03  0.40307406133E+03  0.00000000000E+00 0.  1.
        -24    2    1    2    0    0  0.47812896835E+03 -0.65714963748E+03  0.44225686574E+03  0.92873671810E+03  0.80670935523E+02 0.  0.
        254    2    1    2    0    0 -0.47812896835E+03  0.65714963748E+03  0.21838055102E+04  0.25034737805E+04  0.91538052574E+03 0.  0.
         23    2    4    4    0    0 -0.52019523600E+03  0.49560605292E+03  0.21936168993E+04  0.23100758244E+04  0.90921779925E+02 0.  0.
         23    2    4    4    0    0  0.42066267652E+02  0.16154358457E+03 -0.98113891234E+01  0.19339795615E+03  0.97162778348E+02 0.  0.
          1    1    3    3  502    0  0.41296275375E+02 -0.66629457331E+02  0.17798821727E+02  0.80384482326E+02  0.00000000000E+00 0. -1.
         -2    1    3    3    0  502  0.43683269297E+03 -0.59052018015E+03  0.42445804401E+03  0.84835223578E+03  0.00000000000E+00 0.  1.
         11    1    5    5    0    0 -0.10159383787E+03  0.55973011207E+02  0.30584900960E+03  0.32710533862E+03  0.00000000000E+00 0.  1.
        -11    1    5    5    0    0 -0.41860139813E+03  0.43963304171E+03  0.18877678897E+04  0.19829704858E+04  0.00000000000E+00 0. -1.
          1    1    6    6  503    0 -0.31174859049E+02  0.61853194479E+02 -0.75349924442E+01  0.69673995257E+02  0.00000000000E+00 0. -1.
         -1    1    6    6    0  503  0.73241126701E+02  0.99690390088E+02 -0.22763966792E+01  0.12372396089E+03  0.00000000000E+00 0.  1.
<mgrwt>
<rscale>  0 0.22099469E+04</rscale>
<asrwt>0</asrwt>
<pdfrwt beam="1">  1        1 0.46602098E+00 0.22099469E+04</pdfrwt>
<pdfrwt beam="2">  1       -2 0.62011396E-01 0.22099469E+04</pdfrwt>
<totfact> 0.11012325E+00</totfact>
</mgrwt>
</event>
<event>
12    4  0.4381187E-008  0.2278283E+04  0.7818608E-02  0.8486533E-01
         -2   -1    0    0    0  501 -0.00000000000E+00  0.00000000000E+00  0.60000071225E+03  0.60000071225E+03  0.00000000000E+00 0.  1.
          1   -1    0    0  501    0  0.00000000000E+00 -0.00000000000E+00 -0.21627359479E+04  0.21627359479E+04  0.00000000000E+00 0. -1.
        -24    2    1    2    0    0  0.19919972920E+03 -0.86771250766E+03 -0.24450480373E+03  0.92648809129E+03  0.77408372913E+02 0.  0.
        254    2    1    2    0    0 -0.19919972920E+03  0.86771250766E+03 -0.13182304320E+04  0.18362485689E+04  0.91731772410E+03 0.  0.
         23    2    4    4    0    0 -0.50679252626E+03  0.59347575036E+03 -0.54852145759E+03  0.95819513773E+03  0.90609059157E+02 0.  0.
         23    2    4    4    0    0  0.30759279705E+03  0.27423675730E+03 -0.76970897437E+03  0.87805343116E+03  0.93310207859E+02 0.  0.
          1    1    3    3  502    0  0.29776096650E+02 -0.56268710214E+02 -0.29213912266E+02  0.70044531198E+02  0.00000000000E+00 0. -1.
         -2    1    3    3    0  502  0.16942363255E+03 -0.81144379744E+03 -0.21529089146E+03  0.85644356009E+03  0.00000000000E+00 0.  1.
         11    1    5    5    0    0 -0.24178702563E+03  0.34178732244E+03 -0.26309894636E+03  0.49447001437E+03  0.00000000000E+00 0. -1.
        -11    1    5    5    0    0 -0.26500550063E+03  0.25168842792E+03 -0.28542251124E+03  0.46372512336E+03  0.00000000000E+00 0.  1.
          3    1    6    6  503    0  0.18513427197E+03  0.13826103545E+03 -0.51465387048E+03  0.56414485638E+03  0.00000000000E+00 0. -1.
         -3    1    6    6    0  503  0.12245852509E+03  0.13597572185E+03 -0.25505510389E+03  0.31390857478E+03  0.00000000000E+00 0.  1.
<mgrwt>
<rscale>  0 0.22782828E+04</rscale>
<asrwt>0</asrwt>
<pdfrwt beam="1">  1        1 0.33272860E+00 0.22782828E+04</pdfrwt>
<pdfrwt beam="2">  1       -2 0.92307804E-01 0.22782828E+04</pdfrwt>
<totfact> 0.18314589E+00</totfact>
</mgrwt>
</event>
<event>
12    4  0.4381187E-008  0.1428138E+04  0.7818608E-02  0.8933699E-01
         -2   -1    0    0    0  501 -0.00000000000E+00  0.00000000000E+00  0.35775267749E+03  0.35775267749E+03  0.00000000000E+00 0.  1.
          1   -1    0    0  501    0  0.00000000000E+00 -0.00000000000E+00 -0.14252701831E+04  0.14252701831E+04  0.00000000000E+00 0. -1.
        -24    2    1    2    0    0  0.14163587638E+03 -0.40098578424E+03 -0.26406606184E+03  0.50680428419E+03  0.79179396432E+02 0.  0.
        254    2    1    2    0    0 -0.14163587638E+03  0.40098578424E+03 -0.80345144376E+03  0.12762185764E+04  0.89573953333E+03 0.  0.
         23    2    4    4    0    0 -0.50074600291E+03  0.12971708376E+03 -0.35111472483E+03  0.63219067371E+03  0.93863819921E+02 0.  0.
         23    2    4    4    0    0  0.35911012652E+03  0.27126870048E+03 -0.45233671893E+03  0.64402790267E+03  0.87273371032E+02 0.  0.
          1    1    3    3  502    0  0.65481709305E+02 -0.14618924397E+03 -0.14252677066E+03  0.21441322175E+03  0.00000000000E+00 0. -1.
         -2    1    3    3    0  502  0.76154167080E+02 -0.25479654027E+03 -0.12153929118E+03  0.29239106244E+03  0.00000000000E+00 0.  1.
         11    1    5    5    0    0 -0.30813647759E+03  0.58220984636E+02 -0.26037331881E+03  0.40759297960E+03  0.00000000000E+00 0. -1.
        -11    1    5    5    0    0 -0.19260952532E+03  0.71496099129E+02 -0.90741406020E+02  0.22459769411E+03  0.00000000000E+00 0.  1.
          2    1    6    6  503    0  0.19206769882E+03  0.18984699993E+03 -0.23417098990E+03  0.35744641112E+03  0.00000000000E+00 0. -1.
         -2    1    6    6    0  503  0.16704242770E+03  0.81421700542E+02 -0.21816572903E+03  0.28658149154E+03  0.00000000000E+00 0.  1.
<mgrwt>
<rscale>  0 0.14281376E+04</rscale>
<asrwt>0</asrwt>
<pdfrwt beam="1">  1        1 0.21927234E+00 0.14281376E+04</pdfrwt>
<pdfrwt beam="2">  1       -2 0.55038873E-01 0.14281376E+04</pdfrwt>
<totfact> 0.19543549E+01</totfact>
</mgrwt>
</event>
<event>
12    4  0.4381187E-008  0.1114846E+04  0.7818608E-02  0.9190841E-01
         -2   -1    0    0    0  501 -0.00000000000E+00  0.00000000000E+00  0.11255968657E+03  0.11255968657E+03  0.00000000000E+00 0.  1.
          1   -1    0    0  501    0  0.00000000000E+00 -0.00000000000E+00 -0.27604951062E+04  0.27604951062E+04  0.00000000000E+00 0. -1.
        -24    2    1    2    0    0 -0.26101410027E+02  0.12109964960E+03 -0.81353848021E+03  0.82685631493E+03  0.80623185409E+02 0.  0.
        254    2    1    2    0    0  0.26101410027E+02 -0.12109964960E+03 -0.18343969394E+04  0.20461984778E+04  0.89809223945E+03 0.  0.
         23    2    4    4    0    0  0.42444405431E+03  0.77373005269E+01 -0.60598471307E+03  0.74520100540E+03  0.88850688860E+02 0.  0.
         23    2    4    4    0    0 -0.39834264428E+03 -0.12883695012E+03 -0.12284122263E+04  0.13009974724E+04  0.91225015460E+02 0.  0.
          3    1    3    3  502    0  0.14110573827E+02  0.97909184438E+02 -0.61913233173E+03  0.62698497660E+03  0.00000000000E+00 0. -1.
         -4    1    3    3    0  502 -0.40211983854E+02  0.23190465159E+02 -0.19440614848E+03  0.19987133833E+03  0.00000000000E+00 0.  1.
         11    1    5    5    0    0  0.29171340221E+03  0.23493931881E+02 -0.47590529781E+03  0.55869000917E+03  0.00000000000E+00 0.  1.
        -11    1    5    5    0    0  0.13273065210E+03 -0.15756631355E+02 -0.13007941526E+03  0.18651099622E+03  0.00000000000E+00 0. -1.
          2    1    6    6  503    0 -0.27591954711E+03 -0.59598209451E+02 -0.91313007764E+03  0.95576675070E+03  0.00000000000E+00 0.  1.
         -2    1    6    6    0  503 -0.12242309717E+03 -0.69238740673E+02 -0.31528214870E+03  0.34523072173E+03  0.00000000000E+00 0. -1.
<mgrwt>
<rscale>  0 0.11148461E+04</rscale>
<asrwt>0</asrwt>
<pdfrwt beam="1">  1        1 0.42469154E+00 0.11148461E+04</pdfrwt>
<pdfrwt beam="2">  1       -2 0.17316875E-01 0.11148461E+04</pdfrwt>
<totfact> 0.21614349E+01</totfact>
</mgrwt>
</event>
<event>
12    4  0.4381187E-008  0.2805880E+04  0.7818608E-02  0.8301445E-01
          1   -1    0    0  501    0  0.00000000000E+00  0.00000000000E+00  0.21967442943E+04  0.21967442943E+04  0.00000000000E+00 0. -1.
         -2   -1    0    0    0  501 -0.00000000000E+00 -0.00000000000E+00 -0.89598075788E+03  0.89598075788E+03  0.00000000000E+00 0.  1.
        -24    2    1    2    0    0  0.75009314321E+03 -0.23735879311E+03 -0.49575975513E+03  0.93337716702E+03  0.80226435547E+02 0.  0.
        254    2    1    2    0    0 -0.75009314321E+03  0.23735879311E+03  0.17965232916E+04  0.21593478852E+04  0.90349788707E+03 0.  0.
         23    2    4    4    0    0 -0.52046728084E+03  0.53513930560E+03  0.14769215689E+04  0.16575271135E+04  0.94013532012E+02 0.  0.
         23    2    4    4    0    0 -0.22962586236E+03 -0.29778051249E+03  0.31960172264E+03  0.50182077174E+03  0.90981072494E+02 0.  0.
          3    1    3    3  502    0  0.33446460069E+03 -0.88691056741E+02 -0.26096190154E+03  0.43339795421E+03  0.00000000000E+00 0. -1.
         -4    1    3    3    0  502  0.41562854252E+03 -0.14866773637E+03 -0.23479785359E+03  0.49997921281E+03  0.00000000000E+00 0.  1.
         11    1    5    5    0    0 -0.43750820162E+03  0.41000434620E+03  0.12338915479E+04  0.13718619983E+04  0.00000000000E+00 0.  1.
        -11    1    5    5    0    0 -0.82959079222E+02  0.12513495940E+03  0.24303002101E+03  0.28566511513E+03  0.00000000000E+00 0. -1.
          3    1    6    6  503    0  0.80801570318E+01 -0.54442952764E+01  0.49235156957E+01  0.10916514807E+02  0.00000000000E+00 0. -1.
         -3    1    6    6    0  503 -0.23770601940E+03 -0.29233621721E+03  0.31467820695E+03  0.49090425694E+03  0.00000000000E+00 0.  1.
<mgrwt>
<rscale>  0 0.28058800E+04</rscale>
<asrwt>0</asrwt>
<pdfrwt beam="1">  1        1 0.33796066E+00 0.28058800E+04</pdfrwt>
<pdfrwt beam="2">  1       -2 0.13784319E+00 0.28058800E+04</pdfrwt>
<totfact> 0.62287819E-01</totfact>
</mgrwt>
</event>
<event>
12    4  0.4381187E-008  0.1761850E+04  0.7818608E-02  0.8726854E-01
         -2   -1    0    0    0  501 -0.00000000000E+00  0.00000000000E+00  0.37106911083E+03  0.37106911083E+03  0.00000000000E+00 0.  1.
          1   -1    0    0  501    0  0.00000000000E+00 -0.00000000000E+00 -0.20913326235E+04  0.20913326235E+04  0.00000000000E+00 0. -1.
        -24    2    1    2    0    0  0.46460209592E+03 -0.41191888886E+03 -0.38837907742E+03  0.73729385115E+03  0.85039030052E+02 0.  0.
        254    2    1    2    0    0 -0.46460209592E+03  0.41191888886E+03 -0.13318844352E+04  0.17251078832E+04  0.90363088772E+03 0.  0.
         23    2    4    4    0    0 -0.10705486371E+03 -0.26448720147E+03 -0.55589621597E+03  0.63144536252E+03  0.91040756429E+02 0.  0.
         23    2    4    4    0    0 -0.35754723221E+03  0.67640609033E+03 -0.77598821927E+03  0.10936625207E+04  0.92600055869E+02 0.  0.
          1    1    3    3  502    0  0.12799663151E+03 -0.14054406702E+03 -0.80142627972E+02  0.20629739036E+03  0.00000000000E+00 0. -1.
         -2    1    3    3    0  502  0.33660546441E+03 -0.27137482184E+03 -0.30823644945E+03  0.53099646078E+03  0.00000000000E+00 0.  1.
         11    1    5    5    0    0 -0.20397160593E+02 -0.11843826271E+03 -0.31113424070E+03  0.33353887625E+03  0.00000000000E+00 0.  1.
        -11    1    5    5    0    0 -0.86657703117E+02 -0.14604893877E+03 -0.24476197527E+03  0.29790648627E+03  0.00000000000E+00 0. -1.
          2    1    6    6  503    0 -0.60428270582E+02  0.91263468678E+02 -0.15814637005E+03  0.19233010935E+03  0.00000000000E+00 0. -1.
         -2    1    6    6    0  503 -0.29711896163E+03  0.58514262166E+03 -0.61784184921E+03  0.90133241131E+03  0.00000000000E+00 0.  1.
<mgrwt>
<rscale>  0 0.17618501E+04</rscale>
<asrwt>0</asrwt>
<pdfrwt beam="1">  1        1 0.32174348E+00 0.17618501E+04</pdfrwt>
<pdfrwt beam="2">  1       -2 0.57087555E-01 0.17618501E+04</pdfrwt>
<totfact> 0.61780431E+00</totfact>
</mgrwt>
</event>
<event>
12    4  0.4381187E-008  0.1999132E+04  0.7818608E-02  0.8607027E-01
         -2   -1    0    0    0  501 -0.00000000000E+00  0.00000000000E+00  0.49065573771E+03  0.49065573771E+03  0.00000000000E+00 0.  1.
          1   -1    0    0  501    0  0.00000000000E+00 -0.00000000000E+00 -0.20363204431E+04  0.20363204431E+04  0.00000000000E+00 0. -1.
        -24    2    1    2    0    0 -0.12841092066E+03 -0.25741644151E+03 -0.15595936415E+04  0.15879144360E+04  0.79920840448E+02 0.  0.
        254    2    1    2    0    0  0.12841092066E+03  0.25741644151E+03  0.13928936071E+02  0.93906174478E+03  0.89380666609E+03 0.  0.
         23    2    4    4    0    0 -0.33893083362E+03  0.12361342052E+03  0.18536750951E+03  0.41591023681E+03  0.92009911397E+02 0.  0.
         23    2    4    4    0    0  0.46734175428E+03  0.13380302099E+03 -0.17143857344E+03  0.52315150797E+03  0.89357440162E+02 0.  0.
          1    1    3    3  502    0 -0.10836788196E+03 -0.21397456540E+03 -0.14255901465E+04  0.14456265002E+04  0.00000000000E+00 0. -1.
         -2    1    3    3    0  502 -0.20043038695E+02 -0.43441876104E+02 -0.13400349499E+03  0.14228793579E+03  0.00000000000E+00 0.  1.
         11    1    5    5    0    0 -0.33411035612E+03  0.10384573424E+03  0.18450528489E+03  0.39554502492E+03  0.00000000000E+00 0.  1.
        -11    1    5    5    0    0 -0.48204775000E+01  0.19767686284E+02  0.86222462156E+00  0.20365211898E+02  0.00000000000E+00 0. -1.
          2    1    6    6  503    0  0.62997689483E+02  0.87045491140E+00  0.31935545382E+01  0.63084588947E+02  0.00000000000E+00 0. -1.
         -2    1    6    6    0  503  0.40434406479E+03  0.13293256608E+03 -0.17463212798E+03  0.46006691902E+03  0.00000000000E+00 0.  1.
<mgrwt>
<rscale>  0 0.19991321E+04</rscale>
<asrwt>0</asrwt>
<pdfrwt beam="1">  1        1 0.31328007E+00 0.19991321E+04</pdfrwt>
<pdfrwt beam="2">  1       -2 0.75485498E-01 0.19991321E+04</pdfrwt>
<totfact> 0.36109002E+00</totfact>
</mgrwt>
</event>
<event>
12    4  0.4381187E-008  0.1822509E+04  0.7818608E-02  0.8694420E-01
         -4   -1    0    0    0  501 -0.00000000000E+00  0.00000000000E+00  0.19832283565E+04  0.19832283565E+04  0.00000000000E+00 0.  1.
          3   -1    0    0  501    0  0.00000000000E+00 -0.00000000000E+00 -0.41870374996E+03  0.41870374996E+03  0.00000000000E+00 0. -1.
        -24    2    1    2    0    0  0.10190703238E+03 -0.13843994672E+03 -0.28345922986E+03  0.33921292972E+03  0.71872210245E+02 0.  0.
        254    2    1    2    0    0 -0.10190703238E+03  0.13843994672E+03  0.18479838364E+04  0.20627191768E+04  0.90011970338E+03 0.  0.
         23    2    4    4    0    0 -0.49014456378E+03  0.14570502292E+03  0.10539158702E+04  0.11744718046E+04  0.84697764399E+02 0.  0.
         23    2    4    4    0    0  0.38823753140E+03 -0.72650761989E+01  0.79406796623E+03  0.88824737214E+03  0.87511696456E+02 0.  0.
          3    1    3    3  502    0  0.11283083441E+03 -0.13074763199E+03 -0.25811060915E+03  0.31055889461E+03  0.00000000000E+00 0. -1.
         -2    1    3    3    0  502 -0.10923802030E+02 -0.76923147241E+01 -0.25348620701E+02  0.28654035109E+02  0.00000000000E+00 0.  1.
         11    1    5    5    0    0 -0.88985348963E+02  0.29063052646E+01  0.13534776677E+03  0.16200573110E+03  0.00000000000E+00 0. -1.
        -11    1    5    5    0    0 -0.40115921481E+03  0.14279871765E+03  0.91856810343E+03  0.10124660735E+04  0.00000000000E+00 0.  1.
          1    1    6    6  503    0  0.42159783257E+01  0.11936428213E+02  0.37516285010E+02  0.39594500031E+02  0.00000000000E+00 0. -1.
         -1    1    6    6    0  503  0.38402155307E+03 -0.19201504412E+02  0.75655168122E+03  0.84865287211E+03  0.00000000000E+00 0.  1.
<mgrwt>
<rscale>  0 0.18225094E+04</rscale>
<asrwt>0</asrwt>
<pdfrwt beam="1">  1        3 0.64415963E-01 0.18225094E+04</pdfrwt>
<pdfrwt beam="2">  1       -4 0.30511205E+00 0.18225094E+04</pdfrwt>
<totfact> 0.14466300E-01</totfact>
</mgrwt>
</event>
<event>
12    4  0.4381187E-008  0.1238066E+04  0.7818608E-02  0.9080175E-01
         -4   -1    0    0    0  501 -0.00000000000E+00  0.00000000000E+00  0.36400385726E+03  0.36400385726E+03  0.00000000000E+00 0.  1.
          3   -1    0    0  501    0  0.00000000000E+00 -0.00000000000E+00 -0.10527408563E+04  0.10527408563E+04  0.00000000000E+00 0. -1.
        -24    2    1    2    0    0  0.19399717766E+03 -0.18921639582E+03 -0.27976411739E+03  0.39758396590E+03  0.79795358108E+02 0.  0.
        254    2    1    2    0    0 -0.19399717766E+03  0.18921639582E+03 -0.40897288165E+03  0.10191607477E+04  0.89330401447E+03 0.  0.
         23    2    4    4    0    0  0.29759548542E+02  0.35705386096E+03 -0.57335147323E+03  0.68251512433E+03  0.93391074209E+02 0.  0.
         23    2    4    4    0    0 -0.22375672620E+03 -0.16783746513E+03  0.16437859157E+03  0.33664562333E+03  0.89852474189E+02 0.  0.
          1    1    3    3  502    0  0.14934510226E+03 -0.91867423243E+02 -0.17758467327E+03  0.24955941017E+03  0.00000000000E+00 0. -1.
         -2    1    3    3    0  502  0.44652075398E+02 -0.97348972581E+02 -0.10217944412E+03  0.14802455574E+03  0.00000000000E+00 0.  1.
         11    1    5    5    0    0 -0.36535204651E+01  0.10467971521E+02  0.71011039387E+00  0.11109945829E+02  0.00000000000E+00 0. -1.
        -11    1    5    5    0    0  0.33413069007E+02  0.34658588943E+03 -0.57406158362E+03  0.67140517851E+03  0.00000000000E+00 0.  1.
          2    1    6    6  503    0 -0.10976428420E+03 -0.92419392193E+02  0.33376325961E+02  0.14732115012E+03  0.00000000000E+00 0. -1.
         -2    1    6    6    0  503 -0.11399244200E+03 -0.75418072939E+02  0.13100226561E+03  0.18932447321E+03  0.00000000000E+00 0.  1.
<mgrwt>
<rscale>  0 0.12380658E+04</rscale>
<asrwt>0</asrwt>
<pdfrwt beam="1">  1        3 0.16196013E+00 0.12380658E+04</pdfrwt>
<pdfrwt beam="2">  1       -4 0.56000595E-01 0.12380658E+04</pdfrwt>
<totfact> 0.18119337E+00</totfact>
</mgrwt>
</event>
<event>
12    4  0.4381187E-008  0.1498123E+04  0.7818608E-02  0.8885702E-01
         -4   -1    0    0    0  501 -0.00000000000E+00  0.00000000000E+00  0.16878170185E+03  0.16878170185E+03  0.00000000000E+00 0.  1.
          3   -1    0    0  501    0  0.00000000000E+00 -0.00000000000E+00 -0.33243738169E+04  0.33243738169E+04  0.00000000000E+00 0. -1.
        -24    2    1    2    0    0  0.25266228118E+03 -0.26218857435E+03 -0.30047011509E+03  0.47874988910E+03  0.79612118413E+02 0.  0.
        254    2    1    2    0    0 -0.25266228118E+03  0.26218857435E+03 -0.28551220000E+04  0.30144056297E+04  0.89573354774E+03 0.  0.
         23    2    4    4    0    0 -0.57129812570E+03  0.18538163949E+03 -0.15251685887E+04  0.16416750060E+04  0.90607398819E+02 0.  0.
         23    2    4    4    0    0  0.31863584452E+03  0.76806934857E+02 -0.13299534113E+04  0.13727306236E+04  0.90471997284E+02 0.  0.
          3    1    3    3  502    0  0.45011137925E+02 -0.36754978221E+02 -0.89328823828E+02  0.10656720756E+03  0.00000000000E+00 0. -1.
         -4    1    3    3    0  502  0.20765114325E+03 -0.22543359613E+03 -0.21114129126E+03  0.37218268153E+03  0.00000000000E+00 0.  1.
         11    1    5    5    0    0 -0.17695677550E+03  0.10185111266E+03 -0.49551762828E+03  0.53593382939E+03  0.00000000000E+00 0. -1.
        -11    1    5    5    0    0 -0.39434135019E+03  0.83530526827E+02 -0.10296509604E+04  0.11057411766E+04  0.00000000000E+00 0.  1.
          1    1    6    6  503    0  0.15162160329E+03  0.78218973862E+02 -0.75318879601E+03  0.77226982389E+03  0.00000000000E+00 0. -1.
         -1    1    6    6    0  503  0.16701424123E+03 -0.14120390052E+01 -0.57676461526E+03  0.60046079975E+03  0.00000000000E+00 0.  1.
<mgrwt>
<rscale>  0 0.14981235E+04</rscale>
<asrwt>0</asrwt>
<pdfrwt beam="1">  1        3 0.51144214E+00 0.14981235E+04</pdfrwt>
<pdfrwt beam="2">  1       -4 0.25966415E-01 0.14981235E+04</pdfrwt>
<totfact> 0.96195529E-02</totfact>
</mgrwt>
</event>
<event>
12    4  0.4381187E-008  0.3045984E+04  0.7818608E-02  0.8230720E-01
          1   -1    0    0  501    0  0.00000000000E+00  0.00000000000E+00  0.20007687291E+04  0.20007687291E+04  0.00000000000E+00 0. -1.
         -2   -1    0    0    0  501 -0.00000000000E+00 -0.00000000000E+00 -0.11593068003E+04  0.11593068003E+04  0.00000000000E+00 0.  1.
        -24    2    1    2    0    0 -0.98819870175E+03  0.86401910039E+03  0.84968963809E+03  0.15657170935E+04  0.80198851574E+02 0.  0.
        254    2    1    2    0    0  0.98819870175E+03 -0.86401910039E+03 -0.82277093003E+01  0.15943584359E+04  0.90490079403E+03 0.  0.
         23    2    4    4    0    0  0.75322920538E+03 -0.10109927370E+04 -0.14474170037E+03  0.12722838126E+04  0.91079031339E+02 0.  0.
         23    2    4    4    0    0  0.23496949637E+03  0.14697363662E+03  0.13651399107E+03  0.32207462329E+03  0.91016916681E+02 0.  0.
          3    1    3    3  502    0 -0.66402493470E+03  0.53640173527E+03  0.52913087463E+03  0.10043084277E+04  0.00000000000E+00 0. -1.
         -4    1    3    3    0  502 -0.32417376705E+03  0.32761736512E+03  0.32055876346E+03  0.56140866577E+03  0.00000000000E+00 0.  1.
         11    1    5    5    0    0  0.67435999503E+03 -0.94163843053E+03 -0.14507317778E+03  0.11672577109E+04  0.00000000000E+00 0.  1.
        -11    1    5    5    0    0  0.78869210353E+02 -0.69354306481E+02  0.33147740917E+00  0.10502610174E+03  0.00000000000E+00 0. -1.
          1    1    6    6  503    0  0.65672520618E+01  0.37075140549E+02  0.10954673462E+02  0.39213514469E+02  0.00000000000E+00 0. -1.
         -1    1    6    6    0  503  0.22840224431E+03  0.10989849607E+03  0.12555931761E+03  0.28286110882E+03  0.00000000000E+00 0.  1.
<mgrwt>
<rscale>  0 0.30459841E+04</rscale>
<asrwt>0</asrwt>
<pdfrwt beam="1">  1        1 0.30781057E+00 0.30459841E+04</pdfrwt>
<pdfrwt beam="2">  1       -2 0.17835489E+00 0.30459841E+04</pdfrwt>
<totfact> 0.41294613E-01</totfact>
</mgrwt>
</event>
<event>
12    4  0.4381187E-008  0.1351334E+04  0.7818608E-02  0.8989819E-01
         -4   -1    0    0    0  501 -0.00000000000E+00  0.00000000000E+00  0.81205987532E+03  0.81205987532E+03  0.00000000000E+00 0.  1.
          3   -1    0    0  501    0  0.00000000000E+00 -0.00000000000E+00 -0.56218232436E+03  0.56218232436E+03  0.00000000000E+00 0. -1.
        -24    2    1    2    0    0  0.43304868742E+02 -0.10351147068E+03  0.43452066794E+03  0.45599026643E+03  0.80802079169E+02 0.  0.
        254    2    1    2    0    0 -0.43304868742E+02  0.10351147068E+03 -0.18464311698E+03  0.91825193324E+03  0.89247050149E+03 0.  0.
         23    2    4    4    0    0 -0.43473406416E+03  0.86089605004E+02 -0.23947864876E+03  0.51199358396E+03  0.91554793295E+02 0.  0.
         23    2    4    4    0    0  0.39142919541E+03  0.17421865674E+02  0.54835531774E+02  0.40625834929E+03  0.92296123392E+02 0.  0.
          1    1    3    3  502    0  0.41757186715E+01  0.10177308621E+02  0.98384880623E+02  0.98997974587E+02  0.00000000000E+00 0. -1.
         -2    1    3    3    0  502  0.39129150070E+02 -0.11368877930E+03  0.33613578732E+03  0.35699229185E+03  0.00000000000E+00 0.  1.
         11    1    5    5    0    0 -0.98265157544E+01  0.10581479456E+02  0.58406689029E+01  0.15576955177E+02  0.00000000000E+00 0. -1.
        -11    1    5    5    0    0 -0.42490754840E+03  0.75508125549E+02 -0.24531931766E+03  0.49641662878E+03  0.00000000000E+00 0.  1.
          3    1    6    6  503    0  0.17458201212E+03  0.37201183211E+02 -0.10816543927E+02  0.17882898146E+03  0.00000000000E+00 0. -1.
         -3    1    6    6    0  503  0.21684718329E+03 -0.19779317537E+02  0.65652075701E+02  0.22742936782E+03  0.00000000000E+00 0.  1.
<mgrwt>
<rscale>  0 0.13513337E+04</rscale>
<asrwt>0</asrwt>
<pdfrwt beam="1">  1        3 0.86489588E-01 0.13513337E+04</pdfrwt>
<pdfrwt beam="2">  1       -4 0.12493229E+00 0.13513337E+04</pdfrwt>
<totfact> 0.13057203E+00</totfact>
</mgrwt>
</event>
<event>
12    4  0.4381187E-008  0.1419584E+04  0.7818608E-02  0.8939763E-01
         -2   -1    0    0    0  501 -0.00000000000E+00  0.00000000000E+00  0.66524208776E+03  0.66524208776E+03  0.00000000000E+00 0.  1.
          1   -1    0    0  501    0  0.00000000000E+00 -0.00000000000E+00 -0.75732543180E+03  0.75732543180E+03  0.00000000000E+00 0. -1.
        -24    2    1    2    0    0 -0.23626405257E+02 -0.90408532183E+01  0.38900360308E+03  0.39746727546E+03  0.77566022216E+02 0.  0.
        254    2    1    2    0    0  0.23626405257E+02  0.90408532183E+01 -0.48108694712E+03  0.10251002441E+04  0.90484579664E+03 0.  0.
         23    2    4    4    0    0 -0.12757666212E+03 -0.40808353162E+03 -0.14312442993E+03  0.46004367090E+03  0.91365218718E+02 0.  0.
         23    2    4    4    0    0  0.15120306738E+03  0.41712438484E+03 -0.33796251718E+03  0.56505657319E+03  0.90637452956E+02 0.  0.
          3    1    3    3  502    0  0.21014031276E+02 -0.21175380503E+02  0.87749961435E+02  0.92682479368E+02  0.00000000000E+00 0. -1.
         -4    1    3    3    0  502 -0.44640436534E+02  0.12134527285E+02  0.30125364164E+03  0.30478479609E+03  0.00000000000E+00 0.  1.
         11    1    5    5    0    0 -0.57903601871E+02 -0.17308889901E+03 -0.14122425296E+02  0.18306293171E+03  0.00000000000E+00 0. -1.
        -11    1    5    5    0    0 -0.69673060252E+02 -0.23499463261E+03 -0.12900200464E+03  0.27698073919E+03  0.00000000000E+00 0.  1.
          3    1    6    6  503    0  0.60451316069E+02  0.11115073115E+03 -0.14356975023E+03  0.19136645429E+03  0.00000000000E+00 0. -1.
         -3    1    6    6    0  503  0.90751751313E+02  0.30597365369E+03 -0.19439276696E+03  0.37369011890E+03  0.00000000000E+00 0.  1.
<mgrwt>
<rscale>  0 0.14195841E+04</rscale>
<asrwt>0</asrwt>
<pdfrwt beam="1">  1        1 0.11651160E+00 0.14195841E+04</pdfrwt>
<pdfrwt beam="2">  1       -2 0.10234494E+00 0.14195841E+04</pdfrwt>
<totfact> 0.16077810E+01</totfact>
</mgrwt>
</event>
<event>
12    4  0.4381187E-008  0.1093761E+04  0.7818608E-02  0.9211294E-01
          1   -1    0    0  501    0  0.00000000000E+00  0.00000000000E+00  0.82419079719E+03  0.82419079719E+03  0.00000000000E+00 0. -1.
         -2   -1    0    0    0  501 -0.00000000000E+00 -0.00000000000E+00 -0.36287501117E+03  0.36287501117E+03  0.00000000000E+00 0.  1.
        -24    2    1    2    0    0  0.18492641242E+03 -0.37646000330E+02  0.56517354563E+02  0.21294638775E+03  0.80851427546E+02 0.  0.
        254    2    1    2    0    0 -0.18492641242E+03  0.37646000330E+02  0.40479843146E+03  0.97411942061E+03  0.86569733518E+03 0.  0.
         23    2    4    4    0    0 -0.39954007958E+03  0.21212675442E+03 -0.17116392740E+02  0.46135310868E+03  0.89015082183E+02 0.  0.
         23    2    4    4    0    0  0.21461366716E+03 -0.17448075409E+03  0.42191482420E+03  0.51276631192E+03  0.91731194689E+02 0.  0.
          1    1    3    3  502    0  0.67506454297E+02 -0.27756275238E+02  0.60855029450E+02  0.95030872858E+02  0.00000000000E+00 0. -1.
         -2    1    3    3    0  502  0.11741995813E+03 -0.98897250922E+01 -0.43376748866E+01  0.11791551489E+03  0.00000000000E+00 0.  1.
         11    1    5    5    0    0 -0.36779405419E+03  0.16559722631E+03 -0.26608394326E+02  0.40423126340E+03  0.00000000000E+00 0. -1.
        -11    1    5    5    0    0 -0.31746025390E+02  0.46529528112E+02  0.94920015861E+01  0.57121845283E+02  0.00000000000E+00 0.  1.
          2    1    6    6  503    0  0.19797462068E+03 -0.17211243449E+03  0.42086424197E+03  0.49592675942E+03  0.00000000000E+00 0. -1.
         -2    1    6    6    0  503  0.16639046476E+02 -0.23683196094E+01  0.10505822304E+01  0.16839552501E+02  0.00000000000E+00 0.  1.
<mgrwt>
<rscale>  0 0.10937609E+04</rscale>
<asrwt>0</asrwt>
<pdfrwt beam="1">  1        1 0.12679858E+00 0.10937609E+04</pdfrwt>
<pdfrwt beam="2">  1       -2 0.55826925E-01 0.10937609E+04</pdfrwt>
<totfact> 0.55468506E+01</totfact>
</mgrwt>
</event>
<event>
12    4  0.4381187E-008  0.1319562E+04  0.7818608E-02  0.9014194E-01
         -2   -1    0    0    0  501 -0.00000000000E+00  0.00000000000E+00  0.54221288637E+03  0.54221288637E+03  0.00000000000E+00 0.  1.
          1   -1    0    0  501    0  0.00000000000E+00 -0.00000000000E+00 -0.80284186049E+03  0.80284186049E+03  0.00000000000E+00 0. -1.
        -24    2    1    2    0    0 -0.85208037159E+02  0.44021318870E+02  0.26919076175E+03  0.29914266074E+03  0.88455520737E+02 0.  0.
        254    2    1    2    0    0  0.85208037159E+02 -0.44021318870E+02 -0.52981973588E+03  0.10459120861E+04  0.89667432954E+03 0.  0.
         23    2    4    4    0    0  0.29160032318E+03  0.33186222030E+03 -0.35323709250E+03  0.57311681000E+03  0.92320922009E+02 0.  0.
         23    2    4    4    0    0 -0.20639228602E+03 -0.37588353917E+03 -0.17658264338E+03  0.47279527612E+03  0.92020282714E+02 0.  0.
          1    1    3    3  502    0  0.12768088330E+02 -0.77256539215E+01  0.12173528131E+02  0.19258883542E+02  0.00000000000E+00 0. -1.
         -2    1    3    3    0  502 -0.97976125489E+02  0.51746972792E+02  0.25701723362E+03  0.27988377720E+03  0.00000000000E+00 0.  1.
         11    1    5    5    0    0  0.79811265073E+02  0.95286330609E+02 -0.15543099286E+03  0.19901787953E+03  0.00000000000E+00 0.  1.
        -11    1    5    5    0    0  0.21178905811E+03  0.23657588969E+03 -0.19780609964E+03  0.37409893046E+03  0.00000000000E+00 0. -1.
          1    1    6    6  503    0 -0.20089784185E+03 -0.29218101126E+03 -0.13850842478E+03  0.38067606956E+03  0.00000000000E+00 0. -1.
         -1    1    6    6    0  503 -0.54944441714E+01 -0.83702527912E+02 -0.38074218595E+02  0.92119206560E+02  0.00000000000E+00 0.  1.
<mgrwt>
<rscale>  0 0.13195624E+04</rscale>
<asrwt>0</asrwt>
<pdfrwt beam="1">  1        1 0.12351413E+00 0.13195624E+04</pdfrwt>
<pdfrwt beam="2">  1       -2 0.83417367E-01 0.13195624E+04</pdfrwt>
<totfact> 0.23765626E+01</totfact>
</mgrwt>
</event>
<event>
12    4  0.4381187E-008  0.2314353E+04  0.7818608E-02  0.8472283E-01
         -2   -1    0    0    0  501 -0.00000000000E+00  0.00000000000E+00  0.55594913565E+03  0.55594913565E+03  0.00000000000E+00 0.  1.
          1   -1    0    0  501    0  0.00000000000E+00 -0.00000000000E+00 -0.24085965634E+04  0.24085965634E+04  0.00000000000E+00 0. -1.
        -24    2    1    2    0    0 -0.98720958251E+02 -0.40680400546E+03 -0.19229105526E+04  0.19695549720E+04  0.79539095532E+02 0.  0.
        254    2    1    2    0    0  0.98720958251E+02  0.40680400546E+03  0.70263124835E+02  0.99499072713E+03  0.89990794746E+03 0.  0.
         23    2    4    4    0    0  0.51081825006E+02 -0.12696485068E+03 -0.29729739864E+03  0.33871109670E+03  0.87235529670E+02 0.  0.
         23    2    4    4    0    0  0.47639133245E+02  0.53376885614E+03  0.36756052348E+03  0.65627963042E+03  0.91779823971E+02 0.  0.
          3    1    3    3  502    0 -0.10225671680E+03 -0.37604104191E+03 -0.18452034756E+04  0.18859053973E+04  0.00000000000E+00 0. -1.
         -4    1    3    3    0  502  0.35357585457E+01 -0.30762963556E+02 -0.77707077015E+02  0.83649574616E+02  0.00000000000E+00 0.  1.
         11    1    5    5    0    0  0.72288668192E+00  0.19786762026E+01  0.54359345347E+01  0.58298463903E+01  0.00000000000E+00 0. -1.
        -11    1    5    5    0    0  0.50358938324E+02 -0.12894352688E+03 -0.30273333318E+03  0.33288125031E+03  0.00000000000E+00 0.  1.
          2    1    6    6  503    0  0.62766294783E+01  0.29407631854E+03  0.15114137905E+03  0.33070227345E+03  0.00000000000E+00 0. -1.
         -2    1    6    6    0  503  0.41362503767E+02  0.23969253760E+03  0.21641914443E+03  0.32557735697E+03  0.00000000000E+00 0.  1.
<mgrwt>
<rscale>  0 0.23143528E+04</rscale>
<asrwt>0</asrwt>
<pdfrwt beam="1">  1        1 0.37055331E+00 0.23143528E+04</pdfrwt>
<pdfrwt beam="2">  1       -2 0.85530637E-01 0.23143528E+04</pdfrwt>
<totfact> 0.14768710E+00</totfact>
</mgrwt>
</event>
<event>
12    4  0.4381187E-008  0.1910710E+04  0.7818608E-02  0.8649544E-01
         -2   -1    0    0    0  501 -0.00000000000E+00  0.00000000000E+00  0.99569720259E+03  0.99569720259E+03  0.00000000000E+00 0.  1.
          1   -1    0    0  501    0  0.00000000000E+00 -0.00000000000E+00 -0.91664736967E+03  0.91664736967E+03  0.00000000000E+00 0. -1.
        -24    2    1    2    0    0  0.47703952417E+03 -0.46064733086E+03 -0.30645449403E+03  0.73528299692E+03  0.83450929275E+02 0.  0.
        254    2    1    2    0    0 -0.47703952417E+03  0.46064733086E+03  0.38550432695E+03  0.11770615753E+04  0.89280327900E+03 0.  0.
         23    2    4    4    0    0 -0.58972844707E+03  0.64359270749E+03  0.33216627298E+03  0.93831790590E+03  0.90082435639E+02 0.  0.
         23    2    4    4    0    0  0.11268892290E+03 -0.18294537663E+03  0.53338053975E+02  0.23874366944E+03  0.89363233624E+02 0.  0.
          1    1    3    3  502    0  0.47761679134E+03 -0.45563368431E+03 -0.29548648887E+03  0.72320959531E+03  0.00000000000E+00 0. -1.
         -2    1    3    3    0  502 -0.57726717287E+00 -0.50136465490E+01 -0.10968005157E+02  0.12073401602E+02  0.00000000000E+00 0.  1.
         11    1    5    5    0    0 -0.42211509037E+03  0.42997722807E+03  0.26717220633E+03  0.65912256373E+03  0.00000000000E+00 0.  1.
        -11    1    5    5    0    0 -0.16761335669E+03  0.21361547942E+03  0.64994066645E+02  0.27919534217E+03  0.00000000000E+00 0. -1.
          3    1    6    6  503    0  0.89233065201E+02 -0.18608700673E+03  0.36204838702E+02  0.20952733556E+03  0.00000000000E+00 0. -1.
         -3    1    6    6    0  503  0.23455857701E+02  0.31416301060E+01  0.17133215273E+02  0.29216333888E+02  0.00000000000E+00 0.  1.
<mgrwt>
<rscale>  0 0.19107100E+04</rscale>
<asrwt>0</asrwt>
<pdfrwt beam="1">  1        1 0.14102267E+00 0.19107100E+04</pdfrwt>
<pdfrwt beam="2">  1       -2 0.15318418E+00 0.19107100E+04</pdfrwt>
<totfact> 0.40923401E+00</totfact>
</mgrwt>
</event>
<event>
12    4  0.4381187E-008  0.2925184E+04  0.7818608E-02  0.8265424E-01
         -4   -1    0    0    0  501 -0.00000000000E+00  0.00000000000E+00  0.65441880961E+03  0.65441880961E+03  0.00000000000E+00 0.  1.
          1   -1    0    0  501    0  0.00000000000E+00 -0.00000000000E+00 -0.32688172856E+04  0.32688172856E+04  0.00000000000E+00 0. -1.
        -24    2    1    2    0    0  0.97005449432E+03  0.47121434697E+03 -0.17481742993E+03  0.10950252971E+04  0.73963401811E+02 0.  0.
        254    2    1    2    0    0 -0.97005449432E+03 -0.47121434697E+03 -0.24395810460E+04  0.28282107981E+04  0.94030418231E+03 0.  0.
         23    2    4    4    0    0 -0.83917761728E+03  0.14844795398E+01 -0.10259563856E+04  0.13291170161E+04  0.98713019541E+02 0.  0.
         23    2    4    4    0    0 -0.13087687704E+03 -0.47269882651E+03 -0.14136246604E+04  0.14990937820E+04  0.91512562209E+02 0.  0.
          1    1    3    3  502    0  0.17658114752E+03  0.91885472773E+02 -0.61084011956E+02  0.20821887110E+03  0.00000000000E+00 0. -1.
         -2    1    3    3    0  502  0.79347334680E+03  0.37932887420E+03 -0.11373341797E+03  0.88680642603E+03  0.00000000000E+00 0.  1.
         11    1    5    5    0    0 -0.73052815302E+03  0.15992500382E+02 -0.93516238983E+03  0.11867838210E+04  0.00000000000E+00 0. -1.
        -11    1    5    5    0    0 -0.10864946426E+03 -0.14508020842E+02 -0.90793995786E+02  0.14233319508E+03  0.00000000000E+00 0.  1.
          3    1    6    6  503    0 -0.11810963150E+03 -0.44913908332E+03 -0.12539456662E+04  0.13371819379E+04  0.00000000000E+00 0. -1.
         -3    1    6    6    0  503 -0.12767245542E+02 -0.23559743196E+02 -0.15967899425E+03  0.16191184411E+03  0.00000000000E+00 0.  1.
<mgrwt>
<rscale>  0 0.29251841E+04</rscale>
<asrwt>0</asrwt>
<pdfrwt beam="1">  1        1 0.50289497E+00 0.29251841E+04</pdfrwt>
<pdfrwt beam="2">  1       -4 0.10067982E+00 0.29251841E+04</pdfrwt>
<totfact> 0.12998231E-01</totfact>
</mgrwt>
</event>
<event>
12    4  0.4381187E-008  0.1716696E+04  0.7818608E-02  0.8751899E-01
         -2   -1    0    0    0  501 -0.00000000000E+00  0.00000000000E+00  0.78225145922E+03  0.78225145922E+03  0.00000000000E+00 0.  1.
          1   -1    0    0  501    0  0.00000000000E+00 -0.00000000000E+00 -0.94184700842E+03  0.94184700842E+03  0.00000000000E+00 0. -1.
        -24    2    1    2    0    0 -0.19912464619E+03  0.50126396733E+03 -0.35983818574E+03  0.65304093077E+03  0.77863647999E+02 0.  0.
        254    2    1    2    0    0  0.19912464619E+03 -0.50126396733E+03  0.20024263654E+03  0.10710575369E+04  0.90341072836E+03 0.  0.
         23    2    4    4    0    0  0.90214277599E+02 -0.32853769330E+03 -0.33648587173E+03  0.48943728471E+03  0.10124466400E+03 0.  0.
         23    2    4    4    0    0  0.10891036859E+03 -0.17272627403E+03  0.53672850828E+03  0.58162025215E+03  0.92243113499E+02 0.  0.
          1    1    3    3  502    0 -0.18033861487E+03  0.45232005417E+03 -0.29375945764E+03  0.56869153886E+03  0.00000000000E+00 0. -1.
         -2    1    3    3    0  502 -0.18786031316E+02  0.48943913164E+02 -0.66078728103E+02  0.84349391913E+02  0.00000000000E+00 0.  1.
         11    1    5    5    0    0  0.66879091928E+01 -0.85385471777E+02 -0.14672327357E+03  0.16989151222E+03  0.00000000000E+00 0. -1.
        -11    1    5    5    0    0  0.83526368406E+02 -0.24315222152E+03 -0.18976259817E+03  0.31954577249E+03  0.00000000000E+00 0.  1.
          3    1    6    6  503    0  0.90653970164E+02 -0.15793897487E+03  0.36103222096E+03  0.40436014474E+03  0.00000000000E+00 0. -1.
         -3    1    6    6    0  503  0.18256398426E+02 -0.14787299167E+02  0.17569628732E+03  0.17726010741E+03  0.00000000000E+00 0.  1.
<mgrwt>
<rscale>  0 0.17166959E+04</rscale>
<asrwt>0</asrwt>
<pdfrwt beam="1">  1        1 0.14489954E+00 0.17166959E+04</pdfrwt>
<pdfrwt beam="2">  1       -2 0.12034638E+00 0.17166959E+04</pdfrwt>
<totfact> 0.73879552E+00</totfact>
</mgrwt>
</event>
<event>
12    4  0.4381187E-008  0.2173707E+04  0.7818608E-02  0.8529452E-01
         -2   -1    0    0    0  501 -0.00000000000E+00  0.00000000000E+00  0.86636017596E+03  0.86636017596E+03  0.00000000000E+00 0.  1.
          1   -1    0    0  501    0  0.00000000000E+00 -0.00000000000E+00 -0.13634631584E+04  0.13634631584E+04  0.00000000000E+00 0. -1.
        -24    2    1    2    0    0 -0.56832015859E+03  0.51040350934E+03  0.26835837958E+03  0.81355293137E+03  0.79703244892E+02 0.  0.
        254    2    1    2    0    0  0.56832015859E+03 -0.51040350934E+03 -0.76546136202E+03  0.14162704030E+04  0.91454426502E+03 0.  0.
         23    2    4    4    0    0  0.10290318201E+02  0.74500907396E+02  0.15028973242E+03  0.19141103205E+03  0.91623706904E+02 0.  0.
         23    2    4    4    0    0  0.55802984039E+03 -0.58490441674E+03 -0.91575109444E+03  0.12248593710E+04  0.90387677085E+02 0.  0.
          1    1    3    3  502    0 -0.16765259719E+03  0.19255979577E+03  0.11157959099E+03  0.27863358271E+03  0.00000000000E+00 0. -1.
         -2    1    3    3    0  502 -0.40066756140E+03  0.31784371357E+03  0.15677878859E+03  0.53491934866E+03  0.00000000000E+00 0.  1.
         11    1    5    5    0    0  0.14814933583E+02  0.66204386797E+02  0.16242874625E+03  0.17602727259E+03  0.00000000000E+00 0.  1.
        -11    1    5    5    0    0 -0.45246153818E+01  0.82965205997E+01 -0.12139013825E+02  0.15383759458E+02  0.00000000000E+00 0. -1.
          2    1    6    6  503    0  0.11894419251E+03 -0.10584205840E+03 -0.13259165125E+03  0.20719751022E+03  0.00000000000E+00 0. -1.
         -2    1    6    6    0  503  0.43908564787E+03 -0.47906235833E+03 -0.78315944319E+03  0.10176618607E+04  0.00000000000E+00 0.  1.
<mgrwt>
<rscale>  0 0.21737067E+04</rscale>
<asrwt>0</asrwt>
<pdfrwt beam="1">  1        1 0.20976356E+00 0.21737067E+04</pdfrwt>
<pdfrwt beam="2">  1       -2 0.13328618E+00 0.21737067E+04</pdfrwt>
<totfact> 0.26650485E+00</totfact>
</mgrwt>
</event>
<event>
12    4  0.4381187E-008  0.1848134E+04  0.7818608E-02  0.8681113E-01
          1   -1    0    0  501    0  0.00000000000E+00  0.00000000000E+00  0.60155603997E+03  0.60155603997E+03  0.00000000000E+00 0. -1.
         -2   -1    0    0    0  501 -0.00000000000E+00 -0.00000000000E+00 -0.14194847658E+04  0.14194847658E+04  0.00000000000E+00 0.  1.
        -24    2    1    2    0    0 -0.35025051928E+03 -0.32374082586E+03 -0.97010869478E+03  0.10836951742E+04  0.76162998376E+02 0.  0.
        254    2    1    2    0    0  0.35025051928E+03  0.32374082586E+03  0.15217996893E+03  0.93734563158E+03  0.79244844723E+03 0.  0.
         23    2    4    4    0    0  0.22983906714E+03 -0.17378244942E+03  0.26913096216E+03  0.40451861691E+03  0.90429531273E+02 0.  0.
         23    2    4    4    0    0  0.12041145214E+03  0.49752327528E+03 -0.11695099322E+03  0.53282701467E+03  0.90547034736E+02 0.  0.
          3    1    3    3  502    0 -0.94803004766E+02 -0.70537219279E+02 -0.17672716422E+03  0.21259256711E+03  0.00000000000E+00 0. -1.
         -4    1    3    3    0  502 -0.25544751451E+03 -0.25320360658E+03 -0.79338153055E+03  0.87110260709E+03  0.00000000000E+00 0.  1.
         11    1    5    5    0    0  0.54066297375E+02 -0.34476036490E+02  0.11728330717E+03  0.13366800569E+03  0.00000000000E+00 0. -1.
        -11    1    5    5    0    0  0.17577276977E+03 -0.13930641293E+03  0.15184765498E+03  0.27085061122E+03  0.00000000000E+00 0.  1.
          4    1    6    6  503    0  0.13588285439E+01  0.65951136738E+02 -0.43840501387E+02  0.79204724694E+02  0.00000000000E+00 0. -1.
         -4    1    6    6    0  503  0.11905262359E+03  0.43157213854E+03 -0.73110491838E+02  0.45362228998E+03  0.00000000000E+00 0.  1.
<mgrwt>
<rscale>  0 0.18481338E+04</rscale>
<asrwt>0</asrwt>
<pdfrwt beam="1">  1        1 0.92547084E-01 0.18481338E+04</pdfrwt>
<pdfrwt beam="2">  1       -2 0.21838227E+00 0.18481338E+04</pdfrwt>
<totfact> 0.28390512E+00</totfact>
</mgrwt>
</event>
<event>
12    4  0.4381187E-008  0.2059969E+04  0.7818608E-02  0.8579085E-01
          1   -1    0    0  501    0  0.00000000000E+00  0.00000000000E+00  0.96531902174E+03  0.96531902174E+03  0.00000000000E+00 0. -1.
         -2   -1    0    0    0  501 -0.00000000000E+00 -0.00000000000E+00 -0.10989818061E+04  0.10989818061E+04  0.00000000000E+00 0.  1.
        -24    2    1    2    0    0  0.88129535277E+02  0.74032696830E+03 -0.42780066372E+03  0.86306401418E+03  0.77558040888E+02 0.  0.
        254    2    1    2    0    0 -0.88129535277E+02 -0.74032696830E+03  0.29413787933E+03  0.12012368137E+04  0.89476363111E+03 0.  0.
         23    2    4    4    0    0  0.13623447263E+03  0.81558006388E+02 -0.14873279076E+03  0.23681700905E+03  0.93537761313E+02 0.  0.
         23    2    4    4    0    0 -0.22436400790E+03 -0.82188497469E+03  0.44287067009E+03  0.96441980465E+03  0.90205374082E+02 0.  0.
          3    1    3    3  502    0 -0.14427704956E+02  0.11028938463E+03 -0.61359067681E+02  0.12703087112E+03  0.00000000000E+00 0. -1.
         -4    1    3    3    0  502  0.10255724023E+03  0.63003758367E+03 -0.36644159604E+03  0.73603314305E+03  0.00000000000E+00 0.  1.
         11    1    5    5    0    0  0.73836806476E+02  0.70239003290E+02 -0.13946006500E+03  0.17272666645E+03  0.00000000000E+00 0. -1.
        -11    1    5    5    0    0  0.62397666149E+02  0.11319003099E+02 -0.92727257661E+01  0.64090342604E+02  0.00000000000E+00 0.  1.
          3    1    6    6  503    0 -0.64706192691E+02 -0.40778920715E+03  0.21000821887E+03  0.46323037555E+03  0.00000000000E+00 0. -1.
         -3    1    6    6    0  503 -0.15965781521E+03 -0.41409576754E+03  0.23286245122E+03  0.50118942910E+03  0.00000000000E+00 0.  1.
<mgrwt>
<rscale>  0 0.20599690E+04</rscale>
<asrwt>0</asrwt>
<pdfrwt beam="1">  1        1 0.14851062E+00 0.20599690E+04</pdfrwt>
<pdfrwt beam="2">  1       -2 0.16907412E+00 0.20599690E+04</pdfrwt>
<totfact> 0.28206258E+00</totfact>
</mgrwt>
</event>
<event>
12    4  0.4381187E-008  0.1882582E+04  0.7818608E-02  0.8663575E-01
         -2   -1    0    0    0  501 -0.00000000000E+00  0.00000000000E+00  0.36094109571E+03  0.36094109571E+03  0.00000000000E+00 0.  1.
          1   -1    0    0  501    0  0.00000000000E+00 -0.00000000000E+00 -0.24547741861E+04  0.24547741861E+04  0.00000000000E+00 0. -1.
        -24    2    1    2    0    0  0.63063374995E+03 -0.32356592283E+03 -0.54925335823E+03  0.90053468493E+03  0.83003820700E+02 0.  0.
        254    2    1    2    0    0 -0.63063374995E+03  0.32356592283E+03 -0.15445797321E+04  0.19151805968E+04  0.88306077745E+03 0.  0.
         23    2    4    4    0    0  0.16747618085E+03  0.17499679301E+03 -0.67030081365E+03  0.71859447609E+03  0.91666196488E+02 0.  0.
         23    2    4    4    0    0 -0.79810993080E+03  0.14856912982E+03 -0.87427891847E+03  0.11965861208E+04  0.91664983105E+02 0.  0.
          1    1    3    3  502    0  0.71344170820E+02 -0.29189753075E+02 -0.94258005212E+02  0.12176454304E+03  0.00000000000E+00 0. -1.
         -2    1    3    3    0  502  0.55928957913E+03 -0.29437616975E+03 -0.45499535302E+03  0.77877014190E+03  0.00000000000E+00 0.  1.
         11    1    5    5    0    0  0.76748701201E+02  0.13483588589E+03 -0.47220960481E+03  0.49704425370E+03  0.00000000000E+00 0. -1.
        -11    1    5    5    0    0  0.90727479649E+02  0.40160907117E+02 -0.19809120883E+03  0.22155022239E+03  0.00000000000E+00 0.  1.
          3    1    6    6  503    0 -0.79364621114E+03  0.15526328708E+03 -0.86831048047E+03  0.11865681975E+04  0.00000000000E+00 0. -1.
         -3    1    6    6    0  503 -0.44637196591E+01 -0.66941572612E+01 -0.59684380011E+01  0.10017923278E+02  0.00000000000E+00 0.  1.
<mgrwt>
<rscale>  0 0.18825821E+04</rscale>
<asrwt>0</asrwt>
<pdfrwt beam="1">  1        1 0.37765755E+00 0.18825821E+04</pdfrwt>
<pdfrwt beam="2">  1       -2 0.55529401E-01 0.18825821E+04</pdfrwt>
<totfact> 0.36547872E+00</totfact>
</mgrwt>
</event>
<event>
12    4  0.4381187E-008  0.1615228E+04  0.7818608E-02  0.8811247E-01
          1   -1    0    0  501    0  0.00000000000E+00  0.00000000000E+00  0.24114156324E+04  0.24114156324E+04  0.00000000000E+00 0. -1.
         -2   -1    0    0    0  501 -0.00000000000E+00 -0.00000000000E+00 -0.27048016151E+03  0.27048016151E+03  0.00000000000E+00 0.  1.
        -24    2    1    2    0    0 -0.27170414892E+03 -0.33360909315E+03  0.14596417810E+04  0.15238687029E+04  0.80644425314E+02 0.  0.
        254    2    1    2    0    0  0.27170414892E+03  0.33360909315E+03  0.68129368991E+03  0.11580270910E+04  0.83171358051E+03 0.  0.
         23    2    4    4    0    0  0.80371971194E+02 -0.19892129184E+03  0.50884613672E+03  0.55976594674E+03  0.91565223613E+02 0.  0.
         23    2    4    4    0    0  0.19133217773E+03  0.53253038499E+03  0.17244755319E+03  0.59826114426E+03  0.89339940404E+02 0.  0.
          1    1    3    3  502    0 -0.25855834443E+03 -0.31525796942E+03  0.12945224238E+04  0.13572134358E+04  0.00000000000E+00 0. -1.
         -2    1    3    3    0  502 -0.13145804497E+02 -0.18351123737E+02  0.16511935723E+03  0.16665526710E+03  0.00000000000E+00 0.  1.
         11    1    5    5    0    0  0.97805682722E+02 -0.15172907032E+03  0.42843980495E+03  0.46491755056E+03  0.00000000000E+00 0.  1.
        -11    1    5    5    0    0 -0.17433711528E+02 -0.47192221517E+02  0.80406331773E+02  0.94848396183E+02  0.00000000000E+00 0. -1.
          4    1    6    6  503    0  0.34804788353E+02  0.30295168708E+02  0.21934050871E+02  0.51090832122E+02  0.00000000000E+00 0. -1.
         -4    1    6    6    0  503  0.15652738938E+03  0.50223521629E+03  0.15051350232E+03  0.54717031214E+03  0.00000000000E+00 0.  1.
<mgrwt>
<rscale>  0 0.16152276E+04</rscale>
<asrwt>0</asrwt>
<pdfrwt beam="1">  1        1 0.37098700E+00 0.16152276E+04</pdfrwt>
<pdfrwt beam="2">  1       -2 0.41612334E-01 0.16152276E+04</pdfrwt>
<totfact> 0.71953637E+00</totfact>
</mgrwt>
</event>
<event>
12    4  0.4381187E-008  0.1206451E+04  0.7818608E-02  0.9107229E-01
         -2   -1    0    0    0  501 -0.00000000000E+00  0.00000000000E+00  0.52401649477E+03  0.52401649477E+03  0.00000000000E+00 0.  1.
          1   -1    0    0  501    0  0.00000000000E+00 -0.00000000000E+00 -0.69440705103E+03  0.69440705103E+03  0.00000000000E+00 0. -1.
        -24    2    1    2    0    0  0.55957102216E+02 -0.12789521157E+03  0.17448351902E+03  0.23815583835E+03  0.82373069019E+02 0.  0.
        254    2    1    2    0    0 -0.55957102216E+02  0.12789521157E+03 -0.34487407527E+03  0.98026770745E+03  0.90691690250E+03 0.  0.
         23    2    4    4    0    0  0.12710713207E+03 -0.27480500566E+03  0.11423745034E+03  0.33633337713E+03  0.91629314909E+02 0.  0.
         23    2    4    4    0    0 -0.18306423429E+03  0.40270021723E+03 -0.45911152561E+03  0.64393433032E+03  0.90487844375E+02 0.  0.
          1    1    3    3  502    0  0.43161683081E+02 -0.88080868751E+02  0.56990251504E+02  0.11344187539E+03  0.00000000000E+00 0. -1.
         -2    1    3    3    0  502  0.12795419135E+02 -0.39814342823E+02  0.11749326752E+03  0.12471396296E+03  0.00000000000E+00 0.  1.
         11    1    5    5    0    0  0.27257395327E+01 -0.12835615058E+02 -0.14052243345E+02  0.19226237618E+02  0.00000000000E+00 0. -1.
        -11    1    5    5    0    0  0.12438139254E+03 -0.26196939060E+03  0.12828969368E+03  0.31710713951E+03  0.00000000000E+00 0.  1.
          3    1    6    6  503    0 -0.52035035417E+01  0.97967281301E+02 -0.86840819871E+02  0.13101905453E+03  0.00000000000E+00 0. -1.
         -3    1    6    6    0  503 -0.17786073075E+03  0.30473293593E+03 -0.37227070574E+03  0.51291527579E+03  0.00000000000E+00 0.  1.
<mgrwt>
<rscale>  0 0.12064506E+04</rscale>
<asrwt>0</asrwt>
<pdfrwt beam="1">  1        1 0.10683185E+00 0.12064506E+04</pdfrwt>
<pdfrwt beam="2">  1       -2 0.80617922E-01 0.12064506E+04</pdfrwt>
<totfact> 0.32465937E+01</totfact>
</mgrwt>
</event>
<event>
12    4  0.4381187E-008  0.2529709E+04  0.7818608E-02  0.8392477E-01
         -4   -1    0    0    0  501 -0.00000000000E+00  0.00000000000E+00  0.14235423073E+04  0.14235423073E+04  0.00000000000E+00 0.  1.
          3   -1    0    0  501    0  0.00000000000E+00 -0.00000000000E+00 -0.11238559615E+04  0.11238559615E+04  0.00000000000E+00 0. -1.
        -24    2    1    2    0    0  0.60081272197E+02 -0.52999845356E+03  0.11030359666E+04  0.12279404087E+04  0.81493456776E+02 0.  0.
        254    2    1    2    0    0 -0.60081272197E+02  0.52999845356E+03 -0.80334962084E+03  0.13194578602E+04  0.90060552491E+03 0.  0.
         23    2    4    4    0    0  0.17644737519E+03  0.58093675663E+03 -0.17274158104E+03  0.63852671178E+03  0.96205594510E+02 0.  0.
         23    2    4    4    0    0 -0.23652864738E+03 -0.50938303078E+02 -0.63060803980E+03  0.68093114842E+03  0.86372549307E+02 0.  0.
          3    1    3    3  502    0 -0.18392268884E+02 -0.62542824892E+02  0.14930053739E+03  0.16291264827E+03  0.00000000000E+00 0. -1.
         -2    1    3    3    0  502  0.78473541080E+02 -0.46745562866E+03  0.95373542925E+03  0.10650277604E+04  0.00000000000E+00 0.  1.
         11    1    5    5    0    0  0.84550579499E+02  0.27398580025E+03 -0.13157060500E+03  0.31548033748E+03  0.00000000000E+00 0.  1.
        -11    1    5    5    0    0  0.91896795689E+02  0.30695095638E+03 -0.41170976037E+02  0.32304637430E+03  0.00000000000E+00 0. -1.
          4    1    6    6  503    0 -0.22753173805E+02  0.20999753672E+02 -0.64622717761E+02  0.71657464533E+02  0.00000000000E+00 0. -1.
         -4    1    6    6    0  503 -0.21377547358E+03 -0.71938056751E+02 -0.56598532204E+03  0.60927368388E+03  0.00000000000E+00 0.  1.
<mgrwt>
<rscale>  0 0.25297087E+04</rscale>
<asrwt>0</asrwt>
<pdfrwt beam="1">  1        3 0.17290092E+00 0.25297087E+04</pdfrwt>
<pdfrwt beam="2">  1       -4 0.21900651E+00 0.25297087E+04</pdfrwt>
<totfact> 0.44506374E-02</totfact>
</mgrwt>
</event>
<event>
12    4  0.4381187E-008  0.1870755E+04  0.7818608E-02  0.8669552E-01
          1   -1    0    0  501    0  0.00000000000E+00  0.00000000000E+00  0.30360264924E+04  0.30360264924E+04  0.00000000000E+00 0. -1.
         -2   -1    0    0    0  501 -0.00000000000E+00 -0.00000000000E+00 -0.28818296055E+03  0.28818296055E+03  0.00000000000E+00 0.  1.
        -24    2    1    2    0    0 -0.50150098617E+02 -0.56016754889E+03  0.26581840272E+03  0.62709255667E+03  0.79264974518E+02 0.  0.
        254    2    1    2    0    0  0.50150098617E+02  0.56016754889E+03  0.24820251291E+04  0.26971168963E+04  0.89313386191E+03 0.  0.
         23    2    4    4    0    0 -0.33566419057E+03  0.38531054006E+03  0.19117425847E+04  0.19809545196E+04  0.91029871982E+02 0.  0.
         23    2    4    4    0    0  0.38581428918E+03  0.17485700883E+03  0.57028254444E+03  0.71616237664E+03  0.90767449849E+02 0.  0.
          3    1    3    3  502    0  0.16386144817E+02 -0.18333311646E+03  0.10592841428E+03  0.21236846820E+03  0.00000000000E+00 0. -1.
         -4    1    3    3    0  502 -0.66536243434E+02 -0.37683443243E+03  0.15988998843E+03  0.41472408847E+03  0.00000000000E+00 0.  1.
         11    1    5    5    0    0 -0.31253462771E+03  0.35057064539E+03  0.18282602620E+04  0.18876210574E+04  0.00000000000E+00 0. -1.
        -11    1    5    5    0    0 -0.23129562852E+02  0.34739894676E+02  0.83482322716E+02  0.93333462199E+02  0.00000000000E+00 0.  1.
          3    1    6    6  503    0  0.30395483793E+03  0.12340267990E+03  0.49401225003E+03  0.59301337935E+03  0.00000000000E+00 0. -1.
         -3    1    6    6    0  503  0.81859451257E+02  0.51454328927E+02  0.76270294407E+02  0.12314899729E+03  0.00000000000E+00 0.  1.
<mgrwt>
<rscale>  0 0.18707550E+04</rscale>
<asrwt>0</asrwt>
<pdfrwt beam="1">  1        1 0.46708098E+00 0.18707550E+04</pdfrwt>
<pdfrwt beam="2">  1       -2 0.44335842E-01 0.18707550E+04</pdfrwt>
<totfact> 0.22423649E+00</totfact>
</mgrwt>
</event>
<event>
12    4  0.4381187E-008  0.2101988E+04  0.7818608E-02  0.8560368E-01
         -2   -1    0    0    0  501 -0.00000000000E+00  0.00000000000E+00  0.77556250772E+03  0.77556250772E+03  0.00000000000E+00 0.  1.
          1   -1    0    0  501    0  0.00000000000E+00 -0.00000000000E+00 -0.14242412477E+04  0.14242412477E+04  0.00000000000E+00 0. -1.
        -24    2    1    2    0    0  0.67355378595E+03 -0.28642130863E+03 -0.73075971718E+03  0.10372674461E+04  0.78753551784E+02 0.  0.
        254    2    1    2    0    0 -0.67355378595E+03  0.28642130863E+03  0.82080977173E+02  0.11625363093E+04  0.89946735076E+03 0.  0.
         23    2    4    4    0    0 -0.28779726396E+03  0.44059581078E+03 -0.27943420168E+03  0.60471768187E+03  0.10318947658E+03 0.  0.
         23    2    4    4    0    0 -0.38575652199E+03 -0.15417450215E+03  0.36151517885E+03  0.55781862746E+03  0.88828628479E+02 0.  0.
          1    1    3    3  502    0  0.52486955332E+03 -0.22684247473E+03 -0.61427552443E+03  0.83921390376E+03  0.00000000000E+00 0. -1.
         -2    1    3    3    0  502  0.14868423263E+03 -0.59578833904E+02 -0.11648419275E+03  0.19805354236E+03  0.00000000000E+00 0.  1.
         11    1    5    5    0    0 -0.17015809476E+03  0.32346335180E+03 -0.22863379707E+03  0.43110988197E+03  0.00000000000E+00 0.  1.
        -11    1    5    5    0    0 -0.11763916921E+03  0.11713245898E+03 -0.50800404608E+02  0.17360779990E+03  0.00000000000E+00 0. -1.
          1    1    6    6  503    0 -0.29402279145E+03 -0.15643738177E+03  0.28447485040E+03  0.43800456256E+03  0.00000000000E+00 0. -1.
         -1    1    6    6    0  503 -0.91733730534E+02  0.22628796241E+01  0.77040328445E+02  0.11981406490E+03  0.00000000000E+00 0.  1.
<mgrwt>
<rscale>  0 0.21019877E+04</rscale>
<asrwt>0</asrwt>
<pdfrwt beam="1">  1        1 0.21911404E+00 0.21019877E+04</pdfrwt>
<pdfrwt beam="2">  1       -2 0.11931731E+00 0.21019877E+04</pdfrwt>
<totfact> 0.32112826E+00</totfact>
</mgrwt>
</event>
<event>
12    4  0.4381187E-008  0.1249736E+04  0.7818608E-02  0.9070403E-01
         -2   -1    0    0    0  501 -0.00000000000E+00  0.00000000000E+00  0.40530549900E+03  0.40530549900E+03  0.00000000000E+00 0.  1.
          1   -1    0    0  501    0  0.00000000000E+00 -0.00000000000E+00 -0.96337194414E+03  0.96337194414E+03  0.00000000000E+00 0. -1.
        -24    2    1    2    0    0  0.15414909596E+03 -0.39229038911E+02  0.12417790659E+03  0.21732797790E+03  0.80687274184E+02 0.  0.
        254    2    1    2    0    0 -0.15414909596E+03  0.39229038911E+02 -0.68224435173E+03  0.11513494652E+04  0.91369982728E+03 0.  0.
         23    2    4    4    0    0  0.15991636054E+03  0.22929571950E+03  0.76608284424E+02  0.30351073651E+03  0.90000936568E+02 0.  0.
         23    2    4    4    0    0 -0.31406545650E+03 -0.19006668059E+03 -0.75885263616E+03  0.84783872874E+03  0.90613092360E+02 0.  0.
          3    1    3    3  502    0  0.48136442352E+02  0.83525677298E+01  0.22660056859E+01  0.48908253412E+02  0.00000000000E+00 0. -1.
         -4    1    3    3    0  502  0.10601265361E+03 -0.47581606641E+02  0.12191190091E+03  0.16841972449E+03  0.00000000000E+00 0.  1.
         11    1    5    5    0    0  0.16395751012E+03  0.23506688976E+03  0.75526516991E+02  0.29638279733E+03  0.00000000000E+00 0.  1.
        -11    1    5    5    0    0 -0.40411495843E+01 -0.57711702565E+01  0.10817674334E+01  0.71279391743E+01  0.00000000000E+00 0. -1.
          2    1    6    6  503    0 -0.16603477719E+03 -0.54617194022E+02 -0.40394941870E+03  0.44014283817E+03  0.00000000000E+00 0. -1.
         -2    1    6    6    0  503 -0.14803067931E+03 -0.13544948657E+03 -0.35490321746E+03  0.40769589057E+03  0.00000000000E+00 0.  1.
<mgrwt>
<rscale>  0 0.12497359E+04</rscale>
<asrwt>0</asrwt>
<pdfrwt beam="1">  1        1 0.14821107E+00 0.12497359E+04</pdfrwt>
<pdfrwt beam="2">  1       -2 0.62354693E-01 0.12497359E+04</pdfrwt>
<totfact> 0.33366918E+01</totfact>
</mgrwt>
</event>
<event>
12    4  0.4381187E-008  0.2098138E+04  0.7818608E-02  0.8562064E-01
         -2   -1    0    0    0  501 -0.00000000000E+00  0.00000000000E+00  0.91168463108E+03  0.91168463108E+03  0.00000000000E+00 0.  1.
          1   -1    0    0  501    0  0.00000000000E+00 -0.00000000000E+00 -0.12071562186E+04  0.12071562186E+04  0.00000000000E+00 0. -1.
        -24    2    1    2    0    0  0.27780450947E+03  0.64792995777E+03 -0.47489215896E+03  0.85375005591E+03  0.79862504815E+02 0.  0.
        254    2    1    2    0    0 -0.27780450947E+03 -0.64792995777E+03  0.17942057141E+03  0.12650907938E+04  0.10350238642E+04 0.  0.
         23    2    4    4    0    0 -0.39237635530E+03 -0.58903619176E+03 -0.29003619851E+03  0.76994119723E+03  0.88122706201E+02 0.  0.
         23    2    4    4    0    0  0.11457184583E+03 -0.58893766008E+02  0.46945676991E+03  0.49514959657E+03  0.90489118885E+02 0.  0.
          1    1    3    3  502    0  0.13867911047E+02  0.19770623187E+02 -0.17235256865E+01  0.24210886783E+02  0.00000000000E+00 0. -1.
         -2    1    3    3    0  502  0.26393659843E+03  0.62815933458E+03 -0.47316863327E+03  0.82953916913E+03  0.00000000000E+00 0.  1.
         11    1    5    5    0    0 -0.10483206192E+03 -0.13393231346E+03 -0.10887556357E+03  0.20194433426E+03  0.00000000000E+00 0.  1.
        -11    1    5    5    0    0 -0.28754429337E+03 -0.45510387830E+03 -0.18116063494E+03  0.56799686297E+03  0.00000000000E+00 0. -1.
          2    1    6    6  503    0  0.10561882488E+03 -0.81860130465E+01  0.31594772924E+03  0.33323462394E+03  0.00000000000E+00 0.  1.
         -2    1    6    6    0  503  0.89530209441E+01 -0.50707752962E+02  0.15350904068E+03  0.16191497264E+03  0.00000000000E+00 0. -1.
<mgrwt>
<rscale>  0 0.20981380E+04</rscale>
<asrwt>0</asrwt>
<pdfrwt beam="1">  1        1 0.18571634E+00 0.20981380E+04</pdfrwt>
<pdfrwt beam="2">  1       -2 0.14025917E+00 0.20981380E+04</pdfrwt>
<totfact> 0.30450713E+00</totfact>
</mgrwt>
</event>
<event>
12    4  0.4381187E-008  0.1246864E+04  0.7818608E-02  0.9072798E-01
         -4   -1    0    0    0  501 -0.00000000000E+00  0.00000000000E+00  0.19792117029E+03  0.19792117029E+03  0.00000000000E+00 0.  1.
          3   -1    0    0  501    0  0.00000000000E+00 -0.00000000000E+00 -0.19637476714E+04  0.19637476714E+04  0.00000000000E+00 0. -1.
        -24    2    1    2    0    0  0.76326916695E+01 -0.26201093153E+03 -0.66077821860E+03  0.71547675990E+03  0.81062651996E+02 0.  0.
        254    2    1    2    0    0 -0.76326916695E+01  0.26201093153E+03 -0.11050482825E+04  0.14461920817E+04  0.89533895509E+03 0.  0.
         23    2    4    4    0    0  0.33369140933E+03  0.35117740433E+03 -0.33786155518E+03  0.59655064971E+03  0.83944751088E+02 0.  0.
         23    2    4    4    0    0 -0.34132410100E+03 -0.89166472797E+02 -0.76718672728E+03  0.84964143203E+03  0.94139719090E+02 0.  0.
          3    1    3    3  502    0 -0.86180975604E+01 -0.18297583143E+03 -0.54001792679E+03  0.57024011412E+03  0.00000000000E+00 0. -1.
         -4    1    3    3    0  502  0.16250789230E+02 -0.79035100104E+02 -0.12076029181E+03  0.14523664578E+03  0.00000000000E+00 0.  1.
         11    1    5    5    0    0  0.70916758277E+02  0.12056741492E+03 -0.12243536376E+03  0.18589272832E+03  0.00000000000E+00 0.  1.
        -11    1    5    5    0    0  0.26277465105E+03  0.23060998941E+03 -0.21542619142E+03  0.41065792139E+03  0.00000000000E+00 0. -1.
          4    1    6    6  503    0 -0.22873550272E+03 -0.12839703334E+02 -0.47904619848E+03  0.53100852015E+03  0.00000000000E+00 0. -1.
         -4    1    6    6    0  503 -0.11258859828E+03 -0.76326769463E+02 -0.28814052880E+03  0.31863291188E+03  0.00000000000E+00 0.  1.
<mgrwt>
<rscale>  0 0.12468636E+04</rscale>
<asrwt>0</asrwt>
<pdfrwt beam="1">  1        3 0.30211503E+00 0.12468636E+04</pdfrwt>
<pdfrwt beam="2">  1       -4 0.30449411E-01 0.12468636E+04</pdfrwt>
<totfact> 0.89562826E-01</totfact>
</mgrwt>
</event>
<event>
12    4  0.4381187E-008  0.1306573E+04  0.7818608E-02  0.9024369E-01
         -4   -1    0    0    0  501 -0.00000000000E+00  0.00000000000E+00  0.75361192560E+03  0.75361192560E+03  0.00000000000E+00 0.  1.
          3   -1    0    0  501    0  0.00000000000E+00 -0.00000000000E+00 -0.56631682381E+03  0.56631682381E+03  0.00000000000E+00 0. -1.
        -24    2    1    2    0    0 -0.14756523340E+03 -0.24741775391E+03  0.23318349097E+03  0.37910986183E+03  0.79741481190E+02 0.  0.
        254    2    1    2    0    0  0.14756523340E+03  0.24741775391E+03 -0.45888389171E+02  0.94081888757E+03  0.89445144748E+03 0.  0.
         23    2    4    4    0    0 -0.26475984270E+03  0.10663863294E+03  0.26320785189E+03  0.39873523595E+03  0.90784595337E+02 0.  0.
         23    2    4    4    0    0  0.41232507610E+03  0.14077912096E+03 -0.30909624106E+03  0.54208365162E+03  0.92105753548E+02 0.  0.
          1    1    3    3  502    0 -0.15754169851E+02 -0.43127272855E+01 -0.15112811054E+01  0.16403580552E+02  0.00000000000E+00 0. -1.
         -2    1    3    3    0  502 -0.13181106355E+03 -0.24310502662E+03  0.23469477207E+03  0.36270628128E+03  0.00000000000E+00 0.  1.
         11    1    5    5    0    0 -0.15015410524E+03  0.10599993464E+03  0.17858971884E+03  0.25627432400E+03  0.00000000000E+00 0. -1.
        -11    1    5    5    0    0 -0.11460573746E+03  0.63869830009E+00  0.84618133050E+02  0.14246091195E+03  0.00000000000E+00 0.  1.
          3    1    6    6  503    0  0.80134844326E+02 -0.23355760762E+01 -0.83682619184E+02  0.11588713882E+03  0.00000000000E+00 0. -1.
         -3    1    6    6    0  503  0.33219023177E+03  0.14311469704E+03 -0.22541362188E+03  0.42619651280E+03  0.00000000000E+00 0.  1.
<mgrwt>
<rscale>  0 0.13065728E+04</rscale>
<asrwt>0</asrwt>
<pdfrwt beam="1">  1        3 0.87125665E-01 0.13065728E+04</pdfrwt>
<pdfrwt beam="2">  1       -4 0.11594030E+00 0.13065728E+04</pdfrwt>
<totfact> 0.15523403E+00</totfact>
</mgrwt>
</event>
<event>
12    4  0.4381187E-008  0.1936909E+04  0.7818608E-02  0.8636700E-01
         -4   -1    0    0    0  501 -0.00000000000E+00  0.00000000000E+00  0.63250972959E+03  0.63250972959E+03  0.00000000000E+00 0.  1.
          1   -1    0    0  501    0  0.00000000000E+00 -0.00000000000E+00 -0.14828289660E+04  0.14828289660E+04  0.00000000000E+00 0. -1.
        -24    2    1    2    0    0 -0.50994538421E+03  0.40815235810E+03  0.85355360041E+02  0.66354322169E+03  0.79821220636E+02 0.  0.
        254    2    1    2    0    0  0.50994538421E+03 -0.40815235810E+03 -0.93567459646E+03  0.14517954739E+04  0.89754693764E+03 0.  0.
         23    2    4    4    0    0  0.56888881818E+03 -0.15972849432E+02 -0.86098590887E+03  0.10358129153E+04  0.87875143084E+02 0.  0.
         23    2    4    4    0    0 -0.58943433970E+02 -0.39217950867E+03 -0.74688687584E+02  0.41598255864E+03  0.10091577483E+03 0.  0.
          3    1    3    3  502    0 -0.17966129448E+02 -0.69318084703E+00  0.59977985809E+01  0.18953519326E+02  0.00000000000E+00 0. -1.
         -2    1    3    3    0  502 -0.49197925476E+03  0.40884553895E+03  0.79357561460E+02  0.64458970237E+03  0.00000000000E+00 0.  1.
         11    1    5    5    0    0  0.51119099664E+03 -0.36243148169E+02 -0.73830966125E+03  0.89873853636E+03  0.00000000000E+00 0.  1.
        -11    1    5    5    0    0  0.57697821544E+02  0.20270298737E+02 -0.12267624762E+03  0.13707437891E+03  0.00000000000E+00 0. -1.
          2    1    6    6  503    0 -0.21478115611E+02 -0.24252816454E+03 -0.92990597064E+02  0.26063090989E+03  0.00000000000E+00 0. -1.
         -2    1    6    6    0  503 -0.37465318358E+02 -0.14965134413E+03  0.18301909480E+02  0.15535164875E+03  0.00000000000E+00 0.  1.
<mgrwt>
<rscale>  0 0.19369086E+04</rscale>
<asrwt>0</asrwt>
<pdfrwt beam="1">  1        1 0.22812753E+00 0.19369086E+04</pdfrwt>
<pdfrwt beam="2">  1       -4 0.97309189E-01 0.19369086E+04</pdfrwt>
<totfact> 0.27040454E+00</totfact>
</mgrwt>
</event>
<event>
12    4  0.4381187E-008  0.1081694E+04  0.7818608E-02  0.9223220E-01
         -2   -1    0    0    0  501 -0.00000000000E+00  0.00000000000E+00  0.56623912119E+03  0.56623912119E+03  0.00000000000E+00 0.  1.
          1   -1    0    0  501    0  0.00000000000E+00 -0.00000000000E+00 -0.51659326810E+03  0.51659326810E+03  0.00000000000E+00 0. -1.
        -24    2    1    2    0    0 -0.37366159454E+02 -0.97415502330E+02  0.10486107655E+03  0.16931105446E+03  0.82367334665E+02 0.  0.
        254    2    1    2    0    0  0.37366159454E+02  0.97415502330E+02 -0.55215223459E+02  0.91352133484E+03  0.90586229546E+03 0.  0.
         23    2    4    4    0    0 -0.20527002510E+03 -0.23332401136E+03  0.23784199090E+03  0.40133390022E+03  0.89018028217E+02 0.  0.
         23    2    4    4    0    0  0.24263618455E+03  0.33073951369E+03 -0.29305721436E+03  0.51218743462E+03  0.90512393177E+02 0.  0.
          3    1    3    3  502    0 -0.31561243371E+01 -0.53870256581E+02  0.38290992049E+01  0.54098314814E+02  0.00000000000E+00 0. -1.
         -4    1    3    3    0  502 -0.34210035117E+02 -0.43545245748E+02  0.10103197734E+03  0.11521273964E+03  0.00000000000E+00 0.  1.
         11    1    5    5    0    0 -0.90785508088E+02 -0.15383881896E+03  0.16892417865E+03  0.24585314485E+03  0.00000000000E+00 0. -1.
        -11    1    5    5    0    0 -0.11448451701E+03 -0.79485192403E+02  0.68917812252E+02  0.15548075538E+03  0.00000000000E+00 0.  1.
          3    1    6    6  503    0  0.14919650876E+03  0.24231266008E+03 -0.24281156251E+03  0.37407549819E+03  0.00000000000E+00 0. -1.
         -3    1    6    6    0  503  0.93439675797E+02  0.88426853612E+02 -0.50245651852E+02  0.13811193642E+03  0.00000000000E+00 0.  1.
<mgrwt>
<rscale>  0 0.10816937E+04</rscale>
<asrwt>0</asrwt>
<pdfrwt beam="1">  1        1 0.79475888E-01 0.10816937E+04</pdfrwt>
<pdfrwt beam="2">  1       -2 0.87113710E-01 0.10816937E+04</pdfrwt>
<totfact> 0.42121527E+01</totfact>
</mgrwt>
</event>
<event>
12    4  0.4381187E-008  0.1325884E+04  0.7818608E-02  0.9009287E-01
          1   -1    0    0  501    0  0.00000000000E+00  0.00000000000E+00  0.28461269210E+04  0.28461269210E+04  0.00000000000E+00 0. -1.
         -2   -1    0    0    0  501 -0.00000000000E+00 -0.00000000000E+00 -0.15441753944E+03  0.15441753944E+03  0.00000000000E+00 0.  1.
        -24    2    1    2    0    0  0.26972341003E+03 -0.50567945372E+02  0.12955931847E+04  0.13265857860E+04  0.77203058224E+02 0.  0.
        254    2    1    2    0    0 -0.26972341003E+03  0.50567945372E+02  0.13961161968E+04  0.16739586745E+04  0.88186698191E+03 0.  0.
         23    2    4    4    0    0 -0.17530059675E+03 -0.17637907129E+03  0.13869033574E+04  0.14119748214E+04  0.91280323946E+02 0.  0.
         23    2    4    4    0    0 -0.94422813282E+02  0.22694701666E+03  0.92128394543E+01  0.26198385308E+03  0.90166772301E+02 0.  0.
          3    1    3    3  502    0  0.25542733686E+03 -0.26844481226E+02  0.11918425108E+04  0.12192015097E+04  0.00000000000E+00 0. -1.
         -4    1    3    3    0  502  0.14296073171E+02 -0.23723464146E+02  0.10375067391E+03  0.10738427630E+03  0.00000000000E+00 0.  1.
         11    1    5    5    0    0 -0.17511412249E+03 -0.15967709657E+03  0.13585700687E+04  0.13790846104E+04  0.00000000000E+00 0.  1.
        -11    1    5    5    0    0 -0.18647426066E+00 -0.16701974720E+02  0.28333288667E+02  0.32890210989E+02  0.00000000000E+00 0. -1.
          3    1    6    6  503    0 -0.17732460072E+02  0.85460980441E+01  0.22786994882E+02  0.30111842649E+02  0.00000000000E+00 0. -1.
         -3    1    6    6    0  503 -0.76690353210E+02  0.21840091861E+03 -0.13574155428E+02  0.23187201043E+03  0.00000000000E+00 0.  1.
<mgrwt>
<rscale>  0 0.13258837E+04</rscale>
<asrwt>0</asrwt>
<pdfrwt beam="1">  1        1 0.43786564E+00 0.13258837E+04</pdfrwt>
<pdfrwt beam="2">  1       -2 0.23756547E-01 0.13258837E+04</pdfrwt>
<totfact> 0.10544254E+01</totfact>
</mgrwt>
</event>
<event>
12    4  0.4381187E-008  0.1892062E+04  0.7818608E-02  0.8658818E-01
         -4   -1    0    0    0  501 -0.00000000000E+00  0.00000000000E+00  0.26124321029E+04  0.26124321029E+04  0.00000000000E+00 0.  1.
          3   -1    0    0  501    0  0.00000000000E+00 -0.00000000000E+00 -0.34258301066E+03  0.34258301066E+03  0.00000000000E+00 0. -1.
        -24    2    1    2    0    0  0.55172047326E+03 -0.46497228432E+03  0.97479933800E+03  0.12148031410E+04  0.70129994888E+02 0.  0.
        254    2    1    2    0    0 -0.55172047326E+03  0.46497228432E+03  0.12950497542E+04  0.17402119726E+04  0.91136663189E+03 0.  0.
         23    2    4    4    0    0 -0.32008462419E+03  0.66527916095E+03  0.53915149105E+03  0.91887079823E+03  0.92675157943E+02 0.  0.
         23    2    4    4    0    0 -0.23163584908E+03 -0.20030687663E+03  0.75589826319E+03  0.82134117435E+03  0.97165472146E+02 0.  0.
          3    1    3    3  502    0  0.15018527711E+03 -0.95816055556E+02  0.20915153268E+03  0.27473750669E+03  0.00000000000E+00 0. -1.
         -4    1    3    3    0  502  0.40153519616E+03 -0.36915622876E+03  0.76564780533E+03  0.94006563430E+03  0.00000000000E+00 0.  1.
         11    1    5    5    0    0 -0.31600406150E+03  0.62795915586E+03  0.52954484320E+03  0.88011874726E+03  0.00000000000E+00 0.  1.
        -11    1    5    5    0    0 -0.40805626845E+01  0.37320005083E+02  0.96066478534E+01  0.38752050967E+02  0.00000000000E+00 0. -1.
          2    1    6    6  503    0 -0.12262233765E+03 -0.14068941858E+03  0.34728453656E+03  0.39425410527E+03  0.00000000000E+00 0.  1.
         -2    1    6    6    0  503 -0.10901351143E+03 -0.59617458052E+02  0.40861372663E+03  0.42708706907E+03  0.00000000000E+00 0. -1.
<mgrwt>
<rscale>  0 0.18920622E+04</rscale>
<asrwt>0</asrwt>
<pdfrwt beam="1">  1        3 0.52705080E-01 0.18920622E+04</pdfrwt>
<pdfrwt beam="2">  1       -4 0.40191262E+00 0.18920622E+04</pdfrwt>
<totfact> 0.50681134E-02</totfact>
</mgrwt>
</event>
<event>
12    4  0.4381187E-008  0.1787452E+04  0.7818608E-02  0.8713001E-01
          1   -1    0    0  501    0  0.00000000000E+00  0.00000000000E+00  0.17221220011E+04  0.17221220011E+04  0.00000000000E+00 0. -1.
         -2   -1    0    0    0  501 -0.00000000000E+00 -0.00000000000E+00 -0.46381487014E+03  0.46381487014E+03  0.00000000000E+00 0.  1.
        -24    2    1    2    0    0  0.55977875020E+03  0.24794617890E+03  0.18816294664E+03  0.64336940853E+03  0.60739974740E+02 0.  0.
        254    2    1    2    0    0 -0.55977875020E+03 -0.24794617890E+03  0.10701441843E+04  0.15425674627E+04  0.92707941676E+03 0.  0.
         23    2    4    4    0    0 -0.77361621627E+03 -0.22654658511E+03  0.10151849257E+04  0.12994073792E+04  0.89742400363E+02 0.  0.
         23    2    4    4    0    0  0.21383746607E+03 -0.21399593794E+02  0.54959258579E+02  0.24316008349E+03  0.99608742546E+02 0.  0.
          3    1    3    3  502    0  0.76934053128E+02  0.35898282326E+02  0.48747481388E+02  0.97897150859E+02  0.00000000000E+00 0. -1.
         -4    1    3    3    0  502  0.48284469707E+03  0.21204789658E+03  0.13941546525E+03  0.54547225767E+03  0.00000000000E+00 0.  1.
         11    1    5    5    0    0 -0.58870863337E+02 -0.12676412197E+02  0.43218061550E+02  0.74123348685E+02  0.00000000000E+00 0. -1.
        -11    1    5    5    0    0 -0.71474535293E+03 -0.21387017291E+03  0.97196686419E+03  0.12252840305E+04  0.00000000000E+00 0.  1.
          1    1    6    6  503    0  0.17795610981E+03 -0.10618929764E+02  0.82720881691E+02  0.19652959817E+03  0.00000000000E+00 0. -1.
         -1    1    6    6    0  503  0.35881356253E+02 -0.10780664029E+02 -0.27761623112E+02  0.46630485321E+02  0.00000000000E+00 0.  1.
<mgrwt>
<rscale>  0 0.17874516E+04</rscale>
<asrwt>0</asrwt>
<pdfrwt beam="1">  1        1 0.26494184E+00 0.17874516E+04</pdfrwt>
<pdfrwt beam="2">  1       -2 0.71356135E-01 0.17874516E+04</pdfrwt>
<totfact> 0.68031551E+00</totfact>
</mgrwt>
</event>
<event>
12    4  0.4381187E-008  0.1535283E+04  0.7818608E-02  0.8861323E-01
         -2   -1    0    0    0  501 -0.00000000000E+00  0.00000000000E+00  0.48797958738E+03  0.48797958738E+03  0.00000000000E+00 0.  1.
          1   -1    0    0  501    0  0.00000000000E+00 -0.00000000000E+00 -0.12075788803E+04  0.12075788803E+04  0.00000000000E+00 0. -1.
        -24    2    1    2    0    0  0.32701815652E+03 -0.28954750835E+03 -0.48198171953E+03  0.65529976266E+03  0.79578682435E+02 0.  0.
        254    2    1    2    0    0 -0.32701815652E+03  0.28954750835E+03 -0.23761757340E+03  0.10402587050E+04  0.91372721746E+03 0.  0.
         23    2    4    4    0    0  0.29034763557E+02 -0.23949651049E+03  0.14040087037E+03  0.29361773775E+03  0.91089930793E+02 0.  0.
         23    2    4    4    0    0 -0.35605292008E+03  0.52904401884E+03 -0.37801844377E+03  0.74664096728E+03  0.88958048706E+02 0.  0.
          3    1    3    3  502    0  0.19800444007E+03 -0.15935253588E+03 -0.33412035494E+03  0.41980400256E+03  0.00000000000E+00 0. -1.
         -4    1    3    3    0  502  0.12901371645E+03 -0.13019497247E+03 -0.14786136459E+03  0.23549576010E+03  0.00000000000E+00 0.  1.
         11    1    5    5    0    0  0.90366088647E+01 -0.18031907835E+03  0.56823006243E+02  0.18927621180E+03  0.00000000000E+00 0. -1.
        -11    1    5    5    0    0  0.19998154692E+02 -0.59177432143E+02  0.83577864126E+02  0.10434152595E+03  0.00000000000E+00 0.  1.
          3    1    6    6  503    0 -0.32277649661E+03  0.44231445588E+03 -0.34896287503E+03  0.64930873457E+03  0.00000000000E+00 0. -1.
         -3    1    6    6    0  503 -0.33276423474E+02  0.86729562954E+02 -0.29055568742E+02  0.97332232710E+02  0.00000000000E+00 0.  1.
<mgrwt>
<rscale>  0 0.15352835E+04</rscale>
<asrwt>0</asrwt>
<pdfrwt beam="1">  1        1 0.18578137E+00 0.15352835E+04</pdfrwt>
<pdfrwt beam="2">  1       -2 0.75073783E-01 0.15352835E+04</pdfrwt>
<totfact> 0.14221554E+01</totfact>
</mgrwt>
</event>
<event>
12    4  0.4381187E-008  0.2234007E+04  0.7818608E-02  0.8504405E-01
          3   -1    0    0  501    0  0.00000000000E+00  0.00000000000E+00  0.77240396985E+03  0.77240396985E+03  0.00000000000E+00 0. -1.
         -4   -1    0    0    0  501 -0.00000000000E+00 -0.00000000000E+00 -0.16153426097E+04  0.16153426097E+04  0.00000000000E+00 0.  1.
        -24    2    1    2    0    0  0.43885387042E+03 -0.19420925833E+03 -0.12116773791E+04  0.13056716570E+04  0.79413155996E+02 0.  0.
        254    2    1    2    0    0 -0.43885387042E+03  0.19420925833E+03  0.36873873919E+03  0.10820749226E+04  0.89699940060E+03 0.  0.
         23    2    4    4    0    0 -0.13430787558E+03 -0.34493237700E+03  0.76105851989E+02  0.39126207747E+03  0.10137535408E+03 0.  0.
         23    2    4    4    0    0 -0.30454599485E+03  0.53914163533E+03  0.29263288720E+03  0.69081284510E+03  0.90368215453E+02 0.  0.
          3    1    3    3  502    0  0.15382214671E+02 -0.39281090993E+01 -0.14020260064E+02  0.21180421656E+02  0.00000000000E+00 0. -1.
         -4    1    3    3    0  502  0.42347165575E+03 -0.19028114923E+03 -0.11976571190E+04  0.12844912353E+04  0.00000000000E+00 0.  1.
         11    1    5    5    0    0 -0.13879160411E+03 -0.31600953846E+03  0.93016851131E+02  0.35745946954E+03  0.00000000000E+00 0. -1.
        -11    1    5    5    0    0  0.44837285374E+01 -0.28922838537E+02 -0.16910999141E+02  0.33802607926E+02  0.00000000000E+00 0.  1.
          3    1    6    6  503    0 -0.64807364482E+02  0.16645354413E+03  0.49493037878E+02  0.18535462671E+03  0.00000000000E+00 0. -1.
         -3    1    6    6    0  503 -0.23973863036E+03  0.37268809120E+03  0.24313984933E+03  0.50545821839E+03  0.00000000000E+00 0.  1.
<mgrwt>
<rscale>  0 0.22340072E+04</rscale>
<asrwt>0</asrwt>
<pdfrwt beam="1">  1        3 0.11883138E+00 0.22340072E+04</pdfrwt>
<pdfrwt beam="2">  1       -4 0.24851424E+00 0.22340072E+04</pdfrwt>
<totfact> 0.77826119E-02</totfact>
</mgrwt>
</event>
<event>
12    4  0.4381187E-008  0.1610251E+04  0.7818608E-02  0.8814275E-01
         -2   -1    0    0    0  501 -0.00000000000E+00  0.00000000000E+00  0.89549692693E+03  0.89549692693E+03  0.00000000000E+00 0.  1.
          1   -1    0    0  501    0  0.00000000000E+00 -0.00000000000E+00 -0.72387423537E+03  0.72387423537E+03  0.00000000000E+00 0. -1.
        -24    2    1    2    0    0 -0.40516035307E+03  0.18643520415E+03 -0.27376929764E+03  0.52929843044E+03  0.79336013879E+02 0.  0.
        254    2    1    2    0    0  0.40516035307E+03 -0.18643520415E+03  0.44539198919E+03  0.10900727319E+04  0.88936580756E+03 0.  0.
         23    2    4    4    0    0  0.54224096920E+03 -0.19815045275E+03  0.61811628782E+03  0.85075269980E+03  0.91779847195E+02 0.  0.
         23    2    4    4    0    0 -0.13708061613E+03  0.11715248604E+02 -0.17272429862E+03  0.23932003206E+03  0.92260782781E+02 0.  0.
          1    1    3    3  502    0 -0.11762240297E+03  0.43752599419E+02 -0.11898406948E+03  0.17293504106E+03  0.00000000000E+00 0. -1.
         -2    1    3    3    0  502 -0.28753795010E+03  0.14268260473E+03 -0.15478522816E+03  0.35636338939E+03  0.00000000000E+00 0.  1.
         11    1    5    5    0    0  0.29797766285E+03 -0.11206803369E+03  0.40635715553E+03  0.51621320167E+03  0.00000000000E+00 0.  1.
        -11    1    5    5    0    0  0.24426330635E+03 -0.86082419063E+02  0.21175913229E+03  0.33453949813E+03  0.00000000000E+00 0. -1.
          3    1    6    6  503    0 -0.22510157942E+02  0.37546388183E+02 -0.24366838896E+02  0.50101709691E+02  0.00000000000E+00 0. -1.
         -3    1    6    6    0  503 -0.11457045819E+03 -0.25831139579E+02 -0.14835745973E+03  0.18921832236E+03  0.00000000000E+00 0.  1.
<mgrwt>
<rscale>  0 0.16102511E+04</rscale>
<asrwt>0</asrwt>
<pdfrwt beam="1">  1        1 0.11136527E+00 0.16102511E+04</pdfrwt>
<pdfrwt beam="2">  1       -2 0.13776876E+00 0.16102511E+04</pdfrwt>
<totfact> 0.81324056E+00</totfact>
</mgrwt>
</event>
<event>
12    4  0.4381187E-008  0.1668496E+04  0.7818608E-02  0.8779539E-01
         -2   -1    0    0    0  501 -0.00000000000E+00  0.00000000000E+00  0.23742932480E+03  0.23742932480E+03  0.00000000000E+00 0.  1.
          1   -1    0    0  501    0  0.00000000000E+00 -0.00000000000E+00 -0.29312709375E+04  0.29312709375E+04  0.00000000000E+00 0. -1.
        -24    2    1    2    0    0  0.96498325338E+01 -0.43888136027E+03 -0.16470482368E+04  0.17064058531E+04  0.79643415814E+02 0.  0.
        254    2    1    2    0    0 -0.96498325338E+01  0.43888136027E+03 -0.10467933759E+04  0.14622944091E+04  0.92185606224E+03 0.  0.
         23    2    4    4    0    0 -0.36362305371E+03  0.43477169242E+03 -0.34030230973E+03  0.66695988806E+03  0.88213834260E+02 0.  0.
         23    2    4    4    0    0  0.35397322118E+03  0.41096678578E+01 -0.70649106614E+03  0.79533452106E+03  0.90074653265E+02 0.  0.
          3    1    3    3  502    0  0.25816061125E+02 -0.16988778709E+03 -0.52299712440E+03  0.55050369785E+03  0.00000000000E+00 0. -1.
         -4    1    3    3    0  502 -0.16166228592E+02 -0.26899357318E+03 -0.11240511124E+04  0.11559021553E+04  0.00000000000E+00 0.  1.
         11    1    5    5    0    0 -0.10059058985E+03  0.17354969713E+03 -0.14845375062E+03  0.24955256003E+03  0.00000000000E+00 0.  1.
        -11    1    5    5    0    0 -0.26303246386E+03  0.26122199528E+03 -0.19184855911E+03  0.41740732803E+03  0.00000000000E+00 0. -1.
          4    1    6    6  503    0  0.11755590023E+03 -0.25580261900E+02 -0.31298687805E+03  0.33531257851E+03  0.00000000000E+00 0.  1.
         -4    1    6    6    0  503  0.23641732095E+03  0.29689929758E+02 -0.39350418810E+03  0.46002194255E+03  0.00000000000E+00 0. -1.
<mgrwt>
<rscale>  0 0.16684959E+04</rscale>
<asrwt>0</asrwt>
<pdfrwt beam="1">  1        1 0.45096476E+00 0.16684959E+04</pdfrwt>
<pdfrwt beam="2">  1       -2 0.36527588E-01 0.16684959E+04</pdfrwt>
<totfact> 0.39810389E+00</totfact>
</mgrwt>
</event>
<event>
12    4  0.4381187E-008  0.2605287E+04  0.7818608E-02  0.8366408E-01
         -2   -1    0    0    0  501 -0.00000000000E+00  0.00000000000E+00  0.11631113531E+04  0.11631113531E+04  0.00000000000E+00 0.  1.
          1   -1    0    0  501    0  0.00000000000E+00 -0.00000000000E+00 -0.14589145608E+04  0.14589145608E+04  0.00000000000E+00 0. -1.
        -24    2    1    2    0    0  0.20715715435E+03  0.70676567160E+03  0.72160042676E+03  0.10339571973E+04  0.76996810151E+02 0.  0.
        254    2    1    2    0    0 -0.20715715435E+03 -0.70676567160E+03 -0.10174036345E+04  0.15880687166E+04  0.97181288937E+03 0.  0.
         23    2    4    4    0    0 -0.17200327914E+03  0.12027240947E+03  0.50775426367E+02  0.23381353252E+03  0.89666289954E+02 0.  0.
         23    2    4    4    0    0 -0.35153875215E+02 -0.82703808107E+03 -0.10681790608E+04  0.13542551840E+04  0.88163569696E+02 0.  0.
          1    1    3    3  502    0  0.68461571047E+02  0.20056577550E+03  0.16214150609E+03  0.26683981152E+03  0.00000000000E+00 0. -1.
         -2    1    3    3    0  502  0.13869558330E+03  0.50619989610E+03  0.55945892067E+03  0.76711738577E+03  0.00000000000E+00 0.  1.
         11    1    5    5    0    0 -0.77268709227E+02  0.10776803915E+03  0.26625469714E+02  0.13525279785E+03  0.00000000000E+00 0.  1.
        -11    1    5    5    0    0 -0.94734569908E+02  0.12504370316E+02  0.24149956653E+02  0.98560734672E+02  0.00000000000E+00 0. -1.
          4    1    6    6  503    0  0.97207688427E+01 -0.60163548539E+03 -0.74384566582E+03  0.95674768104E+03  0.00000000000E+00 0. -1.
         -4    1    6    6    0  503 -0.44874644058E+02 -0.22540259569E+03 -0.32433339500E+03  0.39750750299E+03  0.00000000000E+00 0.  1.
<mgrwt>
<rscale>  0 0.26052870E+04</rscale>
<asrwt>0</asrwt>
<pdfrwt beam="1">  1        1 0.22444839E+00 0.26052870E+04</pdfrwt>
<pdfrwt beam="2">  1       -2 0.17894021E+00 0.26052870E+04</pdfrwt>
<totfact> 0.99600392E-01</totfact>
</mgrwt>
</event>
<event>
12    4  0.4381187E-008  0.1707033E+04  0.7818608E-02  0.8757363E-01
          1   -1    0    0  501    0  0.00000000000E+00  0.00000000000E+00  0.13379254031E+04  0.13379254031E+04  0.00000000000E+00 0. -1.
         -2   -1    0    0    0  501 -0.00000000000E+00 -0.00000000000E+00 -0.54449280968E+03  0.54449280968E+03  0.00000000000E+00 0.  1.
        -24    2    1    2    0    0 -0.34048938879E+02 -0.59596795494E+03  0.24257742782E+03  0.64913230280E+03  0.78688020056E+02 0.  0.
        254    2    1    2    0    0  0.34048938879E+02  0.59596795494E+03  0.55085516557E+03  0.12332859099E+04  0.92801701961E+03 0.  0.
         23    2    4    4    0    0  0.28179532814E+03  0.38874125616E+03  0.71026212332E+03  0.86209331894E+03  0.90577235235E+02 0.  0.
         23    2    4    4    0    0 -0.24774638927E+03  0.20722669877E+03 -0.15940695775E+03  0.37119259100E+03  0.89733958764E+02 0.  0.
          1    1    3    3  502    0 -0.65608085315E+01 -0.26132275978E+03  0.14754744918E+03  0.30017141560E+03  0.00000000000E+00 0. -1.
         -2    1    3    3    0  502 -0.27488130348E+02 -0.33464519516E+03  0.95029978648E+02  0.34896088720E+03  0.00000000000E+00 0.  1.
         11    1    5    5    0    0  0.88130113827E+02  0.14428393318E+03  0.32566170977E+03  0.36693367186E+03  0.00000000000E+00 0. -1.
        -11    1    5    5    0    0  0.19366521432E+03  0.24445732299E+03  0.38460041355E+03  0.49515964708E+03  0.00000000000E+00 0.  1.
          2    1    6    6  503    0 -0.23704752781E+03  0.18353145892E+03 -0.11774846087E+03  0.32208698653E+03  0.00000000000E+00 0. -1.
         -2    1    6    6    0  503 -0.10698861454E+02  0.23695239850E+02 -0.41658496878E+02  0.49105604467E+02  0.00000000000E+00 0.  1.
<mgrwt>
<rscale>  0 0.17070334E+04</rscale>
<asrwt>0</asrwt>
<pdfrwt beam="1">  1        1 0.20583468E+00 0.17070334E+04</pdfrwt>
<pdfrwt beam="2">  1       -2 0.83768125E-01 0.17070334E+04</pdfrwt>
<totfact> 0.88336751E+00</totfact>
</mgrwt>
</event>
<event>
12    4  0.4381187E-008  0.1431321E+04  0.7818608E-02  0.8931453E-01
         -4   -1    0    0    0  501 -0.00000000000E+00  0.00000000000E+00  0.14810367505E+04  0.14810367505E+04  0.00000000000E+00 0.  1.
          3   -1    0    0  501    0  0.00000000000E+00 -0.00000000000E+00 -0.34581869050E+03  0.34581869050E+03  0.00000000000E+00 0. -1.
        -24    2    1    2    0    0 -0.37679956747E+03  0.78679879594E+02  0.11080077914E+03  0.40838313298E+03  0.79570931528E+02 0.  0.
        254    2    1    2    0    0  0.37679956747E+03 -0.78679879594E+02  0.10244172809E+04  0.14184723081E+04  0.90247686166E+03 0.  0.
         23    2    4    4    0    0  0.49231912646E+03  0.28096473837E+02  0.14861144248E+03  0.52385130622E+03  0.95745997674E+02 0.  0.
         23    2    4    4    0    0 -0.11551955899E+03 -0.10677635343E+03  0.87580583843E+03  0.89462100185E+03  0.92546810656E+02 0.  0.
          1    1    3    3  502    0 -0.35600106502E+03  0.71718897785E+02  0.82198595519E+02  0.37233985510E+03  0.00000000000E+00 0. -1.
         -2    1    3    3    0  502 -0.20798502452E+02  0.69609818087E+01  0.28602183622E+02  0.36043277875E+02  0.00000000000E+00 0.  1.
         11    1    5    5    0    0  0.12667818820E+03 -0.29400229323E+02  0.60208338270E+02  0.14330659736E+03  0.00000000000E+00 0.  1.
        -11    1    5    5    0    0  0.36564093826E+03  0.57496703160E+02  0.88403104206E+02  0.38054470885E+03  0.00000000000E+00 0. -1.
          3    1    6    6  503    0 -0.10699584698E+03 -0.53626132924E+02  0.71750559877E+03  0.72741883236E+03  0.00000000000E+00 0. -1.
         -3    1    6    6    0  503 -0.85237120096E+01 -0.53150220507E+02  0.15830023966E+03  0.16720216949E+03  0.00000000000E+00 0.  1.
<mgrwt>
<rscale>  0 0.14313213E+04</rscale>
<asrwt>0</asrwt>
<pdfrwt beam="1">  1        3 0.53202876E-01 0.14313213E+04</pdfrwt>
<pdfrwt beam="2">  1       -4 0.22785181E+00 0.14313213E+04</pdfrwt>
<totfact> 0.67521183E-01</totfact>
</mgrwt>
</event>
<event>
12    4  0.4381187E-008  0.1511336E+04  0.7818608E-02  0.8876949E-01
         -2   -1    0    0    0  501 -0.00000000000E+00  0.00000000000E+00  0.65474535201E+03  0.65474535201E+03  0.00000000000E+00 0.  1.
          1   -1    0    0  501    0  0.00000000000E+00 -0.00000000000E+00 -0.87214738736E+03  0.87214738736E+03  0.00000000000E+00 0. -1.
        -24    2    1    2    0    0 -0.13480696097E+03  0.29446423464E+03  0.35440628677E+03  0.48671352188E+03  0.80025833734E+02 0.  0.
        254    2    1    2    0    0  0.13480696097E+03 -0.29446423464E+03 -0.57180832213E+03  0.10401792175E+04  0.80630387885E+03 0.  0.
         23    2    4    4    0    0  0.16860760207E+03  0.22367177514E+03 -0.50912303671E+02  0.29901734537E+03  0.91442461131E+02 0.  0.
         23    2    4    4    0    0 -0.33800641100E+02 -0.51813600979E+03 -0.52089601845E+03  0.74116187212E+03  0.91546986126E+02 0.  0.
          3    1    3    3  502    0 -0.95948024709E+02  0.12084652149E+03  0.18675593435E+03  0.24225541112E+03  0.00000000000E+00 0. -1.
         -4    1    3    3    0  502 -0.38858936262E+02  0.17361771316E+03  0.16765035243E+03  0.24445811076E+03  0.00000000000E+00 0.  1.
         11    1    5    5    0    0  0.16253157512E+03  0.21519430394E+03 -0.68797472543E+02  0.27831312148E+03  0.00000000000E+00 0. -1.
        -11    1    5    5    0    0  0.60760269480E+01  0.84774712047E+01  0.17885168872E+02  0.20704223894E+02  0.00000000000E+00 0.  1.
          1    1    6    6  503    0 -0.25428917850E+02 -0.31724810125E+03 -0.25509238931E+03  0.40787879902E+03  0.00000000000E+00 0. -1.
         -1    1    6    6    0  503 -0.83717232493E+01 -0.20088790853E+03 -0.26580362915E+03  0.33328307310E+03  0.00000000000E+00 0.  1.
<mgrwt>
<rscale>  0 0.15113364E+04</rscale>
<asrwt>0</asrwt>
<pdfrwt beam="1">  1        1 0.13417652E+00 0.15113364E+04</pdfrwt>
<pdfrwt beam="2">  1       -2 0.10073005E+00 0.15113364E+04</pdfrwt>
<totfact> 0.13193245E+01</totfact>
</mgrwt>
</event>
<event>
12    4  0.4381187E-008  0.2693917E+04  0.7818608E-02  0.8336981E-01
         -2   -1    0    0    0  501 -0.00000000000E+00  0.00000000000E+00  0.31151921512E+04  0.31151921512E+04  0.00000000000E+00 0.  1.
          1   -1    0    0  501    0  0.00000000000E+00 -0.00000000000E+00 -0.58240289544E+03  0.58240289544E+03  0.00000000000E+00 0. -1.
        -24    2    1    2    0    0  0.11305552214E+04 -0.10474356825E+03  0.16320335994E+04  0.19894715272E+04  0.73054527965E+02 0.  0.
        254    2    1    2    0    0 -0.11305552214E+04  0.10474356825E+03  0.90075565638E+03  0.17081235195E+04  0.90399053176E+03 0.  0.
         23    2    4    4    0    0  0.45247601933E+02  0.33856650090E+02 -0.10956262996E+03  0.15335232288E+03  0.91210453415E+02 0.  0.
         23    2    4    4    0    0 -0.11758028234E+04  0.70886918160E+02  0.10103182863E+04  0.15547711966E+04  0.95043145384E+02 0.  0.
          1    1    3    3  502    0  0.72190514889E+03 -0.66067350878E+02  0.97971177916E+03  0.12187481730E+04  0.00000000000E+00 0. -1.
         -2    1    3    3    0  502  0.40865007255E+03 -0.38676217372E+02  0.65232182026E+03  0.77072335424E+03  0.00000000000E+00 0.  1.
         11    1    5    5    0    0  0.64425810294E+02 -0.43001053493E+01 -0.67530421378E+02  0.93431973914E+02  0.00000000000E+00 0. -1.
        -11    1    5    5    0    0 -0.19178208361E+02  0.38156755439E+02 -0.42032208581E+02  0.59920348963E+02  0.00000000000E+00 0.  1.
          3    1    6    6  503    0 -0.91781803365E+03  0.73267985129E+02  0.83380634938E+03  0.12421719562E+04  0.00000000000E+00 0. -1.
         -3    1    6    6    0  503 -0.25798478973E+03 -0.23810669685E+01  0.17651193696E+03  0.31259924040E+03  0.00000000000E+00 0.  1.
<mgrwt>
<rscale>  0 0.26939168E+04</rscale>
<asrwt>0</asrwt>
<pdfrwt beam="1">  1        1 0.89600448E-01 0.26939168E+04</pdfrwt>
<pdfrwt beam="2">  1       -2 0.47926032E+00 0.26939168E+04</pdfrwt>
<totfact> 0.60969124E-02</totfact>
</mgrwt>
</event>
<event>
12    4  0.4381187E-008  0.2046102E+04  0.7818608E-02  0.8585365E-01
         -2   -1    0    0    0  501 -0.00000000000E+00  0.00000000000E+00  0.78525198077E+03  0.78525198077E+03  0.00000000000E+00 0.  1.
          1   -1    0    0  501    0  0.00000000000E+00 -0.00000000000E+00 -0.13328626981E+04  0.13328626981E+04  0.00000000000E+00 0. -1.
        -24    2    1    2    0    0  0.77954876827E+02  0.47529932867E+03 -0.91508575390E+03  0.10372286366E+04  0.80466719046E+02 0.  0.
        254    2    1    2    0    0 -0.77954876827E+02 -0.47529932867E+03  0.36747503660E+03  0.10808860423E+04  0.89514821072E+03 0.  0.
         23    2    4    4    0    0 -0.18041705348E+03 -0.10414739119E+03 -0.25608853125E+03  0.34237325840E+03  0.90780614407E+02 0.  0.
         23    2    4    4    0    0  0.10246217665E+03 -0.37115193749E+03  0.62356356786E+03  0.73851278385E+03  0.91199508838E+02 0.  0.
          1    1    3    3  502    0  0.19382259044E+02  0.23990284972E+03 -0.53030077637E+03  0.58236411521E+03  0.00000000000E+00 0. -1.
         -2    1    3    3    0  502  0.58572617783E+02  0.23539647895E+03 -0.38478497753E+03  0.45486452136E+03  0.00000000000E+00 0.  1.
         11    1    5    5    0    0 -0.32656776055E+02 -0.11080361143E+02 -0.10811938782E+03  0.11348586453E+03  0.00000000000E+00 0. -1.
        -11    1    5    5    0    0 -0.14776027742E+03 -0.93067030043E+02 -0.14796914343E+03  0.22888739387E+03  0.00000000000E+00 0.  1.
          4    1    6    6  503    0  0.20550100972E+02 -0.72795424391E+02  0.63888919472E+02  0.99011486675E+02  0.00000000000E+00 0. -1.
         -4    1    6    6    0  503  0.81912075677E+02 -0.29835651310E+03  0.55967464839E+03  0.63950129718E+03  0.00000000000E+00 0.  1.
<mgrwt>
<rscale>  0 0.20461017E+04</rscale>
<asrwt>0</asrwt>
<pdfrwt beam="1">  1        1 0.20505580E+00 0.20461017E+04</pdfrwt>
<pdfrwt beam="2">  1       -2 0.12080800E+00 0.20461017E+04</pdfrwt>
<totfact> 0.36286743E+00</totfact>
</mgrwt>
</event>
<event>
12    4  0.4381187E-008  0.1313512E+04  0.7818608E-02  0.9018918E-01
          1   -1    0    0  501    0  0.00000000000E+00  0.00000000000E+00  0.23051132897E+04  0.23051132897E+04  0.00000000000E+00 0. -1.
         -2   -1    0    0    0  501 -0.00000000000E+00 -0.00000000000E+00 -0.18711813915E+03  0.18711813915E+03  0.00000000000E+00 0.  1.
        -24    2    1    2    0    0  0.11079380942E+03  0.29642249814E+03  0.30044400214E+03  0.44903621438E+03  0.10594978902E+03 0.  0.
        254    2    1    2    0    0 -0.11079380942E+03 -0.29642249814E+03  0.18175511484E+04  0.20431952145E+04  0.87807342617E+03 0.  0.
         23    2    4    4    0    0 -0.35706695110E+03 -0.31449627722E+02  0.28364384756E+03  0.46516894686E+03  0.86269520768E+02 0.  0.
         23    2    4    4    0    0  0.24627314168E+03 -0.26497287042E+03  0.15339073009E+04  0.15780262676E+04  0.80213535499E+02 0.  0.
          3    1    3    3  502    0 -0.12492267227E+02  0.11024156962E+02  0.40497380039E+02  0.43790713253E+02  0.00000000000E+00 0. -1.
         -4    1    3    3    0  502  0.12328607665E+03  0.28539834118E+03  0.25994662210E+03  0.40524550113E+03  0.00000000000E+00 0.  1.
         11    1    5    5    0    0 -0.20864265756E+03 -0.23426646896E+02  0.11147366338E+03  0.23771189277E+03  0.00000000000E+00 0. -1.
        -11    1    5    5    0    0 -0.14842429355E+03 -0.80229808262E+01  0.17217018418E+03  0.22745705409E+03  0.00000000000E+00 0.  1.
          2    1    6    6  503    0  0.16529738031E+03 -0.16612384427E+03  0.11425380382E+04  0.11663247937E+04  0.00000000000E+00 0. -1.
         -2    1    6    6    0  503  0.80975761368E+02 -0.98849026153E+02  0.39136926264E+03  0.41170147394E+03  0.00000000000E+00 0.  1.
<mgrwt>
<rscale>  0 0.13135121E+04</rscale>
<asrwt>0</asrwt>
<pdfrwt beam="1">  1        1 0.35463279E+00 0.13135121E+04</pdfrwt>
<pdfrwt beam="2">  1       -2 0.28787408E-01 0.13135121E+04</pdfrwt>
<totfact> 0.17669896E+01</totfact>
</mgrwt>
</event>
<event>
12    4  0.4381187E-008  0.1484369E+04  0.7818608E-02  0.8894915E-01
          1   -1    0    0  501    0  0.00000000000E+00  0.00000000000E+00  0.10769582744E+04  0.10769582744E+04  0.00000000000E+00 0. -1.
         -2   -1    0    0    0  501 -0.00000000000E+00 -0.00000000000E+00 -0.51147542549E+03  0.51147542549E+03  0.00000000000E+00 0.  1.
        -24    2    1    2    0    0  0.24284302214E+03  0.46114228134E+03  0.18618428767E+03  0.55912721898E+03  0.79584678116E+02 0.  0.
        254    2    1    2    0    0 -0.24284302214E+03 -0.46114228134E+03  0.37929856121E+03  0.10293064809E+04  0.80248333068E+03 0.  0.
         23    2    4    4    0    0  0.96271923181E+02  0.16596702384E+03 -0.71018914593E+01  0.21380138438E+03  0.94059868724E+02 0.  0.
         23    2    4    4    0    0 -0.33911494532E+03 -0.62710930518E+03  0.38640045267E+03  0.81550509651E+03  0.86476735693E+02 0.  0.
          3    1    3    3  502    0  0.19994061270E+03  0.42828373246E+03  0.15937009897E+03  0.49880059397E+03  0.00000000000E+00 0. -1.
         -4    1    3    3    0  502  0.42902409436E+02  0.32858548883E+02  0.26814188706E+02  0.60326625018E+02  0.00000000000E+00 0.  1.
         11    1    5    5    0    0  0.70262155905E+02  0.15141259325E+03  0.26361021226E+02  0.16898948898E+03  0.00000000000E+00 0. -1.
        -11    1    5    5    0    0  0.26009767276E+02  0.14554430595E+02 -0.33462912686E+02  0.44811895397E+02  0.00000000000E+00 0.  1.
          1    1    6    6  503    0 -0.25738925900E+03 -0.40846721282E+03  0.23204392310E+03  0.53566694582E+03  0.00000000000E+00 0. -1.
         -1    1    6    6    0  503 -0.81725686319E+02 -0.21864209237E+03  0.15435652957E+03  0.27983815069E+03  0.00000000000E+00 0.  1.
<mgrwt>
<rscale>  0 0.14843688E+04</rscale>
<asrwt>0</asrwt>
<pdfrwt beam="1">  1        1 0.16568589E+00 0.14843688E+04</pdfrwt>
<pdfrwt beam="2">  1       -2 0.78688527E-01 0.14843688E+04</pdfrwt>
<totfact> 0.16081146E+01</totfact>
</mgrwt>
</event>
<event>
12    4  0.4381187E-008  0.1679509E+04  0.7818608E-02  0.8773138E-01
          1   -1    0    0  501    0  0.00000000000E+00  0.00000000000E+00  0.13942504118E+04  0.13942504118E+04  0.00000000000E+00 0. -1.
         -2   -1    0    0    0  501 -0.00000000000E+00 -0.00000000000E+00 -0.50578267960E+03  0.50578267960E+03  0.00000000000E+00 0.  1.
        -24    2    1    2    0    0 -0.54607559421E+03  0.18013279308E+02  0.58979577947E+02  0.55523675865E+03  0.79285778794E+02 0.  0.
        254    2    1    2    0    0  0.54607559421E+03 -0.18013279308E+02  0.82948815428E+03  0.13447963328E+04  0.90658896184E+03 0.  0.
         23    2    4    4    0    0  0.70130820018E+03  0.10831096053E+03  0.30769144568E+03  0.77857458174E+03  0.89106104018E+02 0.  0.
         23    2    4    4    0    0 -0.15523260597E+03 -0.12632423984E+03  0.52179670860E+03  0.56622175104E+03  0.90996102729E+02 0.  0.
          1    1    3    3  502    0 -0.39206298924E+03 -0.15550860088E+02  0.63858239970E+02  0.39753376158E+03  0.00000000000E+00 0. -1.
         -2    1    3    3    0  502 -0.15401260497E+03  0.33564139396E+02 -0.48786620229E+01  0.15770299707E+03  0.00000000000E+00 0.  1.
         11    1    5    5    0    0  0.30475976212E+03  0.12296257849E+02  0.10169596225E+03  0.32151481972E+03  0.00000000000E+00 0.  1.
        -11    1    5    5    0    0  0.39654843807E+03  0.96014702685E+02  0.20599548343E+03  0.45705976202E+03  0.00000000000E+00 0. -1.
          3    1    6    6  503    0 -0.12767880723E+03 -0.13886642463E+03  0.42992216185E+03  0.46948783473E+03  0.00000000000E+00 0. -1.
         -3    1    6    6    0  503 -0.27553798738E+02  0.12542184787E+02  0.91874546750E+02  0.96733916310E+02  0.00000000000E+00 0.  1.
<mgrwt>
<rscale>  0 0.16795091E+04</rscale>
<asrwt>0</asrwt>
<pdfrwt beam="1">  1        1 0.21450006E+00 0.16795091E+04</pdfrwt>
<pdfrwt beam="2">  1       -2 0.77812721E-01 0.16795091E+04</pdfrwt>
<totfact> 0.95406833E+00</totfact>
</mgrwt>
</event>
<event>
12    4  0.4381187E-008  0.2966220E+04  0.7818608E-02  0.8253443E-01
          1   -1    0    0  501    0  0.00000000000E+00  0.00000000000E+00  0.22408395579E+04  0.22408395579E+04  0.00000000000E+00 0. -1.
         -2   -1    0    0    0  501 -0.00000000000E+00 -0.00000000000E+00 -0.98160322442E+03  0.98160322442E+03  0.00000000000E+00 0.  1.
        -24    2    1    2    0    0  0.58042156117E+03 -0.69751234277E+03  0.16515984975E+04  0.18867329606E+04  0.92579752504E+02 0.  0.
        254    2    1    2    0    0 -0.58042156117E+03  0.69751234277E+03 -0.39236216403E+03  0.13357098218E+04  0.89819819816E+03 0.  0.
         23    2    4    4    0    0 -0.42858323630E+03 -0.59011450110E+02 -0.33922634548E+03  0.55687975332E+03  0.88738968399E+02 0.  0.
         23    2    4    4    0    0 -0.15183832486E+03  0.75652379288E+03 -0.53135818550E+02  0.77883006843E+03  0.91486251342E+02 0.  0.
          3    1    3    3  502    0  0.39430900996E+03 -0.46236008253E+03  0.11918855276E+04  0.13378518424E+04  0.00000000000E+00 0. -1.
         -4    1    3    3    0  502  0.18611255121E+03 -0.23515226024E+03  0.45971296990E+03  0.54888111819E+03  0.00000000000E+00 0.  1.
         11    1    5    5    0    0 -0.39968991644E+02 -0.19620853098E+02 -0.68230080391E+02  0.81472952809E+02  0.00000000000E+00 0. -1.
        -11    1    5    5    0    0 -0.38861424466E+03 -0.39390597012E+02 -0.27099626508E+03  0.47540680051E+03  0.00000000000E+00 0.  1.
          1    1    6    6  503    0 -0.11810938041E+03  0.55610367365E+03 -0.78931739058E+02  0.57396109713E+03  0.00000000000E+00 0. -1.
         -1    1    6    6    0  503 -0.33728944451E+02  0.20042011923E+03  0.25795920507E+02  0.20486897130E+03  0.00000000000E+00 0.  1.
<mgrwt>
<rscale>  0 0.29662200E+04</rscale>
<asrwt>0</asrwt>
<pdfrwt beam="1">  1        1 0.34474455E+00 0.29662200E+04</pdfrwt>
<pdfrwt beam="2">  1       -2 0.15101588E+00 0.29662200E+04</pdfrwt>
<totfact> 0.45125427E-01</totfact>
</mgrwt>
</event>
<event>
12    4  0.4381187E-008  0.1226757E+04  0.7818608E-02  0.9089754E-01
          1   -1    0    0  501    0  0.00000000000E+00  0.00000000000E+00  0.74656489187E+03  0.74656489187E+03  0.00000000000E+00 0. -1.
         -2   -1    0    0    0  501 -0.00000000000E+00 -0.00000000000E+00 -0.50395220683E+03  0.50395220683E+03  0.00000000000E+00 0.  1.
        -24    2    1    2    0    0  0.13289004687E+03 -0.13754085087E+03 -0.13356762449E+03  0.24796156528E+03  0.84067694907E+02 0.  0.
        254    2    1    2    0    0 -0.13289004687E+03  0.13754085087E+03  0.37618030953E+03  0.10025555334E+04  0.90941119528E+03 0.  0.
         23    2    4    4    0    0  0.46863895862E+02  0.36450015661E+03 -0.14009307196E+03  0.40373423296E+03  0.91206760441E+02 0.  0.
         23    2    4    4    0    0 -0.17975394273E+03 -0.22695930574E+03  0.51627338149E+03  0.59882130046E+03  0.90701373026E+02 0.  0.
          1    1    3    3  502    0 -0.14419677150E+01 -0.16607006463E+02 -0.42323516236E+02  0.45487932039E+02  0.00000000000E+00 0. -1.
         -2    1    3    3    0  502  0.13433201458E+03 -0.12093384441E+03 -0.91244108255E+02  0.20247363324E+03  0.00000000000E+00 0.  1.
         11    1    5    5    0    0  0.24810157379E+02  0.16231175255E+02 -0.12453211749E+02  0.32157074528E+02  0.00000000000E+00 0.  1.
        -11    1    5    5    0    0  0.22053738483E+02  0.34826898135E+03 -0.12763986021E+03  0.37157715843E+03  0.00000000000E+00 0. -1.
          4    1    6    6  503    0 -0.88724363507E+02 -0.17823156008E+03  0.31578511040E+03  0.37330783227E+03  0.00000000000E+00 0. -1.
         -4    1    6    6    0  503 -0.91029579222E+02 -0.48727745657E+02  0.20048827109E+03  0.22551346819E+03  0.00000000000E+00 0.  1.
<mgrwt>
<rscale>  0 0.12267567E+04</rscale>
<asrwt>0</asrwt>
<pdfrwt beam="1">  1        1 0.11485614E+00 0.12267567E+04</pdfrwt>
<pdfrwt beam="2">  1       -2 0.77531108E-01 0.12267567E+04</pdfrwt>
<totfact> 0.31662232E+01</totfact>
</mgrwt>
</event>
<event>
12    4  0.4381187E-008  0.2279560E+04  0.7818608E-02  0.8486024E-01
         -2   -1    0    0    0  501 -0.00000000000E+00  0.00000000000E+00  0.67914434013E+03  0.67914434013E+03  0.00000000000E+00 0.  1.
          1   -1    0    0  501    0  0.00000000000E+00 -0.00000000000E+00 -0.19128458158E+04  0.19128458158E+04  0.00000000000E+00 0. -1.
        -24    2    1    2    0    0 -0.54213946585E+03  0.61114939722E+03  0.59860476850E+02  0.82306107063E+03  0.80171460922E+02 0.  0.
        254    2    1    2    0    0  0.54213946585E+03 -0.61114939722E+03 -0.12935619526E+04  0.17689290853E+04  0.88791260701E+03 0.  0.
         23    2    4    4    0    0  0.63967172223E+03 -0.71106986621E+03 -0.12813265195E+04  0.16011462450E+04  0.84091507696E+02 0.  0.
         23    2    4    4    0    0 -0.97532256373E+02  0.99920468988E+02 -0.12235433106E+02  0.16778284031E+03  0.92221117557E+02 0.  0.
          3    1    3    3  502    0 -0.18952351534E+02  0.25664350680E+02 -0.13107894726E+02  0.34491555903E+02  0.00000000000E+00 0. -1.
         -4    1    3    3    0  502 -0.52318711432E+03  0.58548504654E+03  0.72968371576E+02  0.78856951473E+03  0.00000000000E+00 0.  1.
         11    1    5    5    0    0  0.94814902970E+02 -0.14952304967E+03 -0.21402382934E+03  0.27776466250E+03  0.00000000000E+00 0. -1.
        -11    1    5    5    0    0  0.54485681925E+03 -0.56154681654E+03 -0.10673026901E+04  0.13233815825E+04  0.00000000000E+00 0.  1.
          4    1    6    6  503    0 -0.73792515245E+02  0.12521162618E+02 -0.18174460730E+02  0.77022242517E+02  0.00000000000E+00 0. -1.
         -4    1    6    6    0  503 -0.23739741127E+02  0.87399306370E+02  0.59390276236E+01  0.90760597793E+02  0.00000000000E+00 0.  1.
<mgrwt>
<rscale>  0 0.22795600E+04</rscale>
<asrwt>0</asrwt>
<pdfrwt beam="1">  1        1 0.29428397E+00 0.22795600E+04</pdfrwt>
<pdfrwt beam="2">  1       -2 0.10448375E+00 0.22795600E+04</pdfrwt>
<totfact> 0.20203385E+00</totfact>
</mgrwt>
</event>
<event>
12    4  0.4381187E-008  0.1406884E+04  0.7818608E-02  0.8948851E-01
          1   -1    0    0  501    0  0.00000000000E+00  0.00000000000E+00  0.12759078676E+04  0.12759078676E+04  0.00000000000E+00 0. -1.
         -2   -1    0    0    0  501 -0.00000000000E+00 -0.00000000000E+00 -0.38782617544E+03  0.38782617544E+03  0.00000000000E+00 0.  1.
        -24    2    1    2    0    0 -0.22999121670E+03 -0.31157088086E+02 -0.13937465116E+03  0.28214835352E+03  0.79471228189E+02 0.  0.
        254    2    1    2    0    0  0.22999121670E+03  0.31157088086E+02  0.10274563433E+04  0.13815856895E+04  0.89400545644E+03 0.  0.
         23    2    4    4    0    0  0.30599255949E+03 -0.36502114438E+03  0.39226660639E+03  0.62358682815E+03  0.90086399864E+02 0.  0.
         23    2    4    4    0    0 -0.76001342797E+02  0.39617823247E+03  0.63518973688E+03  0.75799886133E+03  0.91448761324E+02 0.  0.
          1    1    3    3  502    0 -0.32665710965E+02 -0.35109886204E+02 -0.27382203002E+02  0.55222620577E+02  0.00000000000E+00 0. -1.
         -2    1    3    3    0  502 -0.19732550573E+03  0.39527981184E+01 -0.11199244816E+03  0.22692573294E+03  0.00000000000E+00 0.  1.
         11    1    5    5    0    0  0.21022791807E+03 -0.30870673011E+03  0.29534982183E+03  0.47615873405E+03  0.00000000000E+00 0.  1.
        -11    1    5    5    0    0  0.95764641421E+02 -0.56314414267E+02  0.96916784557E+02  0.14742809410E+03  0.00000000000E+00 0. -1.
          3    1    6    6  503    0 -0.63942116123E+02  0.12952610037E+03  0.26189419730E+03  0.29908890897E+03  0.00000000000E+00 0. -1.
         -3    1    6    6    0  503 -0.12059226675E+02  0.26665213209E+03  0.37329553958E+03  0.45890995235E+03  0.00000000000E+00 0.  1.
<mgrwt>
<rscale>  0 0.14068837E+04</rscale>
<asrwt>0</asrwt>
<pdfrwt beam="1">  1        1 0.19629352E+00 0.14068837E+04</pdfrwt>
<pdfrwt beam="2">  1       -2 0.59665566E-01 0.14068837E+04</pdfrwt>
<totfact> 0.21087126E+01</totfact>
</mgrwt>
</event>
<event>
12    4  0.4381187E-008  0.1595271E+04  0.7818608E-02  0.8823458E-01
         -2   -1    0    0    0  501 -0.00000000000E+00  0.00000000000E+00  0.12674850936E+04  0.12674850936E+04  0.00000000000E+00 0.  1.
          1   -1    0    0  501    0  0.00000000000E+00 -0.00000000000E+00 -0.50195664190E+03  0.50195664190E+03  0.00000000000E+00 0. -1.
        -24    2    1    2    0    0 -0.26384638124E+03  0.46290060281E+01 -0.27914480320E+03  0.39236859683E+03  0.79968456493E+02 0.  0.
        254    2    1    2    0    0  0.26384638124E+03 -0.46290060281E+01  0.10446732549E+04  0.13770731386E+04  0.85752660551E+03 0.  0.
         23    2    4    4    0    0  0.19113538534E+03 -0.13183256139E+03 -0.62245921878E+02  0.25681102887E+03  0.90359227448E+02 0.  0.
         23    2    4    4    0    0  0.72710995898E+02  0.12720355536E+03  0.11069191767E+04  0.11202621098E+04  0.90826743549E+02 0.  0.
          1    1    3    3  502    0 -0.14772738569E+03  0.14538863548E+02 -0.20898413593E+03  0.25633791781E+03  0.00000000000E+00 0. -1.
         -2    1    3    3    0  502 -0.11611899555E+03 -0.99098575195E+01 -0.70160667273E+02  0.13603067902E+03  0.00000000000E+00 0.  1.
         11    1    5    5    0    0  0.13354799719E+03 -0.12536696757E+03 -0.74220372055E+02  0.19763756662E+03  0.00000000000E+00 0. -1.
        -11    1    5    5    0    0  0.57587388148E+02 -0.64655938217E+01  0.11974450177E+02  0.59173462246E+02  0.00000000000E+00 0.  1.
          3    1    6    6  503    0  0.20815161922E+02  0.91667735261E+02  0.41611058200E+03  0.42659613348E+03  0.00000000000E+00 0. -1.
         -3    1    6    6    0  503  0.51895833976E+02  0.35535820104E+02  0.69080859475E+03  0.69366597630E+03  0.00000000000E+00 0.  1.
<mgrwt>
<rscale>  0 0.15952712E+04</rscale>
<asrwt>0</asrwt>
<pdfrwt beam="1">  1        1 0.77224100E-01 0.15952712E+04</pdfrwt>
<pdfrwt beam="2">  1       -2 0.19499770E+00 0.15952712E+04</pdfrwt>
<totfact> 0.53074559E+00</totfact>
</mgrwt>
</event>
<event>
12    4  0.4381187E-008  0.1246687E+04  0.7818608E-02  0.9072945E-01
         -2   -1    0    0    0  501 -0.00000000000E+00  0.00000000000E+00  0.16099469305E+04  0.16099469305E+04  0.00000000000E+00 0.  1.
          1   -1    0    0  501    0  0.00000000000E+00 -0.00000000000E+00 -0.24134784316E+03  0.24134784316E+03  0.00000000000E+00 0. -1.
        -24    2    1    2    0    0 -0.22095028835E+03 -0.11813667202E+03  0.11027482140E+03  0.28552465098E+03  0.81169494800E+02 0.  0.
        254    2    1    2    0    0  0.22095028835E+03  0.11813667202E+03  0.12583242660E+04  0.15657701227E+04  0.89748583034E+03 0.  0.
         23    2    4    4    0    0 -0.29646025351E+03  0.24064615862E+03  0.52988600542E+03  0.65945157739E+03  0.91093076627E+02 0.  0.
         23    2    4    4    0    0  0.51741054186E+03 -0.12250948660E+03  0.72843826056E+03  0.90631854533E+03  0.89826293692E+02 0.  0.
          3    1    3    3  502    0 -0.17837921459E+03 -0.67423534151E+02  0.52863219906E+02  0.19788783988E+03  0.00000000000E+00 0. -1.
         -4    1    3    3    0  502 -0.42571073764E+02 -0.50713137868E+02  0.57411601495E+02  0.87636811101E+02  0.00000000000E+00 0.  1.
         11    1    5    5    0    0 -0.23587663426E+03  0.21747928161E+03  0.48120254872E+03  0.57835189756E+03  0.00000000000E+00 0.  1.
        -11    1    5    5    0    0 -0.60583619247E+02  0.23166877011E+02  0.48683456705E+02  0.81099679829E+02  0.00000000000E+00 0. -1.
          4    1    6    6  503    0  0.15590106157E+03 -0.18256978480E+02  0.27957952005E+03  0.32062932850E+03  0.00000000000E+00 0. -1.
         -4    1    6    6    0  503  0.36150948029E+03 -0.10425250812E+03  0.44885874051E+03  0.58568921684E+03  0.00000000000E+00 0.  1.
<mgrwt>
<rscale>  0 0.12466872E+04</rscale>
<asrwt>0</asrwt>
<pdfrwt beam="1">  1        1 0.37130438E-01 0.12466872E+04</pdfrwt>
<pdfrwt beam="2">  1       -2 0.24768414E+00 0.12466872E+04</pdfrwt>
<totfact> 0.66660269E+00</totfact>
</mgrwt>
</event>
<event>
12    4  0.4381187E-008  0.1460690E+04  0.7818608E-02  0.8911023E-01
          3   -1    0    0  501    0  0.00000000000E+00  0.00000000000E+00  0.94177613482E+03  0.94177613482E+03  0.00000000000E+00 0. -1.
         -4   -1    0    0    0  501 -0.00000000000E+00 -0.00000000000E+00 -0.56638063832E+03  0.56638063832E+03  0.00000000000E+00 0.  1.
        -24    2    1    2    0    0  0.22973256749E+03 -0.29170993265E+03  0.36154337063E+03  0.52717712345E+03  0.96593857273E+02 0.  0.
        254    2    1    2    0    0 -0.22973256749E+03  0.29170993265E+03  0.13852125869E+02  0.98097964969E+03  0.90788625628E+03 0.  0.
         23    2    4    4    0    0 -0.19335228466E+03  0.41120760692E+03 -0.35335380384E+03  0.58269570692E+03  0.90545978377E+02 0.  0.
         23    2    4    4    0    0 -0.36380282831E+02 -0.11949767427E+03  0.36720592971E+03  0.39828394277E+03  0.90480302357E+02 0.  0.
          1    1    3    3  502    0  0.21990976376E+03 -0.27661389065E+03  0.30159124103E+03  0.46457811545E+03  0.00000000000E+00 0. -1.
         -2    1    3    3    0  502  0.98228037354E+01 -0.15096042006E+02  0.59952129607E+02  0.62599007994E+02  0.00000000000E+00 0.  1.
         11    1    5    5    0    0 -0.69683595460E+02  0.81815333460E+02 -0.51767654059E+02  0.11928722594E+03  0.00000000000E+00 0.  1.
        -11    1    5    5    0    0 -0.12366868920E+03  0.32939227346E+03 -0.30158614978E+03  0.46340848098E+03  0.00000000000E+00 0. -1.
          1    1    6    6  503    0 -0.83518191004E+01 -0.27312652061E+02  0.22318265070E+03  0.22500273202E+03  0.00000000000E+00 0. -1.
         -1    1    6    6    0  503 -0.28028463731E+02 -0.92185022208E+02  0.14402327901E+03  0.17328121074E+03  0.00000000000E+00 0.  1.
<mgrwt>
<rscale>  0 0.14606899E+04</rscale>
<asrwt>0</asrwt>
<pdfrwt beam="1">  1        3 0.14488864E+00 0.14606899E+04</pdfrwt>
<pdfrwt beam="2">  1       -4 0.87135483E-01 0.14606899E+04</pdfrwt>
<totfact> 0.89576734E-01</totfact>
</mgrwt>
</event>
<event>
12    4  0.4776295E-008  0.2235691E+04  0.7818608E-02  0.8503718E-01
          1   -1    0    0  501    0  0.00000000000E+00  0.00000000000E+00  0.13339000336E+04  0.13339000336E+04  0.00000000000E+00 0. -1.
         -2   -1    0    0    0  501 -0.00000000000E+00 -0.00000000000E+00 -0.93678615248E+03  0.93678615248E+03  0.00000000000E+00 0.  1.
        -24    2    1    2    0    0  0.60763949167E+03 -0.26612595542E+03  0.83609894669E+03  0.10702901641E+04  0.80067539074E+02 0.  0.
        254    2    1    2    0    0 -0.60763949167E+03  0.26612595542E+03 -0.43898506557E+03  0.12003960219E+04  0.89899607658E+03 0.  0.
         23    2    4    4    0    0  0.20117351294E+03  0.14663089881E+03  0.57291909819E+01  0.26527792417E+03  0.91477596320E+02 0.  0.
         23    2    4    4    0    0 -0.80881300461E+03  0.11949505661E+03 -0.44471425655E+03  0.93511809777E+03  0.90650658134E+02 0.  0.
          3    1    3    3  502    0  0.46920826875E+03 -0.19948799233E+03  0.58582986124E+03  0.77662634830E+03  0.00000000000E+00 0. -1.
         -4    1    3    3    0  502  0.13843122292E+03 -0.66637963092E+02  0.25026908545E+03  0.29366381584E+03  0.00000000000E+00 0.  1.
         11    1    5    5    0    0 -0.46126478412E+01  0.52473819107E+01  0.13805928289E+02  0.15473047306E+02  0.00000000000E+00 0.  1.
        -11    1    5    5    0    0  0.20578616078E+03  0.14138351690E+03 -0.80767373066E+01  0.24980487686E+03  0.00000000000E+00 0. -1.
          2    1    6    6  503    0 -0.25155893736E+03  0.62396325840E+02 -0.17995464351E+03  0.31552951393E+03  0.00000000000E+00 0.  1.
         -2    1    6    6    0  503 -0.55725406725E+03  0.57098730774E+02 -0.26475961304E+03  0.61958858384E+03  0.00000000000E+00 0. -1.
<mgrwt>
<rscale>  0 0.22356915E+04</rscale>
<asrwt>0</asrwt>
<pdfrwt beam="1">  1        1 0.20521539E+00 0.22356915E+04</pdfrwt>
<pdfrwt beam="2">  1       -2 0.14412095E+00 0.22356915E+04</pdfrwt>
<totfact> 0.22723131E+00</totfact>
</mgrwt>
</event>
<event>
12    4  0.4381187E-008  0.3219521E+04  0.7818608E-02  0.8183681E-01
         -2   -1    0    0    0  501 -0.00000000000E+00  0.00000000000E+00  0.83009782402E+03  0.83009782402E+03  0.00000000000E+00 0.  1.
          1   -1    0    0  501    0  0.00000000000E+00 -0.00000000000E+00 -0.31217159076E+04  0.31217159076E+04  0.00000000000E+00 0. -1.
        -24    2    1    2    0    0  0.69464847869E+03  0.98117945767E+03 -0.21386889398E+04  0.24547622869E+04  0.81350272077E+02 0.  0.
        254    2    1    2    0    0 -0.69464847869E+03 -0.98117945767E+03 -0.15292914379E+03  0.14970514447E+04  0.87893462105E+03 0.  0.
         23    2    4    4    0    0 -0.33065440608E+03  0.23967903551E+02  0.15612604424E+03  0.38043804031E+03  0.10222995729E+03 0.  0.
         23    2    4    4    0    0 -0.36399407261E+03 -0.10051473612E+04 -0.30905518802E+03  0.11166134044E+04  0.92181793389E+02 0.  0.
          3    1    3    3  502    0  0.49604175739E+03  0.73298865765E+03 -0.16342728248E+04  0.18585417572E+04  0.00000000000E+00 0. -1.
         -4    1    3    3    0  502  0.19860672130E+03  0.24819080002E+03 -0.50441611502E+03  0.59622052971E+03  0.00000000000E+00 0.  1.
         11    1    5    5    0    0 -0.29675791575E+03 -0.88160055768E+01  0.15076935280E+03  0.33297804771E+03  0.00000000000E+00 0.  1.
        -11    1    5    5    0    0 -0.33896490333E+02  0.32783909128E+02  0.53566914337E+01  0.47459992602E+02  0.00000000000E+00 0. -1.
          2    1    6    6  503    0 -0.10525265334E+03 -0.34293125609E+03 -0.14529636203E+03  0.38702842306E+03  0.00000000000E+00 0. -1.
         -2    1    6    6    0  503 -0.25874141927E+03 -0.66221610513E+03 -0.16375882600E+03  0.72958498137E+03  0.00000000000E+00 0.  1.
<mgrwt>
<rscale>  0 0.32195214E+04</rscale>
<asrwt>0</asrwt>
<pdfrwt beam="1">  1        1 0.48026399E+00 0.32195214E+04</pdfrwt>
<pdfrwt beam="2">  1       -2 0.12770736E+00 0.32195214E+04</pdfrwt>
<totfact> 0.16231506E-01</totfact>
</mgrwt>
</event>
<event>
12    4  0.4381187E-008  0.1635144E+04  0.7818608E-02  0.8799244E-01
          1   -1    0    0  501    0  0.00000000000E+00  0.00000000000E+00  0.59743419113E+03  0.59743419113E+03  0.00000000000E+00 0. -1.
         -2   -1    0    0    0  501 -0.00000000000E+00 -0.00000000000E+00 -0.11188245828E+04  0.11188245828E+04  0.00000000000E+00 0.  1.
        -24    2    1    2    0    0 -0.46576274633E+03  0.12738667066E+03 -0.47765737426E+03  0.68418964357E+03  0.82441503226E+02 0.  0.
        254    2    1    2    0    0  0.46576274633E+03 -0.12738667066E+03 -0.43733017399E+02  0.10320691303E+04  0.91109374559E+03 0.  0.
         23    2    4    4    0    0 -0.72679132157E+02 -0.39193128164E+03  0.68907885380E+02  0.41458177144E+03  0.90759918275E+02 0.  0.
         23    2    4    4    0    0  0.53844187849E+03  0.26454461098E+03 -0.11264090278E+03  0.61748735889E+03  0.93269275238E+02 0.  0.
          1    1    3    3  502    0 -0.56396243083E+02 -0.96354639694E+01 -0.42859572252E+02  0.71486511548E+02  0.00000000000E+00 0. -1.
         -2    1    3    3    0  502 -0.40936650325E+03  0.13702213463E+03 -0.43479780201E+03  0.61270313203E+03  0.00000000000E+00 0.  1.
         11    1    5    5    0    0 -0.28927364808E+02 -0.25781572165E+03  0.44247019037E+01  0.25947122528E+03  0.00000000000E+00 0. -1.
        -11    1    5    5    0    0 -0.43751767349E+02 -0.13411556000E+03  0.64483183477E+02  0.15511054616E+03  0.00000000000E+00 0.  1.
          3    1    6    6  503    0  0.14219734832E+03  0.90410089164E+02  0.62985186128E+01  0.16862307502E+03  0.00000000000E+00 0. -1.
         -3    1    6    6    0  503  0.39624453016E+03  0.17413452182E+03 -0.11893942139E+03  0.44886428387E+03  0.00000000000E+00 0.  1.
<mgrwt>
<rscale>  0 0.16351441E+04</rscale>
<asrwt>0</asrwt>
<pdfrwt beam="1">  1        1 0.91912954E-01 0.16351441E+04</pdfrwt>
<pdfrwt beam="2">  1       -2 0.17212686E+00 0.16351441E+04</pdfrwt>
<totfact> 0.59352800E+00</totfact>
</mgrwt>
</event>
<event>
12    4  0.4381187E-008  0.2594919E+04  0.7818608E-02  0.8369929E-01
         -4   -1    0    0    0  501 -0.00000000000E+00  0.00000000000E+00  0.29499980247E+04  0.29499980247E+04  0.00000000000E+00 0.  1.
          1   -1    0    0  501    0  0.00000000000E+00 -0.00000000000E+00 -0.57064478745E+03  0.57064478745E+03  0.00000000000E+00 0. -1.
        -24    2    1    2    0    0  0.31181718577E+03 -0.39690322894E+03  0.24430444345E+04  0.24961722488E+04  0.87450879364E+02 0.  0.
        254    2    1    2    0    0 -0.31181718577E+03  0.39690322894E+03 -0.63691197261E+02  0.10244705633E+04  0.88922507614E+03 0.  0.
         23    2    4    4    0    0 -0.44832117377E+03  0.66471851485E+02  0.26142144612E+03  0.53098104876E+03  0.90494860429E+02 0.  0.
         23    2    4    4    0    0  0.13650398800E+03  0.33043137746E+03 -0.32511264338E+03  0.49348951457E+03  0.10007715104E+03 0.  0.
          3    1    3    3  502    0  0.13278734531E+03 -0.10691541395E+03  0.88891970323E+03  0.90511967364E+03  0.00000000000E+00 0. -1.
         -4    1    3    3    0  502  0.17902984047E+03 -0.28998781499E+03  0.15541247312E+04  0.15910525752E+04  0.00000000000E+00 0.  1.
         11    1    5    5    0    0 -0.32598148508E+03  0.24981998676E+02  0.22459921664E+03  0.39665203515E+03  0.00000000000E+00 0.  1.
        -11    1    5    5    0    0 -0.12233968868E+03  0.41489852809E+02  0.36822229482E+02  0.13432901361E+03  0.00000000000E+00 0. -1.
          3    1    6    6  503    0  0.14138772845E+03  0.30200326420E+03 -0.32350733544E+03  0.46460032009E+03  0.00000000000E+00 0. -1.
         -3    1    6    6    0  503 -0.48837404552E+01  0.28428113256E+02 -0.16053079390E+01  0.28889194480E+02  0.00000000000E+00 0.  1.
<mgrwt>
<rscale>  0 0.25949189E+04</rscale>
<asrwt>0</asrwt>
<pdfrwt beam="1">  1        1 0.87791507E-01 0.25949189E+04</pdfrwt>
<pdfrwt beam="2">  1       -4 0.45384584E+00 0.25949189E+04</pdfrwt>
<totfact> 0.42594719E-02</totfact>
</mgrwt>
</event>
<event>
12    4  0.4381187E-008  0.1598462E+04  0.7818608E-02  0.8821494E-01
         -2   -1    0    0    0  501 -0.00000000000E+00  0.00000000000E+00  0.89698829480E+03  0.89698829480E+03  0.00000000000E+00 0.  1.
          1   -1    0    0  501    0  0.00000000000E+00 -0.00000000000E+00 -0.71212746555E+03  0.71212746555E+03  0.00000000000E+00 0. -1.
        -24    2    1    2    0    0  0.32263006836E+03 -0.36364264330E+03 -0.17800767136E+03  0.52389759304E+03  0.80348141797E+02 0.  0.
        254    2    1    2    0    0 -0.32263006836E+03  0.36364264330E+03  0.36286850061E+03  0.10852181673E+04  0.89983264494E+03 0.  0.
         23    2    4    4    0    0 -0.34765780303E+03 -0.21009879650E+03  0.27149934357E+03  0.49687715139E+03  0.90374541320E+02 0.  0.
         23    2    4    4    0    0  0.25027734666E+02  0.57374143980E+03  0.91369157045E+02  0.58834101593E+03  0.89393517168E+02 0.  0.
          3    1    3    3  502    0  0.26077399341E+03 -0.27163653946E+03 -0.16878851058E+03  0.41264881741E+03  0.00000000000E+00 0. -1.
         -4    1    3    3    0  502  0.61856074946E+02 -0.92006103843E+02 -0.92191607816E+01  0.11124877562E+03  0.00000000000E+00 0.  1.
         11    1    5    5    0    0 -0.45435869982E+02 -0.35087565410E+02  0.80348733127E+02  0.98749554138E+02  0.00000000000E+00 0.  1.
        -11    1    5    5    0    0 -0.30222193304E+03 -0.17501123109E+03  0.19115061044E+03  0.39812759725E+03  0.00000000000E+00 0. -1.
          1    1    6    6  503    0  0.92839073304E+01  0.49166397726E+03  0.10715102994E+03  0.50329017543E+03  0.00000000000E+00 0. -1.
         -1    1    6    6    0  503  0.15743827335E+02  0.82077462545E+02 -0.15781872891E+02  0.85050840495E+02  0.00000000000E+00 0.  1.
<mgrwt>
<rscale>  0 0.15984618E+04</rscale>
<asrwt>0</asrwt>
<pdfrwt beam="1">  1        1 0.10955807E+00 0.15984618E+04</pdfrwt>
<pdfrwt beam="2">  1       -2 0.13799820E+00 0.15984618E+04</pdfrwt>
<totfact> 0.83111677E+00</totfact>
</mgrwt>
</event>
<event>
12    4  0.4381187E-008  0.4533672E+04  0.7818608E-02  0.7904768E-01
         -2   -1    0    0    0  501 -0.00000000000E+00  0.00000000000E+00  0.42504154332E+04  0.42504154332E+04  0.00000000000E+00 0.  1.
          1   -1    0    0  501    0  0.00000000000E+00 -0.00000000000E+00 -0.12089513357E+04  0.12089513357E+04  0.00000000000E+00 0. -1.
        -24    2    1    2    0    0 -0.30467885581E+03  0.21360986885E+04  0.17993178321E+04  0.28105459690E+04  0.76662706559E+02 0.  0.
        254    2    1    2    0    0  0.30467885581E+03 -0.21360986885E+04  0.12421462654E+04  0.26488207998E+04  0.90419990744E+03 0.  0.
         23    2    4    4    0    0  0.30612853897E+03 -0.20187451935E+04  0.82266106055E+03  0.22032377795E+04  0.91862144828E+02 0.  0.
         23    2    4    4    0    0 -0.14496831583E+01 -0.11735349502E+03  0.41948520487E+03  0.44558302036E+03  0.93821354479E+02 0.  0.
          1    1    3    3  502    0  0.40037430138E+00  0.28709808361E+02  0.14827916596E+02  0.32315329277E+02  0.00000000000E+00 0. -1.
         -2    1    3    3    0  502 -0.30507923012E+03  0.21073888802E+04  0.17844899155E+04  0.27782306397E+04  0.00000000000E+00 0.  1.
         11    1    5    5    0    0  0.12776423134E+03 -0.58062773454E+03  0.22418175374E+03  0.63538155752E+03  0.00000000000E+00 0. -1.
        -11    1    5    5    0    0  0.17836430763E+03 -0.14381174590E+04  0.59847930681E+03  0.15678562220E+04  0.00000000000E+00 0.  1.
          2    1    6    6  503    0  0.21888516872E+02 -0.11152931842E+03  0.25284358387E+03  0.27721431050E+03  0.00000000000E+00 0. -1.
         -2    1    6    6    0  503 -0.23338200030E+02 -0.58241766017E+01  0.16664162100E+03  0.16836870987E+03  0.00000000000E+00 0.  1.
<mgrwt>
<rscale>  0 0.45336720E+04</rscale>
<asrwt>0</asrwt>
<pdfrwt beam="1">  1        1 0.18599252E+00 0.45336720E+04</pdfrwt>
<pdfrwt beam="2">  1       -2 0.65391006E+00 0.45336720E+04</pdfrwt>
<totfact> 0.22662590E-03</totfact>
</mgrwt>
</event>
<event>
12    4  0.4381187E-008  0.1632624E+04  0.7818608E-02  0.8800753E-01
         -2   -1    0    0    0  501 -0.00000000000E+00  0.00000000000E+00  0.11044941975E+04  0.11044941975E+04  0.00000000000E+00 0.  1.
          1   -1    0    0  501    0  0.00000000000E+00 -0.00000000000E+00 -0.60332164311E+03  0.60332164311E+03  0.00000000000E+00 0. -1.
        -24    2    1    2    0    0  0.24435577500E+03 -0.13120243405E+03  0.69299857336E+03  0.75083719669E+03  0.81152016502E+02 0.  0.
        254    2    1    2    0    0 -0.24435577500E+03  0.13120243405E+03 -0.19182601897E+03  0.95697864391E+03  0.89559314416E+03 0.  0.
         23    2    4    4    0    0 -0.40828114383E+03  0.18131757684E+03  0.21672171789E+03  0.50441703978E+03  0.88874579815E+02 0.  0.
         23    2    4    4    0    0  0.16392536883E+03 -0.50115142792E+02 -0.40854773687E+03  0.45256160412E+03  0.92291376331E+02 0.  0.
          1    1    3    3  502    0  0.48496920242E+02 -0.24896057262E+02  0.23842268434E+03  0.24457543079E+03  0.00000000000E+00 0. -1.
         -2    1    3    3    0  502  0.19585885476E+03 -0.10630637679E+03  0.45457588902E+03  0.50626176590E+03  0.00000000000E+00 0.  1.
         11    1    5    5    0    0 -0.22879202551E+03  0.53118344725E+02  0.10846867231E+03  0.25871374597E+03  0.00000000000E+00 0. -1.
        -11    1    5    5    0    0 -0.17948911833E+03  0.12819923212E+03  0.10825304558E+03  0.24570329381E+03  0.00000000000E+00 0.  1.
          3    1    6    6  503    0  0.17455195331E+03 -0.45336029098E+02 -0.39753370045E+03  0.43652810097E+03  0.00000000000E+00 0. -1.
         -3    1    6    6    0  503 -0.10626584477E+02 -0.47791136938E+01 -0.11014036412E+02  0.16033503155E+02  0.00000000000E+00 0.  1.
<mgrwt>
<rscale>  0 0.16326240E+04</rscale>
<asrwt>0</asrwt>
<pdfrwt beam="1">  1        1 0.92818715E-01 0.16326240E+04</pdfrwt>
<pdfrwt beam="2">  1       -2 0.16992218E+00 0.16326240E+04</pdfrwt>
<totfact> 0.60676884E+00</totfact>
</mgrwt>
</event>
<event>
12    4  0.4381187E-008  0.1591223E+04  0.7818608E-02  0.8825958E-01
          1   -1    0    0  501    0  0.00000000000E+00  0.00000000000E+00  0.21330431124E+04  0.21330431124E+04  0.00000000000E+00 0. -1.
         -2   -1    0    0    0  501 -0.00000000000E+00 -0.00000000000E+00 -0.29675809375E+03  0.29675809375E+03  0.00000000000E+00 0.  1.
        -24    2    1    2    0    0  0.23134517300E+03  0.45638567430E+03  0.80333612994E+03  0.95586548069E+03  0.80755227256E+02 0.  0.
        254    2    1    2    0    0 -0.23134517300E+03 -0.45638567430E+03  0.10329488887E+04  0.14739357254E+04  0.91852852067E+03 0.  0.
         23    2    4    4    0    0 -0.37512166271E+03 -0.11737070038E+03  0.33647678174E+02  0.40524839742E+03  0.92746720812E+02 0.  0.
         23    2    4    4    0    0  0.14377648970E+03 -0.33901497392E+03  0.99930121053E+03  0.10686873280E+04  0.88808018706E+02 0.  0.
          3    1    3    3  502    0  0.43137925074E+02  0.91930705228E+02  0.22481224972E+03  0.24668336541E+03  0.00000000000E+00 0. -1.
         -4    1    3    3    0  502  0.18820724793E+03  0.36445496907E+03  0.57852388022E+03  0.70918211528E+03  0.00000000000E+00 0.  1.
         11    1    5    5    0    0 -0.13254186928E+02 -0.16207375715E+02  0.20461567780E+02  0.29275044914E+02  0.00000000000E+00 0.  1.
        -11    1    5    5    0    0 -0.36186747578E+03 -0.10116332467E+03  0.13186110394E+02  0.37597335250E+03  0.00000000000E+00 0. -1.
          4    1    6    6  503    0  0.11864955220E+03 -0.28125314604E+03  0.90659248124E+03  0.95660387592E+03  0.00000000000E+00 0. -1.
         -4    1    6    6    0  503  0.25126937505E+02 -0.57761827883E+02  0.92708729290E+02  0.11208345210E+03  0.00000000000E+00 0.  1.
<mgrwt>
<rscale>  0 0.15912232E+04</rscale>
<asrwt>0</asrwt>
<pdfrwt beam="1">  1        1 0.32816047E+00 0.15912232E+04</pdfrwt>
<pdfrwt beam="2">  1       -2 0.45655093E-01 0.15912232E+04</pdfrwt>
<totfact> 0.92883932E+00</totfact>
</mgrwt>
</event>
<event>
12    4  0.4381187E-008  0.1326581E+04  0.7818608E-02  0.9008748E-01
         -2   -1    0    0    0  501 -0.00000000000E+00  0.00000000000E+00  0.16498643152E+03  0.16498643152E+03  0.00000000000E+00 0.  1.
          1   -1    0    0  501    0  0.00000000000E+00 -0.00000000000E+00 -0.26666102301E+04  0.26666102301E+04  0.00000000000E+00 0. -1.
        -24    2    1    2    0    0 -0.26904312165E+03  0.17940093705E+03 -0.99542082198E+03  0.10499011544E+04  0.82830692497E+02 0.  0.
        254    2    1    2    0    0  0.26904312165E+03 -0.17940093705E+03 -0.15062029766E+04  0.17816955072E+04  0.89511037099E+03 0.  0.
         23    2    4    4    0    0 -0.10387574442E+03 -0.44111722407E+03 -0.95834541137E+03  0.10642003472E+04  0.93390984115E+02 0.  0.
         23    2    4    4    0    0  0.37291886608E+03  0.26171628703E+03 -0.54785756523E+03  0.71749515999E+03  0.84187274964E+02 0.  0.
          3    1    3    3  502    0 -0.24951827613E+03  0.18505463452E+03 -0.96058805780E+03  0.10095711984E+04  0.00000000000E+00 0. -1.
         -4    1    3    3    0  502 -0.19524845529E+02 -0.56536974715E+01 -0.34832764173E+02  0.40329955963E+02  0.00000000000E+00 0.  1.
         11    1    5    5    0    0  0.15980424045E+00 -0.20095763789E+03 -0.42148079591E+03  0.46693688983E+03  0.00000000000E+00 0. -1.
        -11    1    5    5    0    0 -0.10403554866E+03 -0.24015958619E+03 -0.53686461546E+03  0.59726345741E+03  0.00000000000E+00 0.  1.
          2    1    6    6  503    0  0.15051115643E+03  0.12899443175E+03 -0.18103443863E+03  0.26845230415E+03  0.00000000000E+00 0. -1.
         -2    1    6    6    0  503  0.22240770965E+03  0.13272185527E+03 -0.36682312660E+03  0.44904285584E+03  0.00000000000E+00 0.  1.
<mgrwt>
<rscale>  0 0.13265813E+04</rscale>
<asrwt>0</asrwt>
<pdfrwt beam="1">  1        1 0.41024772E+00 0.13265813E+04</pdfrwt>
<pdfrwt beam="2">  1       -2 0.25382529E-01 0.13265813E+04</pdfrwt>
<totfact> 0.12520913E+01</totfact>
</mgrwt>
</event>
<event>
12    4  0.4381187E-008  0.1276632E+04  0.7818608E-02  0.9048304E-01
         -2   -1    0    0    0  501 -0.00000000000E+00  0.00000000000E+00  0.77708133310E+03  0.77708133310E+03  0.00000000000E+00 0.  1.
          1   -1    0    0  501    0  0.00000000000E+00 -0.00000000000E+00 -0.52433025953E+03  0.52433025953E+03  0.00000000000E+00 0. -1.
        -24    2    1    2    0    0 -0.18333267487E+03 -0.11751724857E+03  0.30156967653E+03  0.38051643295E+03  0.80170521755E+02 0.  0.
        254    2    1    2    0    0  0.18333267487E+03  0.11751724857E+03 -0.48818602951E+02  0.92089515967E+03  0.89344471890E+03 0.  0.
         23    2    4    4    0    0  0.48862588594E+03  0.71341608673E+02  0.17138422110E+03  0.53038387347E+03  0.89942317343E+02 0.  0.
         23    2    4    4    0    0 -0.30529321107E+03  0.46175639900E+02 -0.22020282406E+03  0.39051128621E+03  0.93132413736E+02 0.  0.
          1    1    3    3  502    0 -0.23061783957E+02  0.98236873711E+01  0.52070729941E+02  0.57790238185E+02  0.00000000000E+00 0. -1.
         -2    1    3    3    0  502 -0.16027089092E+03 -0.12734093594E+03  0.24949894658E+03  0.32272619477E+03  0.00000000000E+00 0.  1.
         11    1    5    5    0    0  0.57205434885E+02  0.35173604624E+02  0.79256639372E+01  0.67619970360E+02  0.00000000000E+00 0. -1.
        -11    1    5    5    0    0  0.43142045106E+03  0.36168004049E+02  0.16345855717E+03  0.46276390311E+03  0.00000000000E+00 0.  1.
          4    1    6    6  503    0 -0.23837009300E+01 -0.13402164556E+02 -0.67807115434E+01  0.15207830021E+02  0.00000000000E+00 0. -1.
         -4    1    6    6    0  503 -0.30290951014E+03  0.59577804456E+02 -0.21342211251E+03  0.37530345619E+03  0.00000000000E+00 0.  1.
<mgrwt>
<rscale>  0 0.12766319E+04</rscale>
<asrwt>0</asrwt>
<pdfrwt beam="1">  1        1 0.80666194E-01 0.12766319E+04</pdfrwt>
<pdfrwt beam="2">  1       -2 0.11955097E+00 0.12766319E+04</pdfrwt>
<totfact> 0.19136675E+01</totfact>
</mgrwt>
</event>
<event>
12    4  0.4381187E-008  0.2630687E+04  0.7818608E-02  0.8357852E-01
         -2   -1    0    0    0  501 -0.00000000000E+00  0.00000000000E+00  0.90481756049E+03  0.90481756049E+03  0.00000000000E+00 0.  1.
          1   -1    0    0  501    0  0.00000000000E+00 -0.00000000000E+00 -0.19121295744E+04  0.19121295744E+04  0.00000000000E+00 0. -1.
        -24    2    1    2    0    0  0.70874756858E+03  0.15136635012E+03 -0.14085163203E+04  0.15860916815E+04  0.80831366257E+02 0.  0.
        254    2    1    2    0    0 -0.70874756858E+03 -0.15136635012E+03  0.40120430634E+03  0.12308554534E+04  0.91038748004E+03 0.  0.
         23    2    4    4    0    0 -0.57093183723E+03  0.99809887679E+02 -0.14746047049E+03  0.60494607920E+03  0.91049392904E+02 0.  0.
         23    2    4    4    0    0 -0.13781573135E+03 -0.25117623780E+03  0.54866477683E+03  0.62590937419E+03  0.92988327891E+02 0.  0.
          3    1    3    3  502    0  0.34691969947E+03  0.10590219861E+03 -0.75849555262E+03  0.84076397217E+03  0.00000000000E+00 0. -1.
         -4    1    3    3    0  502  0.36182786911E+03  0.45464151514E+02 -0.65002076766E+03  0.74532770935E+03  0.00000000000E+00 0.  1.
         11    1    5    5    0    0 -0.21567990557E+02 -0.22074409408E+00  0.11393554038E+02  0.24393442115E+02  0.00000000000E+00 0.  1.
        -11    1    5    5    0    0 -0.54936384667E+03  0.10003063177E+03 -0.15885402453E+03  0.58055263709E+03  0.00000000000E+00 0. -1.
          1    1    6    6  503    0 -0.11722494261E+03 -0.25438043409E+03  0.50331436838E+03  0.57600038701E+03  0.00000000000E+00 0. -1.
         -1    1    6    6    0  503 -0.20590788747E+02  0.32041962892E+01  0.45350408453E+02  0.49908987186E+02  0.00000000000E+00 0.  1.
<mgrwt>
<rscale>  0 0.26306869E+04</rscale>
<asrwt>0</asrwt>
<pdfrwt beam="1">  1        1 0.29417378E+00 0.26306869E+04</pdfrwt>
<pdfrwt beam="2">  1       -2 0.13920270E+00 0.26306869E+04</pdfrwt>
<totfact> 0.96198537E-01</totfact>
</mgrwt>
</event>
<event>
12    4  0.4381187E-008  0.1645459E+04  0.7818608E-02  0.8793097E-01
         -2   -1    0    0    0  501 -0.00000000000E+00  0.00000000000E+00  0.10255716472E+04  0.10255716472E+04  0.00000000000E+00 0.  1.
          1   -1    0    0  501    0  0.00000000000E+00 -0.00000000000E+00 -0.66000675278E+03  0.66000675278E+03  0.00000000000E+00 0. -1.
        -24    2    1    2    0    0  0.14076021361E+02  0.74424435704E+02  0.70988073334E+03  0.71828154413E+03  0.79123890611E+02 0.  0.
        254    2    1    2    0    0 -0.14076021361E+02 -0.74424435704E+02 -0.34431583890E+03  0.96729685586E+03  0.90076227688E+03 0.  0.
         23    2    4    4    0    0 -0.18348791915E+01 -0.47723027929E+03 -0.22778215779E+03  0.53814012423E+03  0.99789657021E+02 0.  0.
         23    2    4    4    0    0 -0.12241142170E+02  0.40280584359E+03 -0.11653368111E+03  0.42915673163E+03  0.90515237846E+02 0.  0.
          3    1    3    3  502    0  0.16561772181E+02 -0.11521535207E+02  0.21901138306E+03  0.21993868232E+03  0.00000000000E+00 0. -1.
         -4    1    3    3    0  502 -0.24857508198E+01  0.85945970912E+02  0.49086935028E+03  0.49834286181E+03  0.00000000000E+00 0.  1.
         11    1    5    5    0    0  0.48183342063E+02 -0.23941022572E+03 -0.10439984053E+03  0.26559031860E+03  0.00000000000E+00 0. -1.
        -11    1    5    5    0    0 -0.50018221254E+02 -0.23782005357E+03 -0.12338231726E+03  0.27254980563E+03  0.00000000000E+00 0.  1.
          2    1    6    6  503    0 -0.26380865165E+02  0.34143683052E+03 -0.12713815382E+03  0.36529326498E+03  0.00000000000E+00 0. -1.
         -2    1    6    6    0  503  0.14139722995E+02  0.61369013063E+02  0.10604472714E+02  0.63863466647E+02  0.00000000000E+00 0.  1.
<mgrwt>
<rscale>  0 0.16454595E+04</rscale>
<asrwt>0</asrwt>
<pdfrwt beam="1">  1        1 0.10153950E+00 0.16454595E+04</pdfrwt>
<pdfrwt beam="2">  1       -2 0.15778025E+00 0.16454595E+04</pdfrwt>
<totfact> 0.65146743E+00</totfact>
</mgrwt>
</event>
<event>
12    4  0.4381187E-008  0.1780208E+04  0.7818608E-02  0.8716896E-01
         -2   -1    0    0    0  501 -0.00000000000E+00  0.00000000000E+00  0.80819952844E+03  0.80819952844E+03  0.00000000000E+00 0.  1.
          1   -1    0    0  501    0  0.00000000000E+00 -0.00000000000E+00 -0.98030872848E+03  0.98030872848E+03  0.00000000000E+00 0. -1.
        -24    2    1    2    0    0 -0.83400742410E+02  0.46937922138E+03  0.40878731173E+03  0.63325052294E+03  0.81404061743E+02 0.  0.
        254    2    1    2    0    0  0.83400742410E+02 -0.46937922138E+03 -0.58089651177E+03  0.11552577340E+04  0.87744352368E+03 0.  0.
         23    2    4    4    0    0  0.37941943924E+03 -0.41385772285E+02 -0.47198601251E+03  0.61561668085E+03  0.10267038871E+03 0.  0.
         23    2    4    4    0    0 -0.29601869683E+03 -0.42799344910E+03 -0.10891049926E+03  0.53964105313E+03  0.92441917093E+02 0.  0.
          1    1    3    3  502    0  0.20557546110E+01  0.65798059331E+02  0.91972709444E+02  0.11310433246E+03  0.00000000000E+00 0. -1.
         -2    1    3    3    0  502 -0.85456497021E+02  0.40358116205E+03  0.31681460228E+03  0.52014619048E+03  0.00000000000E+00 0.  1.
         11    1    5    5    0    0  0.35961720247E+03 -0.60836627847E+02 -0.41683562800E+03  0.55387504761E+03  0.00000000000E+00 0.  1.
        -11    1    5    5    0    0  0.19802236771E+02  0.19450855562E+02 -0.55150384515E+02  0.61741633242E+02  0.00000000000E+00 0. -1.
          1    1    6    6  503    0 -0.94533747841E+02 -0.20858125192E+03 -0.26298357123E+02  0.23050894065E+03  0.00000000000E+00 0. -1.
         -1    1    6    6    0  503 -0.20148494898E+03 -0.21941219718E+03 -0.82612142139E+02  0.30913211248E+03  0.00000000000E+00 0.  1.
<mgrwt>
<rscale>  0 0.17802079E+04</rscale>
<asrwt>0</asrwt>
<pdfrwt beam="1">  1        1 0.15081673E+00 0.17802079E+04</pdfrwt>
<pdfrwt beam="2">  1       -2 0.12433839E+00 0.17802079E+04</pdfrwt>
<totfact> 0.63123994E+00</totfact>
</mgrwt>
</event>
<event>
12    4  0.4381187E-008  0.2681421E+04  0.7818608E-02  0.8341058E-01
          1   -1    0    0  501    0  0.00000000000E+00  0.00000000000E+00  0.17094576631E+04  0.17094576631E+04  0.00000000000E+00 0. -1.
         -2   -1    0    0    0  501 -0.00000000000E+00 -0.00000000000E+00 -0.10515058842E+04  0.10515058842E+04  0.00000000000E+00 0.  1.
        -24    2    1    2    0    0  0.30486999119E+03  0.80308820664E+03 -0.56204119057E+03  0.10296356063E+04  0.79767178234E+02 0.  0.
        254    2    1    2    0    0 -0.30486999119E+03 -0.80308820664E+03  0.12199929694E+04  0.17313279410E+04  0.87818973735E+03 0.  0.
         23    2    4    4    0    0  0.35600356530E+02 -0.85363589343E+03  0.74303032672E+03  0.11360266794E+04  0.92200466410E+02 0.  0.
         23    2    4    4    0    0 -0.34047034772E+03  0.50547686793E+02  0.47696264269E+03  0.59530126159E+03  0.91733871701E+02 0.  0.
          3    1    3    3  502    0  0.12278043701E+03  0.39337231239E+03 -0.30644036127E+03  0.51353919703E+03  0.00000000000E+00 0. -1.
         -4    1    3    3    0  502  0.18208955417E+03  0.40971589425E+03 -0.25560082930E+03  0.51609640929E+03  0.00000000000E+00 0.  1.
         11    1    5    5    0    0  0.40111567452E+02 -0.75086241246E+03  0.61245581174E+03  0.96979658775E+03  0.00000000000E+00 0. -1.
        -11    1    5    5    0    0 -0.45112109224E+01 -0.10277348098E+03  0.13057451498E+03  0.16623009168E+03  0.00000000000E+00 0.  1.
          2    1    6    6  503    0 -0.28979851679E+03  0.74683477516E+02  0.41566297978E+03  0.51218796834E+03  0.00000000000E+00 0. -1.
         -2    1    6    6    0  503 -0.50671830922E+02 -0.24135790722E+02  0.61299662911E+02  0.83113293255E+02  0.00000000000E+00 0.  1.
<mgrwt>
<rscale>  0 0.26814211E+04</rscale>
<asrwt>0</asrwt>
<pdfrwt beam="1">  1        1 0.26299349E+00 0.26814211E+04</pdfrwt>
<pdfrwt beam="2">  1       -2 0.16177014E+00 0.26814211E+04</pdfrwt>
<totfact> 0.88190941E-01</totfact>
</mgrwt>
</event>
<event>
12    4  0.4381187E-008  0.2432646E+04  0.7818608E-02  0.8427382E-01
         -2   -1    0    0    0  501 -0.00000000000E+00  0.00000000000E+00  0.74117987445E+03  0.74117987445E+03  0.00000000000E+00 0.  1.
          1   -1    0    0  501    0  0.00000000000E+00 -0.00000000000E+00 -0.19960621497E+04  0.19960621497E+04  0.00000000000E+00 0. -1.
        -24    2    1    2    0    0 -0.64722341207E+03 -0.90434178566E+02 -0.14652207644E+04  0.16063833157E+04  0.80740218245E+02 0.  0.
        254    2    1    2    0    0  0.64722341207E+03  0.90434178566E+02  0.21033848918E+03  0.11308587084E+04  0.89862264190E+03 0.  0.
         23    2    4    4    0    0  0.28848627796E+03 -0.23457058691E+03  0.44389745104E+03  0.58612794718E+03  0.90847843170E+02 0.  0.
         23    2    4    4    0    0  0.35873713410E+03  0.32500476547E+03 -0.23355896186E+03  0.54473076122E+03  0.88664449398E+02 0.  0.
          3    1    3    3  502    0 -0.51773802623E+03 -0.54313237969E+02 -0.12266839406E+04  0.13325749817E+04  0.00000000000E+00 0. -1.
         -4    1    3    3    0  502 -0.12948538583E+03 -0.36120940597E+02 -0.23853682374E+03  0.27380833401E+03  0.00000000000E+00 0.  1.
         11    1    5    5    0    0  0.12042505481E+03 -0.11065644218E+03  0.12902595644E+03  0.20831404047E+03  0.00000000000E+00 0. -1.
        -11    1    5    5    0    0  0.16806122316E+03 -0.12391414473E+03  0.31487149459E+03  0.37781390670E+03  0.00000000000E+00 0.  1.
          3    1    6    6  503    0  0.35715741307E+03  0.29888178332E+03 -0.21726799886E+03  0.51390380563E+03  0.00000000000E+00 0. -1.
         -3    1    6    6    0  503  0.15797210264E+01  0.26122982156E+02 -0.16290962997E+02  0.30826955584E+02  0.00000000000E+00 0.  1.
<mgrwt>
<rscale>  0 0.24326456E+04</rscale>
<asrwt>0</asrwt>
<pdfrwt beam="1">  1        1 0.30708648E+00 0.24326456E+04</pdfrwt>
<pdfrwt beam="2">  1       -2 0.11402768E+00 0.24326456E+04</pdfrwt>
<totfact> 0.14172254E+00</totfact>
</mgrwt>
</event>
<event>
12    4  0.4381187E-008  0.1397496E+04  0.7818608E-02  0.8955633E-01
          1   -1    0    0  501    0  0.00000000000E+00  0.00000000000E+00  0.12184325398E+04  0.12184325398E+04  0.00000000000E+00 0. -1.
         -2   -1    0    0    0  501 -0.00000000000E+00 -0.00000000000E+00 -0.40071878802E+03  0.40071878802E+03  0.00000000000E+00 0.  1.
        -24    2    1    2    0    0 -0.37287845649E+03  0.10784127972E+02  0.40483329980E+03  0.55647625831E+03  0.81370662397E+02 0.  0.
        254    2    1    2    0    0  0.37287845649E+03 -0.10784127972E+02  0.41288045193E+03  0.10626750695E+04  0.90534711296E+03 0.  0.
         23    2    4    4    0    0  0.61506743108E+03 -0.17011147277E+03  0.39833087161E+03  0.75811855633E+03  0.93970230494E+02 0.  0.
         23    2    4    4    0    0 -0.24218897459E+03  0.15932734479E+03  0.14549580316E+02  0.30455651314E+03  0.92207793571E+02 0.  0.
          3    1    3    3  502    0 -0.33204522562E+03 -0.65337084874E+01  0.38332311155E+03  0.50718175149E+03  0.00000000000E+00 0. -1.
         -4    1    3    3    0  502 -0.40833230873E+02  0.17317836460E+02  0.21510188257E+02  0.49294506814E+02  0.00000000000E+00 0.  1.
         11    1    5    5    0    0  0.20955106798E+03 -0.23819534457E+02  0.16605832620E+03  0.26842948425E+03  0.00000000000E+00 0. -1.
        -11    1    5    5    0    0  0.40551636310E+03 -0.14629193831E+03  0.23227254541E+03  0.48968907207E+03  0.00000000000E+00 0.  1.
          4    1    6    6  503    0 -0.82590195688E+02  0.60294126438E+01  0.44401692691E+00  0.82811179147E+02  0.00000000000E+00 0. -1.
         -4    1    6    6    0  503 -0.15959877891E+03  0.15329793215E+03  0.14105563390E+02  0.22174533400E+03  0.00000000000E+00 0.  1.
<mgrwt>
<rscale>  0 0.13974961E+04</rscale>
<asrwt>0</asrwt>
<pdfrwt beam="1">  1        1 0.18745116E+00 0.13974961E+04</pdfrwt>
<pdfrwt beam="2">  1       -2 0.61649045E-01 0.13974961E+04</pdfrwt>
<totfact> 0.21665732E+01</totfact>
</mgrwt>
</event>
<event>
12    4  0.4381187E-008  0.1711125E+04  0.7818608E-02  0.8755045E-01
         -2   -1    0    0    0  501 -0.00000000000E+00  0.00000000000E+00  0.11714771866E+04  0.11714771866E+04  0.00000000000E+00 0.  1.
          1   -1    0    0  501    0  0.00000000000E+00 -0.00000000000E+00 -0.62484086306E+03  0.62484086306E+03  0.00000000000E+00 0. -1.
        -24    2    1    2    0    0  0.49130098534E+03 -0.36692971992E+03  0.24828456762E+03  0.66649632212E+03  0.80981746897E+02 0.  0.
        254    2    1    2    0    0 -0.49130098534E+03  0.36692971992E+03  0.29835175590E+03  0.11298217275E+04  0.90081590139E+03 0.  0.
         23    2    4    4    0    0  0.10359935297E+03 -0.17859462939E+03 -0.69875217330E+02  0.23699947683E+03  0.93044819498E+02 0.  0.
         23    2    4    4    0    0 -0.59490033831E+03  0.54552434931E+03  0.36822697323E+03  0.89282225070E+03  0.10018602361E+03 0.  0.
          1    1    3    3  502    0  0.25006459023E+03 -0.14507607642E+03  0.14092247971E+03  0.32161858237E+03  0.00000000000E+00 0. -1.
         -2    1    3    3    0  502  0.24123639511E+03 -0.22185364350E+03  0.10736208791E+03  0.34487773975E+03  0.00000000000E+00 0.  1.
         11    1    5    5    0    0  0.11897985115E+03 -0.14899868338E+03 -0.46478112430E+02  0.19625755416E+03  0.00000000000E+00 0. -1.
        -11    1    5    5    0    0 -0.15380498186E+02 -0.29595946012E+02 -0.23397104900E+02  0.40741922666E+02  0.00000000000E+00 0.  1.
          1    1    6    6  503    0 -0.45002360357E+03  0.41678869733E+03  0.32535734277E+03  0.69432806546E+03  0.00000000000E+00 0. -1.
         -1    1    6    6    0  503 -0.14487673474E+03  0.12873565198E+03  0.42869630461E+02  0.19849418524E+03  0.00000000000E+00 0.  1.
<mgrwt>
<rscale>  0 0.17111246E+04</rscale>
<asrwt>0</asrwt>
<pdfrwt beam="1">  1        1 0.96129364E-01 0.17111246E+04</pdfrwt>
<pdfrwt beam="2">  1       -2 0.18022726E+00 0.17111246E+04</pdfrwt>
<totfact> 0.48502514E+00</totfact>
</mgrwt>
</event>
<event>
12    4  0.4381187E-008  0.1779518E+04  0.7818608E-02  0.8717268E-01
          1   -1    0    0  501    0  0.00000000000E+00  0.00000000000E+00  0.19362675643E+04  0.19362675643E+04  0.00000000000E+00 0. -1.
         -2   -1    0    0    0  501 -0.00000000000E+00 -0.00000000000E+00 -0.40886438290E+03  0.40886438290E+03  0.00000000000E+00 0.  1.
        -24    2    1    2    0    0  0.64968511082E+03 -0.12176204922E+03  0.55104472879E+03  0.86439593737E+03  0.81322220648E+02 0.  0.
        254    2    1    2    0    0 -0.64968511082E+03  0.12176204922E+03  0.97635845263E+03  0.14807360098E+04  0.89576032674E+03 0.  0.
         23    2    4    4    0    0 -0.11406708242E+03  0.19078200432E+03 -0.10963089941E+03  0.26386377453E+03  0.90532231504E+02 0.  0.
         23    2    4    4    0    0 -0.53561802840E+03 -0.69019955105E+02  0.10859893520E+04  0.12168722353E+04  0.98766076050E+02 0.  0.
          3    1    3    3  502    0  0.54866227661E+03 -0.82810795746E+02  0.48903750106E+03  0.73962530994E+03  0.00000000000E+00 0. -1.
         -4    1    3    3    0  502  0.10102283421E+03 -0.38951253470E+02  0.62007227736E+02  0.12477062743E+03  0.00000000000E+00 0.  1.
         11    1    5    5    0    0  0.15456628180E+02  0.27831313730E+02 -0.15658388009E+02  0.35477802831E+02  0.00000000000E+00 0.  1.
        -11    1    5    5    0    0 -0.12952371060E+03  0.16295069059E+03 -0.93972511397E+02  0.22838597170E+03  0.00000000000E+00 0. -1.
          3    1    6    6  503    0 -0.48084459064E+03 -0.37335418595E+02  0.99873481093E+03  0.11090882185E+04  0.00000000000E+00 0. -1.
         -3    1    6    6    0  503 -0.54773437759E+02 -0.31684536510E+02  0.87254541104E+02  0.10778401682E+03  0.00000000000E+00 0.  1.
<mgrwt>
<rscale>  0 0.17795177E+04</rscale>
<asrwt>0</asrwt>
<pdfrwt beam="1">  1        1 0.29788731E+00 0.17795177E+04</pdfrwt>
<pdfrwt beam="2">  1       -2 0.62902214E-01 0.17795177E+04</pdfrwt>
<totfact> 0.64003505E+00</totfact>
</mgrwt>
</event>
<event>
12    4  0.4381187E-008  0.1317058E+04  0.7818608E-02  0.9016146E-01
         -2   -1    0    0    0  501 -0.00000000000E+00  0.00000000000E+00  0.44904275462E+03  0.44904275462E+03  0.00000000000E+00 0.  1.
          1   -1    0    0  501    0  0.00000000000E+00 -0.00000000000E+00 -0.96574439212E+03  0.96574439212E+03  0.00000000000E+00 0. -1.
        -24    2    1    2    0    0 -0.69181824393E+02  0.19364979459E+03 -0.33826263831E+03  0.40379133019E+03  0.79620713930E+02 0.  0.
        254    2    1    2    0    0  0.69181824393E+02 -0.19364979459E+03 -0.17843899919E+03  0.10109958165E+04  0.97364557045E+03 0.  0.
         23    2    4    4    0    0  0.14920207297E+02 -0.56413320324E+03  0.31662509726E+02  0.57255821086E+03  0.91386578416E+02 0.  0.
         23    2    4    4    0    0  0.54261617096E+02  0.37048340865E+03 -0.21010150891E+03  0.43843760568E+03  0.88784068683E+02 0.  0.
          1    1    3    3  502    0 -0.58759674294E+02  0.18175491550E+03 -0.25266296878E+03  0.31674299427E+03  0.00000000000E+00 0. -1.
         -2    1    3    3    0  502 -0.10422150098E+02  0.11894879098E+02 -0.85599669536E+02  0.87048335918E+02  0.00000000000E+00 0.  1.
         11    1    5    5    0    0 -0.26910789161E+02 -0.39570475499E+03  0.27965156967E+01  0.39662862251E+03  0.00000000000E+00 0.  1.
        -11    1    5    5    0    0  0.41830996457E+02 -0.16842844826E+03  0.28865994030E+02  0.17592958835E+03  0.00000000000E+00 0. -1.
          4    1    6    6  503    0  0.11329301239E+02  0.91971207241E+02 -0.98787333159E+02  0.13544738174E+03  0.00000000000E+00 0. -1.
         -4    1    6    6    0  503  0.42932315857E+02  0.27851220141E+03 -0.11131417576E+03  0.30299022394E+03  0.00000000000E+00 0.  1.
<mgrwt>
<rscale>  0 0.13170581E+04</rscale>
<asrwt>0</asrwt>
<pdfrwt beam="1">  1        1 0.14857606E+00 0.13170581E+04</pdfrwt>
<pdfrwt beam="2">  1       -2 0.69083501E-01 0.13170581E+04</pdfrwt>
<totfact> 0.26501710E+01</totfact>
</mgrwt>
</event>
<event>
12    4  0.4381187E-008  0.2299667E+04  0.7818608E-02  0.8478052E-01
         -2   -1    0    0    0  501 -0.00000000000E+00  0.00000000000E+00  0.57482125442E+03  0.57482125442E+03  0.00000000000E+00 0.  1.
          1   -1    0    0  501    0  0.00000000000E+00 -0.00000000000E+00 -0.23000493816E+04  0.23000493816E+04  0.00000000000E+00 0. -1.
        -24    2    1    2    0    0 -0.42306985838E+02  0.32955635284E+03  0.41143522967E+03  0.53501862522E+03  0.81047580889E+02 0.  0.
        254    2    1    2    0    0  0.42306985838E+02 -0.32955635284E+03 -0.21366633568E+04  0.23398520108E+04  0.89396860191E+03 0.  0.
         23    2    4    4    0    0  0.40845513583E+02 -0.40797108533E+03 -0.34354475162E+03  0.54283605568E+03  0.92407924620E+02 0.  0.
         23    2    4    4    0    0  0.14614722549E+01  0.78414732485E+02 -0.17931186052E+04  0.17970159551E+04  0.88549446073E+02 0.  0.
          3    1    3    3  502    0 -0.30068973845E+02  0.49986898945E+02  0.10439986540E+03  0.11959166004E+03  0.00000000000E+00 0. -1.
         -4    1    3    3    0  502 -0.12238011993E+02  0.27956945390E+03  0.30703536427E+03  0.41542696518E+03  0.00000000000E+00 0.  1.
         11    1    5    5    0    0  0.77185658224E+01 -0.20370837560E+03 -0.11313651331E+03  0.23314491028E+03  0.00000000000E+00 0. -1.
        -11    1    5    5    0    0  0.33126947760E+02 -0.20426270973E+03 -0.23040823831E+03  0.30969114539E+03  0.00000000000E+00 0.  1.
          1    1    6    6  503    0  0.34477018818E+02  0.33429651193E+01 -0.67902051881E+03  0.67990345286E+03  0.00000000000E+00 0. -1.
         -1    1    6    6    0  503 -0.33015546563E+02  0.75071767365E+02 -0.11140980864E+04  0.11171125022E+04  0.00000000000E+00 0.  1.
<mgrwt>
<rscale>  0 0.22996672E+04</rscale>
<asrwt>0</asrwt>
<pdfrwt beam="1">  1        1 0.35385374E+00 0.22996672E+04</pdfrwt>
<pdfrwt beam="2">  1       -2 0.88434041E-01 0.22996672E+04</pdfrwt>
<totfact> 0.16265465E+00</totfact>
</mgrwt>
</event>
<event>
12    4  0.4381187E-008  0.1390048E+04  0.7818608E-02  0.8961054E-01
          1   -1    0    0  501    0  0.00000000000E+00  0.00000000000E+00  0.15542405905E+04  0.15542405905E+04  0.00000000000E+00 0. -1.
         -2   -1    0    0    0  501 -0.00000000000E+00 -0.00000000000E+00 -0.31080022180E+03  0.31080022180E+03  0.00000000000E+00 0.  1.
        -24    2    1    2    0    0 -0.21702619365E+03  0.32412382295E+03  0.38253661026E+03  0.55189804804E+03  0.78106183545E+02 0.  0.
        254    2    1    2    0    0  0.21702619365E+03 -0.32412382295E+03  0.86090375840E+03  0.13131427642E+04  0.91160957468E+03 0.  0.
         23    2    4    4    0    0 -0.16054074707E+03  0.21702411169E+03  0.10100093888E+03  0.30271305337E+03  0.92526788014E+02 0.  0.
         23    2    4    4    0    0  0.37756694072E+03 -0.54114793465E+03  0.75990281952E+03  0.10104297108E+04  0.90100075135E+02 0.  0.
          3    1    3    3  502    0 -0.18975572606E+03  0.22202476804E+03  0.28549823870E+03  0.40842560827E+03  0.00000000000E+00 0. -1.
         -4    1    3    3    0  502 -0.27270467585E+02  0.10209905492E+03  0.97038371565E+02  0.14347243977E+03  0.00000000000E+00 0.  1.
         11    1    5    5    0    0 -0.13323606200E+03  0.16824486281E+03  0.11717857168E+03  0.24451789247E+03  0.00000000000E+00 0. -1.
        -11    1    5    5    0    0 -0.27304685069E+02  0.48779248889E+02 -0.16177632803E+02  0.58195160898E+02  0.00000000000E+00 0.  1.
          1    1    6    6  503    0  0.33864313982E+03 -0.45810569392E+03  0.69193348266E+03  0.89627671362E+03  0.00000000000E+00 0. -1.
         -1    1    6    6    0  503  0.38923800892E+02 -0.83042240727E+02  0.67969336854E+02  0.11415299721E+03  0.00000000000E+00 0.  1.
<mgrwt>
<rscale>  0 0.13900479E+04</rscale>
<asrwt>0</asrwt>
<pdfrwt beam="1">  1        1 0.23911393E+00 0.13900479E+04</pdfrwt>
<pdfrwt beam="2">  1       -2 0.47815420E-01 0.13900479E+04</pdfrwt>
<totfact> 0.21292873E+01</totfact>
</mgrwt>
</event>
<event>
12    4  0.4381187E-008  0.1695789E+04  0.7818608E-02  0.8763770E-01
         -2   -1    0    0    0  501 -0.00000000000E+00  0.00000000000E+00  0.18026593603E+03  0.18026593603E+03  0.00000000000E+00 0.  1.
          1   -1    0    0  501    0  0.00000000000E+00 -0.00000000000E+00 -0.39881366046E+04  0.39881366046E+04  0.00000000000E+00 0. -1.
        -24    2    1    2    0    0 -0.32796035173E+03 -0.36575018766E+03 -0.50550928625E+03  0.70960512630E+03  0.81661525208E+02 0.  0.
        254    2    1    2    0    0  0.32796035173E+03  0.36575018766E+03 -0.33023613824E+04  0.34587974144E+04  0.90352513076E+03 0.  0.
         23    2    4    4    0    0  0.22592254198E+02  0.53087864699E+03 -0.10696053866E+04  0.11974054690E+04  0.85916392015E+02 0.  0.
         23    2    4    4    0    0  0.30536809753E+03 -0.16512845933E+03 -0.22327559958E+04  0.22613919454E+04  0.90427378875E+02 0.  0.
          1    1    3    3  502    0 -0.37982512706E+02 -0.47240448465E+02 -0.10604414822E+03  0.12214619361E+03  0.00000000000E+00 0. -1.
         -2    1    3    3    0  502 -0.28997783902E+03 -0.31850973919E+03 -0.39946513804E+03  0.58745893269E+03  0.00000000000E+00 0.  1.
         11    1    5    5    0    0  0.49200503174E+02  0.26429582509E+03 -0.49081219649E+03  0.55961556885E+03  0.00000000000E+00 0.  1.
        -11    1    5    5    0    0 -0.26608248976E+02  0.26658282190E+03 -0.57879319010E+03  0.63778990016E+03  0.00000000000E+00 0. -1.
          4    1    6    6  503    0  0.30980639934E+03 -0.15680878716E+03 -0.22024290301E+04  0.22296328473E+04  0.00000000000E+00 0. -1.
         -4    1    6    6    0  503 -0.44383018073E+01 -0.83196721647E+01 -0.30326965644E+02  0.31759098114E+02  0.00000000000E+00 0.  1.
<mgrwt>
<rscale>  0 0.16957891E+04</rscale>
<asrwt>0</asrwt>
<pdfrwt beam="1">  1        1 0.61355943E+00 0.16957891E+04</pdfrwt>
<pdfrwt beam="2">  1       -2 0.27733223E-01 0.16957891E+04</pdfrwt>
<totfact> 0.98857013E-01</totfact>
</mgrwt>
</event>
<event>
12    4  0.4381187E-008  0.1870880E+04  0.7818608E-02  0.8669489E-01
         -4   -1    0    0    0  501 -0.00000000000E+00  0.00000000000E+00  0.66445119056E+03  0.66445119056E+03  0.00000000000E+00 0.  1.
          1   -1    0    0  501    0  0.00000000000E+00 -0.00000000000E+00 -0.13169485008E+04  0.13169485008E+04  0.00000000000E+00 0. -1.
        -24    2    1    2    0    0  0.48925289143E+03 -0.43725008614E+03 -0.59572666185E+03  0.88980122838E+03  0.79372166338E+02 0.  0.
        254    2    1    2    0    0 -0.48925289143E+03  0.43725008614E+03 -0.56770648422E+02  0.10915984630E+04  0.87052183680E+03 0.  0.
         23    2    4    4    0    0 -0.17463250941E+03 -0.24059574490E+03  0.91134511487E+02  0.32422834309E+03  0.91846031337E+02 0.  0.
         23    2    4    4    0    0 -0.31462038202E+03  0.67784583104E+03 -0.14790515991E+03  0.76737011993E+03  0.92303895853E+02 0.  0.
          1    1    3    3  502    0  0.20919202622E+03 -0.19129938395E+03 -0.20517096489E+03  0.34993125463E+03  0.00000000000E+00 0. -1.
         -2    1    3    3    0  502  0.28006086521E+03 -0.24595070219E+03 -0.39055569696E+03  0.53986997375E+03  0.00000000000E+00 0.  1.
         11    1    5    5    0    0 -0.14459728666E+03 -0.18506762001E+03  0.10856306538E+03  0.25873604011E+03  0.00000000000E+00 0.  1.
        -11    1    5    5    0    0 -0.30035222748E+02 -0.55528124888E+02 -0.17428553891E+02  0.65492302981E+02  0.00000000000E+00 0. -1.
          3    1    6    6  503    0 -0.80115363600E+02  0.27899267157E+03 -0.60334042110E+02  0.29647188553E+03  0.00000000000E+00 0. -1.
         -3    1    6    6    0  503 -0.23450501842E+03  0.39885315947E+03 -0.87571117799E+02  0.47089823439E+03  0.00000000000E+00 0.  1.
<mgrwt>
<rscale>  0 0.18708800E+04</rscale>
<asrwt>0</asrwt>
<pdfrwt beam="1">  1        1 0.20260746E+00 0.18708800E+04</pdfrwt>
<pdfrwt beam="2">  1       -4 0.10222326E+00 0.18708800E+04</pdfrwt>
<totfact> 0.31558005E+00</totfact>
</mgrwt>
</event>
<event>
12    4  0.4381187E-008  0.1616651E+04  0.7818608E-02  0.8810383E-01
         -2   -1    0    0    0  501 -0.00000000000E+00  0.00000000000E+00  0.71335080978E+03  0.71335080978E+03  0.00000000000E+00 0.  1.
          3   -1    0    0  501    0  0.00000000000E+00 -0.00000000000E+00 -0.91594550240E+03  0.91594550240E+03  0.00000000000E+00 0. -1.
        -24    2    1    2    0    0 -0.32360021754E+03 -0.31917147533E+03  0.25904033145E+03  0.52910521672E+03  0.79138521535E+02 0.  0.
        254    2    1    2    0    0  0.32360021754E+03  0.31917147533E+03 -0.46163502408E+03  0.11001910955E+04  0.88922776588E+03 0.  0.
         23    2    4    4    0    0  0.44801152290E+03  0.12883748633E+03 -0.63995608377E+03  0.79708111201E+03  0.92092819610E+02 0.  0.
         23    2    4    4    0    0 -0.12441130536E+03  0.19033398900E+03  0.17832105970E+03  0.30310998345E+03  0.91498969741E+02 0.  0.
          3    1    3    3  502    0 -0.17615030962E+03 -0.21000756692E+03  0.18795097445E+03  0.33235173919E+03  0.00000000000E+00 0. -1.
         -4    1    3    3    0  502 -0.14744990792E+03 -0.10916390841E+03  0.71089356996E+02  0.19675347754E+03  0.00000000000E+00 0.  1.
         11    1    5    5    0    0  0.21085435898E+03  0.65041379016E+02 -0.22670017519E+03  0.31635883284E+03  0.00000000000E+00 0. -1.
        -11    1    5    5    0    0  0.23715716392E+03  0.63796107313E+02 -0.41325590859E+03  0.48072227917E+03  0.00000000000E+00 0.  1.
          3    1    6    6  503    0 -0.84732209660E+02  0.53083923507E+02  0.53537767225E+02  0.11341844122E+03  0.00000000000E+00 0. -1.
         -3    1    6    6    0  503 -0.39679095701E+02  0.13725006549E+03  0.12478329247E+03  0.18969154223E+03  0.00000000000E+00 0.  1.
<mgrwt>
<rscale>  0 0.16166514E+04</rscale>
<asrwt>0</asrwt>
<pdfrwt beam="1">  1        3 0.14091469E+00 0.16166514E+04</pdfrwt>
<pdfrwt beam="2">  1       -2 0.10974628E+00 0.16166514E+04</pdfrwt>
<totfact> 0.99443313E-01</totfact>
</mgrwt>
</event>
<event>
12    4  0.4381187E-008  0.1517722E+04  0.7818608E-02  0.8872753E-01
         -2   -1    0    0    0  501 -0.00000000000E+00  0.00000000000E+00  0.23360441399E+03  0.23360441399E+03  0.00000000000E+00 0.  1.
          1   -1    0    0  501    0  0.00000000000E+00 -0.00000000000E+00 -0.24651514469E+04  0.24651514469E+04  0.00000000000E+00 0. -1.
        -24    2    1    2    0    0 -0.19286030377E+02  0.11238848524E+03 -0.15823126434E+04  0.15883993079E+04  0.79346941998E+02 0.  0.
        254    2    1    2    0    0  0.19286030377E+02 -0.11238848524E+03 -0.64923438954E+03  0.11103565530E+04  0.89352294863E+03 0.  0.
         23    2    4    4    0    0  0.74568620916E+01  0.62925128119E+02  0.20547288713E+03  0.23333869458E+03  0.90623741388E+02 0.  0.
         23    2    4    4    0    0  0.11829168285E+02 -0.17531361335E+03 -0.85470727667E+03  0.87701785846E+03  0.88096555078E+02 0.  0.
          3    1    3    3  502    0 -0.31132558734E+02  0.48858246585E+02 -0.11310373781E+04  0.11325201610E+04  0.00000000000E+00 0. -1.
         -4    1    3    3    0  502  0.11846528357E+02  0.63530238650E+02 -0.45127526529E+03  0.45587914684E+03  0.00000000000E+00 0.  1.
         11    1    5    5    0    0 -0.58887659643E+01 -0.21484344407E+02  0.23967589668E+02  0.32721552128E+02  0.00000000000E+00 0. -1.
        -11    1    5    5    0    0  0.13345628056E+02  0.84409472526E+02  0.18150529746E+03  0.20061714245E+03  0.00000000000E+00 0.  1.
          3    1    6    6  503    0  0.30078240093E+02 -0.56922025009E+02 -0.46148710044E+03  0.46595617962E+03  0.00000000000E+00 0. -1.
         -3    1    6    6    0  503 -0.18249071808E+02 -0.11839158835E+03 -0.39322017623E+03  0.41106167883E+03  0.00000000000E+00 0.  1.
<mgrwt>
<rscale>  0 0.15177223E+04</rscale>
<asrwt>0</asrwt>
<pdfrwt beam="1">  1        1 0.37925407E+00 0.15177223E+04</pdfrwt>
<pdfrwt beam="2">  1       -2 0.35939141E-01 0.15177223E+04</pdfrwt>
<totfact> 0.88658302E+00</totfact>
</mgrwt>
</event>
<event>
12    4  0.4381187E-008  0.1216873E+04  0.7818608E-02  0.9098214E-01
          1   -1    0    0  501    0  0.00000000000E+00  0.00000000000E+00  0.30062494565E+03  0.30062494565E+03  0.00000000000E+00 0. -1.
         -2   -1    0    0    0  501 -0.00000000000E+00 -0.00000000000E+00 -0.12314186885E+04  0.12314186885E+04  0.00000000000E+00 0.  1.
        -24    2    1    2    0    0  0.77066055706E+02  0.25073739623E+03 -0.27338596982E+03  0.38643438796E+03  0.76047543650E+02 0.  0.
        254    2    1    2    0    0 -0.77066055706E+02 -0.25073739623E+03 -0.65740777304E+03  0.11456092462E+04  0.90079251001E+03 0.  0.
         23    2    4    4    0    0 -0.24310544331E+03  0.27004111643E+03 -0.18622723543E+03  0.41836858138E+03  0.91264590830E+02 0.  0.
         23    2    4    4    0    0  0.16603938760E+03 -0.52077851267E+03 -0.47118053761E+03  0.72724066481E+03  0.89936355488E+02 0.  0.
          3    1    3    3  502    0 -0.60410949029E+01  0.21115262392E+02 -0.31147770720E+01  0.22182221929E+02  0.00000000000E+00 0. -1.
         -4    1    3    3    0  502  0.83107150609E+02  0.22962213384E+03 -0.27027119275E+03  0.36425216603E+03  0.00000000000E+00 0.  1.
         11    1    5    5    0    0 -0.20240870828E+03  0.17913338335E+03 -0.10546906386E+03  0.29014096169E+03  0.00000000000E+00 0.  1.
        -11    1    5    5    0    0 -0.40696735027E+02  0.90907733088E+02 -0.80758171570E+02  0.12822761969E+03  0.00000000000E+00 0. -1.
          4    1    6    6  503    0  0.42190743214E+02 -0.80331252821E+02 -0.42241246538E+02  0.10008742130E+03  0.00000000000E+00 0. -1.
         -4    1    6    6    0  503  0.12384864439E+03 -0.44044725985E+03 -0.42893929107E+03  0.62715324351E+03  0.00000000000E+00 0.  1.
<mgrwt>
<rscale>  0 0.12168733E+04</rscale>
<asrwt>0</asrwt>
<pdfrwt beam="1">  1        1 0.46249992E-01 0.12168733E+04</pdfrwt>
<pdfrwt beam="2">  1       -2 0.18944903E+00 0.12168733E+04</pdfrwt>
<totfact> 0.11781991E+01</totfact>
</mgrwt>
</event>
<event>
12    4  0.4381187E-008  0.1103806E+04  0.7818608E-02  0.9201490E-01
         -2   -1    0    0    0  501 -0.00000000000E+00  0.00000000000E+00  0.13354774186E+03  0.13354774186E+03  0.00000000000E+00 0.  1.
          1   -1    0    0  501    0  0.00000000000E+00 -0.00000000000E+00 -0.22808088597E+04  0.22808088597E+04  0.00000000000E+00 0. -1.
        -24    2    1    2    0    0 -0.15109199563E+03 -0.86111886998E+02 -0.41453748049E+03  0.45685755942E+03  0.81446047461E+02 0.  0.
        254    2    1    2    0    0  0.15109199563E+03  0.86111886998E+02 -0.17327236374E+04  0.19574990422E+04  0.89399510532E+03 0.  0.
         23    2    4    4    0    0  0.27910551722E+03  0.41948584529E+03 -0.12525386305E+04  0.13526688303E+04  0.83616262956E+02 0.  0.
         23    2    4    4    0    0 -0.12801352159E+03 -0.33337395829E+03 -0.48018500692E+03  0.60483021190E+03  0.87842396262E+02 0.  0.
          3    1    3    3  502    0 -0.15584340819E+03 -0.84055336209E+02 -0.41544161726E+03  0.45160182105E+03  0.00000000000E+00 0. -1.
         -4    1    3    3    0  502  0.47514125684E+01 -0.20565507885E+01  0.90413677232E+00  0.52557383728E+01  0.00000000000E+00 0.  1.
         11    1    5    5    0    0  0.19783158448E+03  0.24687447460E+03 -0.70151340638E+03  0.76954882974E+03  0.00000000000E+00 0. -1.
        -11    1    5    5    0    0  0.81273932734E+02  0.17261137070E+03 -0.55102522410E+03  0.58312000054E+03  0.00000000000E+00 0.  1.
          1    1    6    6  503    0 -0.11641849908E+03 -0.26397532084E+03 -0.43226538586E+03  0.51970145349E+03  0.00000000000E+00 0. -1.
         -1    1    6    6    0  503 -0.11595022515E+02 -0.69398637451E+02 -0.47919621056E+02  0.85128758415E+02  0.00000000000E+00 0.  1.
<mgrwt>
<rscale>  0 0.11038059E+04</rscale>
<asrwt>0</asrwt>
<pdfrwt beam="1">  1        1 0.35089368E+00 0.11038059E+04</pdfrwt>
<pdfrwt beam="2">  1       -2 0.20545806E-01 0.11038059E+04</pdfrwt>
<totfact> 0.34401533E+01</totfact>
</mgrwt>
</event>
<event>
12    4  0.4381187E-008  0.1295821E+04  0.7818608E-02  0.9032886E-01
          3   -1    0    0  501    0  0.00000000000E+00  0.00000000000E+00  0.21829539785E+04  0.21829539785E+04  0.00000000000E+00 0. -1.
         -4   -1    0    0    0  501 -0.00000000000E+00 -0.00000000000E+00 -0.19230259202E+03  0.19230259202E+03  0.00000000000E+00 0.  1.
        -24    2    1    2    0    0 -0.48595295843E+01  0.11561965377E+03 -0.43938985702E+02  0.15052101830E+03  0.85641246611E+02 0.  0.
        254    2    1    2    0    0  0.48595295843E+01 -0.11561965377E+03  0.20345903722E+04  0.22247355523E+04  0.89246780074E+03 0.  0.
         23    2    4    4    0    0  0.45144019693E+02 -0.32233734245E+02  0.20832852909E+04  0.20855739023E+04  0.80398398957E+02 0.  0.
         23    2    4    4    0    0 -0.40284490109E+02 -0.83385919526E+02 -0.48694918677E+02  0.13916164995E+03  0.91753572099E+02 0.  0.
          1    1    3    3  502    0  0.39311918860E+02  0.39123745451E+02 -0.20512748903E+02  0.59134315673E+02  0.00000000000E+00 0. -1.
         -2    1    3    3    0  502 -0.44171448444E+02  0.76495908320E+02 -0.23426236799E+02  0.91386702632E+02  0.00000000000E+00 0.  1.
         11    1    5    5    0    0 -0.13189243815E+02 -0.22425111299E+02  0.25323516059E+03  0.25456804263E+03  0.00000000000E+00 0. -1.
        -11    1    5    5    0    0  0.58333263508E+02 -0.98086229452E+01  0.18300501303E+04  0.18310058597E+04  0.00000000000E+00 0.  1.
          4    1    6    6  503    0  0.29947035972E+02 -0.26316595787E+02 -0.15218739948E+02  0.42673155765E+02  0.00000000000E+00 0. -1.
         -4    1    6    6    0  503 -0.70231526081E+02 -0.57069323739E+02 -0.33476178729E+02  0.96488494184E+02  0.00000000000E+00 0.  1.
<mgrwt>
<rscale>  0 0.12958205E+04</rscale>
<asrwt>0</asrwt>
<pdfrwt beam="1">  1        3 0.33583906E+00 0.12958205E+04</pdfrwt>
<pdfrwt beam="2">  1       -4 0.29585016E-01 0.12958205E+04</pdfrwt>
<totfact> 0.61842873E-01</totfact>
</mgrwt>
</event>
<event>
12    4  0.4381187E-008  0.2895271E+04  0.7818608E-02  0.8274286E-01
          1   -1    0    0  501    0  0.00000000000E+00  0.00000000000E+00  0.27446561690E+04  0.27446561690E+04  0.00000000000E+00 0. -1.
         -2   -1    0    0    0  501 -0.00000000000E+00 -0.00000000000E+00 -0.76353748631E+03  0.76353748631E+03  0.00000000000E+00 0.  1.
        -24    2    1    2    0    0 -0.25097294856E+03  0.57061491342E+03 -0.49509568552E+03  0.80004637344E+03  0.79785095856E+02 0.  0.
        254    2    1    2    0    0  0.25097294856E+03 -0.57061491342E+03  0.24762143682E+04  0.27081472819E+04  0.90212820744E+03 0.  0.
         23    2    4    4    0    0 -0.26866636718E+03 -0.46030364521E+03  0.14732793597E+04  0.15694250259E+04  0.92096565438E+02 0.  0.
         23    2    4    4    0    0  0.51963931574E+03 -0.11031126821E+03  0.10029350085E+04  0.11387222560E+04  0.92823223003E+02 0.  0.
          1    1    3    3  502    0 -0.14948805248E+02  0.72013351895E+01 -0.21210097971E+02  0.26929431164E+02  0.00000000000E+00 0. -1.
         -2    1    3    3    0  502 -0.23602414331E+03  0.56341357823E+03 -0.47388558755E+03  0.77311694228E+03  0.00000000000E+00 0.  1.
         11    1    5    5    0    0 -0.25606855489E+03 -0.41268458871E+03  0.13930025364E+04  0.14752409095E+04  0.00000000000E+00 0.  1.
        -11    1    5    5    0    0 -0.12597812286E+02 -0.47619056500E+02  0.80276823283E+02  0.94184116351E+02  0.00000000000E+00 0. -1.
          1    1    6    6  503    0  0.13706031871E+03 -0.32240001485E+02  0.35937316985E+03  0.38597153246E+03  0.00000000000E+00 0. -1.
         -1    1    6    6    0  503  0.38257899704E+03 -0.78071266725E+02  0.64356183864E+03  0.75275072355E+03  0.00000000000E+00 0.  1.
<mgrwt>
<rscale>  0 0.28952705E+04</rscale>
<asrwt>0</asrwt>
<pdfrwt beam="1">  1        1 0.42225479E+00 0.28952705E+04</pdfrwt>
<pdfrwt beam="2">  1       -2 0.11746731E+00 0.28952705E+04</pdfrwt>
<totfact> 0.38571426E-01</totfact>
</mgrwt>
</event>
<event>
12    4  0.4381187E-008  0.1233667E+04  0.7818608E-02  0.9083888E-01
          1   -1    0    0  501    0  0.00000000000E+00  0.00000000000E+00  0.62716578352E+03  0.62716578352E+03  0.00000000000E+00 0. -1.
         -2   -1    0    0    0  501 -0.00000000000E+00 -0.00000000000E+00 -0.60667148075E+03  0.60667148075E+03  0.00000000000E+00 0.  1.
        -24    2    1    2    0    0 -0.93207562076E+02  0.20008570695E+03 -0.16341217833E+03  0.28488932154E+03  0.75739327613E+02 0.  0.
        254    2    1    2    0    0  0.93207562076E+02 -0.20008570695E+03  0.18390648110E+03  0.94894794273E+03  0.90441067247E+03 0.  0.
         23    2    4    4    0    0 -0.15090767509E+03 -0.38095551411E+03 -0.18734087834E+03  0.45965215951E+03  0.91012487681E+02 0.  0.
         23    2    4    4    0    0  0.24411523717E+03  0.18086980716E+03  0.37124735944E+03  0.48929578322E+03  0.96330812461E+02 0.  0.
          1    1    3    3  502    0 -0.84199271630E+02  0.10357312540E+03 -0.72037270644E+02  0.15167820546E+03  0.00000000000E+00 0. -1.
         -2    1    3    3    0  502 -0.90082904457E+01  0.96512581548E+02 -0.91374907682E+02  0.13321111608E+03  0.00000000000E+00 0.  1.
         11    1    5    5    0    0 -0.89742987397E+02 -0.11436902580E+03 -0.79081388558E+02  0.16549303268E+03  0.00000000000E+00 0.  1.
        -11    1    5    5    0    0 -0.61164687698E+02 -0.26658648831E+03 -0.10825948979E+03  0.29415912683E+03  0.00000000000E+00 0. -1.
          1    1    6    6  503    0  0.60158491450E+02  0.91712745323E+02  0.17086980032E+03  0.20304374014E+03  0.00000000000E+00 0. -1.
         -1    1    6    6    0  503  0.18395674572E+03  0.89157061835E+02  0.20037755911E+03  0.28625204308E+03  0.00000000000E+00 0.  1.
<mgrwt>
<rscale>  0 0.12336670E+04</rscale>
<asrwt>0</asrwt>
<pdfrwt beam="1">  1        1 0.96487043E-01 0.12336670E+04</pdfrwt>
<pdfrwt beam="2">  1       -2 0.93334075E-01 0.12336670E+04</pdfrwt>
<totfact> 0.26956808E+01</totfact>
</mgrwt>
</event>
<event>
12    4  0.4381187E-008  0.1138546E+04  0.7818608E-02  0.9168416E-01
          1   -1    0    0  501    0  0.00000000000E+00  0.00000000000E+00  0.61226172174E+03  0.61226172174E+03  0.00000000000E+00 0. -1.
         -4   -1    0    0    0  501 -0.00000000000E+00 -0.00000000000E+00 -0.52930230911E+03  0.52930230911E+03  0.00000000000E+00 0.  1.
        -24    2    1    2    0    0 -0.50418750369E+02 -0.11043076516E+03  0.18260915401E+03  0.23271354658E+03  0.77926166006E+02 0.  0.
        254    2    1    2    0    0  0.50418750369E+02  0.11043076516E+03 -0.99649741382E+02  0.90885048428E+03  0.89517714869E+03 0.  0.
         23    2    4    4    0    0  0.20931552057E+03  0.44983392262E+03  0.24238585027E+02  0.50492191771E+03  0.90526730223E+02 0.  0.
         23    2    4    4    0    0 -0.15889677020E+03 -0.33940315746E+03 -0.12388832641E+03  0.40392856657E+03  0.85832875974E+02 0.  0.
          1    1    3    3  502    0 -0.55698250398E+02 -0.95003821083E+02  0.18590764037E+03  0.21607793008E+03  0.00000000000E+00 0. -1.
         -2    1    3    3    0  502  0.52795000292E+01 -0.15426944075E+02 -0.32984863582E+01  0.16635616499E+02  0.00000000000E+00 0.  1.
         11    1    5    5    0    0  0.32575358728E+02  0.16022285292E+03  0.26493139761E+02  0.16563333918E+03  0.00000000000E+00 0. -1.
        -11    1    5    5    0    0  0.17674016184E+03  0.28961106971E+03 -0.22545547337E+01  0.33928857853E+03  0.00000000000E+00 0.  1.
          1    1    6    6  503    0 -0.14389437388E+03 -0.23804534558E+03 -0.11530148207E+03  0.30110730505E+03  0.00000000000E+00 0.  1.
         -1    1    6    6    0  503 -0.15002396314E+02 -0.10135781189E+03 -0.85868443357E+01  0.10282126152E+03  0.00000000000E+00 0. -1.
<mgrwt>
<rscale>  0 0.11385456E+04</rscale>
<asrwt>0</asrwt>
<pdfrwt beam="1">  1        1 0.94194111E-01 0.11385456E+04</pdfrwt>
<pdfrwt beam="2">  1       -4 0.81431124E-01 0.11385456E+04</pdfrwt>
<totfact> 0.21247616E+01</totfact>
</mgrwt>
</event>
<event>
12    4  0.4381187E-008  0.1193686E+04  0.7818608E-02  0.9118401E-01
         -2   -1    0    0    0  501 -0.00000000000E+00  0.00000000000E+00  0.17556754969E+03  0.17556754969E+03  0.00000000000E+00 0.  1.
          1   -1    0    0  501    0  0.00000000000E+00 -0.00000000000E+00 -0.20289705547E+04  0.20289705547E+04  0.00000000000E+00 0. -1.
        -24    2    1    2    0    0  0.20252453560E+03  0.27688007009E+02 -0.68358846811E+03  0.71802988611E+03  0.80566186197E+02 0.  0.
        254    2    1    2    0    0 -0.20252453560E+03 -0.27688007009E+02 -0.11698145369E+04  0.14865082183E+04  0.89412405124E+03 0.  0.
         23    2    4    4    0    0  0.10597682985E+03  0.37425301422E+03 -0.57534985158E+03  0.70071892616E+03  0.93183446247E+02 0.  0.
         23    2    4    4    0    0 -0.30850136544E+03 -0.40194102123E+03 -0.59446468531E+03  0.78578929211E+03  0.85713898991E+02 0.  0.
          3    1    3    3  502    0  0.20302122871E+03  0.30382206933E+02 -0.68489275377E+03  0.71499565171E+03  0.00000000000E+00 0. -1.
         -4    1    3    3    0  502 -0.49669311678E+00 -0.26941999242E+01  0.13042856562E+01  0.30342343939E+01  0.00000000000E+00 0.  1.
         11    1    5    5    0    0  0.45279240111E+02  0.10554908652E+03 -0.10488293878E+03  0.15553536607E+03  0.00000000000E+00 0. -1.
        -11    1    5    5    0    0  0.60697589735E+02  0.26870392770E+03 -0.47046691280E+03  0.54518356010E+03  0.00000000000E+00 0.  1.
          2    1    6    6  503    0 -0.13796283969E+03 -0.24357292158E+03 -0.29751158931E+03  0.40850294863E+03  0.00000000000E+00 0.  1.
         -2    1    6    6    0  503 -0.17053852575E+03 -0.15836809965E+03 -0.29695309600E+03  0.37728634348E+03  0.00000000000E+00 0. -1.
<mgrwt>
<rscale>  0 0.11936857E+04</rscale>
<asrwt>0</asrwt>
<pdfrwt beam="1">  1        1 0.31214931E+00 0.11936857E+04</pdfrwt>
<pdfrwt beam="2">  1       -2 0.27010393E-01 0.11936857E+04</pdfrwt>
<totfact> 0.30902763E+01</totfact>
</mgrwt>
</event>
<event>
12    4  0.4381187E-008  0.1152554E+04  0.7818608E-02  0.9155430E-01
         -2   -1    0    0    0  501 -0.00000000000E+00  0.00000000000E+00  0.30628151553E+03  0.30628151553E+03  0.00000000000E+00 0.  1.
          1   -1    0    0  501    0  0.00000000000E+00 -0.00000000000E+00 -0.10842811160E+04  0.10842811160E+04  0.00000000000E+00 0. -1.
        -24    2    1    2    0    0 -0.17878341733E+01 -0.12971751905E+03  0.48436104986E+02  0.16263843668E+03  0.85295801309E+02 0.  0.
        254    2    1    2    0    0  0.17878341733E+01  0.12971751905E+03 -0.82643570550E+03  0.12279241949E+04  0.89887263948E+03 0.  0.
         23    2    4    4    0    0  0.32396230290E+03  0.22254340443E+03 -0.87138245897E+02  0.41199599405E+03  0.87581303160E+02 0.  0.
         23    2    4    4    0    0 -0.32217446872E+03 -0.92825885386E+02 -0.73929745960E+03  0.81592820085E+03  0.82249996153E+02 0.  0.
          3    1    3    3  502    0 -0.40711684112E+02 -0.38807264312E+02  0.14478923929E+02  0.58078259484E+02  0.00000000000E+00 0. -1.
         -4    1    3    3    0  502  0.38923849938E+02 -0.90910254736E+02  0.33957181057E+02  0.10456017720E+03  0.00000000000E+00 0.  1.
         11    1    5    5    0    0  0.30706929288E+03  0.21896660830E+03 -0.63081478662E+02  0.38238357592E+03  0.00000000000E+00 0.  1.
        -11    1    5    5    0    0  0.16893010013E+02  0.35767961296E+01 -0.24056767235E+02  0.29612418132E+02  0.00000000000E+00 0. -1.
          3    1    6    6  503    0 -0.17363565406E+03 -0.21521888328E+02 -0.30795365735E+03  0.35418637341E+03  0.00000000000E+00 0. -1.
         -3    1    6    6    0  503 -0.14853881467E+03 -0.71303997058E+02 -0.43134380226E+03  0.46174182744E+03  0.00000000000E+00 0.  1.
<mgrwt>
<rscale>  0 0.11525541E+04</rscale>
<asrwt>0</asrwt>
<pdfrwt beam="1">  1        1 0.16681248E+00 0.11525541E+04</pdfrwt>
<pdfrwt beam="2">  1       -2 0.47120234E-01 0.11525541E+04</pdfrwt>
<totfact> 0.48424300E+01</totfact>
</mgrwt>
</event>
<event>
12    4  0.4381187E-008  0.1547503E+04  0.7818608E-02  0.8853464E-01
          1   -1    0    0  501    0  0.00000000000E+00  0.00000000000E+00  0.11093584759E+04  0.11093584759E+04  0.00000000000E+00 0. -1.
         -2   -1    0    0    0  501 -0.00000000000E+00 -0.00000000000E+00 -0.53967358075E+03  0.53967358075E+03  0.00000000000E+00 0.  1.
        -24    2    1    2    0    0 -0.12896055361E+03 -0.19256592575E+03 -0.29329217341E+03  0.38252596864E+03  0.81199492320E+02 0.  0.
        254    2    1    2    0    0  0.12896055361E+03  0.19256592575E+03  0.86297706854E+03  0.12665060880E+04  0.89754988157E+03 0.  0.
         23    2    4    4    0    0  0.45795736119E+03 -0.42358232463E+02  0.64764599853E+03  0.79945764685E+03  0.90377127458E+02 0.  0.
         23    2    4    4    0    0 -0.32899680757E+03  0.23492415821E+03  0.21533107001E+03  0.46704844113E+03  0.91315481410E+02 0.  0.
          1    1    3    3  502    0  0.17385338368E+01 -0.23620153888E+02 -0.58270349093E+01  0.24390336312E+02  0.00000000000E+00 0. -1.
         -2    1    3    3    0  502 -0.13069908745E+03 -0.16894577186E+03 -0.28746513851E+03  0.35813563233E+03  0.00000000000E+00 0.  1.
         11    1    5    5    0    0  0.45402041257E+03 -0.29502314070E+02  0.62401018721E+03  0.77226526227E+03  0.00000000000E+00 0.  1.
        -11    1    5    5    0    0  0.39369486116E+01 -0.12855918393E+02  0.23635811324E+02  0.27192384578E+02  0.00000000000E+00 0. -1.
          4    1    6    6  503    0  0.20213025950E+01  0.18976421064E+02  0.12476845641E+02  0.22800480208E+02  0.00000000000E+00 0. -1.
         -4    1    6    6    0  503 -0.33101811017E+03  0.21594773714E+03  0.20285422437E+03  0.44424796092E+03  0.00000000000E+00 0.  1.
<mgrwt>
<rscale>  0 0.15475031E+04</rscale>
<asrwt>0</asrwt>
<pdfrwt beam="1">  1        1 0.17067053E+00 0.15475031E+04</pdfrwt>
<pdfrwt beam="2">  1       -2 0.83026705E-01 0.15475031E+04</pdfrwt>
<totfact> 0.13398432E+01</totfact>
</mgrwt>
</event>
<event>
12    4  0.4381187E-008  0.1726303E+04  0.7818608E-02  0.8746503E-01
         -2   -1    0    0    0  501 -0.00000000000E+00  0.00000000000E+00  0.73741169297E+03  0.73741169297E+03  0.00000000000E+00 0.  1.
          1   -1    0    0  501    0  0.00000000000E+00 -0.00000000000E+00 -0.10103320396E+04  0.10103320396E+04  0.00000000000E+00 0. -1.
        -24    2    1    2    0    0  0.25475181921E+03 -0.50044383230E+02 -0.67062217166E+03  0.72313428715E+03  0.76066881383E+02 0.  0.
        254    2    1    2    0    0 -0.25475181921E+03  0.50044383230E+02  0.39770182503E+03  0.10246094454E+04  0.90788481886E+03 0.  0.
         23    2    4    4    0    0 -0.36887413306E+03 -0.31055200974E+03  0.33822733200E+02  0.49171820729E+03  0.90178386004E+02 0.  0.
         23    2    4    4    0    0  0.11412231386E+03  0.36059639297E+03  0.36387909183E+03  0.53289123813E+03  0.92257341489E+02 0.  0.
          1    1    3    3  502    0  0.13509150324E+03 -0.38145427210E+02 -0.45603832767E+03  0.47715379509E+03  0.00000000000E+00 0. -1.
         -2    1    3    3    0  502  0.11966031596E+03 -0.11898956019E+02 -0.21458384399E+03  0.24598049206E+03  0.00000000000E+00 0.  1.
         11    1    5    5    0    0 -0.34954429616E+03 -0.29655439024E+03  0.10746775309E+02  0.45852068059E+03  0.00000000000E+00 0.  1.
        -11    1    5    5    0    0 -0.19329836903E+02 -0.13997619498E+02  0.23075957892E+02  0.33197526699E+02  0.00000000000E+00 0. -1.
          3    1    6    6  503    0  0.21891744409E+02  0.21111358675E+03  0.22163123890E+03  0.30686902913E+03  0.00000000000E+00 0. -1.
         -3    1    6    6    0  503  0.92230569449E+02  0.14948280622E+03  0.14224785293E+03  0.22602220900E+03  0.00000000000E+00 0.  1.
<mgrwt>
<rscale>  0 0.17263032E+04</rscale>
<asrwt>0</asrwt>
<pdfrwt beam="1">  1        1 0.15543570E+00 0.17263032E+04</pdfrwt>
<pdfrwt beam="2">  1       -2 0.11344795E+00 0.17263032E+04</pdfrwt>
<totfact> 0.75356558E+00</totfact>
</mgrwt>
</event>
<event>
12    4  0.4381187E-008  0.3778136E+04  0.7818608E-02  0.8050863E-01
          1   -1    0    0  501    0  0.00000000000E+00  0.00000000000E+00  0.14521264204E+04  0.14521264204E+04  0.00000000000E+00 0. -1.
         -2   -1    0    0    0  501 -0.00000000000E+00 -0.00000000000E+00 -0.24574839921E+04  0.24574839921E+04  0.00000000000E+00 0.  1.
        -24    2    1    2    0    0  0.16352349139E+04  0.32415161581E+03  0.16696126644E+03  0.16772821714E+04  0.79573389624E+02 0.  0.
        254    2    1    2    0    0 -0.16352349139E+04 -0.32415161581E+03 -0.11723188382E+04  0.22323282412E+04  0.91098321851E+03 0.  0.
         23    2    4    4    0    0 -0.13784771562E+04 -0.38696838529E+03 -0.52606907384E+03  0.15280958701E+04  0.91567005040E+02 0.  0.
         23    2    4    4    0    0 -0.25675775767E+03  0.62816769476E+02 -0.64624976432E+03  0.70423237105E+03  0.91836713225E+02 0.  0.
          1    1    3    3  502    0  0.15302690739E+04  0.28353400878E+03  0.15997772060E+03  0.15645152104E+04  0.00000000000E+00 0. -1.
         -2    1    3    3    0  502  0.10496584003E+03  0.40617607031E+02  0.69835458438E+01  0.11276696097E+03  0.00000000000E+00 0.  1.
         11    1    5    5    0    0 -0.31355718797E+03 -0.48720680132E+02 -0.11300928297E+03  0.33684256387E+03  0.00000000000E+00 0. -1.
        -11    1    5    5    0    0 -0.10649199683E+04 -0.33824770516E+03 -0.41305979088E+03  0.11912533063E+04  0.00000000000E+00 0.  1.
          3    1    6    6  503    0 -0.20564384260E+02 -0.14448500568E+02 -0.26539654085E+02  0.36551420049E+02  0.00000000000E+00 0. -1.
         -3    1    6    6    0  503 -0.23619337341E+03  0.77265270045E+02 -0.61971011024E+03  0.66768095100E+03  0.00000000000E+00 0.  1.
<mgrwt>
<rscale>  0 0.37781357E+04</rscale>
<asrwt>0</asrwt>
<pdfrwt beam="1">  1        1 0.22340407E+00 0.37781357E+04</pdfrwt>
<pdfrwt beam="2">  1       -2 0.37807446E+00 0.37781357E+04</pdfrwt>
<totfact> 0.50905722E-02</totfact>
</mgrwt>
</event>
<event>
12    4  0.4381187E-008  0.2839374E+04  0.7818608E-02  0.8291148E-01
          1   -1    0    0  501    0  0.00000000000E+00  0.00000000000E+00  0.26310406254E+04  0.26310406254E+04  0.00000000000E+00 0. -1.
         -2   -1    0    0    0  501 -0.00000000000E+00 -0.00000000000E+00 -0.76605086284E+03  0.76605086284E+03  0.00000000000E+00 0.  1.
        -24    2    1    2    0    0 -0.68987254063E+03  0.35199638523E+03  0.21027809730E+04  0.22422600025E+04  0.78844917208E+02 0.  0.
        254    2    1    2    0    0  0.68987254063E+03 -0.35199638523E+03 -0.23779121044E+03  0.11548314857E+04  0.82296143475E+03 0.  0.
         23    2    4    4    0    0  0.28688654931E+03 -0.15552400165E+03  0.29643075520E+03  0.45150108152E+03  0.97418821193E+02 0.  0.
         23    2    4    4    0    0  0.40298599133E+03 -0.19647238358E+03 -0.53422196565E+03  0.70333040419E+03  0.91002429389E+02 0.  0.
          3    1    3    3  502    0 -0.31222504587E+03  0.13357047372E+03  0.10125606367E+04  0.10679909146E+04  0.00000000000E+00 0. -1.
         -4    1    3    3    0  502 -0.37764749476E+03  0.21842591151E+03  0.10902203363E+04  0.11742690879E+04  0.00000000000E+00 0.  1.
         11    1    5    5    0    0  0.70871088864E+02 -0.18070193194E+02  0.12009943794E+03  0.14061691972E+03  0.00000000000E+00 0.  1.
        -11    1    5    5    0    0  0.21601546044E+03 -0.13745380846E+03  0.17633131726E+03  0.31088416180E+03  0.00000000000E+00 0. -1.
          1    1    6    6  503    0  0.32083805923E+03 -0.12510307940E+03 -0.44452282229E+03  0.56230630467E+03  0.00000000000E+00 0. -1.
         -1    1    6    6    0  503  0.82147932096E+02 -0.71369304181E+02 -0.89699143356E+02  0.14102409952E+03  0.00000000000E+00 0.  1.
<mgrwt>
<rscale>  0 0.28393738E+04</rscale>
<asrwt>0</asrwt>
<pdfrwt beam="1">  1        1 0.40477548E+00 0.28393738E+04</pdfrwt>
<pdfrwt beam="2">  1       -2 0.11785398E+00 0.28393738E+04</pdfrwt>
<totfact> 0.46234531E-01</totfact>
</mgrwt>
</event>
<event>
12    4  0.4381187E-008  0.2594136E+04  0.7818608E-02  0.8370196E-01
          1   -1    0    0  501    0  0.00000000000E+00  0.00000000000E+00  0.99260788948E+03  0.99260788948E+03  0.00000000000E+00 0. -1.
         -2   -1    0    0    0  501 -0.00000000000E+00 -0.00000000000E+00 -0.16949149770E+04  0.16949149770E+04  0.00000000000E+00 0.  1.
        -24    2    1    2    0    0  0.19225730768E+02 -0.31342056616E+03  0.82944533130E+03  0.89041845486E+03  0.79141563751E+02 0.  0.
        254    2    1    2    0    0 -0.19225730768E+02  0.31342056616E+03 -0.15317524188E+04  0.17971044116E+04  0.88584237519E+03 0.  0.
         23    2    4    4    0    0 -0.47150307803E+02 -0.29843206655E+03 -0.43357315945E+03  0.53645705206E+03  0.92280194202E+02 0.  0.
         23    2    4    4    0    0  0.27924577034E+02  0.61185263271E+03 -0.10981792593E+04  0.12606473595E+04  0.89948058810E+02 0.  0.
          1    1    3    3  502    0  0.44042962407E+02 -0.26762608351E+03  0.71343198995E+03  0.76324878473E+03  0.00000000000E+00 0. -1.
         -2    1    3    3    0  502 -0.24817231639E+02 -0.45794482653E+02  0.11601334135E+03  0.12716967012E+03  0.00000000000E+00 0.  1.
         11    1    5    5    0    0 -0.10243611185E+02 -0.21458337778E+01 -0.46199619937E+02  0.47370254960E+02  0.00000000000E+00 0.  1.
        -11    1    5    5    0    0 -0.36906696618E+02 -0.29628623277E+03 -0.38737353951E+03  0.48908679710E+03  0.00000000000E+00 0. -1.
          2    1    6    6  503    0 -0.50972312087E+01  0.41199822672E+03 -0.66242821299E+03  0.78011515685E+03  0.00000000000E+00 0. -1.
         -2    1    6    6    0  503  0.33021808243E+02  0.19985440599E+03 -0.43575104634E+03  0.48053220266E+03  0.00000000000E+00 0.  1.
<mgrwt>
<rscale>  0 0.25941364E+04</rscale>
<asrwt>0</asrwt>
<pdfrwt beam="1">  1        1 0.15270891E+00 0.25941364E+04</pdfrwt>
<pdfrwt beam="2">  1       -2 0.26075615E+00 0.25941364E+04</pdfrwt>
<totfact> 0.65424320E-01</totfact>
</mgrwt>
</event>
<event>
12    4  0.4381187E-008  0.1119735E+04  0.7818608E-02  0.9186167E-01
          1   -1    0    0  501    0  0.00000000000E+00  0.00000000000E+00  0.57932344231E+03  0.57932344231E+03  0.00000000000E+00 0. -1.
         -2   -1    0    0    0  501 -0.00000000000E+00 -0.00000000000E+00 -0.54106501587E+03  0.54106501587E+03  0.00000000000E+00 0.  1.
        -24    2    1    2    0    0  0.76506578608E+02 -0.12213109707E+03  0.11326415911E+03  0.19897911312E+03  0.77425165648E+02 0.  0.
        254    2    1    2    0    0 -0.76506578608E+02  0.12213109707E+03 -0.75005732665E+02  0.92140934506E+03  0.90697302043E+03 0.  0.
         23    2    4    4    0    0 -0.35367948600E+02  0.46629773448E+03  0.14847040355E+03  0.49771307955E+03  0.83608491523E+02 0.  0.
         23    2    4    4    0    0 -0.41138630008E+02 -0.34416663741E+03 -0.22347613622E+03  0.42369626551E+03  0.97128166694E+02 0.  0.
          3    1    3    3  502    0 -0.37697860294E+01  0.88976616593E+01  0.95708283566E+01  0.13600750904E+02  0.00000000000E+00 0. -1.
         -4    1    3    3    0  502  0.80276364637E+02 -0.13102875873E+03  0.10369333075E+03  0.18537836221E+03  0.00000000000E+00 0.  1.
         11    1    5    5    0    0 -0.61643477910E+02  0.28509740566E+03  0.99383236612E+02  0.30815171069E+03  0.00000000000E+00 0. -1.
        -11    1    5    5    0    0  0.26275529311E+02  0.18120032882E+03  0.49087166940E+02  0.18956136886E+03  0.00000000000E+00 0.  1.
          3    1    6    6  503    0 -0.28763421806E+02 -0.34545393945E+03 -0.22071628307E+03  0.41095186619E+03  0.00000000000E+00 0. -1.
         -3    1    6    6    0  503 -0.12375208202E+02  0.12873020402E+01 -0.27598531450E+01  0.12744399318E+02  0.00000000000E+00 0.  1.
<mgrwt>
<rscale>  0 0.11197351E+04</rscale>
<asrwt>0</asrwt>
<pdfrwt beam="1">  1        1 0.89126683E-01 0.11197351E+04</pdfrwt>
<pdfrwt beam="2">  1       -2 0.83240772E-01 0.11197351E+04</pdfrwt>
<totfact> 0.39657525E+01</totfact>
</mgrwt>
</event>
<event>
12    4  0.4381187E-008  0.1804836E+04  0.7818608E-02  0.8703732E-01
          1   -1    0    0  501    0  0.00000000000E+00  0.00000000000E+00  0.73020056421E+03  0.73020056421E+03  0.00000000000E+00 0. -1.
         -2   -1    0    0    0  501 -0.00000000000E+00 -0.00000000000E+00 -0.11152527608E+04  0.11152527608E+04  0.00000000000E+00 0.  1.
        -24    2    1    2    0    0 -0.22548384943E+03 -0.61516500524E+03  0.16826532586E+02  0.66013081886E+03  0.78858200446E+02 0.  0.
        254    2    1    2    0    0  0.22548384943E+03  0.61516500524E+03 -0.40187872919E+03  0.11853225062E+04  0.90233695516E+03 0.  0.
         23    2    4    4    0    0  0.21599986038E+03 -0.34599062069E+01  0.20658451781E+03  0.31255491244E+03  0.91353706321E+02 0.  0.
         23    2    4    4    0    0  0.94839890476E+01  0.61862491145E+03 -0.60846324700E+03  0.87276759373E+03  0.93322144239E+02 0.  0.
          3    1    3    3  502    0 -0.22975695215E+03 -0.60668775000E+03  0.22399654871E+02  0.64912250584E+03  0.00000000000E+00 0. -1.
         -4    1    3    3    0  502  0.42731027203E+01 -0.84772552467E+01 -0.55731222846E+01  0.11008313012E+02  0.00000000000E+00 0.  1.
         11    1    5    5    0    0  0.20383968448E+03  0.20638348869E+02  0.19607792313E+03  0.28358968662E+03  0.00000000000E+00 0.  1.
        -11    1    5    5    0    0  0.12160175894E+02 -0.24098255076E+02  0.10506594678E+02  0.28965225827E+02  0.00000000000E+00 0. -1.
          1    1    6    6  503    0 -0.17651373753E+02  0.12030295749E+03 -0.16628147103E+03  0.20599490330E+03  0.00000000000E+00 0. -1.
         -1    1    6    6    0  503  0.27135362801E+02  0.49832195395E+03 -0.44218177597E+03  0.66677269043E+03  0.00000000000E+00 0.  1.
<mgrwt>
<rscale>  0 0.18048359E+04</rscale>
<asrwt>0</asrwt>
<pdfrwt beam="1">  1        1 0.11233855E+00 0.18048359E+04</pdfrwt>
<pdfrwt beam="2">  1       -2 0.17157735E+00 0.18048359E+04</pdfrwt>
<totfact> 0.43785639E+00</totfact>
</mgrwt>
</event>
<event>
12    4  0.4381187E-008  0.2424676E+04  0.7818608E-02  0.8430323E-01
          1   -1    0    0  501    0  0.00000000000E+00  0.00000000000E+00  0.23057341499E+04  0.23057341499E+04  0.00000000000E+00 0. -1.
         -2   -1    0    0    0  501 -0.00000000000E+00 -0.00000000000E+00 -0.63743819063E+03  0.63743819063E+03  0.00000000000E+00 0.  1.
        -24    2    1    2    0    0 -0.92921704658E+03 -0.40568656749E+03  0.10807850002E+04  0.14840587261E+04  0.79424022501E+02 0.  0.
        254    2    1    2    0    0  0.92921704658E+03  0.40568656749E+03  0.58751095911E+03  0.14591136144E+04  0.86937765212E+03 0.  0.
         23    2    4    4    0    0  0.70946400425E+02 -0.12331624655E+03 -0.13634058179E+03  0.21463435584E+03  0.85081514273E+02 0.  0.
         23    2    4    4    0    0  0.85827064615E+03  0.52900281403E+03  0.72385154090E+03  0.12444792586E+04  0.91077398097E+02 0.  0.
          3    1    3    3  502    0 -0.20105527233E+03 -0.81998525342E+02  0.18629100013E+03  0.28609669243E+03  0.00000000000E+00 0. -1.
         -4    1    3    3    0  502 -0.72816177425E+03 -0.32368804214E+03  0.89449400004E+03  0.11979620337E+04  0.00000000000E+00 0.  1.
         11    1    5    5    0    0  0.47357762418E+02 -0.12261919733E+03 -0.13848844129E+03  0.19093787887E+03  0.00000000000E+00 0. -1.
        -11    1    5    5    0    0  0.23588638007E+02 -0.69704921097E+00  0.21478595011E+01  0.23696476975E+02  0.00000000000E+00 0.  1.
          1    1    6    6  503    0  0.30422309499E+03  0.22795433964E+03  0.23863148152E+03  0.44884279704E+03  0.00000000000E+00 0. -1.
         -1    1    6    6    0  503  0.55404755116E+03  0.30104847439E+03  0.48522005938E+03  0.79563646152E+03  0.00000000000E+00 0.  1.
<mgrwt>
<rscale>  0 0.24246757E+04</rscale>
<asrwt>0</asrwt>
<pdfrwt beam="1">  1        1 0.35472832E+00 0.24246757E+04</pdfrwt>
<pdfrwt beam="2">  1       -2 0.98067416E-01 0.24246757E+04</pdfrwt>
<totfact> 0.12536905E+00</totfact>
</mgrwt>
</event>
<event>
12    4  0.4381187E-008  0.1963443E+04  0.7818608E-02  0.8623906E-01
         -2   -1    0    0    0  501 -0.00000000000E+00  0.00000000000E+00  0.11943922658E+04  0.11943922658E+04  0.00000000000E+00 0.  1.
          1   -1    0    0  501    0  0.00000000000E+00 -0.00000000000E+00 -0.80691838707E+03  0.80691838707E+03  0.00000000000E+00 0. -1.
        -24    2    1    2    0    0 -0.48117889228E+03  0.22189510626E+03  0.72920083703E+03  0.90487532339E+03  0.79340567155E+02 0.  0.
        254    2    1    2    0    0  0.48117889228E+03 -0.22189510626E+03 -0.34172695832E+03  0.10964353295E+04  0.89700755465E+03 0.  0.
         23    2    4    4    0    0  0.60945069120E+03 -0.44830385123E+03 -0.20263438435E+03  0.78851631824E+03  0.91053843328E+02 0.  0.
         23    2    4    4    0    0 -0.12827179892E+03  0.22640874497E+03 -0.13909257397E+03  0.30791901122E+03  0.88049980902E+02 0.  0.
          3    1    3    3  502    0 -0.33569874265E+03  0.16082193077E+03  0.44826576779E+03  0.58266588865E+03  0.00000000000E+00 0. -1.
         -4    1    3    3    0  502 -0.14548014963E+03  0.61073175491E+02  0.28093506925E+03  0.32220943473E+03  0.00000000000E+00 0.  1.
         11    1    5    5    0    0  0.37938272927E+03 -0.24487643751E+03 -0.84011103089E+02  0.45929684340E+03  0.00000000000E+00 0.  1.
        -11    1    5    5    0    0  0.23006796193E+03 -0.20342741372E+03 -0.11862328126E+03  0.32921947484E+03  0.00000000000E+00 0. -1.
          2    1    6    6  503    0 -0.12193360078E+03  0.17042838630E+03 -0.13920952757E+03  0.25158086259E+03  0.00000000000E+00 0.  1.
         -2    1    6    6    0  503 -0.63381981454E+01  0.55980358674E+02  0.11695359663E+00  0.56338148631E+02  0.00000000000E+00 0. -1.
<mgrwt>
<rscale>  0 0.19634430E+04</rscale>
<asrwt>0</asrwt>
<pdfrwt beam="1">  1        1 0.12414129E+00 0.19634430E+04</pdfrwt>
<pdfrwt beam="2">  1       -2 0.18375266E+00 0.19634430E+04</pdfrwt>
<totfact> 0.30362717E+00</totfact>
</mgrwt>
</event>
<event>
12    4  0.4381187E-008  0.1311522E+04  0.7818608E-02  0.9020478E-01
         -2   -1    0    0    0  501 -0.00000000000E+00  0.00000000000E+00  0.75411312693E+03  0.75411312693E+03  0.00000000000E+00 0.  1.
          1   -1    0    0  501    0  0.00000000000E+00 -0.00000000000E+00 -0.57023612037E+03  0.57023612037E+03  0.00000000000E+00 0. -1.
        -24    2    1    2    0    0 -0.15958531391E+02  0.19378833355E+03 -0.18879306351E+03  0.28254597551E+03  0.79880000665E+02 0.  0.
        254    2    1    2    0    0  0.15958531391E+02 -0.19378833355E+03  0.37267007007E+03  0.10418032718E+04  0.95323789425E+03 0.  0.
         23    2    4    4    0    0  0.88301470528E+02  0.50664294208E+02  0.64419130758E+03  0.65827827862E+03  0.89352285575E+02 0.  0.
         23    2    4    4    0    0 -0.72342939137E+02 -0.24445262775E+03 -0.27152123751E+03  0.38352499316E+03  0.91526225195E+02 0.  0.
          3    1    3    3  502    0 -0.42624272620E+02  0.16469780264E+03 -0.16142858814E+03  0.23452373842E+03  0.00000000000E+00 0. -1.
         -4    1    3    3    0  502  0.26665741229E+02  0.29090530906E+02 -0.27364475368E+02  0.48022237097E+02  0.00000000000E+00 0.  1.
         11    1    5    5    0    0  0.65588813594E+02  0.75839520845E+02  0.51776145333E+03  0.52738074287E+03  0.00000000000E+00 0.  1.
        -11    1    5    5    0    0  0.22712656934E+02 -0.25175226637E+02  0.12642985425E+03  0.13089753576E+03  0.00000000000E+00 0. -1.
          4    1    6    6  503    0 -0.28970691306E+02 -0.10225098439E+02 -0.47208494762E+02  0.56324910746E+02  0.00000000000E+00 0. -1.
         -4    1    6    6    0  503 -0.43372247831E+02 -0.23422752931E+03 -0.22431274275E+03  0.32720008241E+03  0.00000000000E+00 0.  1.
<mgrwt>
<rscale>  0 0.13115221E+04</rscale>
<asrwt>0</asrwt>
<pdfrwt beam="1">  1        1 0.87728634E-01 0.13115221E+04</pdfrwt>
<pdfrwt beam="2">  1       -2 0.11601740E+00 0.13115221E+04</pdfrwt>
<totfact> 0.18260619E+01</totfact>
</mgrwt>
</event>
<event>
12    4  0.4381187E-008  0.1981874E+04  0.7818608E-02  0.8615142E-01
          1   -1    0    0  501    0  0.00000000000E+00  0.00000000000E+00  0.11514443979E+04  0.11514443979E+04  0.00000000000E+00 0. -1.
         -2   -1    0    0    0  501 -0.00000000000E+00 -0.00000000000E+00 -0.85280380573E+03  0.85280380573E+03  0.00000000000E+00 0.  1.
        -24    2    1    2    0    0 -0.53684627364E+03  0.32010924951E+03 -0.36047245749E+03  0.72606948251E+03  0.81010170235E+02 0.  0.
        254    2    1    2    0    0  0.53684627364E+03 -0.32010924951E+03  0.65911304969E+03  0.12781787211E+04  0.89924244660E+03 0.  0.
         23    2    4    4    0    0  0.41219260836E+03 -0.58360168722E+03  0.23952552807E+03  0.75912750925E+03  0.91697442628E+02 0.  0.
         23    2    4    4    0    0  0.12465366528E+03  0.26349243771E+03  0.41958752162E+03  0.51905121190E+03  0.91616981381E+02 0.  0.
          3    1    3    3  502    0 -0.64745807259E+02  0.10246106258E+02 -0.38644360326E+02  0.76094604513E+02  0.00000000000E+00 0. -1.
         -4    1    3    3    0  502 -0.47210046638E+03  0.30986314325E+03 -0.32182809717E+03  0.64997487800E+03  0.00000000000E+00 0.  1.
         11    1    5    5    0    0  0.17263941951E+03 -0.19883559467E+03  0.50897861460E+02  0.26819872330E+03  0.00000000000E+00 0.  1.
        -11    1    5    5    0    0  0.23955318886E+03 -0.38476609254E+03  0.18862766661E+03  0.49092878595E+03  0.00000000000E+00 0. -1.
          1    1    6    6  503    0  0.10053172051E+03  0.26085004932E+03  0.36892406285E+03  0.46287615969E+03  0.00000000000E+00 0. -1.
         -1    1    6    6    0  503  0.24121944770E+02  0.26423883826E+01  0.50663458772E+02  0.56175052208E+02  0.00000000000E+00 0.  1.
<mgrwt>
<rscale>  0 0.19818740E+04</rscale>
<asrwt>0</asrwt>
<pdfrwt beam="1">  1        1 0.17714529E+00 0.19818740E+04</pdfrwt>
<pdfrwt beam="2">  1       -2 0.13120059E+00 0.19818740E+04</pdfrwt>
<totfact> 0.40118848E+00</totfact>
</mgrwt>
</event>
<event>
12    4  0.4381187E-008  0.1620408E+04  0.7818608E-02  0.8808108E-01
          1   -1    0    0  501    0  0.00000000000E+00  0.00000000000E+00  0.27443708940E+04  0.27443708940E+04  0.00000000000E+00 0. -1.
         -2   -1    0    0    0  501 -0.00000000000E+00 -0.00000000000E+00 -0.23919150587E+03  0.23919150587E+03  0.00000000000E+00 0.  1.
        -24    2    1    2    0    0 -0.22353324927E+03 -0.32178137128E+03  0.15129264471E+03  0.42777853798E+03  0.81207442863E+02 0.  0.
        254    2    1    2    0    0  0.22353324927E+03  0.32178137128E+03  0.23538867434E+04  0.25557838619E+04  0.91528027589E+03 0.  0.
         23    2    4    4    0    0  0.40113745090E+03  0.55408202795E+03  0.15993187654E+04  0.17415107918E+04  0.84387062537E+02 0.  0.
         23    2    4    4    0    0 -0.17760420163E+03 -0.23230065667E+03  0.75456797802E+03  0.81427307011E+03  0.90337986077E+02 0.  0.
          1    1    3    3  502    0 -0.64718297262E+02 -0.16181356680E+03  0.56038485240E+02  0.18306392389E+03  0.00000000000E+00 0. -1.
         -2    1    3    3    0  502 -0.15881495201E+03 -0.15996780448E+03  0.95254159472E+02  0.24471461409E+03  0.00000000000E+00 0.  1.
         11    1    5    5    0    0  0.38045183700E+02  0.37402725787E+02  0.18648617103E+03  0.19396775991E+03  0.00000000000E+00 0.  1.
        -11    1    5    5    0    0  0.36309226720E+03  0.51667930216E+03  0.14128325944E+04  0.15475430319E+04  0.00000000000E+00 0. -1.
          1    1    6    6  503    0 -0.10060074223E+03 -0.10724231071E+03  0.49105101634E+03  0.51259391646E+03  0.00000000000E+00 0. -1.
         -1    1    6    6    0  503 -0.77003459401E+02 -0.12505834596E+03  0.26351696168E+03  0.30167915365E+03  0.00000000000E+00 0.  1.
<mgrwt>
<rscale>  0 0.16204076E+04</rscale>
<asrwt>0</asrwt>
<pdfrwt beam="1">  1        1 0.42221089E+00 0.16204076E+04</pdfrwt>
<pdfrwt beam="2">  1       -2 0.36798695E-01 0.16204076E+04</pdfrwt>
<totfact> 0.53593327E+00</totfact>
</mgrwt>
</event>
<event>
12    4  0.4381187E-008  0.1240876E+04  0.7818608E-02  0.9077812E-01
         -2   -1    0    0    0  501 -0.00000000000E+00  0.00000000000E+00  0.82316189208E+03  0.82316189208E+03  0.00000000000E+00 0.  1.
          1   -1    0    0  501    0  0.00000000000E+00 -0.00000000000E+00 -0.46763953908E+03  0.46763953908E+03  0.00000000000E+00 0. -1.
        -24    2    1    2    0    0 -0.26905189311E+00 -0.22943648004E+03 -0.90027073093E+02  0.25907274105E+03  0.79828819980E+02 0.  0.
        254    2    1    2    0    0  0.26905189311E+00  0.22943648004E+03  0.44554942609E+03  0.10317286901E+04  0.90183625351E+03 0.  0.
         23    2    4    4    0    0  0.20325287887E+03  0.49620014899E+03  0.12609778200E+03  0.56004238956E+03  0.10109652244E+03 0.  0.
         23    2    4    4    0    0 -0.20298382698E+03 -0.26676366895E+03  0.31945164409E+03  0.47168630055E+03  0.89851678486E+02 0.  0.
          3    1    3    3  502    0 -0.32990458400E+01 -0.14250260903E+03 -0.96043072412E+02  0.17187829718E+03  0.00000000000E+00 0. -1.
         -4    1    3    3    0  502  0.30299939469E+01 -0.86933871020E+02  0.60159993191E+01  0.87194443869E+02  0.00000000000E+00 0.  1.
         11    1    5    5    0    0  0.46709834315E+02  0.11748401986E+03  0.75189327883E+02  0.14709771776E+03  0.00000000000E+00 0.  1.
        -11    1    5    5    0    0  0.15654304456E+03  0.37871612914E+03  0.50908454118E+02  0.41294467180E+03  0.00000000000E+00 0. -1.
          3    1    6    6  503    0 -0.20219795195E+03 -0.22080234047E+03  0.29163153633E+03  0.41795530660E+03  0.00000000000E+00 0. -1.
         -3    1    6    6    0  503 -0.78587502785E+00 -0.45961328480E+02  0.27820107758E+02  0.53730993951E+02  0.00000000000E+00 0.  1.
<mgrwt>
<rscale>  0 0.12408756E+04</rscale>
<asrwt>0</asrwt>
<pdfrwt beam="1">  1        1 0.71944544E-01 0.12408756E+04</pdfrwt>
<pdfrwt beam="2">  1       -2 0.12664029E+00 0.12408756E+04</pdfrwt>
<totfact> 0.19442338E+01</totfact>
</mgrwt>
</event>
<event>
12    4  0.4381187E-008  0.1480353E+04  0.7818608E-02  0.8897624E-01
         -2   -1    0    0    0  501 -0.00000000000E+00  0.00000000000E+00  0.14663816194E+03  0.14663816194E+03  0.00000000000E+00 0.  1.
          1   -1    0    0  501    0  0.00000000000E+00 -0.00000000000E+00 -0.37361413409E+04  0.37361413409E+04  0.00000000000E+00 0. -1.
        -24    2    1    2    0    0  0.26463682081E+03 -0.27567710625E+02 -0.15062655892E+03  0.31597334706E+03  0.79738135183E+02 0.  0.
        254    2    1    2    0    0 -0.26463682081E+03  0.27567710625E+02 -0.34388766200E+04  0.35668061558E+04  0.90853790201E+03 0.  0.
         23    2    4    4    0    0 -0.43871146396E+03  0.75772452283E+02 -0.32751397559E+04  0.33065430258E+04  0.92071426486E+02 0.  0.
         23    2    4    4    0    0  0.17407464315E+03 -0.48204741658E+02 -0.16373686411E+03  0.26026312996E+03  0.91112335276E+02 0.  0.
          3    1    3    3  502    0  0.72695604335E+02 -0.32036245857E+02 -0.76139188183E+02  0.11003702975E+03  0.00000000000E+00 0. -1.
         -4    1    3    3    0  502  0.19194121648E+03  0.44685352322E+01 -0.74487370734E+02  0.20593631731E+03  0.00000000000E+00 0.  1.
         11    1    5    5    0    0 -0.28030936179E+03  0.58855874301E+02 -0.17738835463E+04  0.17968584218E+04  0.00000000000E+00 0.  1.
        -11    1    5    5    0    0 -0.15840210217E+03  0.16916577982E+02 -0.15012562096E+04  0.15096846040E+04  0.00000000000E+00 0. -1.
          2    1    6    6  503    0  0.86088903587E+02 -0.61788807077E+01 -0.13201460660E+03  0.15772550283E+03  0.00000000000E+00 0.  1.
         -2    1    6    6    0  503  0.87985739560E+02 -0.42025860951E+02 -0.31722257513E+02  0.10253762712E+03  0.00000000000E+00 0. -1.
<mgrwt>
<rscale>  0 0.14803525E+04</rscale>
<asrwt>0</asrwt>
<pdfrwt beam="1">  1        1 0.57479099E+00 0.14803525E+04</pdfrwt>
<pdfrwt beam="2">  1       -2 0.22559717E-01 0.14803525E+04</pdfrwt>
<totfact> 0.24036710E+00</totfact>
</mgrwt>
</event>
<event>
12    4  0.4381187E-008  0.1438731E+04  0.7818608E-02  0.8926251E-01
         -2   -1    0    0    0  501 -0.00000000000E+00  0.00000000000E+00  0.29792634917E+03  0.29792634917E+03  0.00000000000E+00 0.  1.
          1   -1    0    0  501    0  0.00000000000E+00 -0.00000000000E+00 -0.17369611122E+04  0.17369611122E+04  0.00000000000E+00 0. -1.
        -24    2    1    2    0    0 -0.18883242942E+03  0.40105858324E+03 -0.55649793781E+03  0.71557128840E+03  0.76463327137E+02 0.  0.
        254    2    1    2    0    0  0.18883242942E+03 -0.40105858324E+03 -0.88253682520E+03  0.13193161730E+04  0.87476753645E+03 0.  0.
         23    2    4    4    0    0  0.15296616772E+03 -0.65700171531E+03 -0.75439653634E+03  0.10160765777E+04  0.90816162316E+02 0.  0.
         23    2    4    4    0    0  0.35866261704E+02  0.25594313207E+03 -0.12814028885E+03  0.30323959526E+03  0.93493544817E+02 0.  0.
          1    1    3    3  502    0 -0.82034231714E+01  0.78555148807E+02 -0.78916773372E+02  0.11165153235E+03  0.00000000000E+00 0. -1.
         -2    1    3    3    0  502 -0.18062900625E+03  0.32250343443E+03 -0.47758116444E+03  0.60391975605E+03  0.00000000000E+00 0.  1.
         11    1    5    5    0    0  0.69631773602E+02 -0.44642614263E+03 -0.46167981720E+03  0.64598230497E+03  0.00000000000E+00 0.  1.
        -11    1    5    5    0    0  0.83334394114E+02 -0.21057557267E+03 -0.29271671914E+03  0.37009427274E+03  0.00000000000E+00 0. -1.
          4    1    6    6  503    0  0.20261156521E+02  0.21730729780E+03 -0.14075741468E+03  0.25970295710E+03  0.00000000000E+00 0.  1.
         -4    1    6    6    0  503  0.15605105183E+02  0.38635834270E+02  0.12617125829E+02  0.43536638154E+02  0.00000000000E+00 0. -1.
<mgrwt>
<rscale>  0 0.14387307E+04</rscale>
<asrwt>0</asrwt>
<pdfrwt beam="1">  1        1 0.26722478E+00 0.14387307E+04</pdfrwt>
<pdfrwt beam="2">  1       -2 0.45834823E-01 0.14387307E+04</pdfrwt>
<totfact> 0.17322174E+01</totfact>
</mgrwt>
</event>
<event>
12    4  0.4381187E-008  0.1254234E+04  0.7818608E-02  0.9066666E-01
          1   -1    0    0  501    0  0.00000000000E+00  0.00000000000E+00  0.53076925032E+03  0.53076925032E+03  0.00000000000E+00 0. -1.
         -2   -1    0    0    0  501 -0.00000000000E+00 -0.00000000000E+00 -0.74095459277E+03  0.74095459277E+03  0.00000000000E+00 0.  1.
        -24    2    1    2    0    0  0.59733442853E+02 -0.10115501338E+03  0.21555853507E+03  0.25774759759E+03  0.78536113335E+02 0.  0.
        254    2    1    2    0    0 -0.59733442853E+02  0.10115501338E+03 -0.42574387751E+03  0.10139762455E+04  0.91273739721E+03 0.  0.
         23    2    4    4    0    0 -0.40423507346E+03 -0.13730131867E+03 -0.38578572035E+03  0.58255913940E+03  0.91032313750E+02 0.  0.
         23    2    4    4    0    0  0.34450163061E+03  0.23845633205E+03 -0.39958157159E+02  0.43141710610E+03  0.94769559046E+02 0.  0.
          3    1    3    3  502    0  0.63340291989E+02 -0.71444056964E+02  0.20476572815E+03  0.22593195721E+03  0.00000000000E+00 0. -1.
         -4    1    3    3    0  502 -0.36068491358E+01 -0.29710956416E+02  0.10792806920E+02  0.31815640384E+02  0.00000000000E+00 0.  1.
         11    1    5    5    0    0 -0.13101417355E+03 -0.84509088496E+02 -0.16798400604E+03  0.22918360761E+03  0.00000000000E+00 0. -1.
        -11    1    5    5    0    0 -0.27322089991E+03 -0.52792230176E+02 -0.21780171431E+03  0.35337553179E+03  0.00000000000E+00 0.  1.
          1    1    6    6  503    0  0.17296924594E+03  0.16482949534E+03 -0.51419244097E+02  0.24439938879E+03  0.00000000000E+00 0. -1.
         -1    1    6    6    0  503  0.17153238467E+03  0.73626836709E+02  0.11461086939E+02  0.18701771731E+03  0.00000000000E+00 0.  1.
<mgrwt>
<rscale>  0 0.12542343E+04</rscale>
<asrwt>0</asrwt>
<pdfrwt beam="1">  1        1 0.81656808E-01 0.12542343E+04</pdfrwt>
<pdfrwt beam="2">  1       -2 0.11399301E+00 0.12542343E+04</pdfrwt>
<totfact> 0.21184431E+01</totfact>
</mgrwt>
</event>
<event>
12    4  0.4381187E-008  0.1408522E+04  0.7818608E-02  0.8947673E-01
         -2   -1    0    0    0  501 -0.00000000000E+00  0.00000000000E+00  0.11196579464E+04  0.11196579464E+04  0.00000000000E+00 0.  1.
          1   -1    0    0  501    0  0.00000000000E+00 -0.00000000000E+00 -0.44297805898E+03  0.44297805898E+03  0.00000000000E+00 0. -1.
        -24    2    1    2    0    0  0.34721892567E+03 -0.13573128875E+02  0.38136555869E+03  0.52196589949E+03  0.79142268750E+02 0.  0.
        254    2    1    2    0    0 -0.34721892567E+03  0.13573128875E+02  0.29531432872E+03  0.10406701059E+04  0.93543492791E+03 0.  0.
         23    2    4    4    0    0 -0.44646749133E+03  0.24207429436E+03  0.48987718170E+03  0.71148583943E+03  0.91100284072E+02 0.  0.
         23    2    4    4    0    0  0.99248565655E+02 -0.22850116549E+03 -0.19456285297E+03  0.32918426645E+03  0.91894053723E+02 0.  0.
          3    1    3    3  502    0  0.17569508252E+02  0.16589251399E+02  0.16197144806E+02  0.29090176728E+02  0.00000000000E+00 0. -1.
         -4    1    3    3    0  502  0.32964941742E+03 -0.30162380274E+02  0.36516841388E+03  0.49287572276E+03  0.00000000000E+00 0.  1.
         11    1    5    5    0    0 -0.35740058114E+03  0.15910045999E+03  0.33925187906E+03  0.51782233364E+03  0.00000000000E+00 0. -1.
        -11    1    5    5    0    0 -0.89066910187E+02  0.82973834376E+02  0.15062530264E+03  0.19366350579E+03  0.00000000000E+00 0.  1.
          2    1    6    6  503    0  0.87797704898E+02 -0.99031293750E+02 -0.72622556691E+02  0.15096247834E+03  0.00000000000E+00 0. -1.
         -2    1    6    6    0  503  0.11450860757E+02 -0.12946987174E+03 -0.12194029628E+03  0.17822178811E+03  0.00000000000E+00 0.  1.
<mgrwt>
<rscale>  0 0.14085225E+04</rscale>
<asrwt>0</asrwt>
<pdfrwt beam="1">  1        1 0.68150471E-01 0.14085225E+04</pdfrwt>
<pdfrwt beam="2">  1       -2 0.17225507E+00 0.14085225E+04</pdfrwt>
<totfact> 0.91429350E+00</totfact>
</mgrwt>
</event>
<event>
12    4  0.4381187E-008  0.1693660E+04  0.7818608E-02  0.8764989E-01
          1   -1    0    0  501    0  0.00000000000E+00  0.00000000000E+00  0.14987052808E+04  0.14987052808E+04  0.00000000000E+00 0. -1.
         -2   -1    0    0    0  501 -0.00000000000E+00 -0.00000000000E+00 -0.47849351168E+03  0.47849351168E+03  0.00000000000E+00 0.  1.
        -24    2    1    2    0    0  0.21662444984E+02 -0.17504718356E+03 -0.30512256450E+03  0.36153004620E+03  0.80581740743E+02 0.  0.
        254    2    1    2    0    0 -0.21662444984E+02  0.17504718356E+03  0.13253343336E+04  0.16156687462E+04  0.90706318622E+03 0.  0.
         23    2    4    4    0    0 -0.36924821090E+03 -0.17512796436E+03  0.67081478353E+03  0.79081717547E+03  0.91571207681E+02 0.  0.
         23    2    4    4    0    0  0.34758576591E+03  0.35017514792E+03  0.65451955007E+03  0.82485157077E+03  0.92443352950E+02 0.  0.
          1    1    3    3  502    0  0.48069196162E+02 -0.12292322064E+03 -0.17775723706E+03  0.22140099620E+03  0.00000000000E+00 0. -1.
         -2    1    3    3    0  502 -0.26406751178E+02 -0.52123962919E+02 -0.12736532745E+03  0.14012905000E+03  0.00000000000E+00 0.  1.
         11    1    5    5    0    0 -0.30372194843E+03 -0.14270517935E+03  0.60785895814E+03  0.69433731223E+03  0.00000000000E+00 0. -1.
        -11    1    5    5    0    0 -0.65526262468E+02 -0.32422785003E+02  0.62955825389E+02  0.96479863240E+02  0.00000000000E+00 0.  1.
          1    1    6    6  503    0  0.31523831233E+03  0.34771418819E+03  0.61769710492E+03  0.77577707085E+03  0.00000000000E+00 0. -1.
         -1    1    6    6    0  503  0.32347453584E+02  0.24609597231E+01  0.36822445148E+02  0.49074499924E+02  0.00000000000E+00 0.  1.
<mgrwt>
<rscale>  0 0.16936597E+04</rscale>
<asrwt>0</asrwt>
<pdfrwt beam="1">  1        1 0.23057004E+00 0.16936597E+04</pdfrwt>
<pdfrwt beam="2">  1       -2 0.73614387E-01 0.16936597E+04</pdfrwt>
<totfact> 0.91142025E+00</totfact>
</mgrwt>
</event>
<event>
12    4  0.4381187E-008  0.1116783E+04  0.7818608E-02  0.9188986E-01
          1   -1    0    0  501    0  0.00000000000E+00  0.00000000000E+00  0.16826350883E+04  0.16826350883E+04  0.00000000000E+00 0. -1.
         -2   -1    0    0    0  501 -0.00000000000E+00 -0.00000000000E+00 -0.18530528839E+03  0.18530528839E+03  0.00000000000E+00 0.  1.
        -24    2    1    2    0    0 -0.74134706198E+02 -0.14320696913E+03  0.33725394354E+03  0.38419704962E+03  0.88673332121E+02 0.  0.
        254    2    1    2    0    0  0.74134706198E+02  0.14320696913E+03  0.11600758564E+04  0.14837433271E+04  0.91088642399E+03 0.  0.
         23    2    4    4    0    0 -0.17412431702E+03 -0.32647315393E+03  0.39381275712E+03  0.54692426013E+03  0.84461000654E+02 0.  0.
         23    2    4    4    0    0  0.24825902322E+03  0.46968012306E+03  0.76626309925E+03  0.93681906694E+03  0.90768200905E+02 0.  0.
          3    1    3    3  502    0 -0.19425184831E+02  0.92069021449E+00  0.95593053847E+02  0.97551101583E+02  0.00000000000E+00 0. -1.
         -4    1    3    3    0  502 -0.54709521368E+02 -0.14412765935E+03  0.24166088970E+03  0.28664594804E+03  0.00000000000E+00 0.  1.
         11    1    5    5    0    0 -0.10146011316E+03 -0.10420438726E+03  0.14164729503E+03  0.20301887863E+03  0.00000000000E+00 0. -1.
        -11    1    5    5    0    0 -0.72664203859E+02 -0.22226876667E+03  0.25216546209E+03  0.34390538150E+03  0.00000000000E+00 0.  1.
          2    1    6    6  503    0  0.22837670973E+03  0.41254246812E+03  0.71996808656E+03  0.86064002650E+03  0.00000000000E+00 0. -1.
         -2    1    6    6    0  503  0.19882313490E+02  0.57137654945E+02  0.46295012695E+02  0.76179040442E+02  0.00000000000E+00 0.  1.
<mgrwt>
<rscale>  0 0.11167832E+04</rscale>
<asrwt>0</asrwt>
<pdfrwt beam="1">  1        1 0.25886693E+00 0.11167832E+04</pdfrwt>
<pdfrwt beam="2">  1       -2 0.28508507E-01 0.11167832E+04</pdfrwt>
<totfact> 0.48273148E+01</totfact>
</mgrwt>
</event>
<event>
12    4  0.4381187E-008  0.1210556E+04  0.7818608E-02  0.9103667E-01
         -2   -1    0    0    0  501 -0.00000000000E+00  0.00000000000E+00  0.20415925607E+04  0.20415925607E+04  0.00000000000E+00 0.  1.
          1   -1    0    0  501    0  0.00000000000E+00 -0.00000000000E+00 -0.17944884448E+03  0.17944884448E+03  0.00000000000E+00 0. -1.
        -24    2    1    2    0    0  0.10784764956E+03  0.12653035319E+03  0.55106203350E+02  0.19277058422E+03  0.80515580476E+02 0.  0.
        254    2    1    2    0    0 -0.10784764956E+03 -0.12653035319E+03  0.18070375129E+04  0.20282708210E+04  0.90601153659E+03 0.  0.
         23    2    4    4    0    0  0.35574886163E+03 -0.23459775681E+03  0.81392038600E+03  0.92310622639E+03  0.89807295891E+02 0.  0.
         23    2    4    4    0    0 -0.46359651119E+03  0.10806740362E+03  0.99311712691E+03  0.11051645946E+04  0.92232665051E+02 0.  0.
          1    1    3    3  502    0  0.11918376820E+03  0.11743176243E+03  0.59505618471E+02  0.17758352417E+03  0.00000000000E+00 0. -1.
         -2    1    3    3    0  502 -0.11336118633E+02  0.90985907606E+01 -0.43994151216E+01  0.15187060048E+02  0.00000000000E+00 0.  1.
         11    1    5    5    0    0  0.18487506278E+03 -0.68420290423E+02  0.37214174375E+03  0.42112896174E+03  0.00000000000E+00 0.  1.
        -11    1    5    5    0    0  0.17087379885E+03 -0.16617746639E+03  0.44177864225E+03  0.50197726465E+03  0.00000000000E+00 0. -1.
          1    1    6    6  503    0 -0.20542454487E+02  0.50763317414E+00  0.10352420411E+03  0.10554388170E+03  0.00000000000E+00 0. -1.
         -1    1    6    6    0  503 -0.44305405670E+03  0.10755977044E+03  0.88959292280E+03  0.99962071291E+03  0.00000000000E+00 0.  1.
<mgrwt>
<rscale>  0 0.12105559E+04</rscale>
<asrwt>0</asrwt>
<pdfrwt beam="1">  1        1 0.27607516E-01 0.12105559E+04</pdfrwt>
<pdfrwt beam="2">  1       -2 0.31409115E+00 0.12105559E+04</pdfrwt>
<totfact> 0.38853815E+00</totfact>
</mgrwt>
</event>
<event>
12    4  0.4381187E-008  0.1933690E+04  0.7818608E-02  0.8638266E-01
         -2   -1    0    0    0  501 -0.00000000000E+00  0.00000000000E+00  0.80066146354E+03  0.80066146354E+03  0.00000000000E+00 0.  1.
          1   -1    0    0  501    0  0.00000000000E+00 -0.00000000000E+00 -0.11675206905E+04  0.11675206905E+04  0.00000000000E+00 0. -1.
        -24    2    1    2    0    0 -0.99957738065E+02 -0.53845731841E+03  0.38504388664E+03  0.67303971151E+03  0.69251898767E+02 0.  0.
        254    2    1    2    0    0  0.99957738065E+02  0.53845731841E+03 -0.75190311355E+03  0.12951424425E+04  0.90117025084E+03 0.  0.
         23    2    4    4    0    0 -0.25770994524E+03  0.19655917628E+03 -0.71595090744E+03  0.79115693407E+03  0.91069571228E+02 0.  0.
         23    2    4    4    0    0  0.35766768330E+03  0.34189814213E+03 -0.35952206104E+02  0.50398550841E+03  0.88816216394E+02 0.  0.
          3    1    3    3  502    0 -0.20323713474E+02 -0.24735478478E+03  0.14518867088E+03  0.28753642037E+03  0.00000000000E+00 0. -1.
         -4    1    3    3    0  502 -0.79634024591E+02 -0.29110253363E+03  0.23985521576E+03  0.38550329115E+03  0.00000000000E+00 0.  1.
         11    1    5    5    0    0 -0.14239603441E+02  0.42450083893E+02 -0.14274047013E+03  0.14959818763E+03  0.00000000000E+00 0. -1.
        -11    1    5    5    0    0 -0.24347034179E+03  0.15410909239E+03 -0.57321043731E+03  0.64155874644E+03  0.00000000000E+00 0.  1.
          1    1    6    6  503    0  0.17880981649E+03  0.12755102283E+03  0.15213431475E+02  0.22016735088E+03  0.00000000000E+00 0. -1.
         -1    1    6    6    0  503  0.17885786681E+03  0.21434711931E+03 -0.51165637579E+02  0.28381815753E+03  0.00000000000E+00 0.  1.
<mgrwt>
<rscale>  0 0.19336896E+04</rscale>
<asrwt>0</asrwt>
<pdfrwt beam="1">  1        1 0.17961857E+00 0.19336896E+04</pdfrwt>
<pdfrwt beam="2">  1       -2 0.12317869E+00 0.19336896E+04</pdfrwt>
<totfact> 0.45956743E+00</totfact>
</mgrwt>
</event>
<event>
12    4  0.4381187E-008  0.1436218E+04  0.7818608E-02  0.8928011E-01
          1   -1    0    0  501    0  0.00000000000E+00  0.00000000000E+00  0.67985043504E+03  0.67985043504E+03  0.00000000000E+00 0. -1.
         -2   -1    0    0    0  501 -0.00000000000E+00 -0.00000000000E+00 -0.75852085875E+03  0.75852085875E+03  0.00000000000E+00 0.  1.
        -24    2    1    2    0    0  0.49520302241E+02 -0.25700733643E+03  0.31569216623E+03  0.41768523506E+03  0.79337131609E+02 0.  0.
        254    2    1    2    0    0 -0.49520302241E+02  0.25700733643E+03 -0.39436258994E+03  0.10206860587E+04  0.90430810394E+03 0.  0.
         23    2    4    4    0    0 -0.19116619583E+03  0.55344812837E+03 -0.31244283700E+03  0.66979254260E+03  0.90289415249E+02 0.  0.
         23    2    4    4    0    0  0.14164589358E+03 -0.29644079194E+03 -0.81919752933E+02  0.35089351614E+03  0.92058196014E+02 0.  0.
          1    1    3    3  502    0  0.30733346234E+02 -0.21272376612E+03  0.29577491387E+03  0.36562103183E+03  0.00000000000E+00 0. -1.
         -2    1    3    3    0  502  0.18786956008E+02 -0.44283570318E+02  0.19917252356E+02  0.52064203226E+02  0.00000000000E+00 0.  1.
         11    1    5    5    0    0 -0.53774454273E+02  0.14226583525E+03 -0.12750186989E+03  0.19846406888E+03  0.00000000000E+00 0. -1.
        -11    1    5    5    0    0 -0.13739174155E+03  0.41118229312E+03 -0.18494096712E+03  0.47132847372E+03  0.00000000000E+00 0.  1.
          3    1    6    6  503    0  0.84590267007E+02 -0.12240357787E+03  0.34378062527E+01  0.14882865201E+03  0.00000000000E+00 0. -1.
         -3    1    6    6    0  503  0.57055626578E+02 -0.17403721406E+03 -0.85357559186E+02  0.20206486412E+03  0.00000000000E+00 0.  1.
<mgrwt>
<rscale>  0 0.14362183E+04</rscale>
<asrwt>0</asrwt>
<pdfrwt beam="1">  1        1 0.10459237E+00 0.14362183E+04</pdfrwt>
<pdfrwt beam="2">  1       -2 0.11669552E+00 0.14362183E+04</pdfrwt>
<totfact> 0.13788499E+01</totfact>
</mgrwt>
</event>
<event>
12    4  0.4381187E-008  0.1320462E+04  0.7818608E-02  0.9013494E-01
          1   -1    0    0  501    0  0.00000000000E+00  0.00000000000E+00  0.51340353741E+03  0.51340353741E+03  0.00000000000E+00 0. -1.
         -2   -1    0    0    0  501 -0.00000000000E+00 -0.00000000000E+00 -0.84904905299E+03  0.84904905299E+03  0.00000000000E+00 0.  1.
        -24    2    1    2    0    0 -0.20494028837E+03  0.31987106286E+02  0.27926756993E+03  0.35684173948E+03  0.79510720371E+02 0.  0.
        254    2    1    2    0    0  0.20494028837E+03 -0.31987106286E+02 -0.61491308551E+03  0.10056108509E+04  0.76818707616E+03 0.  0.
         23    2    4    4    0    0  0.27659558319E+02 -0.15268788346E+03 -0.72490841088E+03  0.74729438967E+03  0.94223456490E+02 0.  0.
         23    2    4    4    0    0  0.17728073005E+03  0.12070077717E+03  0.10999532537E+03  0.25831646124E+03  0.92904723717E+02 0.  0.
          3    1    3    3  502    0 -0.66052137220E+02  0.41836084707E+01  0.35999309757E+02  0.75341474064E+02  0.00000000000E+00 0. -1.
         -4    1    3    3    0  502 -0.13888815115E+03  0.27803497816E+02  0.24326826018E+03  0.28150026542E+03  0.00000000000E+00 0.  1.
         11    1    5    5    0    0  0.31625078709E+02 -0.23027686994E+02 -0.75249197028E+02  0.84810740033E+02  0.00000000000E+00 0.  1.
        -11    1    5    5    0    0 -0.39655203898E+01 -0.12966019646E+03 -0.64965921385E+03  0.66248364964E+03  0.00000000000E+00 0. -1.
          3    1    6    6  503    0  0.15343915600E+03  0.11333744008E+03  0.12605202529E+03  0.22864396558E+03  0.00000000000E+00 0. -1.
         -3    1    6    6    0  503  0.23841574052E+02  0.73633370851E+01 -0.16056699919E+02  0.29672495659E+02  0.00000000000E+00 0.  1.
<mgrwt>
<rscale>  0 0.13204617E+04</rscale>
<asrwt>0</asrwt>
<pdfrwt beam="1">  1        1 0.78985159E-01 0.13204617E+04</pdfrwt>
<pdfrwt beam="2">  1       -2 0.13062293E+00 0.13204617E+04</pdfrwt>
<totfact> 0.15720026E+01</totfact>
</mgrwt>
</event>
<event>
12    4  0.4381187E-008  0.1050878E+04  0.7818608E-02  0.9254438E-01
          1   -1    0    0  501    0  0.00000000000E+00  0.00000000000E+00  0.80004939251E+03  0.80004939251E+03  0.00000000000E+00 0. -1.
         -2   -1    0    0    0  501 -0.00000000000E+00 -0.00000000000E+00 -0.34508649934E+03  0.34508649934E+03  0.00000000000E+00 0.  1.
        -24    2    1    2    0    0  0.99224572999E+02 -0.65935223646E+02  0.57080195382E+02  0.15323366998E+03  0.77649464302E+02 0.  0.
        254    2    1    2    0    0 -0.99224572999E+02  0.65935223646E+02  0.39788269778E+03  0.99190222187E+03  0.90075879510E+03 0.  0.
         23    2    4    4    0    0  0.64906379490E+02 -0.39328098657E+03  0.22134908648E+03  0.46509594160E+03  0.91847941260E+02 0.  0.
         23    2    4    4    0    0 -0.16413095249E+03  0.45921621022E+03  0.17653361131E+03  0.52680628027E+03  0.92424259348E+02 0.  0.
          3    1    3    3  502    0  0.85139754721E+02 -0.57324652648E+02  0.76303374021E+02  0.12789487293E+03  0.00000000000E+00 0. -1.
         -4    1    3    3    0  502  0.14084818278E+02 -0.86105709979E+01 -0.19223178639E+02  0.25338797048E+02  0.00000000000E+00 0.  1.
         11    1    5    5    0    0 -0.13793685620E+02 -0.50625539226E+02  0.60131949789E+01  0.52814481904E+02  0.00000000000E+00 0.  1.
        -11    1    5    5    0    0  0.78700065111E+02 -0.34265544735E+03  0.21533589150E+03  0.41228145970E+03  0.00000000000E+00 0. -1.
          4    1    6    6  503    0 -0.15895377112E+03  0.46266661671E+03  0.17031458790E+03  0.51800941924E+03  0.00000000000E+00 0. -1.
         -4    1    6    6    0  503 -0.51771813728E+01 -0.34504064872E+01  0.62190234034E+01  0.87968610303E+01  0.00000000000E+00 0.  1.
<mgrwt>
<rscale>  0 0.10508782E+04</rscale>
<asrwt>0</asrwt>
<pdfrwt beam="1">  1        1 0.12308452E+00 0.10508782E+04</pdfrwt>
<pdfrwt beam="2">  1       -2 0.53090231E-01 0.10508782E+04</pdfrwt>
<totfact> 0.64779452E+01</totfact>
</mgrwt>
</event>
<event>
12    4  0.4381187E-008  0.1516073E+04  0.7818608E-02  0.8873834E-01
          1   -1    0    0  501    0  0.00000000000E+00  0.00000000000E+00  0.16297177328E+04  0.16297177328E+04  0.00000000000E+00 0. -1.
         -2   -1    0    0    0  501 -0.00000000000E+00 -0.00000000000E+00 -0.35258818936E+03  0.35258818936E+03  0.00000000000E+00 0.  1.
        -24    2    1    2    0    0  0.37813695061E+03 -0.46995337611E+02  0.13200182531E+02  0.38924194368E+03  0.78351328802E+02 0.  0.
        254    2    1    2    0    0 -0.37813695061E+03  0.46995337611E+02  0.12639293609E+04  0.15930639785E+04  0.89170583435E+03 0.  0.
         23    2    4    4    0    0  0.23550064719E+03  0.36379402587E+02  0.73451698234E+03  0.77759999781E+03  0.91446943512E+02 0.  0.
         23    2    4    4    0    0 -0.61363759780E+03  0.10615935024E+02  0.52941237855E+03  0.81546398066E+03  0.89667372509E+02 0.  0.
          1    1    3    3  502    0  0.76452749744E+02  0.15572043690E+02  0.21824236550E+02  0.81017336349E+02  0.00000000000E+00 0. -1.
         -2    1    3    3    0  502  0.30168420086E+03 -0.62567381301E+02 -0.86240540194E+01  0.30822460733E+03  0.00000000000E+00 0.  1.
         11    1    5    5    0    0  0.14808876849E+03  0.22346620176E+02  0.31429731947E+03  0.34815579819E+03  0.00000000000E+00 0. -1.
        -11    1    5    5    0    0  0.87411878703E+02  0.14032782411E+02  0.42021966287E+03  0.42944419962E+03  0.00000000000E+00 0.  1.
          1    1    6    6  503    0 -0.53148376498E+03 -0.12895805596E+02  0.48268156502E+03  0.71806879019E+03  0.00000000000E+00 0. -1.
         -1    1    6    6    0  503 -0.82153832822E+02  0.23511740620E+02  0.46730813526E+02  0.97395190472E+02  0.00000000000E+00 0.  1.
<mgrwt>
<rscale>  0 0.15160729E+04</rscale>
<asrwt>0</asrwt>
<pdfrwt beam="1">  1        1 0.25072580E+00 0.15160729E+04</pdfrwt>
<pdfrwt beam="2">  1       -2 0.54244338E-01 0.15160729E+04</pdfrwt>
<totfact> 0.14443824E+01</totfact>
</mgrwt>
</event>
<event>
12    4  0.4381187E-008  0.1640322E+04  0.7818608E-02  0.8796153E-01
          1   -1    0    0  501    0  0.00000000000E+00  0.00000000000E+00  0.11479382080E+04  0.11479382080E+04  0.00000000000E+00 0. -1.
         -2   -1    0    0    0  501 -0.00000000000E+00 -0.00000000000E+00 -0.58597574740E+03  0.58597574740E+03  0.00000000000E+00 0.  1.
        -24    2    1    2    0    0 -0.27773079281E+03  0.10223526171E+03 -0.32244318099E+03  0.44472104049E+03  0.78871774910E+02 0.  0.
        254    2    1    2    0    0  0.27773079281E+03 -0.10223526171E+03  0.88440564154E+03  0.12891929149E+04  0.89008909156E+03 0.  0.
         23    2    4    4    0    0  0.38738725652E+03  0.29133655899E+03  0.32455842063E+03  0.59030749983E+03  0.90437264596E+02 0.  0.
         23    2    4    4    0    0 -0.10965646371E+03 -0.39357182070E+03  0.55984722091E+03  0.69888541503E+03  0.89936613831E+02 0.  0.
          3    1    3    3  502    0 -0.92685766156E+02  0.72046411628E+02 -0.10386075033E+03  0.15674307683E+03  0.00000000000E+00 0. -1.
         -4    1    3    3    0  502 -0.18504502665E+03  0.30188850078E+02 -0.21858243066E+03  0.28797796366E+03  0.00000000000E+00 0.  1.
         11    1    5    5    0    0  0.73233142354E+02  0.21918817693E+02  0.29051692033E+02  0.81777310534E+02  0.00000000000E+00 0.  1.
        -11    1    5    5    0    0  0.31415411417E+03  0.26941774130E+03  0.29550672860E+03  0.50853018929E+03  0.00000000000E+00 0. -1.
          3    1    6    6  503    0 -0.45585726462E+02 -0.30845490125E+03  0.41840800457E+03  0.52181198036E+03  0.00000000000E+00 0. -1.
         -3    1    6    6    0  503 -0.64070737247E+02 -0.85116919448E+02  0.14143921634E+03  0.17707343467E+03  0.00000000000E+00 0.  1.
<mgrwt>
<rscale>  0 0.16403219E+04</rscale>
<asrwt>0</asrwt>
<pdfrwt beam="1">  1        1 0.17660588E+00 0.16403219E+04</pdfrwt>
<pdfrwt beam="2">  1       -2 0.90150115E-01 0.16403219E+04</pdfrwt>
<totfact> 0.10307229E+01</totfact>
</mgrwt>
</event>
<event>
12    4  0.4381187E-008  0.1842023E+04  0.7818608E-02  0.8684266E-01
          1   -1    0    0  501    0  0.00000000000E+00  0.00000000000E+00  0.24133762403E+04  0.24133762403E+04  0.00000000000E+00 0. -1.
         -2   -1    0    0    0  501 -0.00000000000E+00 -0.00000000000E+00 -0.35148350744E+03  0.35148350744E+03  0.00000000000E+00 0.  1.
        -24    2    1    2    0    0  0.65433280057E+03  0.20800779454E+03  0.63209443697E+03  0.93669065348E+03  0.80170733890E+02 0.  0.
        254    2    1    2    0    0 -0.65433280057E+03 -0.20800779454E+03  0.14297982959E+04  0.18281690943E+04  0.90909868212E+03 0.  0.
         23    2    4    4    0    0 -0.32131737483E+03 -0.48340913812E+03  0.11872757957E+04  0.13245249865E+04  0.88393294911E+02 0.  0.
         23    2    4    4    0    0 -0.33301542574E+03  0.27540134359E+03  0.24252250022E+03  0.50364410781E+03  0.89972497938E+02 0.  0.
          3    1    3    3  502    0  0.31301424353E+03  0.10940134333E+03  0.25252330579E+03  0.41679082349E+03  0.00000000000E+00 0. -1.
         -4    1    3    3    0  502  0.34131855704E+03  0.98606451207E+02  0.37957113118E+03  0.51989982999E+03  0.00000000000E+00 0.  1.
         11    1    5    5    0    0 -0.16124361865E+03 -0.18691987169E+03  0.43327906885E+03  0.49866751899E+03  0.00000000000E+00 0. -1.
        -11    1    5    5    0    0 -0.16007375618E+03 -0.29648926644E+03  0.75399672685E+03  0.82585746751E+03  0.00000000000E+00 0.  1.
          1    1    6    6  503    0 -0.16769484020E+03  0.85607453809E+02  0.12390734039E+03  0.22539570666E+03  0.00000000000E+00 0. -1.
         -1    1    6    6    0  503 -0.16532058555E+03  0.18979388978E+03  0.11861515983E+03  0.27824840115E+03  0.00000000000E+00 0.  1.
<mgrwt>
<rscale>  0 0.18420227E+04</rscale>
<asrwt>0</asrwt>
<pdfrwt beam="1">  1        1 0.37128864E+00 0.18420227E+04</pdfrwt>
<pdfrwt beam="2">  1       -2 0.54074387E-01 0.18420227E+04</pdfrwt>
<totfact> 0.41393245E+00</totfact>
</mgrwt>
</event>
<event>
12    4  0.4381187E-008  0.1270045E+04  0.7818608E-02  0.9053663E-01
         -2   -1    0    0    0  501 -0.00000000000E+00  0.00000000000E+00  0.12508347747E+04  0.12508347747E+04  0.00000000000E+00 0.  1.
          1   -1    0    0  501    0  0.00000000000E+00 -0.00000000000E+00 -0.32238770123E+03  0.32238770123E+03  0.00000000000E+00 0. -1.
        -24    2    1    2    0    0 -0.13331344070E+03  0.33252669457E+02 -0.11038252309E+03  0.19320941926E+03  0.79166689910E+02 0.  0.
        254    2    1    2    0    0  0.13331344070E+03 -0.33252669457E+02  0.10388295965E+04  0.13800130566E+04  0.89799270174E+03 0.  0.
         23    2    4    4    0    0  0.27368582876E+03  0.11459057685E+02 -0.36195758054E+02  0.29101343333E+03  0.91342446943E+02 0.  0.
         23    2    4    4    0    0 -0.14037238806E+03 -0.44711727141E+02  0.10750253546E+04  0.10889996233E+04  0.92396540432E+02 0.  0.
          3    1    3    3  502    0 -0.67689515483E+02  0.62581432531E+01 -0.10083771688E+03  0.12161118373E+03  0.00000000000E+00 0. -1.
         -4    1    3    3    0  502 -0.65623925213E+02  0.26994526203E+02 -0.95448062118E+01  0.71598235530E+02  0.00000000000E+00 0.  1.
         11    1    5    5    0    0  0.20080344125E+03  0.48715330883E+02 -0.31612935336E+02  0.20903249308E+03  0.00000000000E+00 0. -1.
        -11    1    5    5    0    0  0.72882387505E+02 -0.37256273198E+02 -0.45828227180E+01  0.81980940255E+02  0.00000000000E+00 0.  1.
          4    1    6    6  503    0 -0.11751071773E+03 -0.19211407185E+01  0.88971980168E+03  0.89744848602E+03  0.00000000000E+00 0.  1.
         -4    1    6    6    0  503 -0.22861670336E+02 -0.42790586423E+02  0.18530555291E+03  0.19155113729E+03  0.00000000000E+00 0. -1.
<mgrwt>
<rscale>  0 0.12700453E+04</rscale>
<asrwt>0</asrwt>
<pdfrwt beam="1">  1        1 0.49598109E-01 0.12700453E+04</pdfrwt>
<pdfrwt beam="2">  1       -2 0.19243612E+00 0.12700453E+04</pdfrwt>
<totfact> 0.10230873E+01</totfact>
</mgrwt>
</event>
<event>
12    4  0.4381187E-008  0.1940884E+04  0.7818608E-02  0.8634769E-01
         -2   -1    0    0    0  501 -0.00000000000E+00  0.00000000000E+00  0.13179860692E+04  0.13179860692E+04  0.00000000000E+00 0.  1.
          1   -1    0    0  501    0  0.00000000000E+00 -0.00000000000E+00 -0.71454291344E+03  0.71454291344E+03  0.00000000000E+00 0. -1.
        -24    2    1    2    0    0  0.67556360403E+03 -0.34823454524E+03  0.33058367920E+03  0.83258576336E+03  0.79120179515E+02 0.  0.
        254    2    1    2    0    0 -0.67556360403E+03  0.34823454524E+03  0.27285947653E+03  0.11999432192E+04  0.88755729612E+03 0.  0.
         23    2    4    4    0    0 -0.82375510762E+02  0.46543972445E+03 -0.86426297861E+02  0.48961571702E+03  0.93990337377E+02 0.  0.
         23    2    4    4    0    0 -0.59318809327E+03 -0.11720517922E+03  0.35928577439E+03  0.71032750222E+03  0.99346488141E+02 0.  0.
          3    1    3    3  502    0  0.15527431650E+03 -0.10724530610E+03  0.10857722788E+03  0.21771698018E+03  0.00000000000E+00 0. -1.
         -4    1    3    3    0  502  0.52028928753E+03 -0.24098923914E+03  0.22200645132E+03  0.61486878318E+03  0.00000000000E+00 0.  1.
         11    1    5    5    0    0 -0.10052869755E+03  0.40043679481E+03 -0.87870955732E+02  0.42211011659E+03  0.00000000000E+00 0.  1.
        -11    1    5    5    0    0  0.18153186790E+02  0.65002929644E+02  0.14446578710E+01  0.67505600429E+02  0.00000000000E+00 0. -1.
          2    1    6    6  503    0 -0.27247200039E-02 -0.80915197605E+01  0.11627702871E+02  0.14166021795E+02  0.00000000000E+00 0. -1.
         -2    1    6    6    0  503 -0.59318536855E+03 -0.10911365946E+03  0.34765807152E+03  0.69616148043E+03  0.00000000000E+00 0.  1.
<mgrwt>
<rscale>  0 0.19408839E+04</rscale>
<asrwt>0</asrwt>
<pdfrwt beam="1">  1        1 0.10992968E+00 0.19408839E+04</pdfrwt>
<pdfrwt beam="2">  1       -2 0.20276709E+00 0.19408839E+04</pdfrwt>
<totfact> 0.27486748E+00</totfact>
</mgrwt>
</event>
<event>
12    4  0.4381187E-008  0.1182125E+04  0.7818608E-02  0.9128648E-01
          1   -1    0    0  501    0  0.00000000000E+00  0.00000000000E+00  0.11163355121E+04  0.11163355121E+04  0.00000000000E+00 0. -1.
         -2   -1    0    0    0  501 -0.00000000000E+00 -0.00000000000E+00 -0.31294780804E+03  0.31294780804E+03  0.00000000000E+00 0.  1.
        -24    2    1    2    0    0 -0.16028102875E+03 -0.64309945489E+02  0.39284540684E+03  0.43649807654E+03  0.79857873004E+02 0.  0.
        254    2    1    2    0    0  0.16028102875E+03  0.64309945489E+02  0.41054229719E+03  0.99278524358E+03  0.88727210303E+03 0.  0.
         23    2    4    4    0    0 -0.22517371956E+03  0.34253343459E+03  0.18159851918E+03  0.45754131505E+03  0.91288964413E+02 0.  0.
         23    2    4    4    0    0  0.38545474831E+03 -0.27822348910E+03  0.22894377801E+03  0.53524392853E+03  0.89928508553E+02 0.  0.
          3    1    3    3  502    0 -0.13536792296E+03 -0.33489536419E+02  0.23062328657E+03  0.26950533190E+03  0.00000000000E+00 0. -1.
         -4    1    3    3    0  502 -0.24913105787E+02 -0.30820409070E+02  0.16222212028E+03  0.16699274464E+03  0.00000000000E+00 0.  1.
         11    1    5    5    0    0 -0.84937803092E+02  0.80071895564E+02  0.18463699218E+02  0.11818141581E+03  0.00000000000E+00 0.  1.
        -11    1    5    5    0    0 -0.14023591647E+03  0.26246153902E+03  0.16313481996E+03  0.33935989925E+03  0.00000000000E+00 0. -1.
          3    1    6    6  503    0  0.17454536637E+03 -0.82215799564E+02  0.63235053101E+02  0.20303742158E+03  0.00000000000E+00 0. -1.
         -3    1    6    6    0  503  0.21090938194E+03 -0.19600768953E+03  0.16570872491E+03  0.33220650695E+03  0.00000000000E+00 0.  1.
<mgrwt>
<rscale>  0 0.11821248E+04</rscale>
<asrwt>0</asrwt>
<pdfrwt beam="1">  1        1 0.17174392E+00 0.11821248E+04</pdfrwt>
<pdfrwt beam="2">  1       -2 0.48145817E-01 0.11821248E+04</pdfrwt>
<totfact> 0.43763766E+01</totfact>
</mgrwt>
</event>
<event>
12    4  0.4381187E-008  0.1408636E+04  0.7818608E-02  0.8947591E-01
         -2   -1    0    0    0  501 -0.00000000000E+00  0.00000000000E+00  0.41879335024E+03  0.41879335024E+03  0.00000000000E+00 0.  1.
          1   -1    0    0  501    0  0.00000000000E+00 -0.00000000000E+00 -0.11845071754E+04  0.11845071754E+04  0.00000000000E+00 0. -1.
        -24    2    1    2    0    0  0.39599783974E+02  0.13979070719E+03  0.16955698318E+03  0.23799500380E+03  0.82355731911E+02 0.  0.
        254    2    1    2    0    0 -0.39599783974E+02 -0.13979070719E+03 -0.93527080831E+03  0.13653055218E+04  0.98398074083E+03 0.  0.
         23    2    4    4    0    0 -0.19841698726E+03 -0.40829220839E+03 -0.10639355130E+03  0.47486318170E+03  0.90020138344E+02 0.  0.
         23    2    4    4    0    0  0.15881720329E+03  0.26850150120E+03 -0.82887725700E+03  0.89044234012E+03  0.92380158552E+02 0.  0.
          3    1    3    3  502    0 -0.12064697662E+02  0.48414020544E+02  0.10090742215E+03  0.11256901066E+03  0.00000000000E+00 0. -1.
         -4    1    3    3    0  502  0.51664481636E+02  0.91376686650E+02  0.68649561028E+02  0.12542599314E+03  0.00000000000E+00 0.  1.
         11    1    5    5    0    0 -0.19166614292E+03 -0.32875670207E+03 -0.10602060340E+03  0.39504081794E+03  0.00000000000E+00 0.  1.
        -11    1    5    5    0    0 -0.67508443421E+01 -0.79535506326E+02 -0.37294790590E+00  0.79822363759E+02  0.00000000000E+00 0. -1.
          3    1    6    6  503    0  0.56865286514E+01 -0.49018269122E+01 -0.51012158706E+01  0.90767239981E+01  0.00000000000E+00 0. -1.
         -3    1    6    6    0  503  0.15313067464E+03  0.27340332811E+03 -0.82377604113E+03  0.88136561612E+03  0.00000000000E+00 0.  1.
<mgrwt>
<rscale>  0 0.14086358E+04</rscale>
<asrwt>0</asrwt>
<pdfrwt beam="1">  1        1 0.18223187E+00 0.14086358E+04</pdfrwt>
<pdfrwt beam="2">  1       -2 0.64429747E-01 0.14086358E+04</pdfrwt>
<totfact> 0.20856141E+01</totfact>
</mgrwt>
</event>
<event>
12    4  0.4381187E-008  0.1339610E+04  0.7818608E-02  0.8998730E-01
          1   -1    0    0  501    0  0.00000000000E+00  0.00000000000E+00  0.39782041330E+04  0.39782041330E+04  0.00000000000E+00 0. -1.
         -2   -1    0    0    0  501 -0.00000000000E+00 -0.00000000000E+00 -0.11277423445E+03  0.11277423445E+03  0.00000000000E+00 0.  1.
        -24    2    1    2    0    0 -0.12501289142E+03 -0.16200237434E+03  0.19753523634E+04  0.19876732292E+04  0.83396127896E+02 0.  0.
        254    2    1    2    0    0  0.12501289142E+03  0.16200237434E+03  0.18900775351E+04  0.21033051382E+04  0.89979243352E+03 0.  0.
         23    2    4    4    0    0 -0.24656607968E+03 -0.23678814458E+03  0.93572157222E+03  0.10005607139E+04  0.93184894105E+02 0.  0.
         23    2    4    4    0    0  0.37157897110E+03  0.39879051892E+03  0.95435596286E+03  0.11027444243E+04  0.90250493845E+02 0.  0.
          1    1    3    3  502    0 -0.10860777572E+03 -0.13128953524E+03  0.12593276646E+04  0.12708024070E+04  0.00000000000E+00 0. -1.
         -2    1    3    3    0  502 -0.16405115705E+02 -0.30712839100E+02  0.71602469890E+03  0.71687082221E+03  0.00000000000E+00 0.  1.
         11    1    5    5    0    0 -0.85038449592E+02 -0.28904277251E+02  0.27622009779E+03  0.29045574116E+03  0.00000000000E+00 0. -1.
        -11    1    5    5    0    0 -0.16152763009E+03 -0.20788386733E+03  0.65950147443E+03  0.71010497277E+03  0.00000000000E+00 0.  1.
          1    1    6    6  503    0  0.36440401738E+03  0.35752381901E+03  0.88753682195E+03  0.10238824050E+04  0.00000000000E+00 0. -1.
         -1    1    6    6    0  503  0.71749537210E+01  0.41266699911E+02  0.66819140906E+02  0.78862019210E+02  0.00000000000E+00 0.  1.
<mgrwt>
<rscale>  0 0.13396103E+04</rscale>
<asrwt>0</asrwt>
<pdfrwt beam="1">  1        1 0.61203130E+00 0.13396103E+04</pdfrwt>
<pdfrwt beam="2">  1       -2 0.17349885E-01 0.13396103E+04</pdfrwt>
<totfact> 0.24234627E+00</totfact>
</mgrwt>
</event>
<event>
12    4  0.4381187E-008  0.2935218E+04  0.7818608E-02  0.8262475E-01
          1   -1    0    0  501    0  0.00000000000E+00  0.00000000000E+00  0.16361035697E+04  0.16361035697E+04  0.00000000000E+00 0. -1.
         -2   -1    0    0    0  501 -0.00000000000E+00 -0.00000000000E+00 -0.13164671299E+04  0.13164671299E+04  0.00000000000E+00 0.  1.
        -24    2    1    2    0    0  0.63592277665E+03 -0.28561797983E+03  0.12807267601E+04  0.14603402496E+04  0.79732065944E+02 0.  0.
        254    2    1    2    0    0 -0.63592277665E+03  0.28561797983E+03 -0.96109032025E+03  0.14922304500E+04  0.90392571811E+03 0.  0.
         23    2    4    4    0    0 -0.18992027463E+03  0.56343704564E+03 -0.43455558711E+03  0.74300911287E+03  0.98452874022E+02 0.  0.
         23    2    4    4    0    0 -0.44600250202E+03 -0.27781906581E+03 -0.52653473314E+03  0.74922133710E+03  0.89398666796E+02 0.  0.
          3    1    3    3  502    0  0.56424773889E+03 -0.27056899731E+03  0.11818618469E+04  0.13373034503E+04  0.00000000000E+00 0. -1.
         -4    1    3    3    0  502  0.71675037763E+02 -0.15048982519E+02  0.98864913248E+02  0.12303679931E+03  0.00000000000E+00 0.  1.
         11    1    5    5    0    0 -0.10103622977E+03  0.42729085548E+03 -0.29763783353E+03  0.53044705188E+03  0.00000000000E+00 0.  1.
        -11    1    5    5    0    0 -0.88884044856E+02  0.13614619016E+03 -0.13691775358E+03  0.21256206099E+03  0.00000000000E+00 0. -1.
          3    1    6    6  503    0 -0.12020611584E+03 -0.11426667279E+03 -0.19996172468E+03  0.25979044272E+03  0.00000000000E+00 0. -1.
         -3    1    6    6    0  503 -0.32579638618E+03 -0.16355239302E+03 -0.32657300846E+03  0.48943089437E+03  0.00000000000E+00 0.  1.
<mgrwt>
<rscale>  0 0.29352183E+04</rscale>
<asrwt>0</asrwt>
<pdfrwt beam="1">  1        1 0.25170824E+00 0.29352183E+04</pdfrwt>
<pdfrwt beam="2">  1       -2 0.20253340E+00 0.29352183E+04</pdfrwt>
<totfact> 0.50727499E-01</totfact>
</mgrwt>
</event>
<event>
12    4  0.4381187E-008  0.2049221E+04  0.7818608E-02  0.8583948E-01
         -2   -1    0    0    0  501 -0.00000000000E+00  0.00000000000E+00  0.85552318448E+03  0.85552318448E+03  0.00000000000E+00 0.  1.
          1   -1    0    0  501    0  0.00000000000E+00 -0.00000000000E+00 -0.12271159950E+04  0.12271159950E+04  0.00000000000E+00 0. -1.
        -24    2    1    2    0    0  0.10540953016E+03 -0.10766139812E+03  0.68094754731E+03  0.70073326357E+03  0.68083763152E+02 0.  0.
        254    2    1    2    0    0 -0.10540953016E+03  0.10766139812E+03 -0.10525403578E+04  0.13819059159E+04  0.88267808962E+03 0.  0.
         23    2    4    4    0    0 -0.11429856111E+03 -0.19054176554E+03  0.42462788212E+02  0.24379035150E+03  0.90886311491E+02 0.  0.
         23    2    4    4    0    0  0.88890309487E+01  0.29820316365E+03 -0.10950031460E+04  0.11381155644E+04  0.85270196688E+02 0.  0.
          3    1    3    3  502    0  0.16139158375E+02 -0.13786910179E+01  0.21963337238E+02  0.27290317049E+02  0.00000000000E+00 0. -1.
         -2    1    3    3    0  502  0.89270371787E+02 -0.10628270710E+03  0.65898421007E+03  0.67344294653E+03  0.00000000000E+00 0.  1.
         11    1    5    5    0    0 -0.19103679063E+02  0.68321362928E+01 -0.13061742773E+01  0.20330635290E+02  0.00000000000E+00 0.  1.
        -11    1    5    5    0    0 -0.95194882048E+02 -0.19737390183E+03  0.43768962489E+02  0.22345971621E+03  0.00000000000E+00 0. -1.
          3    1    6    6  503    0 -0.18463356681E+01  0.17307946684E+03 -0.78057865435E+03  0.79953920881E+03  0.00000000000E+00 0. -1.
         -3    1    6    6    0  503  0.10735366617E+02  0.12512369681E+03 -0.31442449168E+03  0.33857635559E+03  0.00000000000E+00 0.  1.
<mgrwt>
<rscale>  0 0.20492205E+04</rscale>
<asrwt>0</asrwt>
<pdfrwt beam="1">  1        1 0.18878708E+00 0.20492205E+04</pdfrwt>
<pdfrwt beam="2">  1       -2 0.13161895E+00 0.20492205E+04</pdfrwt>
<totfact> 0.34821365E+00</totfact>
</mgrwt>
</event>
<event>
12    4  0.4381187E-008  0.1452828E+04  0.7818608E-02  0.8916442E-01
          1   -1    0    0  501    0  0.00000000000E+00  0.00000000000E+00  0.79796075191E+03  0.79796075191E+03  0.00000000000E+00 0. -1.
         -4   -1    0    0    0  501 -0.00000000000E+00 -0.00000000000E+00 -0.66128220200E+03  0.66128220200E+03  0.00000000000E+00 0.  1.
        -24    2    1    2    0    0  0.30739019839E+03  0.31937534371E+03  0.23210056277E+02  0.45082683185E+03  0.78846568525E+02 0.  0.
        254    2    1    2    0    0 -0.30739019839E+03 -0.31937534371E+03  0.11346849363E+03  0.10084161220E+04  0.89863153290E+03 0.  0.
         23    2    4    4    0    0 -0.28001351960E+03 -0.35210754378E+03  0.45970693390E+03  0.64979225004E+03  0.92261636602E+02 0.  0.
         23    2    4    4    0    0 -0.27376678789E+02  0.32732200070E+02 -0.34623844027E+03  0.35862387200E+03  0.83121264350E+02 0.  0.
          1    1    3    3  502    0  0.30611380726E+03  0.32233559999E+03  0.18240095690E+02  0.44490291425E+03  0.00000000000E+00 0. -1.
         -2    1    3    3    0  502  0.12763911310E+01 -0.29602562774E+01  0.49699605874E+01  0.59239176047E+01  0.00000000000E+00 0.  1.
         11    1    5    5    0    0 -0.14414046634E+03 -0.18569318675E+03  0.17468346509E+03  0.29286984587E+03  0.00000000000E+00 0.  1.
        -11    1    5    5    0    0 -0.13587305327E+03 -0.16641435703E+03  0.28502346881E+03  0.35692240418E+03  0.00000000000E+00 0. -1.
          3    1    6    6  503    0 -0.43205403966E+02  0.70891153099E+01 -0.84623557802E+02  0.95279111157E+02  0.00000000000E+00 0. -1.
         -3    1    6    6    0  503  0.15828725177E+02  0.25643084760E+02 -0.26161488247E+03  0.26334476085E+03  0.00000000000E+00 0.  1.
<mgrwt>
<rscale>  0 0.14528279E+04</rscale>
<asrwt>0</asrwt>
<pdfrwt beam="1">  1        1 0.12276319E+00 0.14528279E+04</pdfrwt>
<pdfrwt beam="2">  1       -4 0.10173572E+00 0.14528279E+04</pdfrwt>
<totfact> 0.82697083E+00</totfact>
</mgrwt>
</event>
<event>
12    4  0.4381187E-008  0.1669271E+04  0.7818608E-02  0.8779087E-01
         -2   -1    0    0    0  501 -0.00000000000E+00  0.00000000000E+00  0.26042179223E+03  0.26042179223E+03  0.00000000000E+00 0.  1.
          1   -1    0    0  501    0  0.00000000000E+00 -0.00000000000E+00 -0.26749558471E+04  0.26749558471E+04  0.00000000000E+00 0. -1.
        -24    2    1    2    0    0 -0.35290686867E+02  0.44024497322E+02  0.17003766411E+03  0.19693599339E+03  0.81776459525E+02 0.  0.
        254    2    1    2    0    0  0.35290686867E+02 -0.44024497322E+02 -0.25845717190E+04  0.27384416459E+04  0.90325416614E+03 0.  0.
         23    2    4    4    0    0 -0.29048574391E+03 -0.15854474928E+02 -0.22162618261E+04  0.22371416897E+04  0.91395438015E+02 0.  0.
         23    2    4    4    0    0  0.32577643078E+03 -0.28170022393E+02 -0.36830989288E+03  0.50129995625E+03  0.93411112437E+02 0.  0.
          3    1    3    3  502    0 -0.27919745456E+02  0.25042150578E+01  0.75010091787E+01  0.29018070544E+02  0.00000000000E+00 0. -1.
         -4    1    3    3    0  502 -0.73709414103E+01  0.41520282264E+02  0.16253665493E+03  0.16791792285E+03  0.00000000000E+00 0.  1.
         11    1    5    5    0    0 -0.97674014924E+02 -0.46164708664E+02 -0.67944773621E+03  0.68798300833E+03  0.00000000000E+00 0. -1.
        -11    1    5    5    0    0 -0.19281172899E+03  0.30310233736E+02 -0.15368140899E+04  0.15491586813E+04  0.00000000000E+00 0.  1.
          4    1    6    6  503    0  0.23754583220E+03 -0.59724692608E+02 -0.24513772799E+03  0.34653653052E+03  0.00000000000E+00 0. -1.
         -4    1    6    6    0  503  0.88230598582E+02  0.31554670214E+02 -0.12317216490E+03  0.15476342573E+03  0.00000000000E+00 0.  1.
<mgrwt>
<rscale>  0 0.16692715E+04</rscale>
<asrwt>0</asrwt>
<pdfrwt beam="1">  1        1 0.41153167E+00 0.16692715E+04</pdfrwt>
<pdfrwt beam="2">  1       -2 0.40064891E-01 0.16692715E+04</pdfrwt>
<totfact> 0.50612304E+00</totfact>
</mgrwt>
</event>
<event>
12    4  0.4381187E-008  0.2164292E+04  0.7818608E-02  0.8533439E-01
          1   -1    0    0  501    0  0.00000000000E+00  0.00000000000E+00  0.18276931940E+04  0.18276931940E+04  0.00000000000E+00 0. -1.
         -2   -1    0    0    0  501 -0.00000000000E+00 -0.00000000000E+00 -0.64072044115E+03  0.64072044115E+03  0.00000000000E+00 0.  1.
        -24    2    1    2    0    0 -0.48321321677E+03 -0.30396982514E+03  0.12777508220E+04  0.14017128974E+04  0.79115208724E+02 0.  0.
        254    2    1    2    0    0  0.48321321677E+03  0.30396982514E+03 -0.90778069201E+02  0.10667007377E+04  0.89650272640E+03 0.  0.
         23    2    4    4    0    0 -0.64075757213E+02  0.16973603359E+03 -0.37679543551E+03  0.42785509199E+03  0.90383382081E+02 0.  0.
         23    2    4    4    0    0  0.54728897398E+03  0.13423379155E+03  0.28601736631E+03  0.63884564569E+03  0.93669062937E+02 0.  0.
          3    1    3    3  502    0 -0.43610305035E+03 -0.24444279517E+03  0.11277945371E+04  0.12336363599E+04  0.00000000000E+00 0. -1.
         -4    1    3    3    0  502 -0.47110166413E+02 -0.59527029970E+02  0.14995628493E+03  0.16807653753E+03  0.00000000000E+00 0.  1.
         11    1    5    5    0    0 -0.39814099793E+01  0.42815406056E+02 -0.26624238496E+02  0.50575297297E+02  0.00000000000E+00 0.  1.
        -11    1    5    5    0    0 -0.60094347234E+02  0.12692062753E+03 -0.35017119701E+03  0.37727979469E+03  0.00000000000E+00 0. -1.
          1    1    6    6  503    0  0.41918341859E+03  0.11989669100E+03  0.17900393748E+03  0.47130920271E+03  0.00000000000E+00 0. -1.
         -1    1    6    6    0  503  0.12810555539E+03  0.14337100552E+02  0.10701342883E+03  0.16753644297E+03  0.00000000000E+00 0.  1.
<mgrwt>
<rscale>  0 0.21642924E+04</rscale>
<asrwt>0</asrwt>
<pdfrwt beam="1">  1        1 0.28118357E+00 0.21642924E+04</pdfrwt>
<pdfrwt beam="2">  1       -2 0.98572377E-01 0.21642924E+04</pdfrwt>
<totfact> 0.26777252E+00</totfact>
</mgrwt>
</event>
<event>
12    4  0.4381187E-008  0.1312821E+04  0.7818608E-02  0.9019459E-01
          1   -1    0    0  501    0  0.00000000000E+00  0.00000000000E+00  0.45643285047E+03  0.45643285047E+03  0.00000000000E+00 0. -1.
         -2   -1    0    0    0  501 -0.00000000000E+00 -0.00000000000E+00 -0.94400454567E+03  0.94400454567E+03  0.00000000000E+00 0.  1.
        -24    2    1    2    0    0  0.31980050057E+03  0.73927397757E+02 -0.30538183502E+02  0.33910407754E+03  0.79507071722E+02 0.  0.
        254    2    1    2    0    0 -0.31980050057E+03 -0.73927397757E+02 -0.45703351170E+03  0.10613333186E+04  0.89989508390E+03 0.  0.
         23    2    4    4    0    0 -0.29696911376E+01  0.20844349585E+03  0.18038647388E+03  0.29012194201E+03  0.90409906781E+02 0.  0.
         23    2    4    4    0    0 -0.31683080943E+03 -0.28237089361E+03 -0.63741998558E+03  0.77121137659E+03  0.91365562415E+02 0.  0.
          1    1    3    3  502    0  0.86854289192E+02  0.22801225823E+02  0.27003888242E+02  0.93769789539E+02  0.00000000000E+00 0. -1.
         -2    1    3    3    0  502  0.23294621137E+03  0.51126171934E+02 -0.57542071744E+02  0.24533428800E+03  0.00000000000E+00 0.  1.
         11    1    5    5    0    0 -0.12570167588E+02  0.82363709615E+02  0.12914543706E+03  0.15368908122E+03  0.00000000000E+00 0.  1.
        -11    1    5    5    0    0  0.96004764502E+01  0.12607978624E+03  0.51241036825E+02  0.13643286078E+03  0.00000000000E+00 0. -1.
          3    1    6    6  503    0 -0.31200818361E+03 -0.28379104930E+03 -0.59972417724E+03  0.73318180219E+03  0.00000000000E+00 0. -1.
         -3    1    6    6    0  503 -0.48226258200E+01  0.14201556859E+01 -0.37695808348E+02  0.38029574400E+02  0.00000000000E+00 0.  1.
<mgrwt>
<rscale>  0 0.13128209E+04</rscale>
<asrwt>0</asrwt>
<pdfrwt beam="1">  1        1 0.70220440E-01 0.13128209E+04</pdfrwt>
<pdfrwt beam="2">  1       -2 0.14523147E+00 0.13128209E+04</pdfrwt>
<totfact> 0.14051278E+01</totfact>
</mgrwt>
</event>
<event>
12    4  0.4381187E-008  0.3192193E+04  0.7818608E-02  0.8190882E-01
         -2   -1    0    0    0  501 -0.00000000000E+00  0.00000000000E+00  0.14413266539E+04  0.14413266539E+04  0.00000000000E+00 0.  1.
          1   -1    0    0  501    0  0.00000000000E+00 -0.00000000000E+00 -0.17674851364E+04  0.17674851364E+04  0.00000000000E+00 0. -1.
        -24    2    1    2    0    0 -0.10959285523E+04  0.87422312039E+03 -0.56002875994E+03  0.15118874918E+04  0.82741283025E+02 0.  0.
        254    2    1    2    0    0  0.10959285523E+04 -0.87422312039E+03  0.23387027738E+03  0.16969242985E+04  0.92710911562E+03 0.  0.
         23    2    4    4    0    0  0.68381493835E+03 -0.58196168495E+03 -0.30543468463E+03  0.95265539932E+03  0.89329114110E+02 0.  0.
         23    2    4    4    0    0  0.41211361394E+03 -0.29226143545E+03  0.53930496202E+03  0.74426889918E+03  0.88498445156E+02 0.  0.
          3    1    3    3  502    0 -0.22437580090E+03  0.14784911144E+03 -0.13077269619E+03  0.29884002050E+03  0.00000000000E+00 0. -1.
         -4    1    3    3    0  502 -0.87155275138E+03  0.72637400895E+03 -0.42925606375E+03  0.12130474713E+04  0.00000000000E+00 0.  1.
         11    1    5    5    0    0  0.43310182347E+03 -0.40473956257E+03 -0.16695754399E+03  0.61584586098E+03  0.00000000000E+00 0. -1.
        -11    1    5    5    0    0  0.25071311488E+03 -0.17722212238E+03 -0.13847714064E+03  0.33680953834E+03  0.00000000000E+00 0.  1.
          3    1    6    6  503    0  0.41223833313E+03 -0.28202424232E+03  0.51277757232E+03  0.71583444681E+03  0.00000000000E+00 0. -1.
         -3    1    6    6    0  503 -0.12471919303E+00 -0.10237193123E+02  0.26527389695E+02  0.28434452376E+02  0.00000000000E+00 0.  1.
<mgrwt>
<rscale>  0 0.31921926E+04</rscale>
<asrwt>0</asrwt>
<pdfrwt beam="1">  1        1 0.27192079E+00 0.31921926E+04</pdfrwt>
<pdfrwt beam="2">  1       -2 0.22174256E+00 0.31921926E+04</pdfrwt>
<totfact> 0.30393281E-01</totfact>
</mgrwt>
</event>
<event>
12    4  0.4381187E-008  0.1888362E+04  0.7818608E-02  0.8660671E-01
         -2   -1    0    0    0  501 -0.00000000000E+00  0.00000000000E+00  0.22234059039E+04  0.22234059039E+04  0.00000000000E+00 0.  1.
          1   -1    0    0  501    0  0.00000000000E+00 -0.00000000000E+00 -0.40095129485E+03  0.40095129485E+03  0.00000000000E+00 0. -1.
        -24    2    1    2    0    0 -0.25456439202E+03 -0.49554689734E+03  0.13660058957E+04  0.14774542303E+04  0.80803083507E+02 0.  0.
        254    2    1    2    0    0  0.25456439202E+03  0.49554689734E+03  0.45644871334E+03  0.11469029685E+04  0.89256441450E+03 0.  0.
         23    2    4    4    0    0 -0.73707194139E+02  0.53769884455E+03  0.56311291963E+03  0.78739612569E+03  0.91343859144E+02 0.  0.
         23    2    4    4    0    0  0.32827158616E+03 -0.42151947203E+02 -0.10666420629E+03  0.35950684279E+03  0.91262786367E+02 0.  0.
          1    1    3    3  502    0 -0.77182824525E+02 -0.20356825669E+03  0.61487571052E+03  0.65228012611E+03  0.00000000000E+00 0. -1.
         -2    1    3    3    0  502 -0.17738156749E+03 -0.29197864066E+03  0.75113018521E+03  0.82517410419E+03  0.00000000000E+00 0.  1.
         11    1    5    5    0    0 -0.49952201550E+02  0.38845321173E+03  0.34432659288E+03  0.52149009838E+03  0.00000000000E+00 0. -1.
        -11    1    5    5    0    0 -0.23754992589E+02  0.14924563282E+03  0.21878632675E+03  0.26590602731E+03  0.00000000000E+00 0.  1.
          3    1    6    6  503    0  0.22797996677E+03 -0.48555825602E+02 -0.34152726474E+02  0.23558213466E+03  0.00000000000E+00 0. -1.
         -3    1    6    6    0  503  0.10029161939E+03  0.64038783990E+01 -0.72511479814E+02  0.12392470812E+03  0.00000000000E+00 0.  1.
<mgrwt>
<rscale>  0 0.18883617E+04</rscale>
<asrwt>0</asrwt>
<pdfrwt beam="1">  1        1 0.61684816E-01 0.18883617E+04</pdfrwt>
<pdfrwt beam="2">  1       -2 0.34206244E+00 0.18883617E+04</pdfrwt>
<totfact> 0.85757601E-01</totfact>
</mgrwt>
</event>
<event>
12    4  0.4381187E-008  0.1149782E+04  0.7818608E-02  0.9157985E-01
          1   -1    0    0  501    0  0.00000000000E+00  0.00000000000E+00  0.60193147221E+03  0.60193147221E+03  0.00000000000E+00 0. -1.
         -2   -1    0    0    0  501 -0.00000000000E+00 -0.00000000000E+00 -0.54906498325E+03  0.54906498325E+03  0.00000000000E+00 0.  1.
        -24    2    1    2    0    0  0.95037181977E+02  0.19730333265E+03 -0.78280216080E+01  0.23244192265E+03  0.77506763894E+02 0.  0.
        254    2    1    2    0    0 -0.95037181977E+02 -0.19730333265E+03  0.60694510572E+02  0.91855453282E+03  0.88999883995E+03 0.  0.
         23    2    4    4    0    0 -0.35282832438E+03 -0.41529287090E+03 -0.42000908389E+02  0.55428754206E+03  0.92274632864E+02 0.  0.
         23    2    4    4    0    0  0.25779114240E+03  0.21798953825E+03  0.10269541896E+03  0.36426699076E+03  0.90379088235E+02 0.  0.
          1    1    3    3  502    0 -0.23618447303E+00  0.31306552016E+02  0.22641959840E+02  0.38636955465E+02  0.00000000000E+00 0. -1.
         -2    1    3    3    0  502  0.95273366450E+02  0.16599678063E+03 -0.30469981448E+02  0.19380496718E+03  0.00000000000E+00 0.  1.
         11    1    5    5    0    0 -0.27929895302E+03 -0.27214981682E+03 -0.93119429985E+01  0.39007709525E+03  0.00000000000E+00 0.  1.
        -11    1    5    5    0    0 -0.73529371362E+02 -0.14314305408E+03 -0.32688965390E+02  0.16421044681E+03  0.00000000000E+00 0. -1.
          3    1    6    6  503    0  0.12067290488E+03  0.14043156049E+03  0.19681560128E+02  0.18619972331E+03  0.00000000000E+00 0. -1.
         -3    1    6    6    0  503  0.13711823752E+03  0.77557977768E+02  0.83013858833E+02  0.17806726744E+03  0.00000000000E+00 0.  1.
<mgrwt>
<rscale>  0 0.11497817E+04</rscale>
<asrwt>0</asrwt>
<pdfrwt beam="1">  1        1 0.92604842E-01 0.11497817E+04</pdfrwt>
<pdfrwt beam="2">  1       -2 0.84471535E-01 0.11497817E+04</pdfrwt>
<totfact> 0.36226771E+01</totfact>
</mgrwt>
</event>
<event>
12    4  0.4381187E-008  0.1592084E+04  0.7818608E-02  0.8825426E-01
         -2   -1    0    0    0  501 -0.00000000000E+00  0.00000000000E+00  0.40159568062E+03  0.40159568062E+03  0.00000000000E+00 0.  1.
          1   -1    0    0  501    0  0.00000000000E+00 -0.00000000000E+00 -0.15779124740E+04  0.15779124740E+04  0.00000000000E+00 0. -1.
        -24    2    1    2    0    0  0.31510420120E+03 -0.29107999784E+03 -0.82618486160E+03  0.93438911371E+03  0.80519361190E+02 0.  0.
        254    2    1    2    0    0 -0.31510420120E+03  0.29107999784E+03 -0.35013193180E+03  0.10451190409E+04  0.88637645348E+03 0.  0.
         23    2    4    4    0    0 -0.23846677824E+03 -0.27086652519E+03 -0.28224493191E+03  0.46647941658E+03  0.87782490899E+02 0.  0.
         23    2    4    4    0    0 -0.76637422962E+02  0.56194652303E+03 -0.67886999888E+02  0.57863962435E+03  0.92509355058E+02 0.  0.
          3    1    3    3  502    0  0.30580119199E+03 -0.25929541143E+03 -0.78569577000E+03  0.88208067794E+03  0.00000000000E+00 0. -1.
         -4    1    3    3    0  502  0.93030092167E+01 -0.31784586408E+02 -0.40489091603E+02  0.52308435767E+02  0.00000000000E+00 0.  1.
         11    1    5    5    0    0 -0.10735407321E+03 -0.73182321958E+02 -0.13457414328E+03  0.18705814423E+03  0.00000000000E+00 0.  1.
        -11    1    5    5    0    0 -0.13111270503E+03 -0.19768420323E+03 -0.14767078863E+03  0.27942127235E+03  0.00000000000E+00 0. -1.
          2    1    6    6  503    0 -0.66844728449E+02  0.40296293822E+03 -0.88733457707E+02  0.41799638014E+03  0.00000000000E+00 0. -1.
         -2    1    6    6    0  503 -0.97926945123E+01  0.15898358481E+03  0.20846457819E+02  0.16064324421E+03  0.00000000000E+00 0.  1.
<mgrwt>
<rscale>  0 0.15920840E+04</rscale>
<asrwt>0</asrwt>
<pdfrwt beam="1">  1        1 0.24275577E+00 0.15920840E+04</pdfrwt>
<pdfrwt beam="2">  1       -2 0.61783950E-01 0.15920840E+04</pdfrwt>
<totfact> 0.11850323E+01</totfact>
</mgrwt>
</event>
<event>
12    4  0.4381187E-008  0.2236024E+04  0.7818608E-02  0.8503582E-01
          1   -1    0    0  501    0  0.00000000000E+00  0.00000000000E+00  0.22833716220E+04  0.22833716220E+04  0.00000000000E+00 0. -1.
         -2   -1    0    0    0  501 -0.00000000000E+00 -0.00000000000E+00 -0.54741463401E+03  0.54741463401E+03  0.00000000000E+00 0.  1.
        -24    2    1    2    0    0 -0.40300844179E+03 -0.28309533001E+03 -0.27616259789E+03  0.57048711146E+03  0.81430914524E+02 0.  0.
        254    2    1    2    0    0  0.40300844179E+03  0.28309533001E+03  0.20121195859E+04  0.22602991446E+04  0.90430538257E+03 0.  0.
         23    2    4    4    0    0  0.20281369199E+03  0.48188134542E+02  0.19087203950E+04  0.19222730117E+04  0.92002690895E+02 0.  0.
         23    2    4    4    0    0  0.20019474980E+03  0.23490719547E+03  0.10339919091E+03  0.33802613290E+03  0.91164387318E+02 0.  0.
          1    1    3    3  502    0 -0.34191922951E+02 -0.12302726803E+01 -0.11214467149E+02  0.36005075190E+02  0.00000000000E+00 0. -1.
         -2    1    3    3    0  502 -0.36881651884E+03 -0.28186505733E+03 -0.26494813074E+03  0.53448203627E+03  0.00000000000E+00 0.  1.
         11    1    5    5    0    0  0.19330369253E+03  0.61274208887E+02  0.15527600675E+04  0.15659452971E+04  0.00000000000E+00 0.  1.
        -11    1    5    5    0    0  0.95099994657E+01 -0.13086074345E+02  0.35596032749E+03  0.35632771458E+03  0.00000000000E+00 0. -1.
          3    1    6    6  503    0  0.96130781403E+01  0.45430363737E+02  0.41428319548E+02  0.62230497998E+02  0.00000000000E+00 0. -1.
         -3    1    6    6    0  503  0.19058167166E+03  0.18947683173E+03  0.61970871358E+02  0.27579563491E+03  0.00000000000E+00 0.  1.
<mgrwt>
<rscale>  0 0.22360242E+04</rscale>
<asrwt>0</asrwt>
<pdfrwt beam="1">  1        1 0.35128794E+00 0.22360242E+04</pdfrwt>
<pdfrwt beam="2">  1       -2 0.84217637E-01 0.22360242E+04</pdfrwt>
<totfact> 0.18774680E+00</totfact>
</mgrwt>
</event>
<event>
12    4  0.4381187E-008  0.1442818E+04  0.7818608E-02  0.8923395E-01
          1   -1    0    0  501    0  0.00000000000E+00  0.00000000000E+00  0.10068282787E+04  0.10068282787E+04  0.00000000000E+00 0. -1.
         -2   -1    0    0    0  501 -0.00000000000E+00 -0.00000000000E+00 -0.51690157041E+03  0.51690157041E+03  0.00000000000E+00 0.  1.
        -24    2    1    2    0    0 -0.42430711132E+02 -0.34518044695E+03  0.41381626637E+03  0.54646442271E+03  0.80184517010E+02 0.  0.
        254    2    1    2    0    0  0.42430711132E+02  0.34518044695E+03  0.76110441887E+02  0.97726542636E+03  0.91011263479E+03 0.  0.
         23    2    4    4    0    0  0.24980127749E+03  0.50630905154E+03 -0.17975562405E+03  0.59925866772E+03  0.89718072592E+02 0.  0.
         23    2    4    4    0    0 -0.20737056636E+03 -0.16112860459E+03  0.25586606594E+03  0.37800675864E+03  0.91960246142E+02 0.  0.
          1    1    3    3  502    0 -0.50399000052E+02 -0.30709833934E+03  0.32747765785E+03  0.45176439172E+03  0.00000000000E+00 0. -1.
         -2    1    3    3    0  502  0.79682889205E+01 -0.38082107605E+02  0.86338608517E+02  0.94700030985E+02  0.00000000000E+00 0.  1.
         11    1    5    5    0    0  0.25589858851E+03  0.49528200639E+03 -0.18203986640E+03  0.58645278276E+03  0.00000000000E+00 0.  1.
        -11    1    5    5    0    0 -0.60973110145E+01  0.11027045155E+02  0.22842423481E+01  0.12805884959E+02  0.00000000000E+00 0. -1.
          1    1    6    6  503    0 -0.15478993172E+03 -0.14173988418E+03  0.14918000260E+03  0.25749716679E+03  0.00000000000E+00 0. -1.
         -1    1    6    6    0  503 -0.52580634640E+02 -0.19388720416E+02  0.10668606333E+03  0.12050959185E+03  0.00000000000E+00 0.  1.
<mgrwt>
<rscale>  0 0.14428182E+04</rscale>
<asrwt>0</asrwt>
<pdfrwt beam="1">  1        1 0.15489666E+00 0.14428182E+04</pdfrwt>
<pdfrwt beam="2">  1       -2 0.79523319E-01 0.14428182E+04</pdfrwt>
<totfact> 0.17840497E+01</totfact>
</mgrwt>
</event>
<event>
12    4  0.4381187E-008  0.2188639E+04  0.7818608E-02  0.8523172E-01
          1   -1    0    0  501    0  0.00000000000E+00  0.00000000000E+00  0.12102471455E+04  0.12102471455E+04  0.00000000000E+00 0. -1.
         -2   -1    0    0    0  501 -0.00000000000E+00 -0.00000000000E+00 -0.98949600272E+03  0.98949600272E+03  0.00000000000E+00 0.  1.
        -24    2    1    2    0    0  0.27479349712E+03  0.63393473267E+03  0.68122905387E+03  0.97358325986E+03  0.80041418709E+02 0.  0.
        254    2    1    2    0    0 -0.27479349712E+03 -0.63393473267E+03 -0.46047791108E+03  0.12261598884E+04  0.90224356684E+03 0.  0.
         23    2    4    4    0    0 -0.46389072909E+03 -0.75494885224E+03 -0.39459436834E+03  0.97436434976E+03  0.92405587054E+02 0.  0.
         23    2    4    4    0    0  0.18909723197E+03  0.12101411958E+03 -0.65883542735E+02  0.25179553860E+03  0.93049297556E+02 0.  0.
          1    1    3    3  502    0  0.24166849094E+03  0.52484864000E+03  0.52899763720E+03  0.78339533735E+03  0.00000000000E+00 0. -1.
         -2    1    3    3    0  502  0.33125006177E+02  0.10908609267E+03  0.15223141666E+03  0.19018792251E+03  0.00000000000E+00 0.  1.
         11    1    5    5    0    0 -0.20300685405E+03 -0.41808078142E+03 -0.20067721580E+03  0.50623578254E+03  0.00000000000E+00 0. -1.
        -11    1    5    5    0    0 -0.26088387505E+03 -0.33686807082E+03 -0.19391715254E+03  0.46812856722E+03  0.00000000000E+00 0.  1.
          1    1    6    6  503    0  0.11995410578E+03  0.21572759933E+02 -0.34946767060E+02  0.12678977874E+03  0.00000000000E+00 0. -1.
         -1    1    6    6    0  503  0.69143126193E+02  0.99441359647E+02 -0.30936775674E+02  0.12500575986E+03  0.00000000000E+00 0.  1.
<mgrwt>
<rscale>  0 0.21886386E+04</rscale>
<asrwt>0</asrwt>
<pdfrwt beam="1">  1        1 0.18619187E+00 0.21886386E+04</pdfrwt>
<pdfrwt beam="2">  1       -2 0.15223015E+00 0.21886386E+04</pdfrwt>
<totfact> 0.24225413E+00</totfact>
</mgrwt>
</event>
<event>
12    4  0.4381187E-008  0.2356570E+04  0.7818608E-02  0.8455945E-01
         -2   -1    0    0    0  501 -0.00000000000E+00  0.00000000000E+00  0.40353822083E+03  0.40353822083E+03  0.00000000000E+00 0.  1.
          1   -1    0    0  501    0  0.00000000000E+00 -0.00000000000E+00 -0.34404547002E+04  0.34404547002E+04  0.00000000000E+00 0. -1.
        -24    2    1    2    0    0 -0.13208917756E+03 -0.92143133272E+03 -0.68141206095E+03  0.11564860543E+04  0.81574169802E+02 0.  0.
        254    2    1    2    0    0  0.13208917756E+03  0.92143133272E+03 -0.23555044184E+04  0.26875068667E+04  0.89878186557E+03 0.  0.
         23    2    4    4    0    0 -0.10083203887E+03  0.27165838302E+03 -0.88883408604E+02  0.31631401190E+03  0.90492633225E+02 0.  0.
         23    2    4    4    0    0  0.23292121643E+03  0.64977294970E+03 -0.22666210098E+04  0.23711928549E+04  0.92344861960E+02 0.  0.
          1    1    3    3  502    0 -0.50633609784E+02 -0.41404916506E+03 -0.35461830175E+03  0.54749850544E+03  0.00000000000E+00 0. -1.
         -2    1    3    3    0  502 -0.81455567780E+02 -0.50738216766E+03 -0.32679375921E+03  0.60898754884E+03  0.00000000000E+00 0.  1.
         11    1    5    5    0    0 -0.10210544549E+03  0.16000996657E+03 -0.73754653171E+02  0.20363806192E+03  0.00000000000E+00 0. -1.
        -11    1    5    5    0    0  0.12734066215E+01  0.11164841646E+03 -0.15128755432E+02  0.11267594997E+03  0.00000000000E+00 0.  1.
          1    1    6    6  503    0  0.19918406492E+03  0.60902372428E+03 -0.20299202885E+04  0.21286522887E+04  0.00000000000E+00 0. -1.
         -1    1    6    6    0  503  0.33737151513E+02  0.40749225414E+02 -0.23670072135E+03  0.24254056620E+03  0.00000000000E+00 0.  1.
<mgrwt>
<rscale>  0 0.23565695E+04</rscale>
<asrwt>0</asrwt>
<pdfrwt beam="1">  1        1 0.52930072E+00 0.23565695E+04</pdfrwt>
<pdfrwt beam="2">  1       -2 0.62082804E-01 0.23565695E+04</pdfrwt>
<totfact> 0.53085302E-01</totfact>
</mgrwt>
</event>
<event>
12    4  0.4381187E-008  0.1666443E+04  0.7818608E-02  0.8780738E-01
          1   -1    0    0  501    0  0.00000000000E+00  0.00000000000E+00  0.10166593113E+04  0.10166593113E+04  0.00000000000E+00 0. -1.
         -2   -1    0    0    0  501 -0.00000000000E+00 -0.00000000000E+00 -0.68288213391E+03  0.68288213391E+03  0.00000000000E+00 0.  1.
        -24    2    1    2    0    0  0.84764096956E+02  0.25609321993E+03 -0.41550095899E+03  0.50134389880E+03  0.77045236817E+02 0.  0.
        254    2    1    2    0    0 -0.84764096956E+02 -0.25609321993E+03  0.74927813638E+03  0.11981975464E+04  0.89526026670E+03 0.  0.
         23    2    4    4    0    0 -0.79101347043E+02  0.22656288335E+03  0.64838236777E+03  0.69648979388E+03  0.84324225044E+02 0.  0.
         23    2    4    4    0    0 -0.56627499134E+01 -0.48265610327E+03  0.10089576861E+03  0.50170775253E+03  0.92421491318E+02 0.  0.
          3    1    3    3  502    0  0.28755657589E+02  0.90621060514E+02 -0.85076987189E+02  0.12758196660E+03  0.00000000000E+00 0. -1.
         -4    1    3    3    0  502  0.56008439367E+02  0.16547215941E+03 -0.33042397180E+03  0.37376193220E+03  0.00000000000E+00 0.  1.
         11    1    5    5    0    0 -0.75902918417E+01 -0.50998777671E+01  0.50468219648E+02  0.51289984187E+02  0.00000000000E+00 0.  1.
        -11    1    5    5    0    0 -0.71511055201E+02  0.23166276111E+03  0.59791414812E+03  0.64519980969E+03  0.00000000000E+00 0. -1.
          4    1    6    6  503    0 -0.48209839865E+02 -0.29627152742E+03  0.56450919173E+02  0.30543037324E+03  0.00000000000E+00 0. -1.
         -4    1    6    6    0  503  0.42547089952E+02 -0.18638457585E+03  0.44444849439E+02  0.19627737929E+03  0.00000000000E+00 0.  1.
<mgrwt>
<rscale>  0 0.16664435E+04</rscale>
<asrwt>0</asrwt>
<pdfrwt beam="1">  1        1 0.15640912E+00 0.16664435E+04</pdfrwt>
<pdfrwt beam="2">  1       -2 0.10505879E+00 0.16664435E+04</pdfrwt>
<totfact> 0.90187225E+00</totfact>
</mgrwt>
</event>
<event>
12    4  0.4381187E-008  0.2816829E+04  0.7818608E-02  0.8298063E-01
         -2   -1    0    0    0  501 -0.00000000000E+00  0.00000000000E+00  0.13342961405E+04  0.13342961405E+04  0.00000000000E+00 0.  1.
          1   -1    0    0  501    0  0.00000000000E+00 -0.00000000000E+00 -0.14866497484E+04  0.14866497484E+04  0.00000000000E+00 0. -1.
        -24    2    1    2    0    0 -0.36593427087E+03 -0.11955431054E+04 -0.24169626918E+03  0.12759159918E+04  0.79456430404E+02 0.  0.
        254    2    1    2    0    0  0.36593427087E+03  0.11955431054E+04  0.89342661259E+02  0.15450298970E+04  0.90327408035E+03 0.  0.
         23    2    4    4    0    0 -0.26150862066E+03  0.45919744784E+03 -0.12049920283E+03  0.55098460287E+03  0.99070277739E+02 0.  0.
         23    2    4    4    0    0  0.62744289153E+03  0.73634565752E+03  0.20984186409E+03  0.99404529416E+03  0.90570025070E+02 0.  0.
          1    1    3    3  502    0 -0.34024901058E+03 -0.11585185932E+04 -0.22770965751E+03  0.12287336604E+04  0.00000000000E+00 0. -1.
         -2    1    3    3    0  502 -0.25685260288E+02 -0.37024512109E+02 -0.13986611676E+02  0.47182331430E+02  0.00000000000E+00 0.  1.
         11    1    5    5    0    0 -0.21647068371E+03  0.34915742544E+03 -0.13206723257E+03  0.43152313792E+03  0.00000000000E+00 0. -1.
        -11    1    5    5    0    0 -0.45037936953E+02  0.11004002240E+03  0.11568029736E+02  0.11946146494E+03  0.00000000000E+00 0.  1.
          3    1    6    6  503    0  0.49203987149E+03  0.60716173273E+03  0.19976303194E+03  0.80663118818E+03  0.00000000000E+00 0. -1.
         -3    1    6    6    0  503  0.13540302004E+03  0.12918392479E+03  0.10078832145E+02  0.18741410598E+03  0.00000000000E+00 0.  1.
<mgrwt>
<rscale>  0 0.28168287E+04</rscale>
<asrwt>0</asrwt>
<pdfrwt beam="1">  1        1 0.22871535E+00 0.28168287E+04</pdfrwt>
<pdfrwt beam="2">  1       -2 0.20527633E+00 0.28168287E+04</pdfrwt>
<totfact> 0.62330219E-01</totfact>
</mgrwt>
</event>
<event>
12    4  0.4381187E-008  0.1446945E+04  0.7818608E-02  0.8920521E-01
          1   -1    0    0  501    0  0.00000000000E+00  0.00000000000E+00  0.17255850601E+04  0.17255850601E+04  0.00000000000E+00 0. -1.
         -2   -1    0    0    0  501 -0.00000000000E+00 -0.00000000000E+00 -0.30332455376E+03  0.30332455376E+03  0.00000000000E+00 0.  1.
        -24    2    1    2    0    0  0.14770696785E+03 -0.34623647831E+03  0.12400742271E+03  0.40461399737E+03  0.81471459545E+02 0.  0.
        254    2    1    2    0    0 -0.14770696785E+03  0.34623647831E+03  0.12982530836E+04  0.16242956165E+04  0.90065428067E+03 0.  0.
         23    2    4    4    0    0  0.10379360418E+03  0.11838032992E+03 -0.82648613587E+02  0.19943527352E+03  0.90314008979E+02 0.  0.
         23    2    4    4    0    0 -0.25150057203E+03  0.22785614840E+03  0.13809016972E+04  0.14248603429E+04  0.90368896524E+02 0.  0.
          3    1    3    3  502    0  0.83866031304E+02 -0.10191412780E+03  0.53633896364E+02  0.14246612050E+03  0.00000000000E+00 0. -1.
         -4    1    3    3    0  502  0.63840936544E+02 -0.24432235051E+03  0.70373526345E+02  0.26214787687E+03  0.00000000000E+00 0.  1.
         11    1    5    5    0    0  0.31803140951E+02  0.10193297270E+03 -0.58427357820E+02  0.12171904879E+03  0.00000000000E+00 0. -1.
        -11    1    5    5    0    0  0.71990463231E+02  0.16447357219E+02 -0.24221255767E+02  0.77716224732E+02  0.00000000000E+00 0.  1.
          3    1    6    6  503    0 -0.44241481940E+02  0.19786795469E+02  0.33578952102E+03  0.33926896178E+03  0.00000000000E+00 0. -1.
         -3    1    6    6    0  503 -0.20725909009E+03  0.20806935293E+03  0.10451121762E+04  0.10855913812E+04  0.00000000000E+00 0.  1.
<mgrwt>
<rscale>  0 0.14469448E+04</rscale>
<asrwt>0</asrwt>
<pdfrwt beam="1">  1        1 0.26547462E+00 0.14469448E+04</pdfrwt>
<pdfrwt beam="2">  1       -2 0.46665317E-01 0.14469448E+04</pdfrwt>
<totfact> 0.16996557E+01</totfact>
</mgrwt>
</event>
<event>
12    4  0.4381187E-008  0.1617916E+04  0.7818608E-02  0.8809617E-01
         -2   -1    0    0    0  501 -0.00000000000E+00  0.00000000000E+00  0.86956306544E+03  0.86956306544E+03  0.00000000000E+00 0.  1.
          1   -1    0    0  501    0  0.00000000000E+00 -0.00000000000E+00 -0.75257658053E+03  0.75257658053E+03  0.00000000000E+00 0. -1.
        -24    2    1    2    0    0  0.34402380327E+03  0.56517810334E+02  0.47197661964E+03  0.59237068759E+03  0.81206292418E+02 0.  0.
        254    2    1    2    0    0 -0.34402380327E+03 -0.56517810334E+02 -0.35499013473E+03  0.10297689584E+04  0.90158719588E+03 0.  0.
         23    2    4    4    0    0 -0.45769506633E+03 -0.29057159248E+03  0.36619410389E+02  0.55081377579E+03  0.90212029570E+02 0.  0.
         23    2    4    4    0    0  0.11367126306E+03  0.23405378215E+03 -0.39160954512E+03  0.47895518259E+03  0.91311018580E+02 0.  0.
          3    1    3    3  502    0  0.28050762829E+03  0.26728669350E+02  0.32946768654E+03  0.43352959273E+03  0.00000000000E+00 0. -1.
         -4    1    3    3    0  502  0.63516174978E+02  0.29789140985E+02  0.14250893310E+03  0.15884109487E+03  0.00000000000E+00 0.  1.
         11    1    5    5    0    0 -0.43374346117E+03 -0.26883603007E+03  0.55586894613E+02  0.51331871584E+03  0.00000000000E+00 0.  1.
        -11    1    5    5    0    0 -0.23951605156E+02 -0.21735562416E+02 -0.18967484224E+02  0.37495059953E+02  0.00000000000E+00 0. -1.
          2    1    6    6  503    0  0.31235487933E+02  0.17555982503E+02 -0.10187697562E+03  0.10799438128E+03  0.00000000000E+00 0. -1.
         -2    1    6    6    0  503  0.82435775131E+02  0.21649779965E+03 -0.28973256950E+03  0.37096080130E+03  0.00000000000E+00 0.  1.
<mgrwt>
<rscale>  0 0.16179157E+04</rscale>
<asrwt>0</asrwt>
<pdfrwt beam="1">  1        1 0.11578101E+00 0.16179157E+04</pdfrwt>
<pdfrwt beam="2">  1       -2 0.13377893E+00 0.16179157E+04</pdfrwt>
<totfact> 0.82516291E+00</totfact>
</mgrwt>
</event>
<event>
12    4  0.4381187E-008  0.2641134E+04  0.7818608E-02  0.8354362E-01
          1   -1    0    0  501    0  0.00000000000E+00  0.00000000000E+00  0.19639746183E+04  0.19639746183E+04  0.00000000000E+00 0. -1.
         -2   -1    0    0    0  501 -0.00000000000E+00 -0.00000000000E+00 -0.88794252944E+03  0.88794252944E+03  0.00000000000E+00 0.  1.
        -24    2    1    2    0    0 -0.59869226794E+03  0.79239347033E+03  0.11368166911E+04  0.15116405707E+04  0.79907335471E+02 0.  0.
        254    2    1    2    0    0  0.59869226794E+03 -0.79239347033E+03 -0.60784602177E+02  0.13402765771E+04  0.89795695430E+03 0.  0.
         23    2    4    4    0    0  0.58430315870E+03 -0.11370739577E+03  0.15672268433E+03  0.62201090485E+03  0.89420427438E+02 0.  0.
         23    2    4    4    0    0  0.14389109239E+02 -0.67868607456E+03 -0.21750728651E+03  0.71826567226E+03  0.88172115756E+02 0.  0.
          3    1    3    3  502    0 -0.37071195417E+03  0.46479683786E+03  0.73411862307E+03  0.94466587013E+03  0.00000000000E+00 0. -1.
         -4    1    3    3    0  502 -0.22798031377E+03  0.32759663247E+03  0.40269806799E+03  0.56697470053E+03  0.00000000000E+00 0.  1.
         11    1    5    5    0    0  0.21572322927E+03 -0.85056731358E+02  0.70977833594E+02  0.24250569490E+03  0.00000000000E+00 0.  1.
        -11    1    5    5    0    0  0.36857992943E+03 -0.28650664411E+02  0.85744850741E+02  0.37950520995E+03  0.00000000000E+00 0. -1.
          3    1    6    6  503    0  0.43601135099E+02 -0.53642734181E+03 -0.18787834827E+03  0.57004703821E+03  0.00000000000E+00 0. -1.
         -3    1    6    6    0  503 -0.29212025860E+02 -0.14225873276E+03 -0.29628938237E+02  0.14821863405E+03  0.00000000000E+00 0.  1.
<mgrwt>
<rscale>  0 0.26411335E+04</rscale>
<asrwt>0</asrwt>
<pdfrwt beam="1">  1        1 0.30214994E+00 0.26411335E+04</pdfrwt>
<pdfrwt beam="2">  1       -2 0.13660654E+00 0.26411335E+04</pdfrwt>
<totfact> 0.93063740E-01</totfact>
</mgrwt>
</event>
<event>
12    4  0.4381187E-008  0.1484040E+04  0.7818608E-02  0.8895136E-01
         -2   -1    0    0    0  501 -0.00000000000E+00  0.00000000000E+00  0.25112402366E+03  0.25112402366E+03  0.00000000000E+00 0.  1.
          1   -1    0    0  501    0  0.00000000000E+00 -0.00000000000E+00 -0.21925177708E+04  0.21925177708E+04  0.00000000000E+00 0. -1.
        -24    2    1    2    0    0  0.44884823376E+03 -0.10769717244E+02 -0.41134875234E+03  0.61403355920E+03  0.79048668600E+02 0.  0.
        254    2    1    2    0    0 -0.44884823376E+03  0.10769717244E+02 -0.15300449948E+04  0.18296082352E+04  0.89713314766E+03 0.  0.
         23    2    4    4    0    0 -0.12368736757E+02  0.38038139128E+03 -0.86003357148E+03  0.94383859058E+03  0.79564769235E+02 0.  0.
         23    2    4    4    0    0 -0.43647949701E+03 -0.36961167404E+03 -0.67001142328E+03  0.88576964465E+03  0.92441414728E+02 0.  0.
          1    1    3    3  502    0  0.22583652107E+03 -0.31661423302E+02 -0.16767522337E+03  0.28305398868E+03  0.00000000000E+00 0. -1.
         -2    1    3    3    0  502  0.22301171269E+03  0.20891706058E+02 -0.24367352897E+03  0.33097957052E+03  0.00000000000E+00 0.  1.
         11    1    5    5    0    0  0.26489985408E+02  0.27101129885E+03 -0.58207477981E+03  0.64261955520E+03  0.00000000000E+00 0.  1.
        -11    1    5    5    0    0 -0.38858722166E+02  0.10937009243E+03 -0.27795879167E+03  0.30121903537E+03  0.00000000000E+00 0. -1.
          4    1    6    6  503    0 -0.35006153210E+02 -0.21530016876E+02 -0.18551288860E+02  0.45090161982E+02  0.00000000000E+00 0. -1.
         -4    1    6    6    0  503 -0.40147334380E+03 -0.34808165716E+03 -0.65146013442E+03  0.84067948267E+03  0.00000000000E+00 0.  1.
<mgrwt>
<rscale>  0 0.14840403E+04</rscale>
<asrwt>0</asrwt>
<pdfrwt beam="1">  1        1 0.33731042E+00 0.14840403E+04</pdfrwt>
<pdfrwt beam="2">  1       -2 0.38634466E-01 0.14840403E+04</pdfrwt>
<totfact> 0.11880791E+01</totfact>
</mgrwt>
</event>
<event>
12    4  0.4381187E-008  0.1587668E+04  0.7818608E-02  0.8828160E-01
          3   -1    0    0  501    0  0.00000000000E+00  0.00000000000E+00  0.69554924047E+03  0.69554924047E+03  0.00000000000E+00 0. -1.
         -2   -1    0    0    0  501 -0.00000000000E+00 -0.00000000000E+00 -0.90600744946E+03  0.90600744946E+03  0.00000000000E+00 0.  1.
        -24    2    1    2    0    0  0.77750921243E+02  0.27557759371E+03 -0.52780689991E+03  0.60563563273E+03  0.78906147586E+02 0.  0.
        254    2    1    2    0    0 -0.77750921243E+02 -0.27557759371E+03  0.31734869092E+03  0.99592105720E+03  0.89953340385E+03 0.  0.
         23    2    4    4    0    0 -0.28402415576E+03  0.61325522702E+02  0.46992804815E+03  0.56132202448E+03  0.99093410203E+02 0.  0.
         23    2    4    4    0    0  0.20627323451E+03 -0.33690311641E+03 -0.15257935723E+03  0.43459903272E+03  0.97690848399E+02 0.  0.
          3    1    3    3  502    0  0.24681351675E+02  0.89312528509E+02 -0.25301689565E+03  0.26945026694E+03  0.00000000000E+00 0. -1.
         -4    1    3    3    0  502  0.53069569568E+02  0.18626506520E+03 -0.27479000426E+03  0.33618536579E+03  0.00000000000E+00 0.  1.
         11    1    5    5    0    0 -0.26537577411E+03  0.53651647311E+02  0.46850069049E+03  0.54110599491E+03  0.00000000000E+00 0. -1.
        -11    1    5    5    0    0 -0.18648381651E+02  0.76738753909E+01  0.14273576590E+01  0.20216029571E+02  0.00000000000E+00 0.  1.
          1    1    6    6  503    0  0.18748589187E+03 -0.33755892223E+03 -0.15408664203E+03  0.41573991736E+03  0.00000000000E+00 0. -1.
         -1    1    6    6    0  503  0.18787342640E+02  0.65580581740E+00  0.15072848060E+01  0.18859115362E+02  0.00000000000E+00 0.  1.
<mgrwt>
<rscale>  0 0.15876685E+04</rscale>
<asrwt>0</asrwt>
<pdfrwt beam="1">  1        3 0.10700758E+00 0.15876685E+04</pdfrwt>
<pdfrwt beam="2">  1       -2 0.13938576E+00 0.15876685E+04</pdfrwt>
<totfact> 0.10805660E+00</totfact>
</mgrwt>
</event>
<event>
12    4  0.4381187E-008  0.1129670E+04  0.7818608E-02  0.9176746E-01
         -2   -1    0    0    0  501 -0.00000000000E+00  0.00000000000E+00  0.69830629526E+03  0.69830629526E+03  0.00000000000E+00 0.  1.
          1   -1    0    0  501    0  0.00000000000E+00 -0.00000000000E+00 -0.45687510051E+03  0.45687510051E+03  0.00000000000E+00 0. -1.
        -24    2    1    2    0    0 -0.52080773819E+02 -0.39841971265E+02  0.20258832222E+03  0.22729041014E+03  0.79492846003E+02 0.  0.
        254    2    1    2    0    0  0.52080773819E+02  0.39841971265E+02  0.38842872523E+02  0.92789098562E+03  0.92475570978E+03 0.  0.
         23    2    4    4    0    0  0.18669209713E+03  0.43396589686E+03  0.11896722680E+03  0.49405290739E+03  0.82187197792E+02 0.  0.
         23    2    4    4    0    0 -0.13461132331E+03 -0.39412392559E+03 -0.80124354277E+02  0.43383807823E+03  0.91332846683E+02 0.  0.
          3    1    3    3  502    0  0.20832123763E+02 -0.15971402030E+02  0.47885936289E+02  0.54608845049E+02  0.00000000000E+00 0. -1.
         -4    1    3    3    0  502 -0.72912897582E+02 -0.23870569235E+02  0.15470238594E+03  0.17268156509E+03  0.00000000000E+00 0.  1.
         11    1    5    5    0    0  0.18996583390E+03  0.39620821196E+03  0.96073579726E+02  0.44977560849E+03  0.00000000000E+00 0. -1.
        -11    1    5    5    0    0 -0.32737367680E+01  0.37757684901E+02  0.22893647074E+02  0.44277298900E+02  0.00000000000E+00 0.  1.
          2    1    6    6  503    0 -0.12792731275E+03 -0.35417851680E+03 -0.43220966655E+02  0.37904600126E+03  0.00000000000E+00 0. -1.
         -2    1    6    6    0  503 -0.66840105662E+01 -0.39945408790E+02 -0.36903387622E+02  0.54792076969E+02  0.00000000000E+00 0.  1.
<mgrwt>
<rscale>  0 0.11296703E+04</rscale>
<asrwt>0</asrwt>
<pdfrwt beam="1">  1        1 0.70288477E-01 0.11296703E+04</pdfrwt>
<pdfrwt beam="2">  1       -2 0.10743174E+00 0.11296703E+04</pdfrwt>
<totfact> 0.30335268E+01</totfact>
</mgrwt>
</event>
<event>
12    4  0.4381187E-008  0.1727797E+04  0.7818608E-02  0.8745668E-01
         -2   -1    0    0    0  501 -0.00000000000E+00  0.00000000000E+00  0.32582534180E+03  0.32582534180E+03  0.00000000000E+00 0.  1.
          1   -1    0    0  501    0  0.00000000000E+00 -0.00000000000E+00 -0.22905537794E+04  0.22905537794E+04  0.00000000000E+00 0. -1.
        -24    2    1    2    0    0  0.56746372588E+03  0.87786594697E+02 -0.11005899730E+04  0.12442715153E+04  0.84804178895E+02 0.  0.
        254    2    1    2    0    0 -0.56746372588E+03 -0.87786594697E+02 -0.86413846459E+03  0.13721076059E+04  0.89789889726E+03 0.  0.
         23    2    4    4    0    0 -0.77716837667E+03 -0.69063693878E+02 -0.82470207301E+03  0.11388635986E+04  0.90090551211E+02 0.  0.
         23    2    4    4    0    0  0.20970465079E+03 -0.18722900820E+02 -0.39436391583E+02  0.23324400730E+03  0.92308994035E+02 0.  0.
          3    1    3    3  502    0  0.39365249364E+03  0.76866846539E+02 -0.68702699068E+03  0.79553559553E+03  0.00000000000E+00 0. -1.
         -4    1    3    3    0  502  0.17381123224E+03  0.10919748158E+02 -0.41356298231E+03  0.44873591977E+03  0.00000000000E+00 0.  1.
         11    1    5    5    0    0 -0.58612259568E+03 -0.64076328865E+02 -0.67386168538E+03  0.89539658483E+03  0.00000000000E+00 0. -1.
        -11    1    5    5    0    0 -0.19104578099E+03 -0.49873650125E+01 -0.15084038762E+03  0.24346701374E+03  0.00000000000E+00 0.  1.
          2    1    6    6  503    0  0.83239293594E+02  0.28360817650E+02  0.12151413749E+02  0.88773717011E+02  0.00000000000E+00 0. -1.
         -2    1    6    6    0  503  0.12646535720E+03 -0.47083718470E+02 -0.51587805332E+02  0.14447029029E+03  0.00000000000E+00 0.  1.
<mgrwt>
<rscale>  0 0.17277968E+04</rscale>
<asrwt>0</asrwt>
<pdfrwt beam="1">  1        1 0.35239289E+00 0.17277968E+04</pdfrwt>
<pdfrwt beam="2">  1       -2 0.50126975E-01 0.17277968E+04</pdfrwt>
<totfact> 0.59338989E+00</totfact>
</mgrwt>
</event>
<event>
12    4  0.4381187E-008  0.1908593E+04  0.7818608E-02  0.8650591E-01
          1   -1    0    0  501    0  0.00000000000E+00  0.00000000000E+00  0.21929659456E+04  0.21929659456E+04  0.00000000000E+00 0. -1.
         -2   -1    0    0    0  501 -0.00000000000E+00 -0.00000000000E+00 -0.41527414093E+03  0.41527414093E+03  0.00000000000E+00 0.  1.
        -24    2    1    2    0    0  0.25671528291E+03  0.13283767269E+02 -0.25848998852E+03  0.37314346365E+03  0.79622706254E+02 0.  0.
        254    2    1    2    0    0 -0.25671528291E+03 -0.13283767269E+02  0.20361817932E+04  0.22350966229E+04  0.88517875239E+03 0.  0.
         23    2    4    4    0    0 -0.12826173155E+03  0.19269479194E+03  0.78834322732E+02  0.26101377830E+03  0.91274242794E+02 0.  0.
         23    2    4    4    0    0 -0.12845355136E+03 -0.20597855921E+03  0.19573474704E+04  0.19740828446E+04  0.82864198608E+02 0.  0.
          1    1    3    3  502    0  0.37517100652E+02 -0.10733915118E+01 -0.86044360474E+02  0.93873941965E+02  0.00000000000E+00 0. -1.
         -2    1    3    3    0  502  0.21919818225E+03  0.14357158781E+02 -0.17244562805E+03  0.27926952169E+03  0.00000000000E+00 0.  1.
         11    1    5    5    0    0 -0.81008907522E+02  0.47844911462E+02  0.47774572429E+02  0.10551771615E+03  0.00000000000E+00 0.  1.
        -11    1    5    5    0    0 -0.47252824027E+02  0.14484988048E+03  0.31059750303E+02  0.15549606215E+03  0.00000000000E+00 0. -1.
          1    1    6    6  503    0 -0.12704965163E+03 -0.13609662869E+03  0.13710083051E+04  0.13835923095E+04  0.00000000000E+00 0. -1.
         -1    1    6    6    0  503 -0.14038997267E+01 -0.69881930521E+02  0.58633916537E+03  0.59049053505E+03  0.00000000000E+00 0.  1.
<mgrwt>
<rscale>  0 0.19085933E+04</rscale>
<asrwt>0</asrwt>
<pdfrwt beam="1">  1        1 0.33737937E+00 0.19085933E+04</pdfrwt>
<pdfrwt beam="2">  1       -2 0.63888331E-01 0.19085933E+04</pdfrwt>
<totfact> 0.40985941E+00</totfact>
</mgrwt>
</event>
<event>
12    4  0.4381187E-008  0.1234696E+04  0.7818608E-02  0.9083018E-01
          1   -1    0    0  501    0  0.00000000000E+00  0.00000000000E+00  0.43311234392E+03  0.43311234392E+03  0.00000000000E+00 0. -1.
         -2   -1    0    0    0  501 -0.00000000000E+00 -0.00000000000E+00 -0.87995270428E+03  0.87995270428E+03  0.00000000000E+00 0.  1.
        -24    2    1    2    0    0 -0.13523987345E+03  0.12545591245E+03 -0.33803909803E+03  0.39330661048E+03  0.79941533096E+02 0.  0.
        254    2    1    2    0    0  0.13523987345E+03 -0.12545591245E+03 -0.10880126233E+03  0.91975843772E+03  0.89447686372E+03 0.  0.
         23    2    4    4    0    0 -0.28740138000E+03  0.19869806586E+03  0.29694634732E+02  0.36202145318E+03  0.89984924468E+02 0.  0.
         23    2    4    4    0    0  0.42264125345E+03 -0.32415397830E+03 -0.13849589706E+03  0.55773698454E+03  0.90487566264E+02 0.  0.
          1    1    3    3  502    0 -0.21069024689E+02  0.49555271469E+02 -0.46524984431E+02  0.71163213165E+02  0.00000000000E+00 0. -1.
         -2    1    3    3    0  502 -0.11417084876E+03  0.75900640978E+02 -0.29151411360E+03  0.32214339732E+03  0.00000000000E+00 0.  1.
         11    1    5    5    0    0 -0.26420012552E+03  0.14743600764E+03  0.11090202101E+02  0.30275745285E+03  0.00000000000E+00 0. -1.
        -11    1    5    5    0    0 -0.23201254484E+02  0.51262058218E+02  0.18604432631E+02  0.59264000337E+02  0.00000000000E+00 0.  1.
          1    1    6    6  503    0  0.36692661931E+03 -0.25818828079E+03 -0.86434709708E+02  0.45691059447E+03  0.00000000000E+00 0. -1.
         -1    1    6    6    0  503  0.55714634146E+02 -0.65965697512E+02 -0.52061187350E+02  0.10082639007E+03  0.00000000000E+00 0.  1.
<mgrwt>
<rscale>  0 0.12346957E+04</rscale>
<asrwt>0</asrwt>
<pdfrwt beam="1">  1        1 0.66632669E-01 0.12346957E+04</pdfrwt>
<pdfrwt beam="2">  1       -2 0.13537734E+00 0.12346957E+04</pdfrwt>
<totfact> 0.18211977E+01</totfact>
</mgrwt>
</event>
<event>
12    4  0.4381187E-008  0.1044731E+04  0.7818608E-02  0.9260801E-01
         -2   -1    0    0    0  501 -0.00000000000E+00  0.00000000000E+00  0.31601463779E+03  0.31601463779E+03  0.00000000000E+00 0.  1.
          1   -1    0    0  501    0  0.00000000000E+00 -0.00000000000E+00 -0.86345917966E+03  0.86345917966E+03  0.00000000000E+00 0. -1.
        -24    2    1    2    0    0 -0.61912071540E+02 -0.66580786631E+02 -0.15568099890E+03  0.19771966012E+03  0.81181185185E+02 0.  0.
        254    2    1    2    0    0  0.61912071540E+02  0.66580786631E+02 -0.39176354297E+03  0.98175415733E+03  0.89559837321E+03 0.  0.
         23    2    4    4    0    0 -0.22034052072E+02 -0.36747524313E+03 -0.36689188101E+03  0.52985644347E+03  0.10302739718E+03 0.  0.
         23    2    4    4    0    0  0.83946123612E+02  0.43405602976E+03 -0.24871661958E+02  0.45189771386E+03  0.90229460736E+02 0.  0.
          3    1    3    3  502    0 -0.75793105571E+02 -0.27940856036E+02 -0.10051118954E+03  0.12894877088E+03  0.00000000000E+00 0. -1.
         -4    1    3    3    0  502  0.13881034031E+02 -0.38639930595E+02 -0.55169809352E+02  0.68770889235E+02  0.00000000000E+00 0.  1.
         11    1    5    5    0    0  0.15346491095E+02 -0.11155900386E+03 -0.17381005711E+03  0.20710109146E+03  0.00000000000E+00 0. -1.
        -11    1    5    5    0    0 -0.37380543167E+02 -0.25591623927E+03 -0.19308182390E+03  0.32275535201E+03  0.00000000000E+00 0.  1.
          3    1    6    6  503    0  0.39591054529E+02  0.20027557838E+03  0.33525280792E+02  0.20688572533E+03  0.00000000000E+00 0. -1.
         -3    1    6    6    0  503  0.44355069083E+02  0.23378045138E+03 -0.58396942750E+02  0.24501198853E+03  0.00000000000E+00 0.  1.
<mgrwt>
<rscale>  0 0.10447310E+04</rscale>
<asrwt>0</asrwt>
<pdfrwt beam="1">  1        1 0.13283987E+00 0.10447310E+04</pdfrwt>
<pdfrwt beam="2">  1       -2 0.48617637E-01 0.10447310E+04</pdfrwt>
<totfact> 0.68505025E+01</totfact>
</mgrwt>
</event>
<event>
12    4  0.4381187E-008  0.1784417E+04  0.7818608E-02  0.8714631E-01
          1   -1    0    0  501    0  0.00000000000E+00  0.00000000000E+00  0.68603272272E+03  0.68603272272E+03  0.00000000000E+00 0. -1.
         -2   -1    0    0    0  501 -0.00000000000E+00 -0.00000000000E+00 -0.11603468130E+04  0.11603468130E+04  0.00000000000E+00 0.  1.
        -24    2    1    2    0    0 -0.16498090068E+03  0.52443718619E+03  0.20605436401E+03  0.59285458152E+03  0.82250191831E+02 0.  0.
        254    2    1    2    0    0  0.16498090068E+03 -0.52443718619E+03 -0.68036845425E+03  0.12535249542E+04  0.89786998910E+03 0.  0.
         23    2    4    4    0    0  0.21478276301E+02 -0.71418538477E+03 -0.69045081344E+03  0.99778601345E+03  0.91282652717E+02 0.  0.
         23    2    4    4    0    0  0.14350262438E+03  0.18974819858E+03  0.10082359195E+02  0.25573894072E+03  0.93291852615E+02 0.  0.
          3    1    3    3  502    0 -0.11551411646E+03  0.31709800027E+03  0.16547557448E+03  0.37586808673E+03  0.00000000000E+00 0. -1.
         -4    1    3    3    0  502 -0.49466784222E+02  0.20733918592E+03  0.40578789520E+02  0.21698649479E+03  0.00000000000E+00 0.  1.
         11    1    5    5    0    0  0.40596604244E+02 -0.15551803631E+03 -0.17135380668E+03  0.23493844078E+03  0.00000000000E+00 0.  1.
        -11    1    5    5    0    0 -0.19118327944E+02 -0.55866734846E+03 -0.51909700676E+03  0.76284757267E+03  0.00000000000E+00 0. -1.
          3    1    6    6  503    0  0.13576739694E+03  0.18365648984E+03 -0.14909797703E+02  0.22887724745E+03  0.00000000000E+00 0. -1.
         -3    1    6    6    0  503  0.77352274416E+01  0.60917087395E+01  0.24992156897E+02  0.26861693270E+02  0.00000000000E+00 0.  1.
<mgrwt>
<rscale>  0 0.17844169E+04</rscale>
<asrwt>0</asrwt>
<pdfrwt beam="1">  1        1 0.10554350E+00 0.17844169E+04</pdfrwt>
<pdfrwt beam="2">  1       -2 0.17851489E+00 0.17844169E+04</pdfrwt>
<totfact> 0.43124544E+00</totfact>
</mgrwt>
</event>
<event>
12    4  0.4381187E-008  0.1670237E+04  0.7818608E-02  0.8778524E-01
         -2   -1    0    0    0  501 -0.00000000000E+00  0.00000000000E+00  0.45353972991E+03  0.45353972991E+03  0.00000000000E+00 0.  1.
          1   -1    0    0  501    0  0.00000000000E+00 -0.00000000000E+00 -0.15377323417E+04  0.15377323417E+04  0.00000000000E+00 0. -1.
        -24    2    1    2    0    0  0.89546957126E+02 -0.19753926971E+03 -0.10327574568E+04  0.10583065322E+04  0.79902007810E+02 0.  0.
        254    2    1    2    0    0 -0.89546957126E+02  0.19753926971E+03 -0.51435154978E+02  0.93296553943E+03  0.90594630193E+03 0.  0.
         23    2    4    4    0    0  0.39062722376E+03  0.17158417601E+03 -0.74624306771E+02  0.44271255245E+03  0.91623466096E+02 0.  0.
         23    2    4    4    0    0 -0.48017418088E+03  0.25955093694E+02  0.23189151793E+02  0.49025298697E+03  0.92570749164E+02 0.  0.
          3    1    3    3  502    0  0.53157080249E+02 -0.18005374242E+03 -0.77551036839E+03  0.79791061957E+03  0.00000000000E+00 0. -1.
         -4    1    3    3    0  502  0.36389876876E+02 -0.17485527281E+02 -0.25724708846E+03  0.26039591265E+03  0.00000000000E+00 0.  1.
         11    1    5    5    0    0  0.18479936738E+03  0.44008855019E+02 -0.22874659470E+01  0.18998109907E+03  0.00000000000E+00 0.  1.
        -11    1    5    5    0    0  0.20582785638E+03  0.12757532099E+03 -0.72336840825E+02  0.25273145338E+03  0.00000000000E+00 0. -1.
          3    1    6    6  503    0 -0.21006394055E+03 -0.73983676549E+01  0.52114958191E+02  0.21655845361E+03  0.00000000000E+00 0. -1.
         -3    1    6    6    0  503 -0.27011024034E+03  0.33353461349E+02 -0.28925806398E+02  0.27369453337E+03  0.00000000000E+00 0.  1.
<mgrwt>
<rscale>  0 0.16702368E+04</rscale>
<asrwt>0</asrwt>
<pdfrwt beam="1">  1        1 0.23657421E+00 0.16702368E+04</pdfrwt>
<pdfrwt beam="2">  1       -2 0.69775343E-01 0.16702368E+04</pdfrwt>
<totfact> 0.96533158E+00</totfact>
</mgrwt>
</event>
<event>
12    4  0.4381187E-008  0.1602894E+04  0.7818608E-02  0.8818772E-01
         -2   -1    0    0    0  501 -0.00000000000E+00  0.00000000000E+00  0.21617177574E+04  0.21617177574E+04  0.00000000000E+00 0.  1.
          1   -1    0    0  501    0  0.00000000000E+00 -0.00000000000E+00 -0.29713289021E+03  0.29713289021E+03  0.00000000000E+00 0. -1.
        -24    2    1    2    0    0  0.18295612961E+03 -0.17848616736E+03  0.13794292345E+04  0.14051252089E+04  0.78877007888E+02 0.  0.
        254    2    1    2    0    0 -0.18295612961E+03  0.17848616736E+03  0.48515563260E+03  0.10537254386E+04  0.89979500714E+03 0.  0.
         23    2    4    4    0    0  0.15474438144E+02  0.43379284173E+03 -0.23260714080E+02  0.44410728541E+03  0.90964456590E+02 0.  0.
         23    2    4    4    0    0 -0.19843056776E+03 -0.25530667436E+03  0.50841634668E+03  0.60961815322E+03  0.92687231965E+02 0.  0.
          1    1    3    3  502    0  0.15387465855E+02  0.25599957875E+01  0.17486902866E+03  0.17556339273E+03  0.00000000000E+00 0. -1.
         -2    1    3    3    0  502  0.16756866376E+03 -0.18104616315E+03  0.12045602059E+04  0.12295618162E+04  0.00000000000E+00 0.  1.
         11    1    5    5    0    0  0.48322422700E+02  0.15239390242E+03 -0.34101856230E+00  0.15987205611E+03  0.00000000000E+00 0.  1.
        -11    1    5    5    0    0 -0.32847984556E+02  0.28139893930E+03 -0.22919695518E+02  0.28423522930E+03  0.00000000000E+00 0. -1.
          2    1    6    6  503    0 -0.12736012970E+03 -0.14359899257E+03  0.37711846767E+03  0.42315435950E+03  0.00000000000E+00 0. -1.
         -2    1    6    6    0  503 -0.71070438051E+02 -0.11170768179E+03  0.13129787901E+03  0.18646379372E+03  0.00000000000E+00 0.  1.
<mgrwt>
<rscale>  0 0.16028942E+04</rscale>
<asrwt>0</asrwt>
<pdfrwt beam="1">  1        1 0.45712754E-01 0.16028942E+04</pdfrwt>
<pdfrwt beam="2">  1       -2 0.33257195E+00 0.16028942E+04</pdfrwt>
<totfact> 0.14955996E+00</totfact>
</mgrwt>
</event>
<event>
12    4  0.4381187E-008  0.1447876E+04  0.7818608E-02  0.8919874E-01
         -4   -1    0    0    0  501 -0.00000000000E+00  0.00000000000E+00  0.88438649689E+03  0.88438649689E+03  0.00000000000E+00 0.  1.
          1   -1    0    0  501    0  0.00000000000E+00 -0.00000000000E+00 -0.59259846924E+03  0.59259846924E+03  0.00000000000E+00 0. -1.
        -24    2    1    2    0    0 -0.29473126852E+03 -0.26835369761E+03 -0.11810950325E+03  0.42357285362E+03  0.81141111015E+02 0.  0.
        254    2    1    2    0    0  0.29473126852E+03  0.26835369761E+03  0.40989753091E+03  0.10534121125E+04  0.88474904085E+03 0.  0.
         23    2    4    4    0    0  0.57292479338E+03  0.11803100239E+02  0.26608798502E+03  0.63862566320E+03  0.93047245399E+02 0.  0.
         23    2    4    4    0    0 -0.27819352486E+03  0.25655059738E+03  0.14380954589E+03  0.41478644931E+03  0.90314820261E+02 0.  0.
          3    1    3    3  502    0 -0.21498598015E+03 -0.23942165867E+03 -0.88577049373E+02  0.33374780296E+03  0.00000000000E+00 0. -1.
         -4    1    3    3    0  502 -0.79745288369E+02 -0.28932038946E+02 -0.29532453882E+02  0.89825050664E+02  0.00000000000E+00 0.  1.
         11    1    5    5    0    0  0.26905104144E+02 -0.75077811163E+01  0.36560557638E+02  0.46010061738E+02  0.00000000000E+00 0.  1.
        -11    1    5    5    0    0  0.54601968924E+03  0.19310881355E+02  0.22952742738E+03  0.59261560146E+03  0.00000000000E+00 0. -1.
          2    1    6    6  503    0 -0.12424889930E+03  0.11380443758E+03  0.16587560529E+02  0.16930559989E+03  0.00000000000E+00 0. -1.
         -2    1    6    6    0  503 -0.15394462556E+03  0.14274615979E+03  0.12722198536E+03  0.24548084942E+03  0.00000000000E+00 0.  1.
<mgrwt>
<rscale>  0 0.14478758E+04</rscale>
<asrwt>0</asrwt>
<pdfrwt beam="1">  1        1 0.91168995E-01 0.14478758E+04</pdfrwt>
<pdfrwt beam="2">  1       -4 0.13605946E+00 0.14478758E+04</pdfrwt>
<totfact> 0.62685377E+00</totfact>
</mgrwt>
</event>
<event>
12    4  0.4381187E-008  0.2390898E+04  0.7818608E-02  0.8442919E-01
          1   -1    0    0  501    0  0.00000000000E+00  0.00000000000E+00  0.13148824444E+04  0.13148824444E+04  0.00000000000E+00 0. -1.
         -2   -1    0    0    0  501 -0.00000000000E+00 -0.00000000000E+00 -0.10868642791E+04  0.10868642791E+04  0.00000000000E+00 0.  1.
        -24    2    1    2    0    0 -0.52608991969E+03 -0.51957044909E+03  0.79547688628E+03  0.10889571798E+04  0.79499733165E+02 0.  0.
        254    2    1    2    0    0  0.52608991969E+03  0.51957044909E+03 -0.56745872100E+03  0.13127895437E+04  0.92449063322E+03 0.  0.
         23    2    4    4    0    0  0.62794415421E+03  0.36546315675E+03 -0.25442553299E+02  0.73271700725E+03  0.91376744536E+02 0.  0.
         23    2    4    4    0    0 -0.10185423453E+03  0.15410729234E+03 -0.54201616770E+03  0.58007253648E+03  0.92624396778E+02 0.  0.
          1    1    3    3  502    0 -0.49840917716E+03 -0.46297356359E+03  0.73769918341E+03  0.10034721290E+04  0.00000000000E+00 0. -1.
         -2    1    3    3    0  502 -0.27680742530E+02 -0.56596885503E+02  0.57777702867E+02  0.85485050765E+02  0.00000000000E+00 0.  1.
         11    1    5    5    0    0  0.30208916978E+03  0.12348023720E+03 -0.72828832289E+01  0.32643265135E+03  0.00000000000E+00 0.  1.
        -11    1    5    5    0    0  0.32585498443E+03  0.24198291955E+03 -0.18159670070E+02  0.40628435589E+03  0.00000000000E+00 0. -1.
          2    1    6    6  503    0 -0.52898713229E+02  0.27697823938E+02 -0.26529790173E+03  0.27193458768E+03  0.00000000000E+00 0. -1.
         -2    1    6    6    0  503 -0.48955521297E+02  0.12640946840E+03 -0.27671826597E+03  0.30813794880E+03  0.00000000000E+00 0.  1.
<mgrwt>
<rscale>  0 0.23908984E+04</rscale>
<asrwt>0</asrwt>
<pdfrwt beam="1">  1        1 0.20228961E+00 0.23908984E+04</pdfrwt>
<pdfrwt beam="2">  1       -2 0.16720989E+00 0.23908984E+04</pdfrwt>
<totfact> 0.15504472E+00</totfact>
</mgrwt>
</event>
<event>
12    4  0.4381187E-008  0.1268915E+04  0.7818608E-02  0.9054586E-01
          1   -1    0    0  501    0  0.00000000000E+00  0.00000000000E+00  0.16833961300E+04  0.16833961300E+04  0.00000000000E+00 0. -1.
         -2   -1    0    0    0  501 -0.00000000000E+00 -0.00000000000E+00 -0.23912160190E+03  0.23912160190E+03  0.00000000000E+00 0.  1.
        -24    2    1    2    0    0  0.22222572954E+03  0.99927368672E+02  0.79347659949E+02  0.26685341125E+03  0.74464340979E+02 0.  0.
        254    2    1    2    0    0 -0.22222572954E+03 -0.99927368672E+02  0.13649268682E+04  0.16556643207E+04  0.90489183520E+03 0.  0.
         23    2    4    4    0    0  0.20860557350E+03  0.40059180546E+02  0.19538474945E+02  0.23317256796E+03  0.94163003373E+02 0.  0.
         23    2    4    4    0    0 -0.43083130304E+03 -0.13998654922E+03  0.13453883932E+04  0.14224917527E+04  0.90559440577E+02 0.  0.
          1    1    3    3  502    0  0.58684292930E+02  0.14107817168E+02  0.52939919949E+02  0.80283945258E+02  0.00000000000E+00 0. -1.
         -2    1    3    3    0  502  0.16354143661E+03  0.85819551504E+02  0.26407740000E+02  0.18656946599E+03  0.00000000000E+00 0.  1.
         11    1    5    5    0    0  0.12953996968E+03  0.58803186404E+02 -0.18487663724E+02  0.14345805027E+03  0.00000000000E+00 0.  1.
        -11    1    5    5    0    0  0.79065603819E+02 -0.18744005858E+02  0.38026138669E+02  0.89714517693E+02  0.00000000000E+00 0. -1.
          1    1    6    6  503    0 -0.79360773202E+02  0.94891114639E+01  0.24449775595E+03  0.25723010754E+03  0.00000000000E+00 0. -1.
         -1    1    6    6    0  503 -0.35147052984E+03 -0.14947566068E+03  0.11008906373E+04  0.11652616452E+04  0.00000000000E+00 0.  1.
<mgrwt>
<rscale>  0 0.12689151E+04</rscale>
<asrwt>0</asrwt>
<pdfrwt beam="1">  1        1 0.25898401E+00 0.12689151E+04</pdfrwt>
<pdfrwt beam="2">  1       -2 0.36787940E-01 0.12689151E+04</pdfrwt>
<totfact> 0.29437762E+01</totfact>
</mgrwt>
</event>
<event>
12    4  0.4381187E-008  0.1435299E+04  0.7818608E-02  0.8928656E-01
          1   -1    0    0  501    0  0.00000000000E+00  0.00000000000E+00  0.28585388167E+03  0.28585388167E+03  0.00000000000E+00 0. -1.
         -2   -1    0    0    0  501 -0.00000000000E+00 -0.00000000000E+00 -0.18016927549E+04  0.18016927549E+04  0.00000000000E+00 0.  1.
        -24    2    1    2    0    0 -0.18864172358E+03  0.27081780776E+03 -0.85819064170E+03  0.92298645306E+03  0.80528443207E+02 0.  0.
        254    2    1    2    0    0  0.18864172358E+03 -0.27081780776E+03 -0.65764823157E+03  0.11645601836E+04  0.90264679679E+03 0.  0.
         23    2    4    4    0    0  0.43994961031E+02 -0.56390630360E+03 -0.22625241964E+03  0.61586796717E+03  0.90428534031E+02 0.  0.
         23    2    4    4    0    0  0.14464676255E+03  0.29308849583E+03 -0.43139581193E+03  0.54869221638E+03  0.90206704061E+02 0.  0.
          3    1    3    3  502    0 -0.90414969626E+02  0.19663090664E+03 -0.56243375014E+03  0.60263612859E+03  0.00000000000E+00 0. -1.
         -4    1    3    3    0  502 -0.98226753952E+02  0.74186901125E+02 -0.29575689155E+03  0.32035032448E+03  0.00000000000E+00 0.  1.
         11    1    5    5    0    0 -0.83015668884E+01 -0.73955987024E+02 -0.18551498103E+01  0.74443573331E+02  0.00000000000E+00 0.  1.
        -11    1    5    5    0    0  0.52296527919E+02 -0.48995031657E+03 -0.22439726983E+03  0.54142439384E+03  0.00000000000E+00 0. -1.
          1    1    6    6  503    0  0.11796025189E+03  0.28567685490E+03 -0.37573285845E+03  0.48651933915E+03  0.00000000000E+00 0. -1.
         -1    1    6    6    0  503  0.26686510660E+02  0.74116409379E+01 -0.55662953482E+02  0.62172877229E+02  0.00000000000E+00 0.  1.
<mgrwt>
<rscale>  0 0.14352991E+04</rscale>
<asrwt>0</asrwt>
<pdfrwt beam="1">  1        1 0.43977521E-01 0.14352991E+04</pdfrwt>
<pdfrwt beam="2">  1       -2 0.27718350E+00 0.14352991E+04</pdfrwt>
<totfact> 0.34825787E+00</totfact>
</mgrwt>
</event>
<event>
12    4  0.4970921E-008  0.2260741E+04  0.7818608E-02  0.8493563E-01
         -2   -1    0    0    0  501 -0.00000000000E+00  0.00000000000E+00  0.93235886589E+03  0.93235886589E+03  0.00000000000E+00 0.  1.
          1   -1    0    0  501    0  0.00000000000E+00 -0.00000000000E+00 -0.13704348791E+04  0.13704348791E+04  0.00000000000E+00 0. -1.
        -24    2    1    2    0    0  0.77899004039E+03  0.26655475253E+03 -0.66587350022E+03  0.10639874755E+04  0.10394667161E+03 0.  0.
        254    2    1    2    0    0 -0.77899004039E+03 -0.26655475253E+03  0.22779748700E+03  0.12388062695E+04  0.89714678798E+03 0.  0.
         23    2    4    4    0    0 -0.49838545326E+03 -0.14232371775E+03  0.56598800737E+03  0.77299191387E+03  0.92357857071E+02 0.  0.
         23    2    4    4    0    0 -0.28060458713E+03 -0.12423103478E+03 -0.33819052037E+03  0.46581435565E+03  0.91858051029E+02 0.  0.
          3    1    3    3  502    0  0.70723018419E+03  0.22773436707E+03 -0.63281457956E+03  0.97595684713E+03  0.00000000000E+00 0. -1.
         -4    1    3    3    0  502  0.71759856202E+02  0.38820385461E+02 -0.33058920662E+02  0.88030628334E+02  0.00000000000E+00 0.  1.
         11    1    5    5    0    0 -0.53298752594E+02 -0.42959733697E+02  0.98063517597E+02  0.11959410199E+03  0.00000000000E+00 0. -1.
        -11    1    5    5    0    0 -0.44508670067E+03 -0.99363984051E+02  0.46792448978E+03  0.65339781188E+03  0.00000000000E+00 0.  1.
          4    1    6    6  503    0 -0.98754670267E+02  0.22348106800E+01 -0.10799150246E+03  0.14635451439E+03  0.00000000000E+00 0. -1.
         -4    1    6    6    0  503 -0.18184991686E+03 -0.12646584546E+03 -0.23019901791E+03  0.31945984126E+03  0.00000000000E+00 0.  1.
<mgrwt>
<rscale>  0 0.22607407E+04</rscale>
<asrwt>0</asrwt>
<pdfrwt beam="1">  1        1 0.21083614E+00 0.22607407E+04</pdfrwt>
<pdfrwt beam="2">  1       -2 0.14343982E+00 0.22607407E+04</pdfrwt>
<totfact> 0.21630918E+00</totfact>
</mgrwt>
</event>
<event>
12    4  0.4381187E-008  0.1705746E+04  0.7818608E-02  0.8758094E-01
         -2   -1    0    0    0  501 -0.00000000000E+00  0.00000000000E+00  0.39227320408E+03  0.39227320408E+03  0.00000000000E+00 0.  1.
          1   -1    0    0  501    0  0.00000000000E+00 -0.00000000000E+00 -0.18543009084E+04  0.18543009084E+04  0.00000000000E+00 0. -1.
        -24    2    1    2    0    0  0.74324408930E+02 -0.63519334995E+02  0.26528263978E+03  0.29385148738E+03  0.80093657583E+02 0.  0.
        254    2    1    2    0    0 -0.74324408930E+02  0.63519334995E+02 -0.17273103441E+04  0.19527226251E+04  0.90551963099E+03 0.  0.
         23    2    4    4    0    0 -0.62114032820E+01  0.65333245357E+01 -0.18025365551E+04  0.18048702473E+04  0.91308879892E+02 0.  0.
         23    2    4    4    0    0 -0.68113005648E+02  0.56986010460E+02  0.75226211009E+02  0.14785237773E+03  0.91184186405E+02 0.  0.
          3    1    3    3  502    0 -0.12319664224E+02 -0.11749855315E+02  0.10997966424E+02  0.20267917801E+02  0.00000000000E+00 0. -1.
         -4    1    3    3    0  502  0.86644073154E+02 -0.51769479680E+02  0.25428467335E+03  0.27358356957E+03  0.00000000000E+00 0.  1.
         11    1    5    5    0    0 -0.58166446364E+01 -0.38048553270E+02 -0.46481273451E+03  0.46640369202E+03  0.00000000000E+00 0. -1.
        -11    1    5    5    0    0 -0.39475864558E+00  0.44581877806E+02 -0.13377238206E+04  0.13384665553E+04  0.00000000000E+00 0.  1.
          2    1    6    6  503    0  0.65637779152E+00  0.20147628507E+02  0.66337786497E+02  0.69332962460E+02  0.00000000000E+00 0. -1.
         -2    1    6    6    0  503 -0.68769383440E+02  0.36838381953E+02  0.88884245129E+01  0.78519415267E+02  0.00000000000E+00 0.  1.
<mgrwt>
<rscale>  0 0.17057462E+04</rscale>
<asrwt>0</asrwt>
<pdfrwt beam="1">  1        1 0.28527706E+00 0.17057462E+04</pdfrwt>
<pdfrwt beam="2">  1       -2 0.60349724E-01 0.17057462E+04</pdfrwt>
<totfact> 0.79945794E+00</totfact>
</mgrwt>
</event>
<event>
12    4  0.4381187E-008  0.2048022E+04  0.7818608E-02  0.8584492E-01
          1   -1    0    0  501    0  0.00000000000E+00  0.00000000000E+00  0.16948080587E+04  0.16948080587E+04  0.00000000000E+00 0. -1.
         -2   -1    0    0    0  501 -0.00000000000E+00 -0.00000000000E+00 -0.61871215946E+03  0.61871215946E+03  0.00000000000E+00 0.  1.
        -24    2    1    2    0    0  0.47360369500E+02 -0.22813878309E+03  0.13275521935E+04  0.13502979044E+04  0.81359051106E+02 0.  0.
        254    2    1    2    0    0 -0.47360369500E+02  0.22813878309E+03 -0.25145629430E+03  0.96322231373E+03  0.90015368064E+03 0.  0.
         23    2    4    4    0    0  0.38238674555E+03 -0.52437636567E+02 -0.18808664529E+03  0.43827913190E+03  0.87992513419E+02 0.  0.
         23    2    4    4    0    0 -0.42974711505E+03  0.28057641966E+03 -0.63369649003E+02  0.52494318183E+03  0.90243678834E+02 0.  0.
          3    1    3    3  502    0  0.54877801537E+02 -0.18689507713E+03  0.90808476769E+03  0.92874070023E+03  0.00000000000E+00 0. -1.
         -4    1    3    3    0  502 -0.75174320374E+01 -0.41243705964E+02  0.41946742583E+03  0.42155720418E+03  0.00000000000E+00 0.  1.
         11    1    5    5    0    0  0.23487063437E+03 -0.69544572776E+02 -0.14024940961E+03  0.28225973746E+03  0.00000000000E+00 0.  1.
        -11    1    5    5    0    0  0.14751611118E+03  0.17106936210E+02 -0.47837235681E+02  0.15601939445E+03  0.00000000000E+00 0. -1.
          1    1    6    6  503    0 -0.30374214370E+03  0.14750138860E+03 -0.34548426490E+02  0.33942531325E+03  0.00000000000E+00 0. -1.
         -1    1    6    6    0  503 -0.12600497135E+03  0.13307503106E+03 -0.28821222513E+02  0.18551786858E+03  0.00000000000E+00 0.  1.
<mgrwt>
<rscale>  0 0.20480218E+04</rscale>
<asrwt>0</asrwt>
<pdfrwt beam="1">  1        1 0.26073970E+00 0.20480218E+04</pdfrwt>
<pdfrwt beam="2">  1       -2 0.95186487E-01 0.20480218E+04</pdfrwt>
<totfact> 0.36157579E+00</totfact>
</mgrwt>
</event>
<event>
12    4  0.4381187E-008  0.1135951E+04  0.7818608E-02  0.9170843E-01
         -2   -1    0    0    0  501 -0.00000000000E+00  0.00000000000E+00  0.27165590606E+03  0.27165590606E+03  0.00000000000E+00 0.  1.
          1   -1    0    0  501    0  0.00000000000E+00 -0.00000000000E+00 -0.11875173018E+04  0.11875173018E+04  0.00000000000E+00 0. -1.
        -24    2    1    2    0    0 -0.95998858951E+02  0.13565883609E+03 -0.36654233071E+02  0.18807003307E+03  0.80048134313E+02 0.  0.
        254    2    1    2    0    0  0.95998858951E+02 -0.13565883609E+03 -0.87920716270E+03  0.12711031748E+04  0.90281722700E+03 0.  0.
         23    2    4    4    0    0  0.16219229892E+03  0.49819328568E+02 -0.10030296421E+04  0.10212121897E+04  0.89540862846E+02 0.  0.
         23    2    4    4    0    0 -0.66193439969E+02 -0.18547816466E+03  0.12382247936E+03  0.24989098516E+03  0.91267612043E+02 0.  0.
          3    1    3    3  502    0 -0.58648733235E+01  0.11941240813E+02 -0.32307155500E+02  0.34939122310E+02  0.00000000000E+00 0. -1.
         -4    1    3    3    0  502 -0.90133985627E+02  0.12371759528E+03 -0.43470775708E+01  0.15313091076E+03  0.00000000000E+00 0.  1.
         11    1    5    5    0    0 -0.88427840181E+01  0.14439782131E+02 -0.74628086533E+02  0.76524855026E+02  0.00000000000E+00 0. -1.
        -11    1    5    5    0    0  0.17103508294E+03  0.35379546437E+02 -0.92840155554E+03  0.94468733464E+03  0.00000000000E+00 0.  1.
          1    1    6    6  503    0 -0.38723481143E+02 -0.30373777300E+02 -0.50773043910E+00  0.49217193433E+02  0.00000000000E+00 0. -1.
         -1    1    6    6    0  503 -0.27469958826E+02 -0.15510438736E+03  0.12433020980E+03  0.20067379173E+03  0.00000000000E+00 0.  1.
<mgrwt>
<rscale>  0 0.11359509E+04</rscale>
<asrwt>0</asrwt>
<pdfrwt beam="1">  1        1 0.18269497E+00 0.11359509E+04</pdfrwt>
<pdfrwt beam="2">  1       -2 0.41793217E-01 0.11359509E+04</pdfrwt>
<totfact> 0.51602718E+01</totfact>
</mgrwt>
</event>
<event>
12    4  0.4381187E-008  0.1131349E+04  0.7818608E-02  0.9175165E-01
          1   -1    0    0  501    0  0.00000000000E+00  0.00000000000E+00  0.13282408483E+04  0.13282408483E+04  0.00000000000E+00 0. -1.
         -4   -1    0    0    0  501 -0.00000000000E+00 -0.00000000000E+00 -0.24091076788E+03  0.24091076788E+03  0.00000000000E+00 0.  1.
        -24    2    1    2    0    0  0.10876249596E+03  0.12464952891E+02  0.44959641100E+03  0.46907386707E+03  0.76868097486E+02 0.  0.
        254    2    1    2    0    0 -0.10876249596E+03 -0.12464952891E+02  0.63773366943E+03  0.11000777491E+04  0.88965283419E+03 0.  0.
         23    2    4    4    0    0 -0.27436384335E+03  0.25654052814E+02 -0.12351522972E+03  0.31500229427E+03  0.89648114625E+02 0.  0.
         23    2    4    4    0    0  0.16560134739E+03 -0.38119005704E+02  0.76124889915E+03  0.78507545484E+03  0.89256475803E+02 0.  0.
          1    1    3    3  502    0  0.79570832019E+02  0.11704120837E+02  0.41949576294E+03  0.42713604259E+03  0.00000000000E+00 0. -1.
         -2    1    3    3    0  502  0.29191663942E+02  0.76083205359E+00  0.30100648057E+02  0.41937824486E+02  0.00000000000E+00 0.  1.
         11    1    5    5    0    0 -0.19958733304E+03  0.54297586150E+02 -0.10835840121E+03  0.23350561982E+03  0.00000000000E+00 0.  1.
        -11    1    5    5    0    0 -0.74776510308E+02 -0.28643533336E+02 -0.15156828509E+02  0.81496674449E+02  0.00000000000E+00 0. -1.
          3    1    6    6  503    0  0.13720573978E+03  0.65694009310E+01  0.50064599616E+03  0.51914832710E+03  0.00000000000E+00 0. -1.
         -3    1    6    6    0  503  0.28395607607E+02 -0.44688406635E+02  0.26060290300E+03  0.26592712774E+03  0.00000000000E+00 0.  1.
<mgrwt>
<rscale>  0 0.11313488E+04</rscale>
<asrwt>0</asrwt>
<pdfrwt beam="1">  1        1 0.20434474E+00 0.11313488E+04</pdfrwt>
<pdfrwt beam="2">  1       -4 0.37063196E-01 0.11313488E+04</pdfrwt>
<totfact> 0.29982068E+01</totfact>
</mgrwt>
</event>
<event>
12    4  0.4381187E-008  0.1762344E+04  0.7818608E-02  0.8726585E-01
          1   -1    0    0  501    0  0.00000000000E+00  0.00000000000E+00  0.13179949332E+04  0.13179949332E+04  0.00000000000E+00 0. -1.
         -2   -1    0    0    0  501 -0.00000000000E+00 -0.00000000000E+00 -0.58912538460E+03  0.58912538460E+03  0.00000000000E+00 0.  1.
        -24    2    1    2    0    0  0.51673186625E+03  0.11290786728E+03 -0.12613372757E+03  0.54965796923E+03  0.80337773253E+02 0.  0.
        254    2    1    2    0    0 -0.51673186625E+03 -0.11290786728E+03  0.85500327616E+03  0.13574623486E+04  0.91209287763E+03 0.  0.
         23    2    4    4    0    0 -0.39049625724E+03  0.36073416892E+03  0.32253495259E+03  0.62839962920E+03  0.90779021724E+02 0.  0.
         23    2    4    4    0    0 -0.12623560901E+03 -0.47364203620E+03  0.53246832356E+03  0.72906271936E+03  0.87964343451E+02 0.  0.
          3    1    3    3  502    0  0.64692798453E+01  0.13422460307E+02 -0.96449004340E+00  0.14931318209E+02  0.00000000000E+00 0. -1.
         -4    1    3    3    0  502  0.51026258641E+03  0.99485406971E+02 -0.12516923753E+03  0.53472665102E+03  0.00000000000E+00 0.  1.
         11    1    5    5    0    0 -0.32635749621E+03  0.29879083145E+03  0.30530339395E+03  0.53758286677E+03  0.00000000000E+00 0.  1.
        -11    1    5    5    0    0 -0.64138761034E+02  0.61943337474E+02  0.17231558640E+02  0.90816762426E+02  0.00000000000E+00 0. -1.
          2    1    6    6  503    0 -0.54612418093E+02 -0.11960494982E+03  0.97613285393E+02  0.16375656847E+03  0.00000000000E+00 0.  1.
         -2    1    6    6    0  503 -0.71623190921E+02 -0.35403708638E+03  0.43485503817E+03  0.56530615089E+03  0.00000000000E+00 0. -1.
<mgrwt>
<rscale>  0 0.17623442E+04</rscale>
<asrwt>0</asrwt>
<pdfrwt beam="1">  1        1 0.20276845E+00 0.17623442E+04</pdfrwt>
<pdfrwt beam="2">  1       -2 0.90634675E-01 0.17623442E+04</pdfrwt>
<totfact> 0.75834612E+00</totfact>
</mgrwt>
</event>
<event>
12    4  0.4381187E-008  0.1676911E+04  0.7818608E-02  0.8774643E-01
          1   -1    0    0  501    0  0.00000000000E+00  0.00000000000E+00  0.10359881026E+04  0.10359881026E+04  0.00000000000E+00 0. -1.
         -2   -1    0    0    0  501 -0.00000000000E+00 -0.00000000000E+00 -0.67858668279E+03  0.67858668279E+03  0.00000000000E+00 0.  1.
        -24    2    1    2    0    0 -0.82565984196E+02 -0.30509713596E+03  0.63896664970E+03  0.71728070565E+03  0.79447008497E+02 0.  0.
        254    2    1    2    0    0  0.82565984196E+02  0.30509713596E+03 -0.28156522987E+03  0.99729407975E+03  0.90300337691E+03 0.  0.
         23    2    4    4    0    0  0.80866421597E+02  0.25617308273E+03  0.29500057392E+03  0.41154319176E+03  0.10088822340E+03 0.  0.
         23    2    4    4    0    0  0.16995625995E+01  0.48924053234E+02 -0.57656580379E+03  0.58575088798E+03  0.90991896217E+02 0.  0.
          1    1    3    3  502    0 -0.50185951919E+02 -0.78882872488E+02  0.23897731529E+03  0.25661507081E+03  0.00000000000E+00 0. -1.
         -2    1    3    3    0  502 -0.32380032277E+02 -0.22621426347E+03  0.39998933440E+03  0.46066563484E+03  0.00000000000E+00 0.  1.
         11    1    5    5    0    0  0.34881656377E+02  0.21157611804E+03  0.18026686852E+03  0.28013805090E+03  0.00000000000E+00 0. -1.
        -11    1    5    5    0    0  0.45984765219E+02  0.44596964687E+02  0.11473370539E+03  0.13140514086E+03  0.00000000000E+00 0.  1.
          1    1    6    6  503    0 -0.35918838625E+02  0.32072922337E+02 -0.15838571458E+03  0.16554416298E+03  0.00000000000E+00 0.  1.
         -1    1    6    6    0  503  0.37618401225E+02  0.16851130897E+02 -0.41818008921E+03  0.42020672500E+03  0.00000000000E+00 0. -1.
<mgrwt>
<rscale>  0 0.16769111E+04</rscale>
<asrwt>0</asrwt>
<pdfrwt beam="1">  1        1 0.15938278E+00 0.16769111E+04</pdfrwt>
<pdfrwt beam="2">  1       -2 0.10439795E+00 0.16769111E+04</pdfrwt>
<totfact> 0.88389456E+00</totfact>
</mgrwt>
</event>
<event>
12    4  0.4381187E-008  0.1326749E+04  0.7818608E-02  0.9008618E-01
          1   -1    0    0  501    0  0.00000000000E+00  0.00000000000E+00  0.91340611966E+03  0.91340611966E+03  0.00000000000E+00 0. -1.
         -2   -1    0    0    0  501 -0.00000000000E+00 -0.00000000000E+00 -0.48178544359E+03  0.48178544359E+03  0.00000000000E+00 0.  1.
        -24    2    1    2    0    0  0.28206288715E+03 -0.24716888640E+02  0.32329412744E+03  0.43705856579E+03  0.79565697435E+02 0.  0.
        254    2    1    2    0    0 -0.28206288715E+03  0.24716888640E+02  0.10832654863E+03  0.95813299745E+03  0.90890802768E+03 0.  0.
         23    2    4    4    0    0  0.15527864196E+03 -0.20096134240E+03 -0.23066765986E+03  0.35367811938E+03  0.85928604296E+02 0.  0.
         23    2    4    4    0    0 -0.43734152910E+03  0.22567823104E+03  0.33899420849E+03  0.60445487807E+03  0.90831432834E+02 0.  0.
          3    1    3    3  502    0  0.16393663148E+03 -0.12417132982E+02  0.24413016043E+03  0.29432794560E+03  0.00000000000E+00 0. -1.
         -4    1    3    3    0  502  0.11812625567E+03 -0.12299755658E+02  0.79163967010E+02  0.14273062019E+03  0.00000000000E+00 0.  1.
         11    1    5    5    0    0  0.12385185110E+03 -0.19500206118E+03 -0.17629395757E+03  0.29059360688E+03  0.00000000000E+00 0.  1.
        -11    1    5    5    0    0  0.31426790858E+02 -0.59592812177E+01 -0.54373702290E+02  0.63084512497E+02  0.00000000000E+00 0. -1.
          1    1    6    6  503    0 -0.15475627871E+02  0.25373471451E+02  0.45987045883E+01  0.30074178216E+02  0.00000000000E+00 0. -1.
         -1    1    6    6    0  503 -0.42186590123E+03  0.20030475959E+03  0.33439550390E+03  0.57438069986E+03  0.00000000000E+00 0.  1.
<mgrwt>
<rscale>  0 0.13267491E+04</rscale>
<asrwt>0</asrwt>
<pdfrwt beam="1">  1        1 0.14052402E+00 0.13267491E+04</pdfrwt>
<pdfrwt beam="2">  1       -2 0.74120838E-01 0.13267491E+04</pdfrwt>
<totfact> 0.24996339E+01</totfact>
</mgrwt>
</event>
<event>
12    4  0.4381187E-008  0.1658617E+04  0.7818608E-02  0.8785325E-01
          1   -1    0    0  501    0  0.00000000000E+00  0.00000000000E+00  0.13273285949E+04  0.13273285949E+04  0.00000000000E+00 0. -1.
         -2   -1    0    0    0  501 -0.00000000000E+00 -0.00000000000E+00 -0.51814765438E+03  0.51814765438E+03  0.00000000000E+00 0.  1.
        -24    2    1    2    0    0  0.10005436053E+03  0.10980922623E+03  0.91293127823E+03  0.92840167861E+03  0.80107533050E+02 0.  0.
        254    2    1    2    0    0 -0.10005436053E+03 -0.10980922623E+03 -0.10375033771E+03  0.91707457066E+03  0.89899538061E+03 0.  0.
         23    2    4    4    0    0 -0.35369956212E+03  0.20348734773E+03 -0.24011363444E+03  0.48235213725E+03  0.92187558486E+02 0.  0.
         23    2    4    4    0    0  0.25364520159E+03 -0.31329657396E+03  0.13636329672E+03  0.43472243341E+03  0.88870770636E+02 0.  0.
          3    1    3    3  502    0  0.40778984750E+02  0.75196401163E+02  0.68610201045E+03  0.69141405329E+03  0.00000000000E+00 0. -1.
         -4    1    3    3    0  502  0.59275375783E+02  0.34612825069E+02  0.22682926778E+03  0.23698762532E+03  0.00000000000E+00 0.  1.
         11    1    5    5    0    0 -0.23108942577E+03  0.18021930218E+03 -0.15763360217E+03  0.33276068294E+03  0.00000000000E+00 0. -1.
        -11    1    5    5    0    0 -0.12261013635E+03  0.23268045555E+02 -0.82480032269E+02  0.14959145431E+03  0.00000000000E+00 0.  1.
          1    1    6    6  503    0  0.18591024983E+03 -0.25660832550E+03  0.70713758921E+02  0.32467043199E+03  0.00000000000E+00 0. -1.
         -1    1    6    6    0  503  0.67734951760E+02 -0.56688248463E+02  0.65649537802E+02  0.11005200142E+03  0.00000000000E+00 0.  1.
<mgrwt>
<rscale>  0 0.16586165E+04</rscale>
<asrwt>0</asrwt>
<pdfrwt beam="1">  1        1 0.20420440E+00 0.16586165E+04</pdfrwt>
<pdfrwt beam="2">  1       -2 0.79715024E-01 0.16586165E+04</pdfrwt>
<totfact> 0.10095323E+01</totfact>
</mgrwt>
</event>
<event>
12    4  0.4381187E-008  0.1847350E+04  0.7818608E-02  0.8681517E-01
          1   -1    0    0  501    0  0.00000000000E+00  0.00000000000E+00  0.20774049563E+04  0.20774049563E+04  0.00000000000E+00 0. -1.
         -2   -1    0    0    0  501 -0.00000000000E+00 -0.00000000000E+00 -0.41069312191E+03  0.41069312191E+03  0.00000000000E+00 0.  1.
        -24    2    1    2    0    0 -0.26299927145E+02  0.69902962135E+03  0.50198735805E+03  0.86294160446E+03  0.57817016361E+02 0.  0.
        254    2    1    2    0    0  0.26299927145E+02 -0.69902962135E+03  0.11647244764E+04  0.16251564738E+04  0.89174904580E+03 0.  0.
         23    2    4    4    0    0  0.36847717659E+02  0.12443347020E+03 -0.38952670698E+02  0.16391341330E+03  0.92243448030E+02 0.  0.
         23    2    4    4    0    0 -0.10547790514E+02 -0.82346309155E+03  0.12036771471E+04  0.14612430605E+04  0.90498001965E+02 0.  0.
          1    1    3    3  502    0  0.25960653454E+01  0.29269160226E+03  0.24092012313E+03  0.37910106742E+03  0.00000000000E+00 0. -1.
         -2    1    3    3    0  502 -0.28895992490E+02  0.40633801909E+03  0.26106723491E+03  0.48384053704E+03  0.00000000000E+00 0.  1.
         11    1    5    5    0    0 -0.29864861608E+02  0.31599608528E+02 -0.20669508258E+02  0.48142224602E+02  0.00000000000E+00 0. -1.
        -11    1    5    5    0    0  0.66712579266E+02  0.92833861668E+02 -0.18283162440E+02  0.11577118870E+03  0.00000000000E+00 0.  1.
          2    1    6    6  503    0 -0.12278706291E+02 -0.56092412386E+03  0.74350708735E+03  0.93144480690E+03  0.00000000000E+00 0.  1.
         -2    1    6    6    0  503  0.17309157768E+01 -0.26253896769E+03  0.46017005970E+03  0.52979825356E+03  0.00000000000E+00 0. -1.
<mgrwt>
<rscale>  0 0.18473505E+04</rscale>
<asrwt>0</asrwt>
<pdfrwt beam="1">  1        1 0.31960076E+00 0.18473505E+04</pdfrwt>
<pdfrwt beam="2">  1       -2 0.63183558E-01 0.18473505E+04</pdfrwt>
<totfact> 0.50559869E+00</totfact>
</mgrwt>
</event>
<event>
12    4  0.4381187E-008  0.1413997E+04  0.7818608E-02  0.8943749E-01
          1   -1    0    0  501    0  0.00000000000E+00  0.00000000000E+00  0.10789091160E+04  0.10789091160E+04  0.00000000000E+00 0. -1.
         -2   -1    0    0    0  501 -0.00000000000E+00 -0.00000000000E+00 -0.46328927295E+03  0.46328927295E+03  0.00000000000E+00 0.  1.
        -24    2    1    2    0    0  0.14613855816E+03 -0.24512188595E+03 -0.14157762213E+03  0.32841570425E+03  0.79821266341E+02 0.  0.
        254    2    1    2    0    0 -0.14613855816E+03  0.24512188595E+03  0.75719746518E+03  0.12137826847E+04  0.90469839575E+03 0.  0.
         23    2    4    4    0    0  0.10460287538E+03  0.52859136833E+02 -0.17264789681E+03  0.22746556164E+03  0.90539690613E+02 0.  0.
         23    2    4    4    0    0 -0.25074143354E+03  0.19226274912E+03  0.92984536199E+03  0.98631712307E+03  0.91503217704E+02 0.  0.
          1    1    3    3  502    0  0.36499429923E+02 -0.14341514930E+02 -0.31110512086E+02  0.50057480934E+02  0.00000000000E+00 0. -1.
         -2    1    3    3    0  502  0.10963912824E+03 -0.23078037102E+03 -0.11046711004E+03  0.27835822332E+03  0.00000000000E+00 0.  1.
         11    1    5    5    0    0  0.70633110379E+02 -0.69384349267E+01 -0.49882169931E+02  0.86749115489E+02  0.00000000000E+00 0. -1.
        -11    1    5    5    0    0  0.33969765004E+02  0.59797571760E+02 -0.12276572688E+03  0.14071644615E+03  0.00000000000E+00 0.  1.
          1    1    6    6  503    0 -0.22017623671E+02  0.17393066743E+02  0.28044297146E+02  0.39670859901E+02  0.00000000000E+00 0. -1.
         -1    1    6    6    0  503 -0.22872380987E+03  0.17486968237E+03  0.90180106485E+03  0.94664626317E+03  0.00000000000E+00 0.  1.
<mgrwt>
<rscale>  0 0.14139972E+04</rscale>
<asrwt>0</asrwt>
<pdfrwt beam="1">  1        1 0.16598602E+00 0.14139972E+04</pdfrwt>
<pdfrwt beam="2">  1       -2 0.71275273E-01 0.14139972E+04</pdfrwt>
<totfact> 0.20073025E+01</totfact>
</mgrwt>
</event>
<event>
12    4  0.4381187E-008  0.2080821E+04  0.7818608E-02  0.8569739E-01
          3   -1    0    0  501    0  0.00000000000E+00  0.00000000000E+00  0.50288809822E+04  0.50288809822E+04  0.00000000000E+00 0. -1.
         -2   -1    0    0    0  501 -0.00000000000E+00 -0.00000000000E+00 -0.21524756477E+03  0.21524756477E+03  0.00000000000E+00 0.  1.
        -24    2    1    2    0    0  0.24645677242E+03  0.41562215490E+03  0.37158770275E+04  0.37480615297E+04  0.82100127601E+02 0.  0.
        254    2    1    2    0    0 -0.24645677242E+03 -0.41562215490E+03  0.10977563899E+04  0.14960670172E+04  0.89423973972E+03 0.  0.
         23    2    4    4    0    0 -0.29529327572E+03 -0.72283799099E+01 -0.12339362448E+02  0.30865675908E+03  0.88692541398E+02 0.  0.
         23    2    4    4    0    0  0.48836503304E+02 -0.40839377499E+03  0.11100957524E+04  0.11874102581E+04  0.91978596376E+02 0.  0.
          1    1    3    3  502    0  0.25278913715E+03  0.40366755506E+03  0.36329833512E+04  0.36640712156E+04  0.00000000000E+00 0. -1.
         -2    1    3    3    0  502 -0.63323647347E+01  0.11954599832E+02  0.82893676249E+02  0.83990314099E+02  0.00000000000E+00 0.  1.
         11    1    5    5    0    0 -0.18731056901E+03 -0.47085719633E+02 -0.12660223967E+02  0.19355256529E+03  0.00000000000E+00 0.  1.
        -11    1    5    5    0    0 -0.10798270671E+03  0.39857339723E+02  0.32086151916E+00  0.11510419380E+03  0.00000000000E+00 0. -1.
          3    1    6    6  503    0  0.36925733597E+02 -0.66237185961E+02  0.26388612418E+03  0.27456649675E+03  0.00000000000E+00 0. -1.
         -3    1    6    6    0  503  0.11910769707E+02 -0.34215658903E+03  0.84620962820E+03  0.91284376139E+03  0.00000000000E+00 0.  1.
<mgrwt>
<rscale>  0 0.20808214E+04</rscale>
<asrwt>0</asrwt>
<pdfrwt beam="1">  1        3 0.77367390E+00 0.20808214E+04</pdfrwt>
<pdfrwt beam="2">  1       -2 0.33115014E-01 0.20808214E+04</pdfrwt>
<totfact> 0.33889766E-03</totfact>
</mgrwt>
</event>
<event>
12    4  0.4381187E-008  0.2639673E+04  0.7818608E-02  0.8354849E-01
         -2   -1    0    0    0  501 -0.00000000000E+00  0.00000000000E+00  0.11071582079E+04  0.11071582079E+04  0.00000000000E+00 0.  1.
          1   -1    0    0  501    0  0.00000000000E+00 -0.00000000000E+00 -0.15733690614E+04  0.15733690614E+04  0.00000000000E+00 0. -1.
        -24    2    1    2    0    0 -0.24014851738E+03  0.31523178920E+03 -0.13207406259E+04  0.13810554539E+04  0.76915373266E+02 0.  0.
        254    2    1    2    0    0  0.24014851738E+03 -0.31523178920E+03  0.85452977243E+03  0.12994718153E+04  0.89518907254E+03 0.  0.
         23    2    4    4    0    0 -0.19855419461E+03  0.19511727073E+03  0.33406572497E+03  0.44430147027E+03  0.91155747772E+02 0.  0.
         23    2    4    4    0    0  0.43870271199E+03 -0.51034905993E+03  0.52046404746E+03  0.85517034507E+03  0.86702144768E+02 0.  0.
          3    1    3    3  502    0 -0.19224022753E+03  0.25662146592E+03 -0.11579747322E+04  0.12015474865E+04  0.00000000000E+00 0. -1.
         -4    1    3    3    0  502 -0.47908289853E+02  0.58610323278E+02 -0.16276589370E+03  0.17950796747E+03  0.00000000000E+00 0.  1.
         11    1    5    5    0    0 -0.78327235364E+02  0.11699812581E+03  0.21949097208E+03  0.26076810400E+03  0.00000000000E+00 0.  1.
        -11    1    5    5    0    0 -0.12022695925E+03  0.78119144928E+02  0.11457475289E+03  0.18353336627E+03  0.00000000000E+00 0. -1.
          3    1    6    6  503    0  0.22639340069E+03 -0.29138177583E+03  0.23533081910E+03  0.43765043766E+03  0.00000000000E+00 0.  1.
         -3    1    6    6    0  503  0.21230931130E+03 -0.21896728410E+03  0.28513322836E+03  0.41751990741E+03  0.00000000000E+00 0. -1.
<mgrwt>
<rscale>  0 0.26396731E+04</rscale>
<asrwt>0</asrwt>
<pdfrwt beam="1">  1        1 0.24205678E+00 0.26396731E+04</pdfrwt>
<pdfrwt beam="2">  1       -2 0.17033203E+00 0.26396731E+04</pdfrwt>
<totfact> 0.95119160E-01</totfact>
</mgrwt>
</event>
<event>
12    4  0.4381187E-008  0.2306978E+04  0.7818608E-02  0.8475175E-01
         -2   -1    0    0    0  501 -0.00000000000E+00  0.00000000000E+00  0.20913605293E+04  0.20913605293E+04  0.00000000000E+00 0.  1.
          1   -1    0    0  501    0  0.00000000000E+00 -0.00000000000E+00 -0.63620662622E+03  0.63620662622E+03  0.00000000000E+00 0. -1.
        -24    2    1    2    0    0  0.30366240139E+02 -0.94389963970E+03  0.98388705989E+03  0.13661750471E+04  0.80820012680E+02 0.  0.
        254    2    1    2    0    0 -0.30366240139E+02  0.94389963970E+03  0.47126684322E+03  0.13613921084E+04  0.85989964354E+03 0.  0.
         23    2    4    4    0    0  0.13469692912E+03 -0.96924800946E+02  0.18521128900E+03  0.26498954733E+03  0.91534468201E+02 0.  0.
         23    2    4    4    0    0 -0.16506316926E+03  0.10408244406E+04  0.28605555422E+03  0.10964025611E+04  0.98536438684E+02 0.  0.
          1    1    3    3  502    0  0.23710847147E+02 -0.58685352126E+03  0.66707532802E+03  0.88879061254E+03  0.00000000000E+00 0. -1.
         -2    1    3    3    0  502  0.66553929913E+01 -0.35704611844E+03  0.31681173187E+03  0.47738443460E+03  0.00000000000E+00 0.  1.
         11    1    5    5    0    0  0.85725557666E+02 -0.33968872940E+02  0.42568734127E+02  0.10156206325E+03  0.00000000000E+00 0.  1.
        -11    1    5    5    0    0  0.48971371454E+02 -0.62955928006E+02  0.14264255487E+03  0.16342748408E+03  0.00000000000E+00 0. -1.
          2    1    6    6  503    0 -0.99696400196E+01  0.20014475364E+02  0.20359896539E+02  0.30240673493E+02  0.00000000000E+00 0.  1.
         -2    1    6    6    0  503 -0.15509352924E+03  0.10208099653E+04  0.26569565768E+03  0.10661618876E+04  0.00000000000E+00 0. -1.
<mgrwt>
<rscale>  0 0.23069785E+04</rscale>
<asrwt>0</asrwt>
<pdfrwt beam="1">  1        1 0.97877943E-01 0.23069785E+04</pdfrwt>
<pdfrwt beam="2">  1       -2 0.32174777E+00 0.23069785E+04</pdfrwt>
<totfact> 0.58159487E-01</totfact>
</mgrwt>
</event>
<event>
12    4  0.4381187E-008  0.2988725E+04  0.7818608E-02  0.8246958E-01
          1   -1    0    0  501    0  0.00000000000E+00  0.00000000000E+00  0.17684325660E+04  0.17684325660E+04  0.00000000000E+00 0. -1.
         -2   -1    0    0    0  501 -0.00000000000E+00 -0.00000000000E+00 -0.12627678531E+04  0.12627678531E+04  0.00000000000E+00 0.  1.
        -24    2    1    2    0    0  0.25044714342E+03  0.47427777098E+03 -0.10342161958E+04  0.11678029174E+04  0.80606071177E+02 0.  0.
        254    2    1    2    0    0 -0.25044714342E+03 -0.47427777098E+03  0.15398809087E+04  0.18633975016E+04  0.90186133104E+03 0.  0.
         23    2    4    4    0    0  0.32138046100E+03 -0.16515569919E+03  0.38788961009E+03  0.53751256248E+03  0.88879691238E+02 0.  0.
         23    2    4    4    0    0 -0.57182760442E+03 -0.30912207179E+03  0.11519912986E+04  0.13258849391E+04  0.91343611485E+02 0.  0.
          1    1    3    3  502    0  0.37365337602E+02  0.25041832834E+02 -0.94290651262E+02  0.10447003762E+03  0.00000000000E+00 0. -1.
         -2    1    3    3    0  502  0.21308180582E+03  0.44923593814E+03 -0.93992554450E+03  0.10633328798E+04  0.00000000000E+00 0.  1.
         11    1    5    5    0    0  0.67852690578E+02 -0.28972976584E+02  0.33610850455E+02  0.81074720222E+02  0.00000000000E+00 0.  1.
        -11    1    5    5    0    0  0.25352777043E+03 -0.13618272260E+03  0.35427875963E+03  0.45643784225E+03  0.00000000000E+00 0. -1.
          1    1    6    6  503    0 -0.38805575298E+03 -0.25605045534E+03  0.80043725732E+03  0.92566133440E+03  0.00000000000E+00 0. -1.
         -1    1    6    6    0  503 -0.18377185144E+03 -0.53071616454E+02  0.35155404127E+03  0.40022360474E+03  0.00000000000E+00 0.  1.
<mgrwt>
<rscale>  0 0.29887253E+04</rscale>
<asrwt>0</asrwt>
<pdfrwt beam="1">  1        1 0.27206655E+00 0.29887253E+04</pdfrwt>
<pdfrwt beam="2">  1       -2 0.19427198E+00 0.29887253E+04</pdfrwt>
<totfact> 0.46508029E-01</totfact>
</mgrwt>
</event>
<event>
12    4  0.4381187E-008  0.2268957E+04  0.7818608E-02  0.8490262E-01
          1   -1    0    0  501    0  0.00000000000E+00  0.00000000000E+00  0.13034129442E+04  0.13034129442E+04  0.00000000000E+00 0. -1.
         -2   -1    0    0    0  501 -0.00000000000E+00 -0.00000000000E+00 -0.98743950824E+03  0.98743950824E+03  0.00000000000E+00 0.  1.
        -24    2    1    2    0    0 -0.82880253688E+03  0.49440687387E+03  0.13493315142E+03  0.97773855952E+03  0.80087036113E+02 0.  0.
        254    2    1    2    0    0  0.82880253688E+03 -0.49440687387E+03  0.18104028455E+03  0.13131138929E+04  0.87186048717E+03 0.  0.
         23    2    4    4    0    0  0.21407170870E+03 -0.51073710063E+02 -0.32065590061E+03  0.39957494450E+03  0.91677201886E+02 0.  0.
         23    2    4    4    0    0  0.61473082817E+03 -0.44333316381E+03  0.50169618516E+03  0.91353894842E+03  0.91739102010E+02 0.  0.
          1    1    3    3  502    0 -0.55818083896E+03  0.28924138611E+03  0.80524042164E+02  0.63380639772E+03  0.00000000000E+00 0. -1.
         -2    1    3    3    0  502 -0.27062169792E+03  0.20516548776E+03  0.54409109256E+02  0.34393216180E+03  0.00000000000E+00 0.  1.
         11    1    5    5    0    0  0.86225159042E+01 -0.22260704633E+02 -0.97038505333E+01  0.25769196077E+02  0.00000000000E+00 0. -1.
        -11    1    5    5    0    0  0.20544919280E+03 -0.28813005430E+02 -0.31095205008E+03  0.37380574842E+03  0.00000000000E+00 0.  1.
          4    1    6    6  503    0  0.15179007513E+03 -0.66434432881E+02  0.92121146290E+02  0.18957865485E+03  0.00000000000E+00 0. -1.
         -4    1    6    6    0  503  0.46294075304E+03 -0.37689873093E+03  0.40957503887E+03  0.72396029357E+03  0.00000000000E+00 0.  1.
<mgrwt>
<rscale>  0 0.22689570E+04</rscale>
<asrwt>0</asrwt>
<pdfrwt beam="1">  1        1 0.20052507E+00 0.22689570E+04</pdfrwt>
<pdfrwt beam="2">  1       -2 0.15191377E+00 0.22689570E+04</pdfrwt>
<totfact> 0.20724612E+00</totfact>
</mgrwt>
</event>
<event>
12    4  0.4381187E-008  0.1545947E+04  0.7818608E-02  0.8854461E-01
         -2   -1    0    0    0  501 -0.00000000000E+00  0.00000000000E+00  0.12623464426E+04  0.12623464426E+04  0.00000000000E+00 0.  1.
          1   -1    0    0  501    0  0.00000000000E+00 -0.00000000000E+00 -0.47331559568E+03  0.47331559568E+03  0.00000000000E+00 0. -1.
        -24    2    1    2    0    0 -0.41813504814E+03  0.67700581883E+02 -0.49927309823E+02  0.43389841842E+03  0.79717087027E+02 0.  0.
        254    2    1    2    0    0  0.41813504814E+03 -0.67700581883E+02  0.83895815673E+03  0.13017636198E+04  0.90073161705E+03 0.  0.
         23    2    4    4    0    0 -0.14164623735E+03 -0.30347485212E+03  0.14931088941E+03  0.37824861118E+03  0.92831178699E+02 0.  0.
         23    2    4    4    0    0  0.55978128550E+03  0.23577427024E+03  0.68964726731E+03  0.92351500866E+03  0.91225127118E+02 0.  0.
          3    1    3    3  502    0 -0.37730424818E+03  0.45453471157E+02 -0.63853954074E+02  0.38535936629E+03  0.00000000000E+00 0. -1.
         -4    1    3    3    0  502 -0.40830799962E+02  0.22247110726E+02  0.13926644252E+02  0.48539052126E+02  0.00000000000E+00 0.  1.
         11    1    5    5    0    0 -0.27482979058E+02 -0.14175945378E+03  0.95467130201E+02  0.17310410111E+03  0.00000000000E+00 0. -1.
        -11    1    5    5    0    0 -0.11416325830E+03 -0.16171539834E+03  0.53843759211E+02  0.20514451007E+03  0.00000000000E+00 0.  1.
          1    1    6    6  503    0 -0.15159605839E+01  0.67283559319E+01  0.29330225636E+01  0.74947669341E+01  0.00000000000E+00 0. -1.
         -1    1    6    6    0  503  0.56129724608E+03  0.22904591430E+03  0.68671424475E+03  0.91602024173E+03  0.00000000000E+00 0.  1.
<mgrwt>
<rscale>  0 0.15459473E+04</rscale>
<asrwt>0</asrwt>
<pdfrwt beam="1">  1        1 0.72817784E-01 0.15459473E+04</pdfrwt>
<pdfrwt beam="2">  1       -2 0.19420714E+00 0.15459473E+04</pdfrwt>
<totfact> 0.58465923E+00</totfact>
</mgrwt>
</event>
<event>
12    4  0.4381187E-008  0.1445495E+04  0.7818608E-02  0.8921530E-01
         -2   -1    0    0    0  501 -0.00000000000E+00  0.00000000000E+00  0.19860276681E+04  0.19860276681E+04  0.00000000000E+00 0.  1.
          1   -1    0    0  501    0  0.00000000000E+00 -0.00000000000E+00 -0.26301937169E+03  0.26301937169E+03  0.00000000000E+00 0. -1.
        -24    2    1    2    0    0  0.46694562041E+02 -0.76025797483E+01 -0.14761099296E+03  0.17404932792E+03  0.79157955777E+02 0.  0.
        254    2    1    2    0    0 -0.46694562041E+02  0.76025797483E+01  0.18706192894E+04  0.20749977119E+04  0.89675013086E+03 0.  0.
         23    2    4    4    0    0 -0.23715419126E+02  0.66118519640E+02 -0.67893896729E+02  0.13331504833E+03  0.90715164970E+02 0.  0.
         23    2    4    4    0    0 -0.22979142915E+02 -0.58515939892E+02  0.19385131861E+04  0.19416826635E+04  0.91356647319E+02 0.  0.
          1    1    3    3  502    0  0.96684600172E+00 -0.10598012456E+02 -0.12016067782E+03  0.12063101240E+03  0.00000000000E+00 0. -1.
         -2    1    3    3    0  502  0.45727716040E+02  0.29954327081E+01 -0.27450315144E+02  0.53418315519E+02  0.00000000000E+00 0.  1.
         11    1    5    5    0    0  0.31956590020E+02  0.10898165001E+02 -0.81455222431E+01  0.34732451378E+02  0.00000000000E+00 0. -1.
        -11    1    5    5    0    0 -0.55672009146E+02  0.55220354640E+02 -0.59748374486E+02  0.98582596956E+02  0.00000000000E+00 0.  1.
          2    1    6    6  503    0 -0.43548065412E+02  0.51922077281E+01  0.80679266365E+03  0.80798378396E+03  0.00000000000E+00 0. -1.
         -2    1    6    6    0  503  0.20568922497E+02 -0.63708147620E+02  0.11317205225E+04  0.11336988796E+04  0.00000000000E+00 0.  1.
<mgrwt>
<rscale>  0 0.14454947E+04</rscale>
<asrwt>0</asrwt>
<pdfrwt beam="1">  1        1 0.40464520E-01 0.14454947E+04</pdfrwt>
<pdfrwt beam="2">  1       -2 0.30554271E+00 0.14454947E+04</pdfrwt>
<totfact> 0.26067917E+00</totfact>
</mgrwt>
</event>
<event>
12    4  0.4381187E-008  0.2728525E+04  0.7818608E-02  0.8325809E-01
          1   -1    0    0  501    0  0.00000000000E+00  0.00000000000E+00  0.11628660723E+04  0.11628660723E+04  0.00000000000E+00 0. -1.
         -2   -1    0    0    0  501 -0.00000000000E+00 -0.00000000000E+00 -0.16005382499E+04  0.16005382499E+04  0.00000000000E+00 0.  1.
        -24    2    1    2    0    0  0.27305506856E+03 -0.47144904348E+03 -0.12937476559E+04  0.14063367843E+04  0.84716485008E+02 0.  0.
        254    2    1    2    0    0 -0.27305506856E+03  0.47144904348E+03  0.85607547828E+03  0.13570675379E+04  0.90107924558E+03 0.  0.
         23    2    4    4    0    0 -0.48407758261E+03  0.60909472957E+03  0.62135594403E+03  0.10000294631E+04  0.92995818305E+02 0.  0.
         23    2    4    4    0    0  0.21102251405E+03 -0.13764568609E+03  0.23471953425E+03  0.35703807483E+03  0.94372086894E+02 0.  0.
          1    1    3    3  502    0  0.62225160072E+02 -0.68221689752E+02 -0.16072491700E+03  0.18536091401E+03  0.00000000000E+00 0. -1.
         -2    1    3    3    0  502  0.21082990849E+03 -0.40322735373E+03 -0.11330227389E+04  0.12209758703E+04  0.00000000000E+00 0.  1.
         11    1    5    5    0    0 -0.33198712735E+03  0.48059801869E+03  0.45032130243E+03  0.73754944493E+03  0.00000000000E+00 0. -1.
        -11    1    5    5    0    0 -0.15209045526E+03  0.12849671088E+03  0.17103464160E+03  0.26248001812E+03  0.00000000000E+00 0.  1.
          3    1    6    6  503    0  0.12638071375E+03 -0.13269839407E+03  0.17448663715E+03  0.25303465205E+03  0.00000000000E+00 0. -1.
         -3    1    6    6    0  503  0.84641800302E+02 -0.49472920244E+01  0.60232897104E+02  0.10400342278E+03  0.00000000000E+00 0.  1.
<mgrwt>
<rscale>  0 0.27285246E+04</rscale>
<asrwt>0</asrwt>
<pdfrwt beam="1">  1        1 0.17890247E+00 0.27285246E+04</pdfrwt>
<pdfrwt beam="2">  1       -2 0.24623665E+00 0.27285246E+04</pdfrwt>
<totfact> 0.58960174E-01</totfact>
</mgrwt>
</event>
<event>
12    4  0.4381187E-008  0.2386492E+04  0.7818608E-02  0.8444578E-01
         -2   -1    0    0    0  501 -0.00000000000E+00  0.00000000000E+00  0.46534957531E+03  0.46534957531E+03  0.00000000000E+00 0.  1.
          1   -1    0    0  501    0  0.00000000000E+00 -0.00000000000E+00 -0.30597119477E+04  0.30597119477E+04  0.00000000000E+00 0. -1.
        -24    2    1    2    0    0 -0.22006226401E+02 -0.91973985374E+03 -0.45687640701E+03  0.10302830312E+04  0.79632911153E+02 0.  0.
        254    2    1    2    0    0  0.22006226401E+02  0.91973985374E+03 -0.21374859654E+04  0.24947784918E+04  0.89925958346E+03 0.  0.
         23    2    4    4    0    0 -0.83935900017E+02  0.72752917260E+03 -0.63592461745E+03  0.97420682334E+03  0.91295581865E+02 0.  0.
         23    2    4    4    0    0  0.10594212642E+03  0.19221068114E+03 -0.15015613479E+04  0.15205716685E+04  0.96348519776E+02 0.  0.
          1    1    3    3  502    0 -0.27139591040E+01  0.67530285556E+00 -0.94802855144E+00  0.29530265998E+01  0.00000000000E+00 0. -1.
         -2    1    3    3    0  502 -0.19292267297E+02 -0.92041515660E+03 -0.45592837846E+03  0.10273300046E+04  0.00000000000E+00 0.  1.
         11    1    5    5    0    0 -0.39143766646E+02  0.59023654546E+03 -0.48100679644E+03  0.76241652152E+03  0.00000000000E+00 0. -1.
        -11    1    5    5    0    0 -0.44792133371E+02  0.13729262714E+03 -0.15491782101E+03  0.21179030182E+03  0.00000000000E+00 0.  1.
          4    1    6    6  503    0  0.11398685811E+02  0.11789592847E+03 -0.81419010995E+03  0.82276054543E+03  0.00000000000E+00 0. -1.
         -4    1    6    6    0  503  0.94543440608E+02  0.74314752670E+02 -0.68737123798E+03  0.69781112303E+03  0.00000000000E+00 0.  1.
<mgrwt>
<rscale>  0 0.23864917E+04</rscale>
<asrwt>0</asrwt>
<pdfrwt beam="1">  1        1 0.47072490E+00 0.23864917E+04</pdfrwt>
<pdfrwt beam="2">  1       -2 0.71592244E-01 0.23864917E+04</pdfrwt>
<totfact> 0.75454604E-01</totfact>
</mgrwt>
</event>
<event>
12    4  0.4381187E-008  0.1263399E+04  0.7818608E-02  0.9059105E-01
          1   -1    0    0  501    0  0.00000000000E+00  0.00000000000E+00  0.88125692664E+03  0.88125692664E+03  0.00000000000E+00 0. -1.
         -2   -1    0    0    0  501 -0.00000000000E+00 -0.00000000000E+00 -0.45281255022E+03  0.45281255022E+03  0.00000000000E+00 0.  1.
        -24    2    1    2    0    0 -0.24646385329E+03 -0.10051515834E+03 -0.21116117629E+02  0.27992565400E+03  0.84052086879E+02 0.  0.
        254    2    1    2    0    0  0.24646385329E+03  0.10051515834E+03  0.44956049405E+03  0.10541438229E+04  0.91556913088E+03 0.  0.
         23    2    4    4    0    0  0.54159009444E+03 -0.12094827652E+03  0.33947782614E+03  0.65807472241E+03  0.99341984247E+02 0.  0.
         23    2    4    4    0    0 -0.29512624115E+03  0.22146343486E+03  0.11008266791E+03  0.39606910045E+03  0.92773850596E+02 0.  0.
          3    1    3    3  502    0 -0.19865541523E+02 -0.27153143637E+02  0.18624076874E+02  0.38455028134E+02  0.00000000000E+00 0. -1.
         -4    1    3    3    0  502 -0.22659831177E+03 -0.73362014706E+02 -0.39740194502E+02  0.24147062587E+03  0.00000000000E+00 0.  1.
         11    1    5    5    0    0  0.33251725734E+03 -0.25794151028E+02  0.21496602026E+03  0.39679144966E+03  0.00000000000E+00 0.  1.
        -11    1    5    5    0    0  0.20907283710E+03 -0.95154125493E+02  0.12451180588E+03  0.26128327274E+03  0.00000000000E+00 0. -1.
          3    1    6    6  503    0 -0.16925848565E+03  0.17536924260E+03  0.93324155892E+02  0.26098314943E+03  0.00000000000E+00 0. -1.
         -3    1    6    6    0  503 -0.12586775551E+03  0.46094192269E+02  0.16758512014E+02  0.13508595102E+03  0.00000000000E+00 0.  1.
<mgrwt>
<rscale>  0 0.12633989E+04</rscale>
<asrwt>0</asrwt>
<pdfrwt beam="1">  1        1 0.13557799E+00 0.12633989E+04</pdfrwt>
<pdfrwt beam="2">  1       -2 0.69663469E-01 0.12633989E+04</pdfrwt>
<totfact> 0.30589654E+01</totfact>
</mgrwt>
</event>
<event>
12    4  0.4381187E-008  0.2059187E+04  0.7818608E-02  0.8579438E-01
          1   -1    0    0  501    0  0.00000000000E+00  0.00000000000E+00  0.88880856430E+03  0.88880856430E+03  0.00000000000E+00 0. -1.
         -2   -1    0    0    0  501 -0.00000000000E+00 -0.00000000000E+00 -0.11926786538E+04  0.11926786538E+04  0.00000000000E+00 0.  1.
        -24    2    1    2    0    0 -0.16267061320E+03  0.80844468092E+03  0.30506217355E+02  0.82920379192E+03  0.81263575690E+02 0.  0.
        254    2    1    2    0    0  0.16267061320E+03 -0.80844468092E+03 -0.33437630690E+03  0.12522834262E+04  0.88111391684E+03 0.  0.
         23    2    4    4    0    0  0.34276644252E+03 -0.77347002874E+03  0.89175396154E+01  0.85152969080E+03  0.96325346250E+02 0.  0.
         23    2    4    4    0    0 -0.18009582932E+03 -0.34974652186E+02 -0.34329384651E+03  0.40075373541E+03  0.95368534421E+02 0.  0.
          1    1    3    3  502    0 -0.16939437693E+03  0.70911643385E+03  0.25034438785E+02  0.72949797451E+03  0.00000000000E+00 0. -1.
         -2    1    3    3    0  502  0.67237637306E+01  0.99328247070E+02  0.54717785702E+01  0.99705817411E+02  0.00000000000E+00 0.  1.
         11    1    5    5    0    0  0.30184250772E+02 -0.63637367244E+02  0.27722219661E+02  0.75692304545E+02  0.00000000000E+00 0.  1.
        -11    1    5    5    0    0  0.31258219175E+03 -0.70983266149E+03 -0.18804680046E+02  0.77583738626E+03  0.00000000000E+00 0. -1.
          4    1    6    6  503    0 -0.10881772408E+03  0.67265089836E+01 -0.11729323472E+03  0.16013820877E+03  0.00000000000E+00 0. -1.
         -4    1    6    6    0  503 -0.71278105243E+02 -0.41701161169E+02 -0.22600061179E+03  0.24061552664E+03  0.00000000000E+00 0.  1.
<mgrwt>
<rscale>  0 0.20591872E+04</rscale>
<asrwt>0</asrwt>
<pdfrwt beam="1">  1        1 0.13673978E+00 0.20591872E+04</pdfrwt>
<pdfrwt beam="2">  1       -2 0.18348902E+00 0.20591872E+04</pdfrwt>
<totfact> 0.25788531E+00</totfact>
</mgrwt>
</event>
<event>
12    4  0.4381187E-008  0.1660306E+04  0.7818608E-02  0.8784333E-01
         -2   -1    0    0    0  501 -0.00000000000E+00  0.00000000000E+00  0.99509392165E+03  0.99509392165E+03  0.00000000000E+00 0.  1.
          1   -1    0    0  501    0  0.00000000000E+00 -0.00000000000E+00 -0.69255163827E+03  0.69255163827E+03  0.00000000000E+00 0. -1.
        -24    2    1    2    0    0  0.57581180313E+03  0.17872106526E+02  0.73762426508E+02  0.58616359689E+03  0.79172103297E+02 0.  0.
        254    2    1    2    0    0 -0.57581180313E+03 -0.17872106526E+02  0.22877985687E+03  0.11014819630E+04  0.91051833981E+03 0.  0.
         23    2    4    4    0    0 -0.45470063641E+03 -0.38217032000E+03 -0.69495415944E+02  0.60581872628E+03  0.96849853109E+02 0.  0.
         23    2    4    4    0    0 -0.12111116673E+03  0.36429821347E+03  0.29827527281E+03  0.49566323674E+03  0.96606432692E+02 0.  0.
          3    1    3    3  502    0  0.47616362167E+03  0.70344810143E+01  0.89929344607E+02  0.48463240249E+03  0.00000000000E+00 0. -1.
         -4    1    3    3    0  502  0.99648181464E+02  0.10837625512E+02 -0.16166918099E+02  0.10153119440E+03  0.00000000000E+00 0.  1.
         11    1    5    5    0    0 -0.16080444676E+03 -0.13293685649E+03 -0.71244409884E+02  0.22046778415E+03  0.00000000000E+00 0. -1.
        -11    1    5    5    0    0 -0.29389618965E+03 -0.24923346351E+03  0.17489939408E+01  0.38535094213E+03  0.00000000000E+00 0.  1.
          4    1    6    6  503    0 -0.36970901496E+02  0.22347219495E+03  0.21231702314E+03  0.31045963955E+03  0.00000000000E+00 0.  1.
         -4    1    6    6    0  503 -0.84140265229E+02  0.14082601852E+03  0.85958249677E+02  0.18520359719E+03  0.00000000000E+00 0. -1.
<mgrwt>
<rscale>  0 0.16603059E+04</rscale>
<asrwt>0</asrwt>
<pdfrwt beam="1">  1        1 0.10654641E+00 0.16603059E+04</pdfrwt>
<pdfrwt beam="2">  1       -2 0.15309137E+00 0.16603059E+04</pdfrwt>
<totfact> 0.65655455E+00</totfact>
</mgrwt>
</event>
<event>
12    4  0.4381187E-008  0.1601894E+04  0.7818608E-02  0.8819385E-01
         -2   -1    0    0    0  501 -0.00000000000E+00  0.00000000000E+00  0.31230851115E+03  0.31230851115E+03  0.00000000000E+00 0.  1.
          1   -1    0    0  501    0  0.00000000000E+00 -0.00000000000E+00 -0.20541101094E+04  0.20541101094E+04  0.00000000000E+00 0. -1.
        -24    2    1    2    0    0  0.37349540196E+03 -0.26205412597E+03 -0.18618568140E+03  0.49908656134E+03  0.79063945801E+02 0.  0.
        254    2    1    2    0    0 -0.37349540196E+03  0.26205412597E+03 -0.15556159168E+04  0.18673320592E+04  0.92672377675E+03 0.  0.
         23    2    4    4    0    0 -0.33132216893E+03 -0.25990209469E+03 -0.36969753933E+03  0.56781929690E+03  0.91755135569E+02 0.  0.
         23    2    4    4    0    0 -0.42173233033E+02  0.52195622066E+03 -0.11859183775E+04  0.12995127623E+04  0.90078540242E+02 0.  0.
          1    1    3    3  502    0  0.13233861396E+03 -0.50747033133E+02 -0.44647566541E+02  0.14860072448E+03  0.00000000000E+00 0. -1.
         -2    1    3    3    0  502  0.24115678800E+03 -0.21130709284E+03 -0.14153811486E+03  0.35048583686E+03  0.00000000000E+00 0.  1.
         11    1    5    5    0    0 -0.15311472328E+03 -0.17237597920E+03 -0.17212121158E+03  0.28772088587E+03  0.00000000000E+00 0. -1.
        -11    1    5    5    0    0 -0.17820744564E+03 -0.87526115489E+02 -0.19757632775E+03  0.28009841103E+03  0.00000000000E+00 0.  1.
          4    1    6    6  503    0 -0.64851730106E+02  0.27782472216E+03 -0.67475765878E+03  0.73259144223E+03  0.00000000000E+00 0. -1.
         -4    1    6    6    0  503  0.22678497073E+02  0.24413149850E+03 -0.51116071872E+03  0.56692132007E+03  0.00000000000E+00 0.  1.
<mgrwt>
<rscale>  0 0.16018940E+04</rscale>
<asrwt>0</asrwt>
<pdfrwt beam="1">  1        1 0.31601695E+00 0.16018940E+04</pdfrwt>
<pdfrwt beam="2">  1       -2 0.48047462E-01 0.16018940E+04</pdfrwt>
<totfact> 0.94703279E+00</totfact>
</mgrwt>
</event>
<event>
12    4  0.4381187E-008  0.1981919E+04  0.7818608E-02  0.8615121E-01
         -2   -1    0    0    0  501 -0.00000000000E+00  0.00000000000E+00  0.15214623793E+04  0.15214623793E+04  0.00000000000E+00 0.  1.
          1   -1    0    0  501    0  0.00000000000E+00 -0.00000000000E+00 -0.64543209674E+03  0.64543209674E+03  0.00000000000E+00 0. -1.
        -24    2    1    2    0    0 -0.76481716106E+03 -0.18368264025E+03  0.37860224112E+03  0.87666021223E+03  0.80677559136E+02 0.  0.
        254    2    1    2    0    0  0.76481716106E+03  0.18368264025E+03  0.49742804144E+03  0.12902342638E+04  0.89363594205E+03 0.  0.
         23    2    4    4    0    0  0.92004762299E+03  0.74729173068E+02  0.54213359692E+03  0.10749177024E+04  0.97299291756E+02 0.  0.
         23    2    4    4    0    0 -0.15523046193E+03  0.10895346718E+03 -0.44705555480E+02  0.21531656140E+03  0.91625763853E+02 0.  0.
          1    1    3    3  502    0 -0.54736837889E+03 -0.11617178736E+03  0.23131929147E+03  0.60548876207E+03  0.00000000000E+00 0. -1.
         -2    1    3    3    0  502 -0.21744878217E+03 -0.67510852889E+02  0.14728294965E+03  0.27117145016E+03  0.00000000000E+00 0.  1.
         11    1    5    5    0    0  0.24377989702E+03  0.57430320791E+02  0.12205192127E+03  0.27861003468E+03  0.00000000000E+00 0. -1.
        -11    1    5    5    0    0  0.67626772596E+03  0.17298852277E+02  0.42008167565E+03  0.79630766773E+03  0.00000000000E+00 0.  1.
          1    1    6    6  503    0 -0.10933771446E+03  0.23142307979E+02 -0.10860261029E+02  0.11228645284E+03  0.00000000000E+00 0. -1.
         -1    1    6    6    0  503 -0.45892747470E+02  0.85811159201E+02 -0.33845294451E+02  0.10303010856E+03  0.00000000000E+00 0.  1.
<mgrwt>
<rscale>  0 0.19819189E+04</rscale>
<asrwt>0</asrwt>
<pdfrwt beam="1">  1        1 0.99297246E-01 0.19819189E+04</pdfrwt>
<pdfrwt beam="2">  1       -2 0.23407114E+00 0.19819189E+04</pdfrwt>
<totfact> 0.20184696E+00</totfact>
</mgrwt>
</event>
<event>
12    4  0.4381187E-008  0.2248724E+04  0.7818608E-02  0.8498418E-01
         -2   -1    0    0    0  501 -0.00000000000E+00  0.00000000000E+00  0.12364018174E+04  0.12364018174E+04  0.00000000000E+00 0.  1.
          1   -1    0    0  501    0  0.00000000000E+00 -0.00000000000E+00 -0.10224745188E+04  0.10224745188E+04  0.00000000000E+00 0. -1.
        -24    2    1    2    0    0 -0.13260736377E+03  0.50706007128E+03 -0.69699748355E+03  0.87565177345E+03  0.79157485167E+02 0.  0.
        254    2    1    2    0    0  0.13260736377E+03 -0.50706007128E+03  0.91092478211E+03  0.13832245628E+04  0.89935065661E+03 0.  0.
         23    2    4    4    0    0  0.30267147811E+03 -0.58401446855E+03  0.96258603106E+03  0.11694660226E+04  0.91629622507E+02 0.  0.
         23    2    4    4    0    0 -0.17006411434E+03  0.76954397270E+02 -0.51661248954E+02  0.21375854014E+03  0.90443610020E+02 0.  0.
          3    1    3    3  502    0 -0.45231106448E+02  0.31245549147E+03 -0.38899354104E+03  0.50098928342E+03  0.00000000000E+00 0. -1.
         -4    1    3    3    0  502 -0.87376257321E+02  0.19460457981E+03 -0.30800394251E+03  0.37466249002E+03  0.00000000000E+00 0.  1.
         11    1    5    5    0    0  0.12845045326E+03 -0.33493690576E+03  0.55941929776E+03  0.66455413661E+03  0.00000000000E+00 0.  1.
        -11    1    5    5    0    0  0.17422102486E+03 -0.24907756280E+03  0.40316673330E+03  0.50491188601E+03  0.00000000000E+00 0. -1.
          1    1    6    6  503    0 -0.75077942374E+02 -0.13009702250E+02 -0.12661952980E+02  0.77241665162E+02  0.00000000000E+00 0. -1.
         -1    1    6    6    0  503 -0.94986171971E+02  0.89964099520E+02 -0.38999295973E+02  0.13651687498E+03  0.00000000000E+00 0.  1.
<mgrwt>
<rscale>  0 0.22487235E+04</rscale>
<asrwt>0</asrwt>
<pdfrwt beam="1">  1        1 0.15730377E+00 0.22487235E+04</pdfrwt>
<pdfrwt beam="2">  1       -2 0.19021566E+00 0.22487235E+04</pdfrwt>
<totfact> 0.17871152E+00</totfact>
</mgrwt>
</event>
<event>
12    4  0.4381187E-008  0.3605055E+04  0.7818608E-02  0.8089335E-01
          1   -1    0    0  501    0  0.00000000000E+00  0.00000000000E+00  0.14908289451E+04  0.14908289451E+04  0.00000000000E+00 0. -1.
         -2   -1    0    0    0  501 -0.00000000000E+00 -0.00000000000E+00 -0.21793956632E+04  0.21793956632E+04  0.00000000000E+00 0.  1.
        -24    2    1    2    0    0  0.10017615014E+04 -0.39076262059E+03 -0.16521307876E+04  0.19728634471E+04  0.80202931828E+02 0.  0.
        254    2    1    2    0    0 -0.10017615014E+04  0.39076262059E+03  0.96356406955E+03  0.16973611612E+04  0.89238874031E+03 0.  0.
         23    2    4    4    0    0 -0.11581932213E+02  0.39256441440E+03  0.26204139389E+03  0.48055932445E+03  0.89613679786E+02 0.  0.
         23    2    4    4    0    0 -0.99017956923E+03 -0.18017938098E+01  0.70152267566E+03  0.12168018367E+04  0.89519939332E+02 0.  0.
          3    1    3    3  502    0  0.53380775154E+03 -0.24028989039E+03 -0.84934254071E+03  0.10315389951E+04  0.00000000000E+00 0. -1.
         -4    1    3    3    0  502  0.46795374991E+03 -0.15047273020E+03 -0.80278824687E+03  0.94132445198E+03  0.00000000000E+00 0.  1.
         11    1    5    5    0    0 -0.27084643410E+02  0.30588083960E+03  0.16167346562E+03  0.34703742656E+03  0.00000000000E+00 0. -1.
        -11    1    5    5    0    0  0.15502711197E+02  0.86683574791E+02  0.10036792827E+03  0.13352189790E+03  0.00000000000E+00 0.  1.
          3    1    6    6  503    0 -0.93334056749E+03  0.49333788462E+01  0.68327976966E+03  0.11567282294E+04  0.00000000000E+00 0. -1.
         -3    1    6    6    0  503 -0.56839001750E+02 -0.67351726560E+01  0.18242905999E+02  0.60073607265E+02  0.00000000000E+00 0.  1.
<mgrwt>
<rscale>  0 0.36050554E+04</rscale>
<asrwt>0</asrwt>
<pdfrwt beam="1">  1        1 0.22935830E+00 0.36050554E+04</pdfrwt>
<pdfrwt beam="2">  1       -2 0.33529164E+00 0.36050554E+04</pdfrwt>
<totfact> 0.90692670E-02</totfact>
</mgrwt>
</event>
<event>
12    4  0.4381187E-008  0.2571347E+04  0.7818608E-02  0.8378000E-01
         -2   -1    0    0    0  501 -0.00000000000E+00  0.00000000000E+00  0.96798572411E+03  0.96798572411E+03  0.00000000000E+00 0.  1.
          1   -1    0    0  501    0  0.00000000000E+00 -0.00000000000E+00 -0.17076246334E+04  0.17076246334E+04  0.00000000000E+00 0. -1.
        -24    2    1    2    0    0 -0.47720586639E+03  0.10172947461E+04 -0.41854225522E+03  0.12023632830E+04  0.88802058371E+02 0.  0.
        254    2    1    2    0    0  0.47720586639E+03 -0.10172947461E+04 -0.32109665407E+03  0.14732470745E+04  0.89707293020E+03 0.  0.
         23    2    4    4    0    0  0.31743537142E+03 -0.11493962081E+04 -0.34778878997E+03  0.12453539611E+04  0.89847581416E+02 0.  0.
         23    2    4    4    0    0  0.15977049497E+03  0.13210146204E+03  0.26692135902E+02  0.22789311340E+03  0.90804150123E+02 0.  0.
          3    1    3    3  502    0 -0.40821792729E+03  0.79744785380E+03 -0.35197412664E+03  0.96252311220E+03  0.00000000000E+00 0. -1.
         -2    1    3    3    0  502 -0.68987939100E+02  0.21984689226E+03 -0.66568128585E+02  0.23984017078E+03  0.00000000000E+00 0.  1.
         11    1    5    5    0    0  0.30450924342E+03 -0.10808362525E+04 -0.30533564163E+03  0.11636849823E+04  0.00000000000E+00 0. -1.
        -11    1    5    5    0    0  0.12926128005E+02 -0.68559955594E+02 -0.42453148340E+02  0.81668978812E+02  0.00000000000E+00 0.  1.
          2    1    6    6  503    0 -0.67721523357E+01  0.15607297684E+02 -0.12236225037E+02  0.20956502366E+02  0.00000000000E+00 0.  1.
         -2    1    6    6    0  503  0.16654264730E+03  0.11649416435E+03  0.38928360938E+02  0.20693661103E+03  0.00000000000E+00 0. -1.
<mgrwt>
<rscale>  0 0.25713469E+04</rscale>
<asrwt>0</asrwt>
<pdfrwt beam="1">  1        1 0.26271148E+00 0.25713469E+04</pdfrwt>
<pdfrwt beam="2">  1       -2 0.14892088E+00 0.25713469E+04</pdfrwt>
<totfact> 0.11155693E+00</totfact>
</mgrwt>
</event>
<event>
12    4  0.4381187E-008  0.1730556E+04  0.7818608E-02  0.8744126E-01
          1   -1    0    0  501    0  0.00000000000E+00  0.00000000000E+00  0.92792798714E+03  0.92792798714E+03  0.00000000000E+00 0. -1.
         -2   -1    0    0    0  501 -0.00000000000E+00 -0.00000000000E+00 -0.80685804046E+03  0.80685804046E+03  0.00000000000E+00 0.  1.
        -24    2    1    2    0    0  0.27851159187E+03  0.14537710288E+03 -0.50036361255E+03  0.59607716263E+03  0.79000191144E+02 0.  0.
        254    2    1    2    0    0 -0.27851159187E+03 -0.14537710288E+03  0.62143355923E+03  0.11387088650E+04  0.90098557247E+03 0.  0.
         23    2    4    4    0    0 -0.19818476582E+03 -0.79689068315E+02  0.84653727950E+03  0.87764754294E+03  0.89511424016E+02 0.  0.
         23    2    4    4    0    0 -0.80326826043E+02 -0.65688034566E+02 -0.22510372027E+03  0.26106132204E+03  0.81939075634E+02 0.  0.
          3    1    3    3  502    0  0.89480923745E+02  0.84835584859E+01 -0.12233556823E+03  0.15180513078E+03  0.00000000000E+00 0. -1.
         -4    1    3    3    0  502  0.18903066812E+03  0.13689354440E+03 -0.37802804432E+03  0.44427203185E+03  0.00000000000E+00 0.  1.
         11    1    5    5    0    0 -0.93545130174E+02 -0.85141625284E+02  0.43953986855E+03  0.45737849073E+03  0.00000000000E+00 0.  1.
        -11    1    5    5    0    0 -0.10463963565E+03  0.54525569684E+01  0.40699741095E+03  0.42026905221E+03  0.00000000000E+00 0. -1.
          1    1    6    6  503    0 -0.94778098785E+02 -0.66611197541E+02 -0.21173152962E+03  0.24135074121E+03  0.00000000000E+00 0. -1.
         -1    1    6    6    0  503  0.14451272741E+02  0.92316297500E+00 -0.13372190654E+02  0.19710580829E+02  0.00000000000E+00 0.  1.
<mgrwt>
<rscale>  0 0.17305562E+04</rscale>
<asrwt>0</asrwt>
<pdfrwt beam="1">  1        1 0.14275815E+00 0.17305562E+04</pdfrwt>
<pdfrwt beam="2">  1       -2 0.12413201E+00 0.17305562E+04</pdfrwt>
<totfact> 0.70081368E+00</totfact>
</mgrwt>
</event>
<event>
12    4  0.4381187E-008  0.2878893E+04  0.7818608E-02  0.8279185E-01
         -2   -1    0    0    0  501 -0.00000000000E+00  0.00000000000E+00  0.27270813570E+04  0.27270813570E+04  0.00000000000E+00 0.  1.
          1   -1    0    0  501    0  0.00000000000E+00 -0.00000000000E+00 -0.75978902950E+03  0.75978902950E+03  0.00000000000E+00 0. -1.
        -24    2    1    2    0    0 -0.12243732753E+04  0.21226435944E+03  0.44933848559E+03  0.13238069153E+04  0.80084947307E+02 0.  0.
        254    2    1    2    0    0  0.12243732753E+04 -0.21226435944E+03  0.15179538419E+04  0.21630634711E+04  0.91132521003E+03 0.  0.
         23    2    4    4    0    0 -0.87958033616E+02 -0.19944814803E+02 -0.20002202148E+02  0.12993223114E+03  0.91366762467E+02 0.  0.
         23    2    4    4    0    0  0.13123313090E+04 -0.19231954464E+03  0.15379560440E+04  0.20331312400E+04  0.95465040569E+02 0.  0.
          3    1    3    3  502    0 -0.83076075705E+03  0.13237759918E+03  0.26592378763E+03  0.88227134434E+03  0.00000000000E+00 0. -1.
         -4    1    3    3    0  502 -0.39361251829E+03  0.79886760261E+02  0.18341469796E+03  0.44153557099E+03  0.00000000000E+00 0.  1.
         11    1    5    5    0    0 -0.10542951430E+03 -0.56851352665E+01 -0.13373663276E+02  0.10642630369E+03  0.00000000000E+00 0.  1.
        -11    1    5    5    0    0  0.17471480682E+02 -0.14259679536E+02 -0.66285388719E+01  0.23505927450E+02  0.00000000000E+00 0. -1.
          4    1    6    6  503    0  0.40859799097E+02 -0.43843917976E+00  0.74844036383E+02  0.85272182998E+02  0.00000000000E+00 0. -1.
         -4    1    6    6    0  503  0.12714715099E+04 -0.19188110546E+03  0.14631120076E+04  0.19478590570E+04  0.00000000000E+00 0.  1.
<mgrwt>
<rscale>  0 0.28788932E+04</rscale>
<asrwt>0</asrwt>
<pdfrwt beam="1">  1        1 0.11689062E+00 0.28788932E+04</pdfrwt>
<pdfrwt beam="2">  1       -2 0.41955097E+00 0.28788932E+04</pdfrwt>
<totfact> 0.99840455E-02</totfact>
</mgrwt>
</event>
<event>
12    4  0.4381187E-008  0.1194699E+04  0.7818608E-02  0.9117509E-01
         -2   -1    0    0    0  501 -0.00000000000E+00  0.00000000000E+00  0.64616856607E+03  0.64616856607E+03  0.00000000000E+00 0.  1.
          1   -1    0    0  501    0  0.00000000000E+00 -0.00000000000E+00 -0.55221870565E+03  0.55221870565E+03  0.00000000000E+00 0. -1.
        -24    2    1    2    0    0 -0.14915309611E+03  0.12102787563E+03  0.17533764008E+03  0.27199817127E+03  0.79657544435E+02 0.  0.
        254    2    1    2    0    0  0.14915309611E+03 -0.12102787563E+03 -0.81387779656E+02  0.92638910045E+03  0.90259537003E+03 0.  0.
         23    2    4    4    0    0 -0.16411226431E+03 -0.43255694519E+03 -0.33861214456E+02  0.47274260658E+03  0.91107870663E+02 0.  0.
         23    2    4    4    0    0  0.31326536042E+03  0.31152906956E+03 -0.47526565199E+02  0.45364649388E+03  0.91382819994E+02 0.  0.
          1    1    3    3  502    0 -0.14980288668E+02  0.50440101218E+02  0.24170430299E+02  0.57903562587E+02  0.00000000000E+00 0. -1.
         -2    1    3    3    0  502 -0.13417280744E+03  0.70587774413E+02  0.15116720978E+03  0.21409460868E+03  0.00000000000E+00 0.  1.
         11    1    5    5    0    0  0.23492378957E+01 -0.43221280710E+02 -0.23354797972E+02  0.49183784047E+02  0.00000000000E+00 0.  1.
        -11    1    5    5    0    0 -0.16646150221E+03 -0.38933566448E+03 -0.10506416484E+02  0.42355882253E+03  0.00000000000E+00 0. -1.
          1    1    6    6  503    0  0.17542584488E+03  0.22703727963E+03 -0.53507202958E+02  0.29186156677E+03  0.00000000000E+00 0. -1.
         -1    1    6    6    0  503  0.13783951554E+03  0.84491789935E+02  0.59806377593E+01  0.16178492710E+03  0.00000000000E+00 0.  1.
<mgrwt>
<rscale>  0 0.11946989E+04</rscale>
<asrwt>0</asrwt>
<pdfrwt beam="1">  1        1 0.84956724E-01 0.11946989E+04</pdfrwt>
<pdfrwt beam="2">  1       -2 0.99410549E-01 0.11946989E+04</pdfrwt>
<totfact> 0.27988979E+01</totfact>
</mgrwt>
</event>
<event>
12    4  0.4381187E-008  0.1073778E+04  0.7818608E-02  0.9231133E-01
          1   -1    0    0  501    0  0.00000000000E+00  0.00000000000E+00  0.14455254009E+03  0.14455254009E+03  0.00000000000E+00 0. -1.
         -2   -1    0    0    0  501 -0.00000000000E+00 -0.00000000000E+00 -0.19940824749E+04  0.19940824749E+04  0.00000000000E+00 0.  1.
        -24    2    1    2    0    0  0.48525690595E+02  0.15031155498E+02 -0.55194516381E+03  0.56009192438E+03  0.80491127528E+02 0.  0.
        254    2    1    2    0    0 -0.48525690595E+02 -0.15031155498E+02 -0.12975847710E+04  0.15785430906E+04  0.89749171177E+03 0.  0.
         23    2    4    4    0    0 -0.46311048723E+03 -0.39843877997E+02 -0.69181803800E+03  0.83825672682E+03  0.89461077316E+02 0.  0.
         23    2    4    4    0    0  0.41458479664E+03  0.24812722499E+02 -0.60576673298E+03  0.74028636377E+03  0.92597736475E+02 0.  0.
          3    1    3    3  502    0 -0.17946774265E+01 -0.13589474283E+02 -0.16169427503E+02  0.21197760828E+02  0.00000000000E+00 0. -1.
         -4    1    3    3    0  502  0.50320368021E+02  0.28620629781E+02 -0.53577573631E+03  0.53889416355E+03  0.00000000000E+00 0.  1.
         11    1    5    5    0    0 -0.37298398716E+03  0.14062612680E+00 -0.51616266152E+03  0.63682098552E+03  0.00000000000E+00 0. -1.
        -11    1    5    5    0    0 -0.90126500076E+02 -0.39984504124E+02 -0.17565537648E+03  0.20143574129E+03  0.00000000000E+00 0.  1.
          2    1    6    6  503    0  0.12412603952E+03 -0.26796177382E+02 -0.22799287725E+03  0.26097137943E+03  0.00000000000E+00 0. -1.
         -2    1    6    6    0  503  0.29045875712E+03  0.51608899882E+02 -0.37777385573E+03  0.47931498434E+03  0.00000000000E+00 0.  1.
<mgrwt>
<rscale>  0 0.10737778E+04</rscale>
<asrwt>0</asrwt>
<pdfrwt beam="1">  1        1 0.22238853E-01 0.10737778E+04</pdfrwt>
<pdfrwt beam="2">  1       -2 0.30678192E+00 0.10737778E+04</pdfrwt>
<totfact> 0.57947013E+00</totfact>
</mgrwt>
</event>
<event>
12    4  0.4381187E-008  0.2043304E+04  0.7818608E-02  0.8586638E-01
         -2   -1    0    0    0  501 -0.00000000000E+00  0.00000000000E+00  0.19331405535E+04  0.19331405535E+04  0.00000000000E+00 0.  1.
          1   -1    0    0  501    0  0.00000000000E+00 -0.00000000000E+00 -0.53993632435E+03  0.53993632435E+03  0.00000000000E+00 0. -1.
        -24    2    1    2    0    0 -0.79237435597E+02 -0.39955162237E+03 -0.31544981600E+03  0.52134039590E+03  0.79794434931E+02 0.  0.
        254    2    1    2    0    0  0.79237435597E+02  0.39955162237E+03  0.17086540451E+04  0.19517364819E+04  0.85079761331E+03 0.  0.
         23    2    4    4    0    0 -0.19284975601E+03 -0.19112199969E+03  0.49267790907E+03  0.56977255153E+03  0.90501885239E+02 0.  0.
         23    2    4    4    0    0  0.27208719160E+03  0.59067362206E+03  0.12159761360E+04  0.13819639304E+04  0.91101996764E+02 0.  0.
          1    1    3    3  502    0 -0.74368433594E+02 -0.39828584899E+03 -0.31857777998E+03  0.51541641739E+03  0.00000000000E+00 0. -1.
         -4    1    3    3    0  502 -0.48690020028E+01 -0.12657733830E+01  0.31279639786E+01  0.59239785121E+01  0.00000000000E+00 0.  1.
         11    1    5    5    0    0 -0.11894126892E+03 -0.56072683759E+02  0.20649542089E+03  0.24480917092E+03  0.00000000000E+00 0.  1.
        -11    1    5    5    0    0 -0.73908487083E+02 -0.13504931594E+03  0.28618248818E+03  0.32496338061E+03  0.00000000000E+00 0. -1.
          4    1    6    6  503    0  0.16950180079E+03  0.46143743078E+03  0.90031021195E+03  0.10257747515E+04  0.00000000000E+00 0. -1.
         -4    1    6    6    0  503  0.10258539081E+03  0.12923619128E+03  0.31566592408E+03  0.35618917891E+03  0.00000000000E+00 0.  1.
<mgrwt>
<rscale>  0 0.20433040E+04</rscale>
<asrwt>0</asrwt>
<pdfrwt beam="1">  1        1 0.83067128E-01 0.20433040E+04</pdfrwt>
<pdfrwt beam="2">  1       -2 0.29740624E+00 0.20433040E+04</pdfrwt>
<totfact> 0.10630610E+00</totfact>
</mgrwt>
</event>
<event>
12    4  0.4381187E-008  0.3915294E+04  0.7818608E-02  0.8021856E-01
          1   -1    0    0  501    0  0.00000000000E+00  0.00000000000E+00  0.26012314798E+04  0.26012314798E+04  0.00000000000E+00 0. -1.
         -2   -1    0    0    0  501 -0.00000000000E+00 -0.00000000000E+00 -0.14732952868E+04  0.14732952868E+04  0.00000000000E+00 0.  1.
        -24    2    1    2    0    0  0.71945400584E+03 -0.15604884426E+04 -0.19077231943E+03  0.17307743881E+04  0.80297313754E+02 0.  0.
        254    2    1    2    0    0 -0.71945400584E+03  0.15604884426E+04  0.13187085125E+04  0.23437523785E+04  0.89523450828E+03 0.  0.
         23    2    4    4    0    0  0.61129994852E+02  0.11010236342E+03  0.45714428093E+03  0.48263722618E+03  0.89991065133E+02 0.  0.
         23    2    4    4    0    0 -0.78058400069E+03  0.14503860792E+04  0.86156423153E+03  0.18611151523E+04  0.92333765748E+02 0.  0.
          3    1    3    3  502    0  0.17506298926E+03 -0.32715581577E+03 -0.66032488546E+02  0.37687964597E+03  0.00000000000E+00 0. -1.
         -4    1    3    3    0  502  0.54439101658E+03 -0.12333326268E+04 -0.12473983088E+03  0.13538947421E+04  0.00000000000E+00 0.  1.
         11    1    5    5    0    0  0.31189855118E+02  0.23929435566E+01  0.40037580064E+02  0.50808867912E+02  0.00000000000E+00 0.  1.
        -11    1    5    5    0    0  0.29940139734E+02  0.10770941987E+03  0.41710670086E+03  0.43182835826E+03  0.00000000000E+00 0. -1.
          3    1    6    6  503    0 -0.62418489349E+03  0.11674054436E+04  0.65041929988E+03  0.14749533947E+04  0.00000000000E+00 0. -1.
         -3    1    6    6    0  503 -0.15639910719E+03  0.28298063557E+03  0.21114493165E+03  0.38616175755E+03  0.00000000000E+00 0.  1.
<mgrwt>
<rscale>  0 0.39152942E+04</rscale>
<asrwt>0</asrwt>
<pdfrwt beam="1">  1        1 0.40018946E+00 0.39152942E+04</pdfrwt>
<pdfrwt beam="2">  1       -2 0.22666081E+00 0.39152942E+04</pdfrwt>
<totfact> 0.71648792E-02</totfact>
</mgrwt>
</event>
<event>
12    4  0.4381187E-008  0.2823785E+04  0.7818608E-02  0.8295922E-01
          1   -1    0    0  501    0  0.00000000000E+00  0.00000000000E+00  0.15085869365E+04  0.15085869365E+04  0.00000000000E+00 0. -1.
         -2   -1    0    0    0  501 -0.00000000000E+00 -0.00000000000E+00 -0.13213959242E+04  0.13213959242E+04  0.00000000000E+00 0.  1.
        -24    2    1    2    0    0 -0.63458276701E+03 -0.83899678216E+03 -0.62541809540E+03  0.12264967094E+04  0.80842410523E+02 0.  0.
        254    2    1    2    0    0  0.63458276701E+03  0.83899678216E+03  0.81260910764E+03  0.16034861513E+04  0.89678502827E+03 0.  0.
         23    2    4    4    0    0  0.55196820962E+03  0.98434383742E+03  0.50248930330E+03  0.12387665194E+04  0.91898286088E+02 0.  0.
         23    2    4    4    0    0  0.82614557396E+02 -0.14534705526E+03  0.31011980434E+03  0.36471963190E+03  0.94314289900E+02 0.  0.
          3    1    3    3  502    0 -0.88738014227E+02 -0.16112427784E+03 -0.12747944136E+03  0.22380008054E+03  0.00000000000E+00 0. -1.
         -4    1    3    3    0  502 -0.54584475279E+03 -0.67787250432E+03 -0.49793865404E+03  0.10026966288E+04  0.00000000000E+00 0.  1.
         11    1    5    5    0    0  0.19868169109E+03  0.33912202813E+03  0.12825401924E+03  0.41343349863E+03  0.00000000000E+00 0. -1.
        -11    1    5    5    0    0  0.35328651853E+03  0.64522180928E+03  0.37423528406E+03  0.82533302078E+03  0.00000000000E+00 0.  1.
          2    1    6    6  503    0  0.26605857633E+02 -0.10257687054E+03  0.11084469968E+03  0.15335068789E+03  0.00000000000E+00 0. -1.
         -2    1    6    6    0  503  0.56008699763E+02 -0.42770184714E+02  0.19927510466E+03  0.21136894400E+03  0.00000000000E+00 0.  1.
<mgrwt>
<rscale>  0 0.28237851E+04</rscale>
<asrwt>0</asrwt>
<pdfrwt beam="1">  1        1 0.23209030E+00 0.28237851E+04</pdfrwt>
<pdfrwt beam="2">  1       -2 0.20329168E+00 0.28237851E+04</pdfrwt>
<totfact> 0.61966324E-01</totfact>
</mgrwt>
</event>
<event>
12    4  0.4381187E-008  0.1121062E+04  0.7818608E-02  0.9184903E-01
          1   -1    0    0  501    0  0.00000000000E+00  0.00000000000E+00  0.87468119115E+03  0.87468119115E+03  0.00000000000E+00 0. -1.
         -2   -1    0    0    0  501 -0.00000000000E+00 -0.00000000000E+00 -0.35921083765E+03  0.35921083765E+03  0.00000000000E+00 0.  1.
        -24    2    1    2    0    0 -0.13148640040E+03  0.11752486176E+03  0.15658319736E+03  0.24924443919E+03  0.80645682772E+02 0.  0.
        254    2    1    2    0    0  0.13148640040E+03 -0.11752486176E+03  0.35888715614E+03  0.98464758960E+03  0.89979448667E+03 0.  0.
         23    2    4    4    0    0  0.24516532086E+02 -0.24761824833E+03  0.61195562174E+03  0.66715970122E+03  0.93255169862E+02 0.  0.
         23    2    4    4    0    0  0.10696986831E+03  0.13009338656E+03 -0.25306846560E+03  0.31748788838E+03  0.91586401989E+02 0.  0.
          3    1    3    3  502    0 -0.82312960077E+02  0.49068372524E+02  0.12871400655E+03  0.16046938668E+03  0.00000000000E+00 0. -1.
         -4    1    3    3    0  502 -0.49173440323E+02  0.68456489240E+02  0.27869190809E+02  0.88775052512E+02  0.00000000000E+00 0.  1.
         11    1    5    5    0    0  0.60111777441E+02 -0.13993370799E+03  0.35439237664E+03  0.38573154530E+03  0.00000000000E+00 0. -1.
        -11    1    5    5    0    0 -0.35595245355E+02 -0.10768454034E+03  0.25756324510E+03  0.28142815593E+03  0.00000000000E+00 0.  1.
          3    1    6    6  503    0  0.78993255471E+02  0.32577954756E+02 -0.15148351672E+03  0.17392099753E+03  0.00000000000E+00 0. -1.
         -3    1    6    6    0  503  0.27976612843E+02  0.97515431806E+02 -0.10158494889E+03  0.14356689084E+03  0.00000000000E+00 0.  1.
<mgrwt>
<rscale>  0 0.11210619E+04</rscale>
<asrwt>0</asrwt>
<pdfrwt beam="1">  1        1 0.13456634E+00 0.11210619E+04</pdfrwt>
<pdfrwt beam="2">  1       -2 0.55263206E-01 0.11210619E+04</pdfrwt>
<totfact> 0.51264234E+01</totfact>
</mgrwt>
</event>
<event>
12    4  0.4381187E-008  0.1105307E+04  0.7818608E-02  0.9200034E-01
          1   -1    0    0  501    0  0.00000000000E+00  0.00000000000E+00  0.10500935996E+04  0.10500935996E+04  0.00000000000E+00 0. -1.
         -2   -1    0    0    0  501 -0.00000000000E+00 -0.00000000000E+00 -0.29085599804E+03  0.29085599804E+03  0.00000000000E+00 0.  1.
        -24    2    1    2    0    0 -0.79119966740E+02 -0.84388770906E+02 -0.29931488582E+02  0.13969861793E+03  0.72376626409E+02 0.  0.
        254    2    1    2    0    0  0.79119966740E+02  0.84388770906E+02  0.78916909010E+03  0.12012509797E+04  0.89823973948E+03 0.  0.
         23    2    4    4    0    0 -0.13193743015E+03  0.21812151928E+03  0.87820795374E+03  0.91902582638E+03  0.91513807127E+02 0.  0.
         23    2    4    4    0    0  0.21105739689E+03 -0.13373274838E+03 -0.89038863638E+02  0.28222515328E+03  0.96402516237E+02 0.  0.
          1    1    3    3  502    0  0.88431656964E+00 -0.75291493533E+00  0.15366586899E+02  0.15410414972E+02  0.00000000000E+00 0. -1.
         -2    1    3    3    0  502 -0.80004283310E+02 -0.83635855970E+02 -0.45298075481E+02  0.12428820296E+03  0.00000000000E+00 0.  1.
         11    1    5    5    0    0 -0.11205767000E+03  0.19157499499E+03  0.83806495480E+03  0.86695488266E+03  0.00000000000E+00 0. -1.
        -11    1    5    5    0    0 -0.19879760147E+02  0.26546524299E+02  0.40142998943E+02  0.52070943721E+02  0.00000000000E+00 0.  1.
          3    1    6    6  503    0  0.81994018889E+02 -0.41056949878E+02 -0.82262783781E+02  0.12319033185E+03  0.00000000000E+00 0. -1.
         -3    1    6    6    0  503  0.12906337800E+03 -0.92675798502E+02 -0.67760798575E+01  0.15903482143E+03  0.00000000000E+00 0.  1.
<mgrwt>
<rscale>  0 0.11053072E+04</rscale>
<asrwt>0</asrwt>
<pdfrwt beam="1">  1        1 0.16155286E+00 0.11053072E+04</pdfrwt>
<pdfrwt beam="2">  1       -2 0.44747077E-01 0.11053072E+04</pdfrwt>
<totfact> 0.57222762E+01</totfact>
</mgrwt>
</event>
<event>
12    4  0.4381187E-008  0.1326430E+04  0.7818608E-02  0.9008864E-01
         -2   -1    0    0    0  501 -0.00000000000E+00  0.00000000000E+00  0.51185124535E+03  0.51185124535E+03  0.00000000000E+00 0.  1.
          1   -1    0    0  501    0  0.00000000000E+00 -0.00000000000E+00 -0.85934041073E+03  0.85934041073E+03  0.00000000000E+00 0. -1.
        -24    2    1    2    0    0 -0.23244371968E+03 -0.50949105785E+02  0.17186397527E+03  0.30448485296E+03  0.80919129299E+02 0.  0.
        254    2    1    2    0    0  0.23244371968E+03  0.50949105785E+02 -0.51935314065E+03  0.10667068031E+04  0.90083840111E+03 0.  0.
         23    2    4    4    0    0  0.49488274000E+01  0.32465976339E+03  0.95585414246E+02  0.35040090942E+03  0.90640901611E+02 0.  0.
         23    2    4    4    0    0  0.22749489228E+03 -0.27371065761E+03 -0.61493855490E+03  0.71630589371E+03  0.90957445861E+02 0.  0.
          3    1    3    3  502    0  0.41170960859E+01  0.55186246391E+01  0.37049834574E+00  0.68951408334E+01  0.00000000000E+00 0. -1.
         -4    1    3    3    0  502 -0.23656081576E+03 -0.56467730424E+02  0.17149347693E+03  0.29758971213E+03  0.00000000000E+00 0.  1.
         11    1    5    5    0    0  0.14802496069E+02  0.94902409713E+01  0.19044844769E+02  0.25920738335E+02  0.00000000000E+00 0. -1.
        -11    1    5    5    0    0 -0.98536686687E+01  0.31516952242E+03  0.76540569477E+02  0.32448017108E+03  0.00000000000E+00 0.  1.
          2    1    6    6  503    0  0.51009839042E+02 -0.13023744420E+03 -0.23875880712E+03  0.27671205888E+03  0.00000000000E+00 0. -1.
         -2    1    6    6    0  503  0.17648505324E+03 -0.14347321341E+03 -0.37617974778E+03  0.43959383483E+03  0.00000000000E+00 0.  1.
<mgrwt>
<rscale>  0 0.13264305E+04</rscale>
<asrwt>0</asrwt>
<pdfrwt beam="1">  1        1 0.13220622E+00 0.13264305E+04</pdfrwt>
<pdfrwt beam="2">  1       -2 0.78746346E-01 0.13264305E+04</pdfrwt>
<totfact> 0.24208777E+01</totfact>
</mgrwt>
</event>
<event>
12    4  0.4381187E-008  0.1219336E+04  0.7818608E-02  0.9096098E-01
          1   -1    0    0  501    0  0.00000000000E+00  0.00000000000E+00  0.14214163707E+04  0.14214163707E+04  0.00000000000E+00 0. -1.
         -2   -1    0    0    0  501 -0.00000000000E+00 -0.00000000000E+00 -0.26149611469E+03  0.26149611469E+03  0.00000000000E+00 0.  1.
        -24    2    1    2    0    0  0.12169883738E+02  0.26545847405E+03  0.18990769153E+03  0.33647020132E+03  0.80814340079E+02 0.  0.
        254    2    1    2    0    0 -0.12169883738E+02 -0.26545847405E+03  0.97001256448E+03  0.13464422841E+04  0.89519056160E+03 0.  0.
         23    2    4    4    0    0 -0.24726480423E+03  0.20038779778E+03  0.13443589892E+03  0.35705451449E+03  0.90109724715E+02 0.  0.
         23    2    4    4    0    0  0.23509492049E+03 -0.46584627183E+03  0.83557666557E+03  0.98938776959E+03  0.91746520113E+02 0.  0.
          1    1    3    3  502    0 -0.15462956650E+02  0.14622066235E+03  0.14383190339E+03  0.20568714485E+03  0.00000000000E+00 0. -1.
         -2    1    3    3    0  502  0.27632840388E+02  0.11923781170E+03  0.46075788144E+02  0.13078305647E+03  0.00000000000E+00 0.  1.
         11    1    5    5    0    0 -0.10245223159E+03  0.13343960763E+03  0.92975423682E+02  0.19221607127E+03  0.00000000000E+00 0. -1.
        -11    1    5    5    0    0 -0.14481257263E+03  0.66948190147E+02  0.41460475235E+02  0.16483844322E+03  0.00000000000E+00 0.  1.
          4    1    6    6  503    0  0.50379743756E+02 -0.16389166549E+03  0.21547106583E+03  0.27536589623E+03  0.00000000000E+00 0. -1.
         -4    1    6    6    0  503  0.18471517673E+03 -0.30195460634E+03  0.62010559974E+03  0.71402187336E+03  0.00000000000E+00 0.  1.
<mgrwt>
<rscale>  0 0.12193357E+04</rscale>
<asrwt>0</asrwt>
<pdfrwt beam="1">  1        1 0.21867944E+00 0.12193357E+04</pdfrwt>
<pdfrwt beam="2">  1       -2 0.40230173E-01 0.12193357E+04</pdfrwt>
<totfact> 0.37628244E+01</totfact>
</mgrwt>
</event>
<event>
12    4  0.4381187E-008  0.1448382E+04  0.7818608E-02  0.8919523E-01
          1   -1    0    0  501    0  0.00000000000E+00  0.00000000000E+00  0.26688899359E+04  0.26688899359E+04  0.00000000000E+00 0. -1.
         -4   -1    0    0    0  501 -0.00000000000E+00 -0.00000000000E+00 -0.19650582652E+03  0.19650582652E+03  0.00000000000E+00 0.  1.
        -24    2    1    2    0    0  0.31372476389E+03 -0.24429377080E+03  0.11288266478E+04  0.11993278980E+04  0.77686113019E+02 0.  0.
        254    2    1    2    0    0 -0.31372476389E+03  0.24429377080E+03  0.13435574616E+04  0.16660678645E+04  0.90140601421E+03 0.  0.
         23    2    4    4    0    0 -0.38997452820E+03  0.50201062848E+03  0.11662743977E+04  0.13312993050E+04  0.89816841422E+02 0.  0.
         23    2    4    4    0    0  0.76249764316E+02 -0.25771685768E+03  0.17728306392E+03  0.33476855948E+03  0.91698955128E+02 0.  0.
          3    1    3    3  502    0  0.29869041282E+03 -0.24515390699E+03  0.11092562323E+04  0.11746343217E+04  0.00000000000E+00 0. -1.
         -4    1    3    3    0  502  0.15034351069E+02  0.86013619385E+00  0.19570415488E+02  0.24693576265E+02  0.00000000000E+00 0.  1.
         11    1    5    5    0    0 -0.43519632680E+02  0.22660222478E+02  0.67399539849E+02  0.83367512157E+02  0.00000000000E+00 0.  1.
        -11    1    5    5    0    0 -0.34645489552E+03  0.47935040601E+03  0.10988748578E+04  0.12479317928E+04  0.00000000000E+00 0. -1.
          4    1    6    6  503    0  0.80712362583E+02 -0.11462250079E+03  0.76654500127E+02  0.15977708081E+03  0.00000000000E+00 0. -1.
         -4    1    6    6    0  503 -0.44625982662E+01 -0.14309435690E+03  0.10062856379E+03  0.17499147867E+03  0.00000000000E+00 0.  1.
<mgrwt>
<rscale>  0 0.14483817E+04</rscale>
<asrwt>0</asrwt>
<pdfrwt beam="1">  1        1 0.41059843E+00 0.14483817E+04</pdfrwt>
<pdfrwt beam="2">  1       -4 0.30231668E-01 0.14483817E+04</pdfrwt>
<totfact> 0.53250710E+00</totfact>
</mgrwt>
</event>
<event>
12    4  0.4381187E-008  0.1884200E+04  0.7818608E-02  0.8662761E-01
         -4   -1    0    0    0  501 -0.00000000000E+00  0.00000000000E+00  0.64416927883E+03  0.64416927883E+03  0.00000000000E+00 0.  1.
          3   -1    0    0  501    0  0.00000000000E+00 -0.00000000000E+00 -0.13778242377E+04  0.13778242377E+04  0.00000000000E+00 0. -1.
        -24    2    1    2    0    0  0.54131098939E+03  0.44242475099E+03 -0.10051607588E+03  0.71092286086E+03  0.80935684741E+02 0.  0.
        254    2    1    2    0    0 -0.54131098939E+03 -0.44242475099E+03 -0.63313888295E+03  0.13110706556E+04  0.91065041121E+03 0.  0.
         23    2    4    4    0    0 -0.12856505399E+03  0.22563877529E+03 -0.40187157657E+03  0.48724713254E+03  0.92017248868E+02 0.  0.
         23    2    4    4    0    0 -0.41274593540E+03 -0.66806352628E+03 -0.23126730638E+03  0.82382352310E+03  0.92371791545E+02 0.  0.
          1    1    3    3  502    0  0.23249909003E+03  0.15852951450E+03 -0.88233038211E+01  0.28154091092E+03  0.00000000000E+00 0. -1.
         -2    1    3    3    0  502  0.30881189937E+03  0.28389523649E+03 -0.91692772055E+02  0.42938194995E+03  0.00000000000E+00 0.  1.
         11    1    5    5    0    0 -0.54249481065E+02  0.17915765487E+03 -0.28919031710E+03  0.34448731617E+03  0.00000000000E+00 0. -1.
        -11    1    5    5    0    0 -0.74315572929E+02  0.46481120423E+02 -0.11268125947E+03  0.14275981637E+03  0.00000000000E+00 0.  1.
          3    1    6    6  503    0 -0.26890058583E+03 -0.46231716891E+03 -0.19927328078E+03  0.57074909563E+03  0.00000000000E+00 0. -1.
         -3    1    6    6    0  503 -0.14384534957E+03 -0.20574635736E+03 -0.31994025598E+02  0.25307442746E+03  0.00000000000E+00 0.  1.
<mgrwt>
<rscale>  0 0.18841996E+04</rscale>
<asrwt>0</asrwt>
<pdfrwt beam="1">  1        3 0.21197296E+00 0.18841996E+04</pdfrwt>
<pdfrwt beam="2">  1       -4 0.99102967E-01 0.18841996E+04</pdfrwt>
<totfact> 0.22493627E-01</totfact>
</mgrwt>
</event>
<event>
12    4  0.4381187E-008  0.1668358E+04  0.7818608E-02  0.8779620E-01
         -2   -1    0    0    0  501 -0.00000000000E+00  0.00000000000E+00  0.28226897936E+03  0.28226897936E+03  0.00000000000E+00 0.  1.
          1   -1    0    0  501    0  0.00000000000E+00 -0.00000000000E+00 -0.24652184519E+04  0.24652184519E+04  0.00000000000E+00 0. -1.
        -24    2    1    2    0    0 -0.39745515072E+03 -0.31383020776E+03 -0.12978220018E+04  0.13954756667E+04  0.80934490535E+02 0.  0.
        254    2    1    2    0    0  0.39745515072E+03  0.31383020776E+03 -0.88512747070E+03  0.13520117646E+04  0.88770782129E+03 0.  0.
         23    2    4    4    0    0  0.66567096365E+03  0.30921366771E+03 -0.63052490420E+03  0.97184463682E+03  0.90495409525E+02 0.  0.
         23    2    4    4    0    0 -0.26821581293E+03  0.46165400510E+01 -0.25460256650E+03  0.38016712774E+03  0.87997405638E+02 0.  0.
          1    1    3    3  502    0 -0.17195615035E+03 -0.15777636248E+03 -0.49854159027E+03  0.55045982181E+03  0.00000000000E+00 0. -1.
         -2    1    3    3    0  502 -0.22549900038E+03 -0.15605384528E+03 -0.79928041156E+03  0.84501584488E+03  0.00000000000E+00 0.  1.
         11    1    5    5    0    0  0.86494989379E+02  0.33716501459E+02 -0.44002119286E+02  0.10273447406E+03  0.00000000000E+00 0. -1.
        -11    1    5    5    0    0  0.57917597427E+03  0.27549716625E+03 -0.58652278491E+03  0.86911016276E+03  0.00000000000E+00 0.  1.
          3    1    6    6  503    0 -0.27750718112E+02  0.11403551216E+02 -0.72472581259E+02  0.78437353158E+02  0.00000000000E+00 0. -1.
         -3    1    6    6    0  503 -0.24046509482E+03 -0.67870111648E+01 -0.18212998524E+03  0.30172977458E+03  0.00000000000E+00 0.  1.
<mgrwt>
<rscale>  0 0.16683581E+04</rscale>
<asrwt>0</asrwt>
<pdfrwt beam="1">  1        1 0.37926438E+00 0.16683581E+04</pdfrwt>
<pdfrwt beam="2">  1       -2 0.43425997E-01 0.16683581E+04</pdfrwt>
<totfact> 0.60427753E+00</totfact>
</mgrwt>
</event>
<event>
12    4  0.4381187E-008  0.1589821E+04  0.7818608E-02  0.8826826E-01
          1   -1    0    0  501    0  0.00000000000E+00  0.00000000000E+00  0.29233120053E+04  0.29233120053E+04  0.00000000000E+00 0. -1.
         -2   -1    0    0    0  501 -0.00000000000E+00 -0.00000000000E+00 -0.21615310271E+03  0.21615310271E+03  0.00000000000E+00 0.  1.
        -24    2    1    2    0    0 -0.32971098356E+03  0.27650210445E+03  0.44804830799E+03  0.62703702793E+03  0.85237325433E+02 0.  0.
        254    2    1    2    0    0  0.32971098356E+03 -0.27650210445E+03  0.22591105946E+04  0.25124280801E+04  0.10117071871E+04 0.  0.
         23    2    4    4    0    0 -0.90836465413E+02  0.30990419110E+03  0.44005637008E+03  0.55353410142E+03  0.91970220617E+02 0.  0.
         23    2    4    4    0    0  0.42054744897E+03 -0.58640629555E+03  0.18190542245E+04  0.19588939787E+04  0.87033600365E+02 0.  0.
          1    1    3    3  502    0 -0.23300464857E+03  0.19420644073E+03  0.36813153150E+03  0.47699909053E+03  0.00000000000E+00 0. -1.
         -2    1    3    3    0  502 -0.96706334986E+02  0.82295663724E+02  0.79916776494E+02  0.15003793740E+03  0.00000000000E+00 0.  1.
         11    1    5    5    0    0 -0.59112069814E+02  0.82511546288E+02  0.17986310444E+03  0.20652633829E+03  0.00000000000E+00 0. -1.
        -11    1    5    5    0    0 -0.31724395598E+02  0.22739264481E+03  0.26019326564E+03  0.34700776313E+03  0.00000000000E+00 0.  1.
          3    1    6    6  503    0  0.23428472465E+03 -0.25253722951E+03  0.87461892553E+03  0.94001204747E+03  0.00000000000E+00 0. -1.
         -3    1    6    6    0  503  0.18626272433E+03 -0.33386906604E+03  0.94443529900E+03  0.10188819312E+04  0.00000000000E+00 0.  1.
<mgrwt>
<rscale>  0 0.15898213E+04</rscale>
<asrwt>0</asrwt>
<pdfrwt beam="1">  1        1 0.44974028E+00 0.15898213E+04</pdfrwt>
<pdfrwt beam="2">  1       -2 0.33254326E-01 0.15898213E+04</pdfrwt>
<totfact> 0.48630080E+00</totfact>
</mgrwt>
</event>
<event>
12    4  0.4381187E-008  0.2039408E+04  0.7818608E-02  0.8588415E-01
          1   -1    0    0  501    0  0.00000000000E+00  0.00000000000E+00  0.44374659792E+04  0.44374659792E+04  0.00000000000E+00 0. -1.
         -2   -1    0    0    0  501 -0.00000000000E+00 -0.00000000000E+00 -0.23432198783E+03  0.23432198783E+03  0.00000000000E+00 0.  1.
        -24    2    1    2    0    0  0.15056414130E+01  0.74287136488E+03  0.25321642328E+04  0.26400926053E+04  0.79831893761E+02 0.  0.
        254    2    1    2    0    0 -0.15056414130E+01 -0.74287136488E+03  0.16709797586E+04  0.20316953617E+04  0.88529800484E+03 0.  0.
         23    2    4    4    0    0 -0.30019413202E+03 -0.46742051574E+03  0.39053197907E+03  0.68524322653E+03  0.91894490528E+02 0.  0.
         23    2    4    4    0    0  0.29868849061E+03 -0.27545084914E+03  0.12804477795E+04  0.13464521352E+04  0.91098032215E+02 0.  0.
          1    1    3    3  502    0 -0.14596614755E+02  0.46778136999E+03  0.14659154344E+04  0.15388114023E+04  0.00000000000E+00 0. -1.
         -2    1    3    3    0  502  0.16102256168E+02  0.27508999490E+03  0.10662487984E+04  0.11012812030E+04  0.00000000000E+00 0.  1.
         11    1    5    5    0    0 -0.18530897782E+03 -0.36384799660E+03  0.28791380428E+03  0.49961899542E+03  0.00000000000E+00 0.  1.
        -11    1    5    5    0    0 -0.11488515420E+03 -0.10357251914E+03  0.10261817479E+03  0.18562423110E+03  0.00000000000E+00 0. -1.
          2    1    6    6  503    0  0.36583068190E+02 -0.45612164851E+02  0.10251004500E+03  0.11801313396E+03  0.00000000000E+00 0. -1.
         -2    1    6    6    0  503  0.26210542242E+03 -0.22983868429E+03  0.11779377345E+04  0.12284390012E+04  0.00000000000E+00 0.  1.
<mgrwt>
<rscale>  0 0.20394076E+04</rscale>
<asrwt>0</asrwt>
<pdfrwt beam="1">  1        1 0.68268701E+00 0.20394076E+04</pdfrwt>
<pdfrwt beam="2">  1       -2 0.36049540E-01 0.20394076E+04</pdfrwt>
<totfact> 0.22191898E-01</totfact>
</mgrwt>
</event>
<event>
12    4  0.4381187E-008  0.1182267E+04  0.7818608E-02  0.9128522E-01
         -2   -1    0    0    0  501 -0.00000000000E+00  0.00000000000E+00  0.69677817980E+03  0.69677817980E+03  0.00000000000E+00 0.  1.
          1   -1    0    0  501    0  0.00000000000E+00 -0.00000000000E+00 -0.50150624845E+03  0.50150624845E+03  0.00000000000E+00 0. -1.
        -24    2    1    2    0    0  0.11154440747E+02  0.10818400921E+03 -0.15577787826E+03  0.20720802287E+03  0.82705598295E+02 0.  0.
        254    2    1    2    0    0 -0.11154440747E+02 -0.10818400921E+03  0.35104980961E+03  0.99107640537E+03  0.92041744391E+03 0.  0.
         23    2    4    4    0    0 -0.90974177935E+02 -0.44559636426E+03  0.42145981341E+03  0.62661715821E+03  0.90489047717E+02 0.  0.
         23    2    4    4    0    0  0.79819737188E+02  0.33741235504E+03 -0.70410003794E+02  0.36445924716E+03  0.87491064806E+02 0.  0.
          1    1    3    3  502    0 -0.66485698904E+01  0.75626442884E+02 -0.15200562663E+03  0.16990960206E+03  0.00000000000E+00 0. -1.
         -2    1    3    3    0  502  0.17803010637E+02  0.32557566330E+02 -0.37722516363E+01  0.37298420818E+02  0.00000000000E+00 0.  1.
         11    1    5    5    0    0  0.15153872211E+02 -0.12438615412E+03  0.10793395432E+03  0.16538226530E+03  0.00000000000E+00 0.  1.
        -11    1    5    5    0    0 -0.10612805015E+03 -0.32121021014E+03  0.31352585909E+03  0.46123489292E+03  0.00000000000E+00 0. -1.
          2    1    6    6  503    0  0.79023500337E+02  0.25471626535E+03 -0.86175394448E+02  0.28027002702E+03  0.00000000000E+00 0. -1.
         -2    1    6    6    0  503  0.79623685093E+00  0.82696089695E+02  0.15765390654E+02  0.84189220132E+02  0.00000000000E+00 0.  1.
<mgrwt>
<rscale>  0 0.11822667E+04</rscale>
<asrwt>0</asrwt>
<pdfrwt beam="1">  1        1 0.77154807E-01 0.11822667E+04</pdfrwt>
<pdfrwt beam="2">  1       -2 0.10719664E+00 0.11822667E+04</pdfrwt>
<totfact> 0.26749049E+01</totfact>
</mgrwt>
</event>
<event>
12    4  0.4381187E-008  0.1916593E+04  0.7818608E-02  0.8646641E-01
         -2   -1    0    0    0  501 -0.00000000000E+00  0.00000000000E+00  0.11151250786E+04  0.11151250786E+04  0.00000000000E+00 0.  1.
          1   -1    0    0  501    0  0.00000000000E+00 -0.00000000000E+00 -0.82352384788E+03  0.82352384788E+03  0.00000000000E+00 0. -1.
        -24    2    1    2    0    0  0.20125222201E+03 -0.20257775126E+03  0.81245765380E+03  0.86462860818E+03  0.77168573270E+02 0.  0.
        254    2    1    2    0    0 -0.20125222201E+03  0.20257775126E+03 -0.52085642312E+03  0.10740203183E+04  0.89481172789E+03 0.  0.
         23    2    4    4    0    0  0.17659836199E+03  0.43790902973E+03 -0.31757514621E+03  0.57631363699E+03  0.91280528645E+02 0.  0.
         23    2    4    4    0    0 -0.37785058400E+03 -0.23533127848E+03 -0.20328127690E+03  0.49770668127E+03  0.90756754999E+02 0.  0.
          1    1    3    3  502    0  0.64402467010E+02 -0.26587183128E+02  0.14389912067E+03  0.15987968287E+03  0.00000000000E+00 0. -1.
         -2    1    3    3    0  502  0.13684975500E+03 -0.17599056813E+03  0.66855853312E+03  0.70474892531E+03  0.00000000000E+00 0.  1.
         11    1    5    5    0    0  0.15435454696E+03  0.41298989172E+03 -0.31679035826E+03  0.54290156374E+03  0.00000000000E+00 0. -1.
        -11    1    5    5    0    0  0.22243815031E+02  0.24919138017E+02 -0.78478795280E+00  0.33412073248E+02  0.00000000000E+00 0.  1.
          3    1    6    6  503    0 -0.36800264719E+03 -0.22800068479E+03 -0.21259826727E+03  0.48229481011E+03  0.00000000000E+00 0. -1.
         -3    1    6    6    0  503 -0.98479368084E+01 -0.73305936852E+01  0.93169903694E+01  0.15411871162E+02  0.00000000000E+00 0.  1.
<mgrwt>
<rscale>  0 0.19165929E+04</rscale>
<asrwt>0</asrwt>
<pdfrwt beam="1">  1        1 0.12669598E+00 0.19165929E+04</pdfrwt>
<pdfrwt beam="2">  1       -2 0.17155770E+00 0.19165929E+04</pdfrwt>
<totfact> 0.35865551E+00</totfact>
</mgrwt>
</event>
<event>
12    4  0.4381187E-008  0.1659349E+04  0.7818608E-02  0.8784895E-01
          1   -1    0    0  501    0  0.00000000000E+00  0.00000000000E+00  0.83675690196E+03  0.83675690196E+03  0.00000000000E+00 0. -1.
         -2   -1    0    0    0  501 -0.00000000000E+00 -0.00000000000E+00 -0.82265213446E+03  0.82265213446E+03  0.00000000000E+00 0.  1.
        -24    2    1    2    0    0  0.43894367351E+03  0.34236689793E+03  0.18131877753E+03  0.59086137736E+03  0.79712150001E+02 0.  0.
        254    2    1    2    0    0 -0.43894367351E+03 -0.34236689793E+03 -0.16721401004E+03  0.10685476591E+04  0.89663087903E+03 0.  0.
         23    2    4    4    0    0  0.12068557064E+03  0.64549557522E+02  0.21645879297E+03  0.27238419158E+03  0.92774384570E+02 0.  0.
         23    2    4    4    0    0 -0.55962924415E+03 -0.40691645545E+03 -0.38367280301E+03  0.79616346748E+03  0.88913185507E+02 0.  0.
          1    1    3    3  502    0  0.21118250642E+03  0.16113653216E+03  0.44872620064E+02  0.26940041768E+03  0.00000000000E+00 0. -1.
         -2    1    3    3    0  502  0.22776116708E+03  0.18123036577E+03  0.13644615746E+03  0.32146095967E+03  0.00000000000E+00 0.  1.
         11    1    5    5    0    0  0.69131608027E+02  0.85054791964E+02  0.15076068179E+03  0.18639281112E+03  0.00000000000E+00 0.  1.
        -11    1    5    5    0    0  0.51553962612E+02 -0.20505234442E+02  0.65698111187E+02  0.85991380464E+02  0.00000000000E+00 0. -1.
          1    1    6    6  503    0 -0.28924643878E+01 -0.15734360721E+02 -0.23426612302E+01  0.16168627622E+02  0.00000000000E+00 0. -1.
         -1    1    6    6    0  503 -0.55673677976E+03 -0.39118209473E+03 -0.38133014178E+03  0.77999483986E+03  0.00000000000E+00 0.  1.
<mgrwt>
<rscale>  0 0.16593491E+04</rscale>
<asrwt>0</asrwt>
<pdfrwt beam="1">  1        1 0.12873183E+00 0.16593491E+04</pdfrwt>
<pdfrwt beam="2">  1       -2 0.12656187E+00 0.16593491E+04</pdfrwt>
<totfact> 0.79890999E+00</totfact>
</mgrwt>
</event>
<event>
12    4  0.4381187E-008  0.1915520E+04  0.7818608E-02  0.8647169E-01
         -2   -1    0    0    0  501 -0.00000000000E+00  0.00000000000E+00  0.83948284277E+03  0.83948284277E+03  0.00000000000E+00 0.  1.
          1   -1    0    0  501    0  0.00000000000E+00 -0.00000000000E+00 -0.10927020077E+04  0.10927020077E+04  0.00000000000E+00 0. -1.
        -24    2    1    2    0    0 -0.31024679970E+03 -0.65570859043E+03 -0.24175738485E+03  0.76937846877E+03  0.85380107674E+02 0.  0.
        254    2    1    2    0    0  0.31024679970E+03  0.65570859043E+03 -0.11461780041E+02  0.11628063817E+04  0.90872464288E+03 0.  0.
         23    2    4    4    0    0  0.59129243865E+03  0.46038481912E+03 -0.17216934476E+03  0.77431597324E+03  0.91334623636E+02 0.  0.
         23    2    4    4    0    0 -0.28104563894E+03  0.19532377131E+03  0.16070756472E+03  0.38849040843E+03  0.89217987389E+02 0.  0.
          1    1    3    3  502    0 -0.97062286994E+02 -0.26114407486E+03 -0.57176961661E+02  0.28440555609E+03  0.00000000000E+00 0. -1.
         -2    1    3    3    0  502 -0.21318451271E+03 -0.39456451557E+03 -0.18458042319E+03  0.48497291267E+03  0.00000000000E+00 0.  1.
         11    1    5    5    0    0  0.56711783912E+03  0.43683025343E+03 -0.18299286501E+03  0.73887055863E+03  0.00000000000E+00 0.  1.
        -11    1    5    5    0    0  0.24174599526E+02  0.23554565684E+02  0.10823520250E+02  0.35445414618E+02  0.00000000000E+00 0. -1.
          3    1    6    6  503    0 -0.17058965104E+03  0.11520090856E+03  0.47660279949E+02  0.21129027583E+03  0.00000000000E+00 0. -1.
         -3    1    6    6    0  503 -0.11045598790E+03  0.80122862756E+02  0.11304728477E+03  0.17720013260E+03  0.00000000000E+00 0.  1.
<mgrwt>
<rscale>  0 0.19155204E+04</rscale>
<asrwt>0</asrwt>
<pdfrwt beam="1">  1        1 0.16810800E+00 0.19155204E+04</pdfrwt>
<pdfrwt beam="2">  1       -2 0.12915121E+00 0.19155204E+04</pdfrwt>
<totfact> 0.46457015E+00</totfact>
</mgrwt>
</event>
<event>
12    4  0.4381187E-008  0.1830141E+04  0.7818608E-02  0.8690433E-01
          1   -1    0    0  501    0  0.00000000000E+00  0.00000000000E+00  0.11888468262E+04  0.11888468262E+04  0.00000000000E+00 0. -1.
         -2   -1    0    0    0  501 -0.00000000000E+00 -0.00000000000E+00 -0.70434128335E+03  0.70434128335E+03  0.00000000000E+00 0.  1.
        -24    2    1    2    0    0 -0.10400226275E+02 -0.13494462228E+03  0.88082518355E+03  0.89474161803E+03  0.79945877144E+02 0.  0.
        254    2    1    2    0    0  0.10400226275E+02  0.13494462228E+03 -0.39631964070E+03  0.99844649153E+03  0.90637074261E+03 0.  0.
         23    2    4    4    0    0 -0.22002556486E+03  0.20818527196E+03  0.18180910790E+03  0.36472935420E+03  0.90667488383E+02 0.  0.
         23    2    4    4    0    0  0.23042579113E+03 -0.73240649675E+02 -0.57812874859E+03  0.63371713734E+03  0.94362716263E+02 0.  0.
          1    1    3    3  502    0  0.30436365545E+02 -0.91630206175E+02  0.49182483733E+03  0.50121266709E+03  0.00000000000E+00 0. -1.
         -2    1    3    3    0  502 -0.40836591820E+02 -0.43314416105E+02  0.38900034622E+03  0.39352895095E+03  0.00000000000E+00 0.  1.
         11    1    5    5    0    0 -0.21760184604E+03  0.20193272222E+03  0.19126088201E+03  0.35314035834E+03  0.00000000000E+00 0. -1.
        -11    1    5    5    0    0 -0.24237188180E+01  0.62525497304E+01 -0.94517741118E+01  0.11588995854E+02  0.00000000000E+00 0.  1.
          3    1    6    6  503    0  0.17829622141E+03 -0.62965411658E+02 -0.52733694883E+03  0.56021285529E+03  0.00000000000E+00 0. -1.
         -3    1    6    6    0  503  0.52129569719E+02 -0.10275238017E+02 -0.50791799764E+02  0.73504282043E+02  0.00000000000E+00 0.  1.
<mgrwt>
<rscale>  0 0.18301409E+04</rscale>
<asrwt>0</asrwt>
<pdfrwt beam="1">  1        1 0.18289951E+00 0.18301409E+04</pdfrwt>
<pdfrwt beam="2">  1       -2 0.10836020E+00 0.18301409E+04</pdfrwt>
<totfact> 0.61247859E+00</totfact>
</mgrwt>
</event>
<event>
12    4  0.4381187E-008  0.1950466E+04  0.7818608E-02  0.8630136E-01
         -2   -1    0    0    0  501 -0.00000000000E+00  0.00000000000E+00  0.49627708789E+03  0.49627708789E+03  0.00000000000E+00 0.  1.
          1   -1    0    0  501    0  0.00000000000E+00 -0.00000000000E+00 -0.19164290795E+04  0.19164290795E+04  0.00000000000E+00 0. -1.
        -24    2    1    2    0    0  0.13398094658E+03  0.16603517646E+03 -0.14690400534E+04  0.14855102746E+04  0.56067135777E+02 0.  0.
        254    2    1    2    0    0 -0.13398094658E+03 -0.16603517646E+03  0.48888061755E+02  0.92719589277E+03  0.90099034796E+03 0.  0.
         23    2    4    4    0    0  0.11807650690E+03 -0.39522954231E+03 -0.22707739126E+03  0.47945152462E+03  0.90339195533E+02 0.  0.
         23    2    4    4    0    0 -0.25205745348E+03  0.22919436585E+03  0.27596545301E+03  0.44774436815E+03  0.90857419949E+02 0.  0.
          3    1    3    3  502    0  0.12094695218E+03  0.13121813413E+03 -0.13146730846E+04  0.13267296949E+04  0.00000000000E+00 0. -1.
         -4    1    3    3    0  502  0.13033994401E+02  0.34817042324E+02 -0.15436696875E+03  0.15878057969E+03  0.00000000000E+00 0.  1.
         11    1    5    5    0    0  0.52200980718E+02 -0.10071552557E+03 -0.24734457756E+02  0.11610492186E+03  0.00000000000E+00 0.  1.
        -11    1    5    5    0    0  0.65875526178E+02 -0.29451401674E+03 -0.20234293350E+03  0.36334660277E+03  0.00000000000E+00 0. -1.
          4    1    6    6  503    0 -0.82007351774E+02  0.11144556983E+03  0.15645539256E+03  0.20886265976E+03  0.00000000000E+00 0.  1.
         -4    1    6    6    0  503 -0.17005010170E+03  0.11774879602E+03  0.11951006045E+03  0.23888170839E+03  0.00000000000E+00 0. -1.
<mgrwt>
<rscale>  0 0.19504664E+04</rscale>
<asrwt>0</asrwt>
<pdfrwt beam="1">  1        1 0.29483524E+00 0.19504664E+04</pdfrwt>
<pdfrwt beam="2">  1       -2 0.76350321E-01 0.19504664E+04</pdfrwt>
<totfact> 0.42631328E+00</totfact>
</mgrwt>
</event>
<event>
12    4  0.4381187E-008  0.1399892E+04  0.7818608E-02  0.8953896E-01
          1   -1    0    0  501    0  0.00000000000E+00  0.00000000000E+00  0.77062315688E+03  0.77062315688E+03  0.00000000000E+00 0. -1.
         -2   -1    0    0    0  501 -0.00000000000E+00 -0.00000000000E+00 -0.63575131695E+03  0.63575131695E+03  0.00000000000E+00 0.  1.
        -24    2    1    2    0    0  0.11765882765E+03  0.19215183850E+02 -0.36845380009E+03  0.39570384728E+03  0.81305036341E+02 0.  0.
        254    2    1    2    0    0 -0.11765882765E+03 -0.19215183850E+02  0.50332564002E+03  0.10106706266E+04  0.86827737069E+03 0.  0.
         23    2    4    4    0    0  0.35724860125E+02  0.29652877497E+03  0.56224636533E+03  0.64324299956E+03  0.91842262309E+02 0.  0.
         23    2    4    4    0    0 -0.15338368778E+03 -0.31574395882E+03 -0.58920725307E+02  0.36742762699E+03  0.91162525167E+02 0.  0.
          1    1    3    3  502    0  0.58003614421E+02  0.16055906690E+02 -0.74657232086E+02  0.95895326937E+02  0.00000000000E+00 0. -1.
         -2    1    3    3    0  502  0.59655213231E+02  0.31592771600E+01 -0.29379656801E+03  0.29980852034E+03  0.00000000000E+00 0.  1.
         11    1    5    5    0    0 -0.14925458017E+02  0.13243450305E+03  0.17798275822E+03  0.22235001488E+03  0.00000000000E+00 0.  1.
        -11    1    5    5    0    0  0.50650318141E+02  0.16409427192E+03  0.38426360711E+03  0.42089298468E+03  0.00000000000E+00 0. -1.
          1    1    6    6  503    0 -0.13953162878E+03 -0.23006596169E+03 -0.74624231108E+02  0.27922786041E+03  0.00000000000E+00 0. -1.
         -1    1    6    6    0  503 -0.13852059000E+02 -0.85677997127E+02  0.15703505802E+02  0.88199766580E+02  0.00000000000E+00 0.  1.
<mgrwt>
<rscale>  0 0.13998924E+04</rscale>
<asrwt>0</asrwt>
<pdfrwt beam="1">  1        1 0.11855741E+00 0.13998924E+04</pdfrwt>
<pdfrwt beam="2">  1       -2 0.97807895E-01 0.13998924E+04</pdfrwt>
<totfact> 0.17448820E+01</totfact>
</mgrwt>
</event>
<event>
12    4  0.4381187E-008  0.1612632E+04  0.7818608E-02  0.8812825E-01
          1   -1    0    0  501    0  0.00000000000E+00  0.00000000000E+00  0.20518745850E+04  0.20518745850E+04  0.00000000000E+00 0. -1.
         -2   -1    0    0    0  501 -0.00000000000E+00 -0.00000000000E+00 -0.31685446050E+03  0.31685446050E+03  0.00000000000E+00 0.  1.
        -24    2    1    2    0    0  0.52282836196E+03  0.11266878531E+02  0.32818506475E+03  0.62265570606E+03  0.80735698032E+02 0.  0.
        254    2    1    2    0    0 -0.52282836196E+03 -0.11266878531E+02  0.14068350597E+04  0.17460733394E+04  0.89225040361E+03 0.  0.
         23    2    4    4    0    0  0.84306557121E+02  0.79212996843E+01 -0.72821139772E+02  0.14395217488E+03  0.90823827786E+02 0.  0.
         23    2    4    4    0    0 -0.60713491909E+03 -0.19188178216E+02  0.14796561995E+04  0.16021211646E+04  0.91808283881E+02 0.  0.
          3    1    3    3  502    0  0.21491696035E+03  0.60769266262E+01  0.18233631991E+03  0.28190913862E+03  0.00000000000E+00 0. -1.
         -4    1    3    3    0  502  0.30791140162E+03  0.51899519051E+01  0.14584874484E+03  0.34074656743E+03  0.00000000000E+00 0.  1.
         11    1    5    5    0    0  0.58534679705E+01  0.34736520457E+02 -0.43581958195E+02  0.56038165752E+02  0.00000000000E+00 0. -1.
        -11    1    5    5    0    0  0.78453089151E+02 -0.26815220772E+02 -0.29239181577E+02  0.87914009132E+02  0.00000000000E+00 0.  1.
          1    1    6    6  503    0 -0.19723294426E+03 -0.44660951029E+02  0.43819014838E+03  0.48260339927E+03  0.00000000000E+00 0. -1.
         -1    1    6    6    0  503 -0.40990197483E+03  0.25472772814E+02  0.10414660511E+04  0.11195177653E+04  0.00000000000E+00 0.  1.
<mgrwt>
<rscale>  0 0.16126322E+04</rscale>
<asrwt>0</asrwt>
<pdfrwt beam="1">  1        1 0.31567300E+00 0.16126322E+04</pdfrwt>
<pdfrwt beam="2">  1       -2 0.48746841E-01 0.16126322E+04</pdfrwt>
<totfact> 0.92203727E+00</totfact>
</mgrwt>
</event>
<event>
12    4  0.4381187E-008  0.1625965E+04  0.7818608E-02  0.8804754E-01
         -2   -1    0    0    0  501 -0.00000000000E+00  0.00000000000E+00  0.56545827770E+03  0.56545827770E+03  0.00000000000E+00 0.  1.
          1   -1    0    0  501    0  0.00000000000E+00 -0.00000000000E+00 -0.11688578844E+04  0.11688578844E+04  0.00000000000E+00 0. -1.
        -24    2    1    2    0    0  0.97455136037E+02  0.31882240502E+03  0.26956621207E+03  0.43569584101E+03  0.77586685061E+02 0.  0.
        254    2    1    2    0    0 -0.97455136037E+02 -0.31882240502E+03 -0.87296581872E+03  0.12986203210E+04  0.90177612970E+03 0.  0.
         23    2    4    4    0    0 -0.37001914557E+03 -0.26139995260E+03 -0.89231091742E+03  0.10044555779E+04  0.86418350133E+02 0.  0.
         23    2    4    4    0    0  0.27256400953E+03 -0.57422452426E+02  0.19345098700E+02  0.29416474319E+03  0.92575298849E+02 0.  0.
          1    1    3    3  502    0  0.23600694992E+02  0.32952332882E+02  0.64624180098E+02  0.76283246521E+02  0.00000000000E+00 0. -1.
         -2    1    3    3    0  502  0.73854441045E+02  0.28587007214E+03  0.20494203197E+03  0.35941259449E+03  0.00000000000E+00 0.  1.
         11    1    5    5    0    0 -0.24670071628E+03 -0.17238547921E+03 -0.49861981770E+03  0.58240855030E+03  0.00000000000E+00 0.  1.
        -11    1    5    5    0    0 -0.12331842928E+03 -0.89014473387E+02 -0.39369109972E+03  0.42204702756E+03  0.00000000000E+00 0. -1.
          1    1    6    6  503    0  0.32132602627E+01 -0.17796802243E+02 -0.94350779999E+01  0.20397840779E+02  0.00000000000E+00 0. -1.
         -1    1    6    6    0  503  0.26935074927E+03 -0.39625650183E+02  0.28780176700E+02  0.27376690241E+03  0.00000000000E+00 0.  1.
<mgrwt>
<rscale>  0 0.16259648E+04</rscale>
<asrwt>0</asrwt>
<pdfrwt beam="1">  1        1 0.17982429E+00 0.16259648E+04</pdfrwt>
<pdfrwt beam="2">  1       -2 0.86993582E-01 0.16259648E+04</pdfrwt>
<totfact> 0.10809272E+01</totfact>
</mgrwt>
</event>
<event>
12    4  0.4381187E-008  0.2166329E+04  0.7818608E-02  0.8532575E-01
         -2   -1    0    0    0  501 -0.00000000000E+00  0.00000000000E+00  0.50149411827E+03  0.50149411827E+03  0.00000000000E+00 0.  1.
          1   -1    0    0  501    0  0.00000000000E+00 -0.00000000000E+00 -0.23394990031E+04  0.23394990031E+04  0.00000000000E+00 0. -1.
        -24    2    1    2    0    0  0.27534812293E+03  0.51530843944E+03 -0.16289760689E+04  0.17324609215E+04  0.80612871867E+02 0.  0.
        254    2    1    2    0    0 -0.27534812293E+03 -0.51530843944E+03 -0.20902881597E+03  0.11085321998E+04  0.91858108822E+03 0.  0.
         23    2    4    4    0    0  0.23323841549E+03 -0.21156654503E+03  0.19874521946E+03  0.38368895849E+03  0.92504017063E+02 0.  0.
         23    2    4    4    0    0 -0.50858653843E+03 -0.30374189441E+03 -0.40777403543E+03  0.72484324135E+03  0.90546425009E+02 0.  0.
          1    1    3    3  502    0  0.24753710012E+03  0.47052302265E+03 -0.14014973733E+04  0.14989534410E+04  0.00000000000E+00 0. -1.
         -2    1    3    3    0  502  0.27811022812E+02  0.44785416790E+02 -0.22747869553E+03  0.23350748053E+03  0.00000000000E+00 0.  1.
         11    1    5    5    0    0  0.13929145568E+03 -0.11456366869E+03  0.16512733028E+03  0.24452807408E+03  0.00000000000E+00 0. -1.
        -11    1    5    5    0    0  0.93946959818E+02 -0.97002876336E+02  0.33617889175E+02  0.13916088441E+03  0.00000000000E+00 0.  1.
          3    1    6    6  503    0 -0.36135207394E+03 -0.23998147258E+03 -0.33782541989E+03  0.54981127930E+03  0.00000000000E+00 0. -1.
         -3    1    6    6    0  503 -0.14723446449E+03 -0.63760421827E+02 -0.69948615533E+02  0.17503196205E+03  0.00000000000E+00 0.  1.
<mgrwt>
<rscale>  0 0.21663287E+04</rscale>
<asrwt>0</asrwt>
<pdfrwt beam="1">  1        1 0.35992292E+00 0.21663287E+04</pdfrwt>
<pdfrwt beam="2">  1       -2 0.77152943E-01 0.21663287E+04</pdfrwt>
<totfact> 0.21062057E+00</totfact>
</mgrwt>
</event>
<event>
12    4  0.4381187E-008  0.1274460E+04  0.7818608E-02  0.9050067E-01
          1   -1    0    0  501    0  0.00000000000E+00  0.00000000000E+00  0.14461450038E+04  0.14461450038E+04  0.00000000000E+00 0. -1.
         -2   -1    0    0    0  501 -0.00000000000E+00 -0.00000000000E+00 -0.28078943822E+03  0.28078943822E+03  0.00000000000E+00 0.  1.
        -24    2    1    2    0    0  0.70799444157E+02 -0.26068569042E+03  0.61714010655E+03  0.67824448926E+03  0.78638957349E+02 0.  0.
        254    2    1    2    0    0 -0.70799444157E+02  0.26068569042E+03  0.54821545906E+03  0.10486899528E+04  0.85219765140E+03 0.  0.
         23    2    4    4    0    0 -0.30847667391E+03  0.23227335059E+03  0.65940757296E+03  0.76975903434E+03  0.92746190924E+02 0.  0.
         23    2    4    4    0    0  0.23767722975E+03  0.28412339827E+02 -0.11119211390E+03  0.27893091845E+03  0.90227736730E+02 0.  0.
          3    1    3    3  502    0  0.82306718610E+02 -0.22287833855E+03  0.48092272695E+03  0.53641012203E+03  0.00000000000E+00 0. -1.
         -4    1    3    3    0  502 -0.11507274453E+02 -0.37807351873E+02  0.13621737960E+03  0.14183436723E+03  0.00000000000E+00 0.  1.
         11    1    5    5    0    0 -0.10020216752E+02  0.33158225175E+02  0.32789587642E+02  0.47697271392E+02  0.00000000000E+00 0. -1.
        -11    1    5    5    0    0 -0.29845645715E+03  0.19911512542E+03  0.62661798532E+03  0.72206176295E+03  0.00000000000E+00 0.  1.
          1    1    6    6  503    0  0.20567784694E+03  0.53834375958E+01 -0.60002118593E+02  0.21431895007E+03  0.00000000000E+00 0. -1.
         -1    1    6    6    0  503  0.31999382812E+02  0.23028902231E+02 -0.51189995310E+02  0.64611968382E+02  0.00000000000E+00 0.  1.
<mgrwt>
<rscale>  0 0.12744603E+04</rscale>
<asrwt>0</asrwt>
<pdfrwt beam="1">  1        1 0.22248384E+00 0.12744603E+04</pdfrwt>
<pdfrwt beam="2">  1       -2 0.43198376E-01 0.12744603E+04</pdfrwt>
<totfact> 0.31292353E+01</totfact>
</mgrwt>
</event>
<event>
12    4  0.4381187E-008  0.3290495E+04  0.7818608E-02  0.8165318E-01
          1   -1    0    0  501    0  0.00000000000E+00  0.00000000000E+00  0.11179177169E+04  0.11179177169E+04  0.00000000000E+00 0. -1.
         -2   -1    0    0    0  501 -0.00000000000E+00 -0.00000000000E+00 -0.24213228906E+04  0.24213228906E+04  0.00000000000E+00 0.  1.
        -24    2    1    2    0    0  0.36246880818E+03 -0.93198226894E+03 -0.18239295715E+04  0.20815783832E+04  0.79214246627E+02 0.  0.
        254    2    1    2    0    0 -0.36246880818E+03  0.93198226894E+03  0.52052439783E+03  0.14576622243E+04  0.92404487172E+03 0.  0.
         23    2    4    4    0    0 -0.37118212946E+03  0.95173612630E+03  0.10417954050E+03  0.10311220702E+04  0.93709762432E+02 0.  0.
         23    2    4    4    0    0  0.87133212744E+01 -0.19753857367E+02  0.41634485733E+03  0.42654015416E+03  0.90151683465E+02 0.  0.
          1    1    3    3  502    0  0.12906144754E+02 -0.11545601971E+02 -0.47285606840E+02  0.50356708704E+02  0.00000000000E+00 0. -1.
         -2    1    3    3    0  502  0.34956266343E+03 -0.92043666697E+03 -0.17766439647E+04  0.20312216745E+04  0.00000000000E+00 0.  1.
         11    1    5    5    0    0 -0.30494940433E+03  0.86105950219E+03  0.88475533727E+02  0.91773935601E+03  0.00000000000E+00 0.  1.
        -11    1    5    5    0    0 -0.66232725125E+02  0.90676624117E+02  0.15704006773E+02  0.11338271415E+03  0.00000000000E+00 0. -1.
          3    1    6    6  503    0 -0.30269478216E+02  0.10761007433E+02  0.74529552692E+02  0.81158454994E+02  0.00000000000E+00 0. -1.
         -3    1    6    6    0  503  0.38982799491E+02 -0.30514864799E+02  0.34181530464E+03  0.34538169916E+03  0.00000000000E+00 0.  1.
<mgrwt>
<rscale>  0 0.32904953E+04</rscale>
<asrwt>0</asrwt>
<pdfrwt beam="1">  1        1 0.17198734E+00 0.32904953E+04</pdfrwt>
<pdfrwt beam="2">  1       -2 0.37251121E+00 0.32904953E+04</pdfrwt>
<totfact> 0.10014783E-01</totfact>
</mgrwt>
</event>
<event>
12    4  0.4392985E-008  0.2991583E+04  0.7818608E-02  0.8246139E-01
          1   -1    0    0  501    0  0.00000000000E+00  0.00000000000E+00  0.12194932358E+04  0.12194932358E+04  0.00000000000E+00 0. -1.
         -2   -1    0    0    0  501 -0.00000000000E+00 -0.00000000000E+00 -0.18346899619E+04  0.18346899619E+04  0.00000000000E+00 0.  1.
        -24    2    1    2    0    0  0.78447981834E+03  0.34355052249E+03 -0.13482974190E+04  0.16010105832E+04  0.10905691388E+03 0.  0.
        254    2    1    2    0    0 -0.78447981834E+03 -0.34355052249E+03  0.73310069293E+03  0.14531726145E+04  0.91697245028E+03 0.  0.
         23    2    4    4    0    0 -0.33652593378E+03 -0.40778856105E+03  0.82257255085E+03  0.98277660777E+03  0.98402463156E+02 0.  0.
         23    2    4    4    0    0 -0.44795388456E+03  0.64238038554E+02 -0.89471857912E+02  0.47039600669E+03  0.92075954880E+02 0.  0.
          1    1    3    3  502    0  0.19239586568E+03  0.44159469249E+02 -0.26049388408E+03  0.32683832624E+03  0.00000000000E+00 0. -1.
         -2    1    3    3    0  502  0.59208395265E+03  0.29939105324E+03 -0.10878035350E+04  0.12741722570E+04  0.00000000000E+00 0.  1.
         11    1    5    5    0    0 -0.22849358835E+03 -0.33914211701E+03  0.60203784017E+03  0.72778860698E+03  0.00000000000E+00 0. -1.
        -11    1    5    5    0    0 -0.10803234543E+03 -0.68646444033E+02  0.22053471067E+03  0.25498800079E+03  0.00000000000E+00 0.  1.
          3    1    6    6  503    0 -0.38137019561E+03  0.81756829811E+02 -0.94638784514E+02  0.40135259418E+03  0.00000000000E+00 0. -1.
         -3    1    6    6    0  503 -0.66583688949E+02 -0.17518791258E+02  0.51669266015E+01  0.69043412514E+02  0.00000000000E+00 0.  1.
<mgrwt>
<rscale>  0 0.29915829E+04</rscale>
<asrwt>0</asrwt>
<pdfrwt beam="1">  1        1 0.18761434E+00 0.29915829E+04</pdfrwt>
<pdfrwt beam="2">  1       -2 0.28225999E+00 0.29915829E+04</pdfrwt>
<totfact> 0.31537412E-01</totfact>
</mgrwt>
</event>
<event>
12    4  0.4381187E-008  0.1935936E+04  0.7818608E-02  0.8637173E-01
          1   -1    0    0  501    0  0.00000000000E+00  0.00000000000E+00  0.14113228802E+04  0.14113228802E+04  0.00000000000E+00 0. -1.
         -2   -1    0    0    0  501 -0.00000000000E+00 -0.00000000000E+00 -0.66388926783E+03  0.66388926783E+03  0.00000000000E+00 0.  1.
        -24    2    1    2    0    0 -0.17265627982E+03  0.15337003953E+03 -0.47659949106E+03  0.53576053677E+03  0.80992085402E+02 0.  0.
        254    2    1    2    0    0  0.17265627982E+03 -0.15337003953E+03  0.12240331035E+04  0.15394516113E+04  0.90461133375E+03 0.  0.
         23    2    4    4    0    0 -0.83725911600E+02 -0.27436262017E+02 -0.11233524384E+03  0.16969804817E+03  0.91735728035E+02 0.  0.
         23    2    4    4    0    0  0.25638219142E+03 -0.12593377751E+03  0.13363683473E+04  0.13697535631E+04  0.93559177119E+02 0.  0.
          1    1    3    3  502    0 -0.78121157319E+01  0.10742957068E+02 -0.19178055349E+01  0.13420814314E+02  0.00000000000E+00 0. -1.
         -2    1    3    3    0  502 -0.16484416409E+03  0.14262708246E+03 -0.47468168553E+03  0.52233972246E+03  0.00000000000E+00 0.  1.
         11    1    5    5    0    0 -0.95999198889E+02 -0.17376229046E+02 -0.11776445621E+03  0.15292562463E+03  0.00000000000E+00 0. -1.
        -11    1    5    5    0    0  0.12273287289E+02 -0.10060032971E+02  0.54292123735E+01  0.16772423536E+02  0.00000000000E+00 0.  1.
          4    1    6    6  503    0  0.25984040111E+03 -0.13124993854E+03  0.13261659767E+04  0.13577406888E+04  0.00000000000E+00 0. -1.
         -4    1    6    6    0  503 -0.34582096881E+01  0.53161610285E+01  0.10202370612E+02  0.12012874278E+02  0.00000000000E+00 0.  1.
<mgrwt>
<rscale>  0 0.19359361E+04</rscale>
<asrwt>0</asrwt>
<pdfrwt beam="1">  1        1 0.21712660E+00 0.19359361E+04</pdfrwt>
<pdfrwt beam="2">  1       -2 0.10213681E+00 0.19359361E+04</pdfrwt>
<totfact> 0.48497748E+00</totfact>
</mgrwt>
</event>
<event>
12    4  0.4381187E-008  0.2009589E+04  0.7818608E-02  0.8602150E-01
         -2   -1    0    0    0  501 -0.00000000000E+00  0.00000000000E+00  0.39580019008E+03  0.39580019008E+03  0.00000000000E+00 0.  1.
          1   -1    0    0  501    0  0.00000000000E+00 -0.00000000000E+00 -0.25508133056E+04  0.25508133056E+04  0.00000000000E+00 0. -1.
        -24    2    1    2    0    0  0.32991667798E+03 -0.34408024538E+02  0.20532335627E+03  0.39824733579E+03  0.80089532818E+02 0.  0.
        254    2    1    2    0    0 -0.32991667798E+03  0.34408024538E+02 -0.23603364718E+04  0.25483661599E+04  0.90163900662E+03 0.  0.
         23    2    4    4    0    0 -0.24675867522E+03 -0.12122749210E+03 -0.15050409167E+03  0.32935020257E+03  0.10116385563E+03 0.  0.
         23    2    4    4    0    0 -0.83158002761E+02  0.15563551664E+03 -0.22098323802E+04  0.22190159574E+04  0.97647340654E+02 0.  0.
          1    1    3    3  502    0  0.50880018389E+02  0.60564038064E+01  0.32202522132E+01  0.51340299207E+02  0.00000000000E+00 0. -1.
         -2    1    3    3    0  502  0.27903665959E+03 -0.40464428345E+02  0.20210310406E+03  0.34690703658E+03  0.00000000000E+00 0.  1.
         11    1    5    5    0    0 -0.17731266772E+02 -0.40879577211E+02 -0.49103580949E+02  0.66307611301E+02  0.00000000000E+00 0. -1.
        -11    1    5    5    0    0 -0.22902740845E+03 -0.80347914890E+02 -0.10140051072E+03  0.26304259127E+03  0.00000000000E+00 0.  1.
          1    1    6    6  503    0 -0.80474947493E+01 -0.61988320576E+01 -0.26097333637E+02  0.28004615934E+02  0.00000000000E+00 0. -1.
         -1    1    6    6    0  503 -0.75110508012E+02  0.16183434870E+03 -0.21837350465E+04  0.21910113414E+04  0.00000000000E+00 0.  1.
<mgrwt>
<rscale>  0 0.20095894E+04</rscale>
<asrwt>0</asrwt>
<pdfrwt beam="1">  1        1 0.39243280E+00 0.20095894E+04</pdfrwt>
<pdfrwt beam="2">  1       -2 0.60892340E-01 0.20095894E+04</pdfrwt>
<totfact> 0.25539600E+00</totfact>
</mgrwt>
</event>
<event>
12    4  0.4381187E-008  0.1585188E+04  0.7818608E-02  0.8829699E-01
         -2   -1    0    0    0  501 -0.00000000000E+00  0.00000000000E+00  0.25784497246E+03  0.25784497246E+03  0.00000000000E+00 0.  1.
          1   -1    0    0  501    0  0.00000000000E+00 -0.00000000000E+00 -0.24363688336E+04  0.24363688336E+04  0.00000000000E+00 0. -1.
        -24    2    1    2    0    0 -0.21674780264E+03 -0.76929520344E+02  0.72039431054E+02  0.25632421953E+03  0.87262046946E+02 0.  0.
        254    2    1    2    0    0  0.21674780264E+03  0.76929520344E+02 -0.22505632922E+04  0.24378895865E+04  0.90850027128E+03 0.  0.
         23    2    4    4    0    0  0.53663672800E+02  0.39050745716E+03 -0.47122565080E+03  0.62125612833E+03  0.92356370323E+02 0.  0.
         23    2    4    4    0    0  0.16308412984E+03 -0.31357793682E+03 -0.17793376414E+04  0.18166334582E+04  0.95849483671E+02 0.  0.
          1    1    3    3  502    0  0.73130742412E+01 -0.86184357831E+01  0.66987056646E+01  0.13138917299E+02  0.00000000000E+00 0. -1.
         -2    1    3    3    0  502 -0.22406087689E+03 -0.68311084561E+02  0.65340725390E+02  0.24318530223E+03  0.00000000000E+00 0.  1.
         11    1    5    5    0    0 -0.33706291434E-01 -0.31237077296E+01  0.17423193911E+01  0.35769208762E+01  0.00000000000E+00 0. -1.
        -11    1    5    5    0    0  0.53697379091E+02  0.39363116489E+03 -0.47296797019E+03  0.61767920745E+03  0.00000000000E+00 0.  1.
          3    1    6    6  503    0  0.94869211390E+02 -0.22601094832E+03 -0.10093472084E+04  0.10386832545E+04  0.00000000000E+00 0.  1.
         -3    1    6    6    0  503  0.68214918455E+02 -0.87566988498E+02 -0.76999043298E+03  0.77795020372E+03  0.00000000000E+00 0. -1.
<mgrwt>
<rscale>  0 0.15851883E+04</rscale>
<asrwt>0</asrwt>
<pdfrwt beam="1">  1        1 0.37482597E+00 0.15851883E+04</pdfrwt>
<pdfrwt beam="2">  1       -2 0.39668457E-01 0.15851883E+04</pdfrwt>
<totfact> 0.76179430E+00</totfact>
</mgrwt>
</event>
<event>
12    4  0.4381187E-008  0.1370739E+04  0.7818608E-02  0.8975276E-01
          1   -1    0    0  501    0  0.00000000000E+00  0.00000000000E+00  0.11439218716E+04  0.11439218716E+04  0.00000000000E+00 0. -1.
         -2   -1    0    0    0  501 -0.00000000000E+00 -0.00000000000E+00 -0.41063246249E+03  0.41063246249E+03  0.00000000000E+00 0.  1.
        -24    2    1    2    0    0 -0.13026072724E+03 -0.10455161672E+03  0.62446691249E+03  0.65148477125E+03  0.81083813145E+02 0.  0.
        254    2    1    2    0    0  0.13026072724E+03  0.10455161672E+03  0.10882249663E+03  0.90306956286E+03  0.88079134985E+03 0.  0.
         23    2    4    4    0    0  0.28347942648E+03  0.39160583875E+03  0.23225090719E+03  0.54408089599E+03  0.91475785372E+02 0.  0.
         23    2    4    4    0    0 -0.15321869924E+03 -0.28705422203E+03 -0.12342841057E+03  0.35898866687E+03  0.88103315586E+02 0.  0.
          3    1    3    3  502    0 -0.47924815273E+02 -0.29304869784E+02  0.36152373498E+03  0.36586196067E+03  0.00000000000E+00 0. -1.
         -4    1    3    3    0  502 -0.82335911962E+02 -0.75246746931E+02  0.26294317751E+03  0.28562281058E+03  0.00000000000E+00 0.  1.
         11    1    5    5    0    0  0.10267356604E+03  0.84346194344E+02  0.88664596318E+02  0.15974214317E+03  0.00000000000E+00 0.  1.
        -11    1    5    5    0    0  0.18080586043E+03  0.30725964441E+03  0.14358631087E+03  0.38433875282E+03  0.00000000000E+00 0. -1.
          1    1    6    6  503    0 -0.10671815022E+03 -0.22918843761E+03 -0.56533083873E+02  0.25906001832E+03  0.00000000000E+00 0. -1.
         -1    1    6    6    0  503 -0.46500549027E+02 -0.57865784428E+02 -0.66895326694E+02  0.99928648549E+02  0.00000000000E+00 0.  1.
<mgrwt>
<rscale>  0 0.13707392E+04</rscale>
<asrwt>0</asrwt>
<pdfrwt beam="1">  1        1 0.17598798E+00 0.13707392E+04</pdfrwt>
<pdfrwt beam="2">  1       -2 0.63174226E-01 0.13707392E+04</pdfrwt>
<totfact> 0.23378510E+01</totfact>
</mgrwt>
</event>
<event>
12    4  0.4381187E-008  0.1557239E+04  0.7818608E-02  0.8847257E-01
          1   -1    0    0  501    0  0.00000000000E+00  0.00000000000E+00  0.15149592613E+04  0.15149592613E+04  0.00000000000E+00 0. -1.
         -2   -1    0    0    0  501 -0.00000000000E+00 -0.00000000000E+00 -0.40017454786E+03  0.40017454786E+03  0.00000000000E+00 0.  1.
        -24    2    1    2    0    0  0.16090526915E+03  0.34680249121E+03 -0.49859502431E+02  0.39351669320E+03  0.78784162680E+02 0.  0.
        254    2    1    2    0    0 -0.16090526915E+03 -0.34680249121E+03  0.11646442159E+04  0.15216171160E+04  0.90153204297E+03 0.  0.
         23    2    4    4    0    0  0.21050302075E+03 -0.35499436877E+03  0.10350740431E+04  0.11180365858E+04  0.91076940120E+02 0.  0.
         23    2    4    4    0    0 -0.37140828990E+03  0.81918775609E+01  0.12957017281E+03  0.40358053014E+03  0.89875413562E+02 0.  0.
          1    1    3    3  502    0 -0.53244149304E+01  0.21640713342E+02  0.81902744164E+01  0.23743429898E+02  0.00000000000E+00 0. -1.
         -2    1    3    3    0  502  0.16622968408E+03  0.32516177787E+03 -0.58049776847E+02  0.36977326330E+03  0.00000000000E+00 0.  1.
         11    1    5    5    0    0  0.16957379209E+03 -0.33275132235E+03  0.95454735418E+03  0.10250070072E+04  0.00000000000E+00 0.  1.
        -11    1    5    5    0    0  0.40929228657E+02 -0.22243046424E+02  0.80526688902E+02  0.93029578620E+02  0.00000000000E+00 0. -1.
          3    1    6    6  503    0 -0.17712315440E+03 -0.22240671724E+02  0.23238988652E+02  0.18002030413E+03  0.00000000000E+00 0. -1.
         -3    1    6    6    0  503 -0.19428513550E+03  0.30432549285E+02  0.10633118416E+03  0.22356022602E+03  0.00000000000E+00 0.  1.
<mgrwt>
<rscale>  0 0.15572388E+04</rscale>
<asrwt>0</asrwt>
<pdfrwt beam="1">  1        1 0.23307065E+00 0.15572388E+04</pdfrwt>
<pdfrwt beam="2">  1       -2 0.61565316E-01 0.15572388E+04</pdfrwt>
<totfact> 0.13233441E+01</totfact>
</mgrwt>
</event>
<event>
12    4  0.4381187E-008  0.1917868E+04  0.7818608E-02  0.8646013E-01
         -2   -1    0    0    0  501 -0.00000000000E+00  0.00000000000E+00  0.97199631120E+03  0.97199631120E+03  0.00000000000E+00 0.  1.
          1   -1    0    0  501    0  0.00000000000E+00 -0.00000000000E+00 -0.94604705061E+03  0.94604705061E+03  0.00000000000E+00 0. -1.
        -24    2    1    2    0    0  0.25393738482E+03 -0.24052005053E+03 -0.64063663257E+03  0.73432656779E+03  0.80536470360E+02 0.  0.
        254    2    1    2    0    0 -0.25393738482E+03  0.24052005053E+03  0.66658589316E+03  0.11837167940E+04  0.91351770939E+03 0.  0.
         23    2    4    4    0    0 -0.33969781785E+02  0.32229056177E+03 -0.12004336134E+03  0.35739489247E+03  0.91079900553E+02 0.  0.
         23    2    4    4    0    0 -0.21996760303E+03 -0.81770511242E+02  0.78662925450E+03  0.82632190155E+03  0.94605169235E+02 0.  0.
          3    1    3    3  502    0  0.13091471256E+03 -0.12540163654E+03 -0.41375999963E+03  0.45173174529E+03  0.00000000000E+00 0. -1.
         -4    1    3    3    0  502  0.12302267226E+03 -0.11511841398E+03 -0.22687663294E+03  0.28259482250E+03  0.00000000000E+00 0.  1.
         11    1    5    5    0    0 -0.39172365423E+02  0.15092596796E+03 -0.15747724202E+02  0.15671985463E+03  0.00000000000E+00 0. -1.
        -11    1    5    5    0    0  0.52025836386E+01  0.17136459380E+03 -0.10429563714E+03  0.20067503784E+03  0.00000000000E+00 0.  1.
          4    1    6    6  503    0  0.82579314812E+00  0.89702369494E+01  0.84456813268E+01  0.12348142303E+02  0.00000000000E+00 0.  1.
         -4    1    6    6    0  503 -0.22079339618E+03 -0.90740748191E+02  0.77818357318E+03  0.81397375925E+03  0.00000000000E+00 0. -1.
<mgrwt>
<rscale>  0 0.19178678E+04</rscale>
<asrwt>0</asrwt>
<pdfrwt beam="1">  1        1 0.14554570E+00 0.19178678E+04</pdfrwt>
<pdfrwt beam="2">  1       -2 0.14953789E+00 0.19178678E+04</pdfrwt>
<totfact> 0.41290740E+00</totfact>
</mgrwt>
</event>
<event>
12    4  0.4381187E-008  0.1518554E+04  0.7818608E-02  0.8872208E-01
         -2   -1    0    0    0  501 -0.00000000000E+00  0.00000000000E+00  0.78934457619E+03  0.78934457619E+03  0.00000000000E+00 0.  1.
          1   -1    0    0  501    0  0.00000000000E+00 -0.00000000000E+00 -0.73035462596E+03  0.73035462596E+03  0.00000000000E+00 0. -1.
        -24    2    1    2    0    0 -0.45952224560E+03  0.16177770963E+03  0.57978001934E+02  0.49705529145E+03  0.79810979905E+02 0.  0.
        254    2    1    2    0    0  0.45952224560E+03 -0.16177770963E+03  0.10119482984E+01  0.10226439107E+04  0.89914783130E+03 0.  0.
         23    2    4    4    0    0 -0.21578721091E+03  0.12515193108E+03 -0.86687538856E+02  0.27849227610E+03  0.88408665907E+02 0.  0.
         23    2    4    4    0    0  0.67530945651E+03 -0.28692964072E+03  0.87699487155E+02  0.74415163461E+03  0.87743800203E+02 0.  0.
          1    1    3    3  502    0 -0.33296814704E+03  0.11772301875E+03  0.56896150199E+01  0.35321221356E+03  0.00000000000E+00 0. -1.
         -2    1    3    3    0  502 -0.12655409856E+03  0.44054690882E+02  0.52288386914E+02  0.14384307789E+03  0.00000000000E+00 0.  1.
         11    1    5    5    0    0 -0.80892850185E+02  0.15196274621E+02 -0.61283593631E+02  0.10261704937E+03  0.00000000000E+00 0.  1.
        -11    1    5    5    0    0 -0.13489436072E+03  0.10995565646E+03 -0.25403945225E+02  0.17587522673E+03  0.00000000000E+00 0. -1.
          1    1    6    6  503    0  0.59743164056E+03 -0.24867842121E+03  0.10526537717E+03  0.65562666354E+03  0.00000000000E+00 0. -1.
         -1    1    6    6    0  503  0.77877815944E+02 -0.38251219510E+02 -0.17565890010E+02  0.88524971065E+02  0.00000000000E+00 0.  1.
<mgrwt>
<rscale>  0 0.15185539E+04</rscale>
<asrwt>0</asrwt>
<pdfrwt beam="1">  1        1 0.11236225E+00 0.15185539E+04</pdfrwt>
<pdfrwt beam="2">  1       -2 0.12143763E+00 0.15185539E+04</pdfrwt>
<totfact> 0.11127267E+01</totfact>
</mgrwt>
</event>
<event>
12    4  0.4381187E-008  0.1308981E+04  0.7818608E-02  0.9022473E-01
          1   -1    0    0  501    0  0.00000000000E+00  0.00000000000E+00  0.15668170122E+04  0.15668170122E+04  0.00000000000E+00 0. -1.
         -2   -1    0    0    0  501 -0.00000000000E+00 -0.00000000000E+00 -0.27339361524E+03  0.27339361524E+03  0.00000000000E+00 0.  1.
        -24    2    1    2    0    0 -0.80102339129E+02  0.31997592508E+03  0.43545693199E+03  0.55202931870E+03  0.79452197714E+02 0.  0.
        254    2    1    2    0    0  0.80102339129E+02 -0.31997592508E+03  0.85796646496E+03  0.12881813087E+04  0.90249856054E+03 0.  0.
         23    2    4    4    0    0  0.14329518150E+03 -0.54904285417E+03  0.24599480277E+03  0.62521251449E+03  0.91627946212E+02 0.  0.
         23    2    4    4    0    0 -0.63192842371E+02  0.22906692909E+03  0.61197166218E+03  0.66296879423E+03  0.92484125568E+02 0.  0.
          3    1    3    3  502    0 -0.74901674526E+02  0.26924167210E+03  0.40675077419E+03  0.49350535068E+03  0.00000000000E+00 0. -1.
         -4    1    3    3    0  502 -0.52006646033E+01  0.50734252975E+02  0.28706157800E+02  0.58523968021E+02  0.00000000000E+00 0.  1.
         11    1    5    5    0    0  0.48214908456E+02 -0.23233830060E+03  0.55852540453E+02  0.24377298783E+03  0.00000000000E+00 0.  1.
        -11    1    5    5    0    0  0.95080273045E+02 -0.31670455357E+03  0.19014226232E+03  0.38143952665E+03  0.00000000000E+00 0. -1.
          2    1    6    6  503    0 -0.61058435545E+02  0.68770553040E+02  0.17839347877E+03  0.20070315091E+03  0.00000000000E+00 0. -1.
         -2    1    6    6    0  503 -0.21344068259E+01  0.16029637605E+03  0.43357818341E+03  0.46226564332E+03  0.00000000000E+00 0.  1.
<mgrwt>
<rscale>  0 0.13089809E+04</rscale>
<asrwt>0</asrwt>
<pdfrwt beam="1">  1        1 0.24104876E+00 0.13089809E+04</pdfrwt>
<pdfrwt beam="2">  1       -2 0.42060557E-01 0.13089809E+04</pdfrwt>
<totfact> 0.27148046E+01</totfact>
</mgrwt>
</event>
<event>
12    4  0.4381187E-008  0.1953887E+04  0.7818608E-02  0.8628489E-01
         -2   -1    0    0    0  501 -0.00000000000E+00  0.00000000000E+00  0.25704511615E+03  0.25704511615E+03  0.00000000000E+00 0.  1.
          1   -1    0    0  501    0  0.00000000000E+00 -0.00000000000E+00 -0.37130406066E+04  0.37130406066E+04  0.00000000000E+00 0. -1.
        -24    2    1    2    0    0 -0.29452275417E+03  0.41958110557E+03 -0.23449672562E+04  0.24016261321E+04  0.78388067697E+02 0.  0.
        254    2    1    2    0    0  0.29452275417E+03 -0.41958110557E+03 -0.11110282343E+04  0.15684595906E+04  0.98126948038E+03 0.  0.
         23    2    4    4    0    0  0.26583087899E+03 -0.10185875001E+03  0.98090255101E+02  0.31473809151E+03  0.91635729525E+02 0.  0.
         23    2    4    4    0    0  0.28691875181E+02 -0.31772235556E+03 -0.12091184894E+04  0.12537214991E+04  0.89885243559E+02 0.  0.
          1    1    3    3  502    0 -0.16356174222E+03  0.22542440701E+03 -0.14512557478E+04  0.14777387632E+04  0.00000000000E+00 0. -1.
         -2    1    3    3    0  502 -0.13096101195E+03  0.19415669856E+03 -0.89371150834E+03  0.92388736889E+03  0.00000000000E+00 0.  1.
         11    1    5    5    0    0  0.28473681335E+02  0.13261816574E+02  0.27268004897E+02  0.41595317028E+02  0.00000000000E+00 0. -1.
        -11    1    5    5    0    0  0.23735719765E+03 -0.11512056659E+03  0.70822250204E+02  0.27314277448E+03  0.00000000000E+00 0.  1.
          2    1    6    6  503    0  0.15057961771E+02 -0.10839751430E+03 -0.26750699221E+03  0.28902725512E+03  0.00000000000E+00 0. -1.
         -2    1    6    6    0  503  0.13633913410E+02 -0.20932484126E+03 -0.94161149715E+03  0.96469424396E+03  0.00000000000E+00 0.  1.
<mgrwt>
<rscale>  0 0.19538874E+04</rscale>
<asrwt>0</asrwt>
<pdfrwt beam="1">  1        1 0.57123696E+00 0.19538874E+04</pdfrwt>
<pdfrwt beam="2">  1       -2 0.39545407E-01 0.19538874E+04</pdfrwt>
<totfact> 0.83835439E-01</totfact>
</mgrwt>
</event>
<event>
12    4  0.4381187E-008  0.1486818E+04  0.7818608E-02  0.8893266E-01
          1   -1    0    0  501    0  0.00000000000E+00  0.00000000000E+00  0.12889781569E+04  0.12889781569E+04  0.00000000000E+00 0. -1.
         -2   -1    0    0    0  501 -0.00000000000E+00 -0.00000000000E+00 -0.42875588446E+03  0.42875588446E+03  0.00000000000E+00 0.  1.
        -24    2    1    2    0    0 -0.29087607733E+03  0.15265983104E+03 -0.10674740761E+03  0.35448249884E+03  0.79680088952E+02 0.  0.
        254    2    1    2    0    0  0.29087607733E+03 -0.15265983104E+03  0.96696968008E+03  0.13632515426E+04  0.90305619410E+03 0.  0.
         23    2    4    4    0    0 -0.66116594040E+02  0.15728837556E+03 -0.80853517064E+02  0.20999623119E+03  0.91924364539E+02 0.  0.
         23    2    4    4    0    0  0.35699267137E+03 -0.30994820660E+03  0.10478231971E+04  0.11532553114E+04  0.92480822516E+02 0.  0.
          3    1    3    3  502    0 -0.29592584140E+03  0.14858048443E+03 -0.10215701396E+03  0.34653184480E+03  0.00000000000E+00 0. -1.
         -4    1    3    3    0  502  0.50497640615E+01  0.40793466081E+01 -0.45903936489E+01  0.79506540409E+01  0.00000000000E+00 0.  1.
         11    1    5    5    0    0 -0.82894341945E+01  0.87576333167E+02 -0.80766322484E+02  0.11942163832E+03  0.00000000000E+00 0. -1.
        -11    1    5    5    0    0 -0.57827159845E+02  0.69712042396E+02 -0.87194579716E-01  0.90574592870E+02  0.00000000000E+00 0.  1.
          3    1    6    6  503    0  0.32516548311E+03 -0.24831504050E+03  0.93819894019E+03  0.10235283104E+04  0.00000000000E+00 0. -1.
         -3    1    6    6    0  503  0.31827188265E+02 -0.61633166098E+02  0.10962425695E+03  0.12972700100E+03  0.00000000000E+00 0.  1.
<mgrwt>
<rscale>  0 0.14868180E+04</rscale>
<asrwt>0</asrwt>
<pdfrwt beam="1">  1        1 0.19830433E+00 0.14868180E+04</pdfrwt>
<pdfrwt beam="2">  1       -2 0.65962444E-01 0.14868180E+04</pdfrwt>
<totfact> 0.16549773E+01</totfact>
</mgrwt>
</event>
<event>
12    4  0.4381187E-008  0.1872984E+04  0.7818608E-02  0.8668422E-01
         -2   -1    0    0    0  501 -0.00000000000E+00  0.00000000000E+00  0.37920636980E+03  0.37920636980E+03  0.00000000000E+00 0.  1.
          1   -1    0    0  501    0  0.00000000000E+00 -0.00000000000E+00 -0.23127710968E+04  0.23127710968E+04  0.00000000000E+00 0. -1.
        -24    2    1    2    0    0 -0.24029704284E+03  0.41322535672E+03 -0.15062120438E+04  0.15821561563E+04  0.77752928159E+02 0.  0.
        254    2    1    2    0    0  0.24029704284E+03 -0.41322535672E+03 -0.42735268319E+03  0.11098213103E+04  0.90585603750E+03 0.  0.
         23    2    4    4    0    0 -0.27981820461E+02 -0.62569756842E+03 -0.41337128084E+03  0.75569393695E+03  0.88977981161E+02 0.  0.
         23    2    4    4    0    0  0.26827886330E+03  0.21247221170E+03 -0.13981402350E+02  0.35412737332E+03  0.89959589183E+02 0.  0.
          1    1    3    3  502    0 -0.17678672109E+03  0.32334590551E+03 -0.10477287769E+04  0.11106492287E+04  0.00000000000E+00 0. -1.
         -2    1    3    3    0  502 -0.63510321745E+02  0.89879451210E+02 -0.45848326690E+03  0.47150692757E+03  0.00000000000E+00 0.  1.
         11    1    5    5    0    0 -0.26244292527E+02 -0.21267337558E+03 -0.18862166014E+03  0.28547654588E+03  0.00000000000E+00 0. -1.
        -11    1    5    5    0    0 -0.17375279339E+01 -0.41302419283E+03 -0.22474962070E+03  0.47021739108E+03  0.00000000000E+00 0.  1.
          2    1    6    6  503    0  0.13268394385E+03  0.10088592340E+03 -0.51700082908E+02  0.17451617997E+03  0.00000000000E+00 0. -1.
         -2    1    6    6    0  503  0.13559491944E+03  0.11158628830E+03  0.37718680558E+02  0.17961119335E+03  0.00000000000E+00 0.  1.
<mgrwt>
<rscale>  0 0.18729843E+04</rscale>
<asrwt>0</asrwt>
<pdfrwt beam="1">  1        1 0.35581094E+00 0.18729843E+04</pdfrwt>
<pdfrwt beam="2">  1       -2 0.58339442E-01 0.18729843E+04</pdfrwt>
<totfact> 0.41301577E+00</totfact>
</mgrwt>
</event>
<event>
12    4  0.4381187E-008  0.2310741E+04  0.7818608E-02  0.8473698E-01
          1   -1    0    0  501    0  0.00000000000E+00  0.00000000000E+00  0.99902428678E+03  0.99902428678E+03  0.00000000000E+00 0. -1.
         -2   -1    0    0    0  501 -0.00000000000E+00 -0.00000000000E+00 -0.13361842140E+04  0.13361842140E+04  0.00000000000E+00 0.  1.
        -24    2    1    2    0    0  0.80009091427E+03 -0.32067577829E+03  0.26723137276E+03  0.90595413918E+03  0.79761330513E+02 0.  0.
        254    2    1    2    0    0 -0.80009091427E+03  0.32067577829E+03 -0.60439129996E+03  0.14292543616E+04  0.96669579535E+03 0.  0.
         23    2    4    4    0    0  0.42648741846E+02 -0.39096852014E+01  0.19511030264E+03  0.21991277634E+03  0.91974986730E+02 0.  0.
         23    2    4    4    0    0 -0.84273965611E+03  0.32458546349E+03 -0.79950160259E+03  0.12093415852E+04  0.87968210927E+02 0.  0.
          3    1    3    3  502    0  0.59701213473E+03 -0.20138054232E+03  0.18987608389E+03  0.65805055967E+03  0.00000000000E+00 0. -1.
         -4    1    3    3    0  502  0.20307877953E+03 -0.11929523597E+03  0.77355288865E+02  0.24790357952E+03  0.00000000000E+00 0.  1.
         11    1    5    5    0    0 -0.23705508978E+02 -0.17934819091E+02  0.34313073395E+02  0.45398192668E+02  0.00000000000E+00 0. -1.
        -11    1    5    5    0    0  0.66354250824E+02  0.14025133889E+02  0.16079722924E+03  0.17451458367E+03  0.00000000000E+00 0.  1.
          2    1    6    6  503    0 -0.84149646149E+03  0.32270029173E+03 -0.80167552941E+03  0.12062070417E+04  0.00000000000E+00 0.  1.
         -2    1    6    6    0  503 -0.12431946252E+01  0.18851717526E+01  0.21739268135E+01  0.31345435399E+01  0.00000000000E+00 0. -1.
<mgrwt>
<rscale>  0 0.23107406E+04</rscale>
<asrwt>0</asrwt>
<pdfrwt beam="1">  1        1 0.15369604E+00 0.23107406E+04</pdfrwt>
<pdfrwt beam="2">  1       -2 0.20556680E+00 0.23107406E+04</pdfrwt>
<totfact> 0.14679456E+00</totfact>
</mgrwt>
</event>
<event>
12    4  0.4381187E-008  0.1059324E+04  0.7818608E-02  0.9245770E-01
          1   -1    0    0  501    0  0.00000000000E+00  0.00000000000E+00  0.14045640558E+04  0.14045640558E+04  0.00000000000E+00 0. -1.
         -2   -1    0    0    0  501 -0.00000000000E+00 -0.00000000000E+00 -0.19973587624E+03  0.19973587624E+03  0.00000000000E+00 0.  1.
        -24    2    1    2    0    0 -0.10052196150E+03  0.31513980199E+01  0.30574978175E+03  0.33104951036E+03  0.77435477775E+02 0.  0.
        254    2    1    2    0    0  0.10052196150E+03 -0.31513980199E+01  0.89907839779E+03  0.12732504217E+04  0.89594088801E+03 0.  0.
         23    2    4    4    0    0  0.31113729095E+03 -0.20360222054E+03  0.68387264692E+02  0.38886992311E+03  0.91009456083E+02 0.  0.
         23    2    4    4    0    0 -0.21061532945E+03  0.20045082252E+03  0.83069113310E+03  0.88438049855E+03  0.86843297684E+02 0.  0.
          3    1    3    3  502    0 -0.96802090867E+01  0.13934469456E+02  0.14582990802E+03  0.14681361640E+03  0.00000000000E+00 0. -1.
         -4    1    3    3    0  502 -0.90841752410E+02 -0.10783071436E+02  0.15991987373E+03  0.18423589396E+03  0.00000000000E+00 0.  1.
         11    1    5    5    0    0  0.65974489876E+02 -0.77153294997E+02 -0.10243548073E+02  0.10203036078E+03  0.00000000000E+00 0. -1.
        -11    1    5    5    0    0  0.24516280107E+03 -0.12644892555E+03  0.78630812764E+02  0.28683956233E+03  0.00000000000E+00 0.  1.
          1    1    6    6  503    0 -0.80110117185E+02  0.10993716821E+03  0.28080948796E+03  0.31202208313E+03  0.00000000000E+00 0. -1.
         -1    1    6    6    0  503 -0.13050521226E+03  0.90513654318E+02  0.54988164514E+03  0.57235841542E+03  0.00000000000E+00 0.  1.
<mgrwt>
<rscale>  0 0.10593240E+04</rscale>
<asrwt>0</asrwt>
<pdfrwt beam="1">  1        1 0.21608677E+00 0.10593240E+04</pdfrwt>
<pdfrwt beam="2">  1       -2 0.30728597E-01 0.10593240E+04</pdfrwt>
<totfact> 0.65516711E+01</totfact>
</mgrwt>
</event>
<event>
12    4  0.4381187E-008  0.1262671E+04  0.7818608E-02  0.9059703E-01
          1   -1    0    0  501    0  0.00000000000E+00  0.00000000000E+00  0.16572296326E+04  0.16572296326E+04  0.00000000000E+00 0. -1.
         -2   -1    0    0    0  501 -0.00000000000E+00 -0.00000000000E+00 -0.24051235781E+03  0.24051235781E+03  0.00000000000E+00 0.  1.
        -24    2    1    2    0    0  0.21081012201E+03 -0.12780977926E+03  0.67013916342E+03  0.71894734912E+03  0.83800627872E+02 0.  0.
        254    2    1    2    0    0 -0.21081012201E+03  0.12780977926E+03  0.74657811142E+03  0.11787946413E+04  0.87829475848E+03 0.  0.
         23    2    4    4    0    0  0.16109376495E+03 -0.83167777224E+02  0.71176814782E+03  0.73982686619E+03  0.88666878913E+02 0.  0.
         23    2    4    4    0    0 -0.37190388697E+03  0.21097755648E+03  0.34809963600E+02  0.43896777514E+03  0.93042697546E+02 0.  0.
          3    1    3    3  502    0  0.20469737277E+03 -0.92770742185E+02  0.58436714668E+03  0.62609295408E+03  0.00000000000E+00 0. -1.
         -4    1    3    3    0  502  0.61127492458E+01 -0.35039037076E+02  0.85772016738E+02  0.92854395038E+02  0.00000000000E+00 0.  1.
         11    1    5    5    0    0  0.71757628874E+02 -0.16518717828E+02  0.14988586444E+03  0.16699640026E+03  0.00000000000E+00 0.  1.
        -11    1    5    5    0    0  0.89336136080E+02 -0.66649059396E+02  0.56188228338E+03  0.57283046593E+03  0.00000000000E+00 0. -1.
          2    1    6    6  503    0 -0.24095906540E+03  0.91927284291E+02 -0.33786741513E+01  0.25792113569E+03  0.00000000000E+00 0. -1.
         -2    1    6    6    0  503 -0.13094482157E+03  0.11905027219E+03  0.38188637752E+02  0.18104663946E+03  0.00000000000E+00 0.  1.
<mgrwt>
<rscale>  0 0.12626705E+04</rscale>
<asrwt>0</asrwt>
<pdfrwt beam="1">  1        1 0.25495840E+00 0.12626705E+04</pdfrwt>
<pdfrwt beam="2">  1       -2 0.37001902E-01 0.12626705E+04</pdfrwt>
<totfact> 0.30345649E+01</totfact>
</mgrwt>
</event>
<event>
12    4  0.4381187E-008  0.1443257E+04  0.7818608E-02  0.8923089E-01
         -2   -1    0    0    0  501 -0.00000000000E+00  0.00000000000E+00  0.29336604600E+03  0.29336604600E+03  0.00000000000E+00 0.  1.
          1   -1    0    0  501    0  0.00000000000E+00 -0.00000000000E+00 -0.17750782510E+04  0.17750782510E+04  0.00000000000E+00 0. -1.
        -24    2    1    2    0    0 -0.63851871624E+02 -0.42339012927E+03 -0.32298206518E+03  0.54201387081E+03  0.78264670468E+02 0.  0.
        254    2    1    2    0    0  0.63851871624E+02  0.42339012927E+03 -0.11587301398E+04  0.15264304262E+04  0.89665938125E+03 0.  0.
         23    2    4    4    0    0  0.47375930356E+02 -0.18971675141E+03 -0.75803843974E+03  0.78795457053E+03  0.89516504280E+02 0.  0.
         23    2    4    4    0    0  0.16475941268E+02  0.61310688069E+03 -0.40069170006E+03  0.73847585565E+03  0.92850670947E+02 0.  0.
          3    1    3    3  502    0 -0.29248603553E+02 -0.49973557216E+02 -0.25202487549E+02  0.63150634275E+02  0.00000000000E+00 0. -1.
         -4    1    3    3    0  502 -0.34603268071E+02 -0.37341657206E+03 -0.29777957763E+03  0.47886323653E+03  0.00000000000E+00 0.  1.
         11    1    5    5    0    0  0.72793487207E+02 -0.15216745332E+03 -0.62693912582E+03  0.64923531413E+03  0.00000000000E+00 0.  1.
        -11    1    5    5    0    0 -0.25417556851E+02 -0.37549298091E+02 -0.13109931392E+03  0.13871925639E+03  0.00000000000E+00 0. -1.
          1    1    6    6  503    0  0.43475412771E+02  0.27423508698E+03 -0.21462653991E+03  0.35094094387E+03  0.00000000000E+00 0. -1.
         -1    1    6    6    0  503 -0.26999471503E+02  0.33887179370E+03 -0.18606516015E+03  0.38753491178E+03  0.00000000000E+00 0.  1.
<mgrwt>
<rscale>  0 0.14432570E+04</rscale>
<asrwt>0</asrwt>
<pdfrwt beam="1">  1        1 0.27308896E+00 0.14432570E+04</pdfrwt>
<pdfrwt beam="2">  1       -2 0.45133238E-01 0.14432570E+04</pdfrwt>
<totfact> 0.16825634E+01</totfact>
</mgrwt>
</event>
<event>
12    4  0.4381187E-008  0.1173562E+04  0.7818608E-02  0.9136318E-01
          1   -1    0    0  501    0  0.00000000000E+00  0.00000000000E+00  0.30787184153E+03  0.30787184153E+03  0.00000000000E+00 0. -1.
         -2   -1    0    0    0  501 -0.00000000000E+00 -0.00000000000E+00 -0.11183614833E+04  0.11183614833E+04  0.00000000000E+00 0.  1.
        -24    2    1    2    0    0  0.14372487130E+03  0.17068284318E+03 -0.24904452100E+03  0.34440220165E+03  0.82463515995E+02 0.  0.
        254    2    1    2    0    0 -0.14372487130E+03 -0.17068284318E+03 -0.56144512081E+03  0.10818311232E+04  0.89741210373E+03 0.  0.
         23    2    4    4    0    0  0.20914253884E+03  0.26971283902E+03 -0.19465029605E+03  0.40269578552E+03  0.88258375475E+02 0.  0.
         23    2    4    4    0    0 -0.35286741014E+03 -0.44039568220E+03 -0.36679482476E+03  0.67913533771E+03  0.90678538901E+02 0.  0.
          1    1    3    3  502    0  0.16740589138E+01 -0.21021653810E+00  0.59380033875E+01  0.61730501755E+01  0.00000000000E+00 0. -1.
         -2    1    3    3    0  502  0.14205081238E+03  0.17089305972E+03 -0.25498252439E+03  0.33822915147E+03  0.00000000000E+00 0.  1.
         11    1    5    5    0    0  0.84076665085E+01  0.18175036769E+02  0.88946409850E+01  0.21911993427E+02  0.00000000000E+00 0.  1.
        -11    1    5    5    0    0  0.20073487233E+03  0.25153780225E+03 -0.20354493704E+03  0.38078379210E+03  0.00000000000E+00 0. -1.
          4    1    6    6  503    0 -0.33827634541E+03 -0.43051405897E+03 -0.37054571073E+03  0.66111826822E+03  0.00000000000E+00 0. -1.
         -4    1    6    6    0  503 -0.14591064724E+02 -0.98816232306E+01  0.37508859660E+01  0.18017069489E+02  0.00000000000E+00 0.  1.
<mgrwt>
<rscale>  0 0.11735621E+04</rscale>
<asrwt>0</asrwt>
<pdfrwt beam="1">  1        1 0.47364898E-01 0.11735621E+04</pdfrwt>
<pdfrwt beam="2">  1       -2 0.17205561E+00 0.11735621E+04</pdfrwt>
<totfact> 0.15099418E+01</totfact>
</mgrwt>
</event>
<event>
12    4  0.4381187E-008  0.1396929E+04  0.7818608E-02  0.8956045E-01
          1   -1    0    0  501    0  0.00000000000E+00  0.00000000000E+00  0.95243338939E+03  0.95243338939E+03  0.00000000000E+00 0. -1.
         -2   -1    0    0    0  501 -0.00000000000E+00 -0.00000000000E+00 -0.51221693207E+03  0.51221693207E+03  0.00000000000E+00 0.  1.
        -24    2    1    2    0    0  0.50956713592E+02 -0.30486058501E+03  0.40938151512E+03  0.51915625187E+03  0.79958901813E+02 0.  0.
        254    2    1    2    0    0 -0.50956713592E+02  0.30486058501E+03  0.30834942204E+02  0.94549406959E+03  0.89301269812E+03 0.  0.
         23    2    4    4    0    0 -0.51165141466E+02  0.11346364743E+03  0.44988478522E+03  0.47549720188E+03  0.90605728473E+02 0.  0.
         23    2    4    4    0    0  0.20842787422E+00  0.19139693758E+03 -0.41904984302E+03  0.46999686771E+03  0.93066930574E+02 0.  0.
          3    1    3    3  502    0  0.39294193157E+01 -0.67017744085E+02  0.14872772338E+03  0.16317706352E+03  0.00000000000E+00 0. -1.
         -4    1    3    3    0  502  0.47027294276E+02 -0.23784284093E+03  0.26065379174E+03  0.35597918835E+03  0.00000000000E+00 0.  1.
         11    1    5    5    0    0  0.73588799008E+01  0.58482595743E+02  0.29715556406E+03  0.30294520358E+03  0.00000000000E+00 0.  1.
        -11    1    5    5    0    0 -0.58524021367E+02  0.54981051689E+02  0.15272922116E+03  0.17255199830E+03  0.00000000000E+00 0. -1.
          2    1    6    6  503    0  0.17430528996E+02  0.11709761551E+03 -0.34057655009E+03  0.36056630648E+03  0.00000000000E+00 0. -1.
         -2    1    6    6    0  503 -0.17222101121E+02  0.74299322074E+02 -0.78473292924E+02  0.10943056122E+03  0.00000000000E+00 0.  1.
<mgrwt>
<rscale>  0 0.13969288E+04</rscale>
<asrwt>0</asrwt>
<pdfrwt beam="1">  1        1 0.14652821E+00 0.13969288E+04</pdfrwt>
<pdfrwt beam="2">  1       -2 0.78802605E-01 0.13969288E+04</pdfrwt>
<totfact> 0.20172904E+01</totfact>
</mgrwt>
</event>
<event>
12    4  0.4381187E-008  0.1466018E+04  0.7818608E-02  0.8907370E-01
          1   -1    0    0  501    0  0.00000000000E+00  0.00000000000E+00  0.13853421748E+04  0.13853421748E+04  0.00000000000E+00 0. -1.
         -2   -1    0    0    0  501 -0.00000000000E+00 -0.00000000000E+00 -0.38784812570E+03  0.38784812570E+03  0.00000000000E+00 0.  1.
        -24    2    1    2    0    0 -0.53721289439E+02  0.28266279621E+03  0.73908192236E+03  0.79718476296E+03  0.80481209210E+02 0.  0.
        254    2    1    2    0    0  0.53721289439E+02 -0.28266279621E+03  0.25841212677E+03  0.97600553758E+03  0.89611703968E+03 0.  0.
         23    2    4    4    0    0 -0.68037672408E+02 -0.46124181315E+03 -0.15718776717E+03  0.50021462515E+03  0.90186151944E+02 0.  0.
         23    2    4    4    0    0  0.12175896185E+03  0.17857901694E+03  0.41559989394E+03  0.47579091242E+03  0.83294720242E+02 0.  0.
          3    1    3    3  502    0 -0.20859653408E+02  0.15782366141E+03  0.50957554885E+03  0.53386390890E+03  0.00000000000E+00 0. -1.
         -4    1    3    3    0  502 -0.32861636031E+02  0.12483913480E+03  0.22950637350E+03  0.26332085405E+03  0.00000000000E+00 0.  1.
         11    1    5    5    0    0 -0.36395397504E+01 -0.58747845977E+01  0.88794783617E+01  0.11251865607E+02  0.00000000000E+00 0.  1.
        -11    1    5    5    0    0 -0.64398132657E+02 -0.45536702856E+03 -0.16606724553E+03  0.48896275955E+03  0.00000000000E+00 0. -1.
          2    1    6    6  503    0  0.93203183160E+02  0.13392786260E+03  0.22485187078E+03  0.27781625137E+03  0.00000000000E+00 0. -1.
         -2    1    6    6    0  503  0.28555778687E+02  0.44651154343E+02  0.19074802316E+03  0.19797466105E+03  0.00000000000E+00 0.  1.
<mgrwt>
<rscale>  0 0.14660182E+04</rscale>
<asrwt>0</asrwt>
<pdfrwt beam="1">  1        1 0.21312956E+00 0.14660182E+04</pdfrwt>
<pdfrwt beam="2">  1       -2 0.59668943E-01 0.14660182E+04</pdfrwt>
<totfact> 0.17544067E+01</totfact>
</mgrwt>
</event>
<event>
12    4  0.4381187E-008  0.2196696E+04  0.7818608E-02  0.8519805E-01
          1   -1    0    0  501    0  0.00000000000E+00  0.00000000000E+00  0.30149889013E+04  0.30149889013E+04  0.00000000000E+00 0. -1.
         -2   -1    0    0    0  501 -0.00000000000E+00 -0.00000000000E+00 -0.40012346487E+03  0.40012346487E+03  0.00000000000E+00 0.  1.
        -24    2    1    2    0    0 -0.15331531759E+03  0.69339304214E+03  0.20312857281E+03  0.74459208691E+03  0.94109836342E+02 0.  0.
        254    2    1    2    0    0  0.15331531759E+03 -0.69339304214E+03  0.24117368637E+04  0.26705202793E+04  0.90050228489E+03 0.  0.
         23    2    4    4    0    0  0.35795752429E+03 -0.46792345118E+03  0.65561626777E+03  0.88584859821E+03  0.88369129389E+02 0.  0.
         23    2    4    4    0    0 -0.20464220670E+03 -0.22546959096E+03  0.17561205959E+04  0.17846716811E+04  0.91534106988E+02 0.  0.
          1    1    3    3  502    0 -0.25002019751E+02  0.28917565911E+03  0.10995500077E+03  0.31038325504E+03  0.00000000000E+00 0. -1.
         -2    1    3    3    0  502 -0.12831329784E+03  0.40421738303E+03  0.93173572035E+02  0.43420883187E+03  0.00000000000E+00 0.  1.
         11    1    5    5    0    0  0.22631101313E+03 -0.26671280676E+03  0.32843918892E+03  0.47981735772E+03  0.00000000000E+00 0. -1.
        -11    1    5    5    0    0  0.13164651116E+03 -0.20121064442E+03  0.32717707885E+03  0.40603124049E+03  0.00000000000E+00 0.  1.
          2    1    6    6  503    0 -0.21272579611E+03 -0.22117982329E+03  0.17296928311E+04  0.17567043202E+04  0.00000000000E+00 0. -1.
         -2    1    6    6    0  503  0.80835894119E+01 -0.42897676725E+01  0.26427764806E+02  0.27967360925E+02  0.00000000000E+00 0.  1.
<mgrwt>
<rscale>  0 0.21966955E+04</rscale>
<asrwt>0</asrwt>
<pdfrwt beam="1">  1        1 0.46384443E+00 0.21966955E+04</pdfrwt>
<pdfrwt beam="2">  1       -2 0.61557458E-01 0.21966955E+04</pdfrwt>
<totfact> 0.11469329E+00</totfact>
</mgrwt>
</event>
