<event>
12    7  0.1660832E-007  0.1203755E+04  0.7818608E-02  0.9109576E-01
         -1   -1    0    0    0  501 -0.00000000000E+00  0.00000000000E+00  0.14376374361E+03  0.14376374361E+03  0.00000000000E+00 0.  1.
          2   -1    0    0  501    0  0.00000000000E+00 -0.00000000000E+00 -0.25198045196E+04  0.25198045196E+04  0.00000000000E+00 0. -1.
         24    2    1    2    0    0  0.58511840513E+02  0.14623153813E+03 -0.99121962301E+02  0.20766549405E+03  0.92154738270E+02 0.  0.
        254    2    1    2    0    0 -0.58511840513E+02 -0.14623153813E+03 -0.22769188137E+04  0.24559027692E+04  0.90680308185E+03 0.  0.
         23    2    4    4    0    0 -0.38650408577E+03 -0.22911524469E+02 -0.48287789492E+03  0.62572387797E+03  0.91918245177E+02 0.  0.
         23    2    4    4    0    0  0.32799224525E+03 -0.12332001366E+03 -0.17940409188E+04  0.18301788912E+04  0.90472188161E+02 0.  0.
          4    1    3    3  502    0 -0.11530762077E+02 -0.27027139969E+01 -0.23971244939E+02  0.26737309531E+02  0.00000000000E+00 0. -1.
         -3    1    3    3    0  502  0.70042602590E+02  0.14893425213E+03 -0.75150717362E+02  0.18092818452E+03  0.00000000000E+00 0.  1.
         13    1    5    5    0    0 -0.18652976206E+03  0.25050471429E+02 -0.18624698797E+03  0.26478069941E+03  0.00000000000E+00 0. -1.
        -13    1    5    5    0    0 -0.19997432371E+03 -0.47961995899E+02 -0.29663090695E+03  0.36094317856E+03  0.00000000000E+00 0.  1.
          3    1    6    6  503    0 -0.50032436953E+01 -0.15609629432E+01 -0.10476586982E+02  0.11714432448E+02  0.00000000000E+00 0. -1.
         -3    1    6    6    0  503  0.33299548895E+03 -0.12175905072E+03 -0.17835643318E+04  0.18184644588E+04  0.00000000000E+00 0.  1.
<mgrwt>
<rscale>  0 0.12037550E+04</rscale>
<asrwt>0</asrwt>
<pdfrwt beam="1">  1        2 0.38766219E+00 0.12037550E+04</pdfrwt>
<pdfrwt beam="2">  1       -1 0.22117502E-01 0.12037550E+04</pdfrwt>
<totfact> 0.66196553E+01</totfact>
</mgrwt>
</event>
<event>
12    7  0.1660832E-007  0.1853518E+04  0.7818608E-02  0.8678346E-01
         -1   -1    0    0    0  501 -0.00000000000E+00  0.00000000000E+00  0.50116460556E+03  0.50116460556E+03  0.00000000000E+00 0.  1.
          2   -1    0    0  501    0  0.00000000000E+00 -0.00000000000E+00 -0.17137719993E+04  0.17137719993E+04  0.00000000000E+00 0. -1.
         24    2    1    2    0    0 -0.60537496879E+03 -0.34361156807E+03 -0.56322995284E+03  0.89888752005E+03  0.78886192540E+02 0.  0.
        254    2    1    2    0    0  0.60537496879E+03  0.34361156807E+03 -0.64937744093E+03  0.13160490848E+04  0.90870587671E+03 0.  0.
         23    2    4    4    0    0  0.48566919046E+03  0.57634002235E+03 -0.19488110393E+03  0.78361412775E+03  0.89610672451E+02 0.  0.
         23    2    4    4    0    0  0.11970577833E+03 -0.23272845428E+03 -0.45449633699E+03  0.53243495709E+03  0.91804446478E+02 0.  0.
          2    1    3    3  502    0 -0.44387267163E+03 -0.28810704923E+03 -0.44153394092E+03  0.68918853837E+03  0.00000000000E+00 0. -1.
         -3    1    3    3    0  502 -0.16150229716E+03 -0.55504518840E+02 -0.12169601192E+03  0.20969898168E+03  0.00000000000E+00 0.  1.
         13    1    5    5    0    0  0.21465934710E+02  0.10929478994E+02  0.63025276803E+01  0.24899030487E+02  0.00000000000E+00 0. -1.
        -13    1    5    5    0    0  0.46420325575E+03  0.56541054335E+03 -0.20118363162E+03  0.75871509726E+03  0.00000000000E+00 0.  1.
          1    1    6    6  503    0  0.43297779887E+02 -0.17079847732E+02 -0.10315738043E+03  0.11317183430E+03  0.00000000000E+00 0. -1.
         -1    1    6    6    0  503  0.76407998444E+02 -0.21564860654E+03 -0.35133895656E+03  0.41926312279E+03  0.00000000000E+00 0.  1.
<mgrwt>
<rscale>  0 0.18535176E+04</rscale>
<asrwt>0</asrwt>
<pdfrwt beam="1">  1        2 0.26365723E+00 0.18535176E+04</pdfrwt>
<pdfrwt beam="2">  1       -1 0.77102247E-01 0.18535176E+04</pdfrwt>
<totfact> 0.17403162E+01</totfact>
</mgrwt>
</event>
<event>
12    7  0.1660832E-007  0.1809799E+04  0.7818608E-02  0.8701106E-01
         -1   -1    0    0    0  501 -0.00000000000E+00  0.00000000000E+00  0.32422877874E+03  0.32422877874E+03  0.00000000000E+00 0.  1.
          2   -1    0    0  501    0  0.00000000000E+00 -0.00000000000E+00 -0.25255107950E+04  0.25255107950E+04  0.00000000000E+00 0. -1.
         24    2    1    2    0    0 -0.64225582132E+03  0.72178446663E+01 -0.47494338064E+03  0.80270425587E+03  0.78856009823E+02 0.  0.
        254    2    1    2    0    0  0.64225582132E+03 -0.72178446663E+01 -0.17263386356E+04  0.20470353178E+04  0.89306431482E+03 0.  0.
         23    2    4    4    0    0  0.54820217552E+03  0.18141995135E+03 -0.17200055254E+04  0.18167503672E+04  0.93402705968E+02 0.  0.
         23    2    4    4    0    0  0.94053645805E+02 -0.18863779601E+03 -0.63331102409E+01  0.23028495063E+03  0.92524287781E+02 0.  0.
          2    1    3    3  502    0 -0.12470200066E+03 -0.29896529514E+02 -0.94459139494E+02  0.15926996101E+03  0.00000000000E+00 0. -1.
         -1    1    3    3    0  502 -0.51755382066E+03  0.37114374180E+02 -0.38048424114E+03  0.64343429487E+03  0.00000000000E+00 0.  1.
         13    1    5    5    0    0  0.84474719499E+02  0.82368304821E+01 -0.34724374550E+03  0.35746614161E+03  0.00000000000E+00 0. -1.
        -13    1    5    5    0    0  0.46372745602E+03  0.17318312086E+03 -0.13727617799E+04  0.14592842256E+04  0.00000000000E+00 0.  1.
          1    1    6    6  503    0  0.90592514468E+02 -0.93356037705E+02  0.19410248523E+02  0.13152608563E+03  0.00000000000E+00 0. -1.
         -1    1    6    6    0  503  0.34611313376E+01 -0.95281758308E+02 -0.25743358764E+02  0.98758865004E+02  0.00000000000E+00 0.  1.
<mgrwt>
<rscale>  0 0.18097992E+04</rscale>
<asrwt>0</asrwt>
<pdfrwt beam="1">  1        2 0.38854013E+00 0.18097992E+04</pdfrwt>
<pdfrwt beam="2">  1       -1 0.49881350E-01 0.18097992E+04</pdfrwt>
<totfact> 0.14587880E+01</totfact>
</mgrwt>
</event>
<event>
12    7  0.1660832E-007  0.2475851E+04  0.7818608E-02  0.8411639E-01
         -1   -1    0    0    0  501 -0.00000000000E+00  0.00000000000E+00  0.11167499134E+04  0.11167499134E+04  0.00000000000E+00 0.  1.
          2   -1    0    0  501    0  0.00000000000E+00 -0.00000000000E+00 -0.13722499233E+04  0.13722499233E+04  0.00000000000E+00 0. -1.
         24    2    1    2    0    0  0.10933119010E+03  0.97217153285E+03 -0.55551989092E+03  0.11279227136E+04  0.80848625481E+02 0.  0.
        254    2    1    2    0    0 -0.10933119010E+03 -0.97217153285E+03  0.30001988101E+03  0.13610771232E+04  0.89746766392E+03 0.  0.
         23    2    4    4    0    0 -0.23568653845E+02 -0.42304956374E+03 -0.30837997519E+03  0.53169068953E+03  0.89835212561E+02 0.  0.
         23    2    4    4    0    0 -0.85762536259E+02 -0.54912196911E+03  0.60839985620E+03  0.82938643363E+03  0.94028302530E+02 0.  0.
          2    1    3    3  502    0  0.11975337937E+03  0.80471157136E+03 -0.47054071648E+03  0.93984581226E+03  0.00000000000E+00 0. -1.
         -1    1    3    3    0  502 -0.10422189271E+02  0.16745996149E+03 -0.84979174435E+02  0.18807690134E+03  0.00000000000E+00 0.  1.
         13    1    5    5    0    0  0.60602326006E+01 -0.27447306734E+03 -0.15136770401E+03  0.31350338584E+03  0.00000000000E+00 0. -1.
        -13    1    5    5    0    0 -0.29628886445E+02 -0.14857649640E+03 -0.15701227118E+03  0.21818730370E+03  0.00000000000E+00 0.  1.
          1    1    6    6  503    0 -0.31526444933E+02 -0.33229092737E+03  0.30201091218E+03  0.45013527769E+03  0.00000000000E+00 0.  1.
         -1    1    6    6    0  503 -0.54236091325E+02 -0.21683104174E+03  0.30638894402E+03  0.37925115594E+03  0.00000000000E+00 0. -1.
<mgrwt>
<rscale>  0 0.24758514E+04</rscale>
<asrwt>0</asrwt>
<pdfrwt beam="1">  1        2 0.21111537E+00 0.24758514E+04</pdfrwt>
<pdfrwt beam="2">  1       -1 0.17180768E+00 0.24758514E+04</pdfrwt>
<totfact> 0.36478466E+00</totfact>
</mgrwt>
</event>
<event>
12    7  0.1660832E-007  0.1977572E+04  0.7818608E-02  0.8617179E-01
          2   -1    0    0  501    0  0.00000000000E+00  0.00000000000E+00  0.24753785634E+04  0.24753785634E+04  0.00000000000E+00 0. -1.
         -1   -1    0    0    0  501 -0.00000000000E+00 -0.00000000000E+00 -0.39496888516E+03  0.39496888516E+03  0.00000000000E+00 0.  1.
         24    2    1    2    0    0  0.15901988665E+03  0.66120067382E+03  0.27428445678E+03  0.73758813042E+03  0.79565265610E+02 0.  0.
        254    2    1    2    0    0 -0.15901988665E+03 -0.66120067382E+03  0.18061252215E+04  0.21327593181E+04  0.90779972358E+03 0.  0.
         23    2    4    4    0    0 -0.32148333091E+03 -0.13295722002E+03  0.13894528669E+04  0.14350941995E+04  0.88808432398E+02 0.  0.
         23    2    4    4    0    0  0.16246344425E+03 -0.52824345380E+03  0.41667235460E+03  0.69766511870E+03  0.87665555123E+02 0.  0.
          4    1    3    3  502    0  0.16311521097E+02  0.13276904243E+02  0.11643673300E+02  0.24039905047E+02  0.00000000000E+00 0. -1.
         -3    1    3    3    0  502  0.14270836556E+03  0.64792376958E+03  0.26264078348E+03  0.71354822538E+03  0.00000000000E+00 0.  1.
         13    1    5    5    0    0 -0.24970728683E+03 -0.61497911665E+02  0.10331173653E+04  0.10646441719E+04  0.00000000000E+00 0.  1.
        -13    1    5    5    0    0 -0.71776044076E+02 -0.71459308360E+02  0.35633550152E+03  0.37045002753E+03  0.00000000000E+00 0. -1.
          1    1    6    6  503    0  0.98142770293E+02 -0.17669461039E+03  0.15568921904E+03  0.25513157709E+03  0.00000000000E+00 0. -1.
         -1    1    6    6    0  503  0.64320673960E+02 -0.35154884341E+03  0.26098313556E+03  0.44253354160E+03  0.00000000000E+00 0.  1.
<mgrwt>
<rscale>  0 0.19775718E+04</rscale>
<asrwt>0</asrwt>
<pdfrwt beam="1">  1        2 0.38082746E+00 0.19775718E+04</pdfrwt>
<pdfrwt beam="2">  1       -1 0.60764445E-01 0.19775718E+04</pdfrwt>
<totfact> 0.10474432E+01</totfact>
</mgrwt>
</event>
<event>
12    7  0.1660832E-007  0.1874616E+04  0.7818608E-02  0.8667596E-01
         -1   -1    0    0    0  501 -0.00000000000E+00  0.00000000000E+00  0.21304763759E+03  0.21304763759E+03  0.00000000000E+00 0.  1.
          2   -1    0    0  501    0  0.00000000000E+00 -0.00000000000E+00 -0.41237074885E+04  0.41237074885E+04  0.00000000000E+00 0. -1.
         24    2    1    2    0    0 -0.43510146638E+03 -0.33554980840E+03 -0.26113109916E+04  0.26696910230E+04  0.79988145704E+02 0.  0.
        254    2    1    2    0    0  0.43510146638E+03  0.33554980840E+03 -0.12993488594E+04  0.16670641032E+04  0.88819384467E+03 0.  0.
         23    2    4    4    0    0  0.44989248052E+02  0.45622641904E+03 -0.11168842716E+04  0.12108119804E+04  0.92024985030E+02 0.  0.
         23    2    4    4    0    0  0.39011221832E+03 -0.12067661064E+03 -0.18246458776E+03  0.45625212273E+03  0.90123728687E+02 0.  0.
          2    1    3    3  502    0 -0.34013153755E+03 -0.29665478178E+03 -0.21947804590E+04  0.22407040826E+04  0.00000000000E+00 0. -1.
         -1    1    3    3    0  502 -0.94969928826E+02 -0.38895026625E+02 -0.41653053256E+03  0.42898694040E+03  0.00000000000E+00 0.  1.
         13    1    5    5    0    0 -0.36503402947E+01  0.17121932623E+02 -0.13003730347E+02  0.21807855557E+02  0.00000000000E+00 0.  1.
        -13    1    5    5    0    0  0.48639588346E+02  0.43910448642E+03 -0.11038805413E+04  0.11890041249E+04  0.00000000000E+00 0. -1.
          2    1    6    6  503    0  0.11172480656E+03 -0.20259655504E+02 -0.10642111462E+02  0.11404446755E+03  0.00000000000E+00 0. -1.
         -2    1    6    6    0  503  0.27838741176E+03 -0.10041695514E+03 -0.17182247630E+03  0.34220765518E+03  0.00000000000E+00 0.  1.
<mgrwt>
<rscale>  0 0.18746158E+04</rscale>
<asrwt>0</asrwt>
<pdfrwt beam="1">  1        2 0.63441657E+00 0.18746158E+04</pdfrwt>
<pdfrwt beam="2">  1       -1 0.32776558E-01 0.18746158E+04</pdfrwt>
<totfact> 0.25565844E+00</totfact>
</mgrwt>
</event>
<event>
12    7  0.1660832E-007  0.1203407E+04  0.7818608E-02  0.9109880E-01
          2   -1    0    0  501    0  0.00000000000E+00  0.00000000000E+00  0.18722727815E+04  0.18722727815E+04  0.00000000000E+00 0. -1.
         -1   -1    0    0    0  501 -0.00000000000E+00 -0.00000000000E+00 -0.19337309324E+03  0.19337309324E+03  0.00000000000E+00 0.  1.
         24    2    1    2    0    0 -0.25234817092E+03 -0.52641385272E+02  0.44940522020E+03  0.52417466429E+03  0.79644911505E+02 0.  0.
        254    2    1    2    0    0  0.25234817092E+03  0.52641385272E+02  0.12294944681E+04  0.15414712104E+04  0.89332308312E+03 0.  0.
         23    2    4    4    0    0 -0.21122187860E+03  0.28667298244E+03  0.71000868227E+03  0.79990957295E+03  0.94588134189E+02 0.  0.
         23    2    4    4    0    0  0.46357004952E+03 -0.23403159717E+03  0.51948578579E+03  0.74156163750E+03  0.10188327286E+03 0.  0.
          4    1    3    3  502    0 -0.21874508387E+03 -0.18525162745E+02  0.33953424340E+03  0.40432177262E+03  0.00000000000E+00 0. -1.
         -3    1    3    3    0  502 -0.33603087052E+02 -0.34116222527E+02  0.10987097680E+03  0.11985289167E+03  0.00000000000E+00 0.  1.
         13    1    5    5    0    0 -0.26266028884E+02  0.30578995792E+01  0.28225193013E+02  0.38677080342E+02  0.00000000000E+00 0. -1.
        -13    1    5    5    0    0 -0.18495584971E+03  0.28361508286E+03  0.68178348926E+03  0.76123249260E+03  0.00000000000E+00 0.  1.
          4    1    6    6  503    0  0.40787699021E+03 -0.18469673258E+03  0.48329311346E+03  0.65882376679E+03  0.00000000000E+00 0.  1.
         -4    1    6    6    0  503  0.55693059308E+02 -0.49334864589E+02  0.36192672329E+02  0.82737870709E+02  0.00000000000E+00 0. -1.
<mgrwt>
<rscale>  0 0.12034071E+04</rscale>
<asrwt>0</asrwt>
<pdfrwt beam="1">  1        2 0.28804195E+00 0.12034071E+04</pdfrwt>
<pdfrwt beam="2">  1       -1 0.29749708E-01 0.12034071E+04</pdfrwt>
<totfact> 0.91611205E+01</totfact>
</mgrwt>
</event>
<event>
12    7  0.1660832E-007  0.1613294E+04  0.7818608E-02  0.8812423E-01
         -1   -1    0    0    0  501 -0.00000000000E+00  0.00000000000E+00  0.45291217418E+03  0.45291217418E+03  0.00000000000E+00 0.  1.
          2   -1    0    0  501    0  0.00000000000E+00 -0.00000000000E+00 -0.14366563545E+04  0.14366563545E+04  0.00000000000E+00 0. -1.
         24    2    1    2    0    0 -0.21499242348E+03 -0.47585882987E+03 -0.57935698075E+03  0.78394650743E+03  0.79083798940E+02 0.  0.
        254    2    1    2    0    0  0.21499242348E+03  0.47585882987E+03 -0.40438719960E+03  0.11056220213E+04  0.88668352788E+03 0.  0.
         23    2    4    4    0    0  0.38763713845E+03  0.22985672495E+03 -0.58479305705E+03  0.74340037194E+03  0.86974296959E+02 0.  0.
         23    2    4    4    0    0 -0.17264471497E+03  0.24600210492E+03  0.18040585744E+03  0.36222164933E+03  0.91296312154E+02 0.  0.
          2    1    3    3  502    0 -0.16581186788E+03 -0.42990327204E+03 -0.50206301742E+03  0.68145261926E+03  0.00000000000E+00 0. -1.
         -1    1    3    3    0  502 -0.49180555605E+02 -0.45955557826E+02 -0.77293963331E+02  0.10249388817E+03  0.00000000000E+00 0.  1.
         13    1    5    5    0    0  0.32091993825E+03  0.15307841190E+03 -0.48016309866E+03  0.59747737051E+03  0.00000000000E+00 0. -1.
        -13    1    5    5    0    0  0.66717200198E+02  0.76778313042E+02 -0.10462995839E+03  0.14592300144E+03  0.00000000000E+00 0.  1.
          4    1    6    6  503    0 -0.30089452339E+02  0.11964728576E+03  0.64122143642E+02  0.13904135154E+03  0.00000000000E+00 0. -1.
         -4    1    6    6    0  503 -0.14255526263E+03  0.12635481916E+03  0.11628371380E+03  0.22318029779E+03  0.00000000000E+00 0.  1.
<mgrwt>
<rscale>  0 0.16132937E+04</rscale>
<asrwt>0</asrwt>
<pdfrwt beam="1">  1        2 0.22102405E+00 0.16132937E+04</pdfrwt>
<pdfrwt beam="2">  1       -1 0.69678796E-01 0.16132937E+04</pdfrwt>
<totfact> 0.31355225E+01</totfact>
</mgrwt>
</event>
<event>
12    7  0.1660832E-007  0.1520642E+04  0.7818608E-02  0.8870841E-01
          2   -1    0    0  501    0  0.00000000000E+00  0.00000000000E+00  0.14560107051E+04  0.14560107051E+04  0.00000000000E+00 0. -1.
         -1   -1    0    0    0  501 -0.00000000000E+00 -0.00000000000E+00 -0.39703553609E+03  0.39703553609E+03  0.00000000000E+00 0.  1.
         24    2    1    2    0    0  0.30294972715E+03 -0.38488029475E+03  0.38879742639E+03  0.63044184414E+03  0.79888056717E+02 0.  0.
        254    2    1    2    0    0 -0.30294972715E+03  0.38488029475E+03  0.67017774259E+03  0.12226043970E+04  0.89761457570E+03 0.  0.
         23    2    4    4    0    0 -0.56134943136E+03  0.14547010837E+03  0.18406300222E+03  0.61519199071E+03  0.91144172191E+02 0.  0.
         23    2    4    4    0    0  0.25839970421E+03  0.23941018638E+03  0.48611474037E+03  0.60741240632E+03  0.92491329708E+02 0.  0.
          2    1    3    3  502    0  0.30371008592E+03 -0.36525631717E+03  0.36210841714E+03  0.59730603486E+03  0.00000000000E+00 0. -1.
         -1    1    3    3    0  502 -0.76035876584E+00 -0.19623977577E+02  0.26689009258E+02  0.33135809279E+02  0.00000000000E+00 0.  1.
         13    1    5    5    0    0 -0.14940559480E+01 -0.66169827951E+01  0.32564530120E+01  0.75247026988E+01  0.00000000000E+00 0. -1.
        -13    1    5    5    0    0 -0.55985537541E+03  0.15208709116E+03  0.18080654921E+03  0.60766728801E+03  0.00000000000E+00 0.  1.
          1    1    6    6  503    0  0.78032688967E+01 -0.86090969677E+01  0.15128078915E+02  0.19075280542E+02  0.00000000000E+00 0. -1.
         -1    1    6    6    0  503  0.25059643531E+03  0.24801928335E+03  0.47098666146E+03  0.58833712578E+03  0.00000000000E+00 0.  1.
<mgrwt>
<rscale>  0 0.15206420E+04</rscale>
<asrwt>0</asrwt>
<pdfrwt beam="1">  1        2 0.22400164E+00 0.15206420E+04</pdfrwt>
<pdfrwt beam="2">  1       -1 0.61082391E-01 0.15206420E+04</pdfrwt>
<totfact> 0.40172984E+01</totfact>
</mgrwt>
</event>
<event>
12    7  0.1660832E-007  0.1200693E+04  0.7818608E-02  0.9112250E-01
          2   -1    0    0  501    0  0.00000000000E+00  0.00000000000E+00  0.35120877367E+03  0.35120877367E+03  0.00000000000E+00 0. -1.
         -1   -1    0    0    0  501 -0.00000000000E+00 -0.00000000000E+00 -0.10262158175E+04  0.10262158175E+04  0.00000000000E+00 0.  1.
         24    2    1    2    0    0  0.12302206409E+03  0.16531243226E+03 -0.28548003339E+03  0.36088776001E+03  0.79236969548E+02 0.  0.
        254    2    1    2    0    0 -0.12302206409E+03 -0.16531243226E+03 -0.38952701046E+03  0.10165368312E+04  0.91605306001E+03 0.  0.
         23    2    4    4    0    0 -0.23310769845E+03  0.19236612580E+03 -0.52145767972E+03  0.60946510358E+03  0.90474721914E+02 0.  0.
         23    2    4    4    0    0  0.11008563436E+03 -0.35767855806E+03  0.13193066926E+03  0.40707172760E+03  0.90823411801E+02 0.  0.
          2    1    3    3  502    0  0.50723376794E+02  0.84056073392E+02 -0.19912189618E+03  0.22200858985E+03  0.00000000000E+00 0. -1.
         -1    1    3    3    0  502  0.72298687298E+02  0.81256358867E+02 -0.86358137216E+02  0.13887917016E+03  0.00000000000E+00 0.  1.
         13    1    5    5    0    0 -0.23529631491E+03  0.16366886945E+03 -0.46978405020E+03  0.55031709810E+03  0.00000000000E+00 0.  1.
        -13    1    5    5    0    0  0.21886164614E+01  0.28697256353E+02 -0.51673629516E+02  0.59148005474E+02  0.00000000000E+00 0. -1.
          2    1    6    6  503    0  0.55214102765E+02 -0.20908530286E+03  0.29056083132E+02  0.21819605171E+03  0.00000000000E+00 0. -1.
         -2    1    6    6    0  503  0.54871531591E+02 -0.14859325521E+03  0.10287458613E+03  0.18887567589E+03  0.00000000000E+00 0.  1.
<mgrwt>
<rscale>  0 0.12006931E+04</rscale>
<asrwt>0</asrwt>
<pdfrwt beam="1">  1        2 0.54032119E-01 0.12006931E+04</pdfrwt>
<pdfrwt beam="2">  1       -1 0.15787936E+00 0.12006931E+04</pdfrwt>
<totfact> 0.31546982E+01</totfact>
</mgrwt>
</event>
<event>
12    7  0.1660832E-007  0.1931488E+04  0.7818608E-02  0.8639340E-01
         -1   -1    0    0    0  501 -0.00000000000E+00  0.00000000000E+00  0.32586488888E+03  0.32586488888E+03  0.00000000000E+00 0.  1.
          2   -1    0    0  501    0  0.00000000000E+00 -0.00000000000E+00 -0.28621116844E+04  0.28621116844E+04  0.00000000000E+00 0. -1.
         24    2    1    2    0    0 -0.74310041601E+03  0.57312698750E+01 -0.84899423781E+03  0.11311568764E+04  0.80582798842E+02 0.  0.
        254    2    1    2    0    0  0.74310041601E+03 -0.57312698750E+01 -0.16872525577E+04  0.20568196969E+04  0.91184154119E+03 0.  0.
         23    2    4    4    0    0  0.93882145146E+03 -0.22647975443E+02 -0.14895758052E+04  0.17632419550E+04  0.91035509840E+02 0.  0.
         23    2    4    4    0    0 -0.19572103545E+03  0.16916705568E+02 -0.19767675253E+03  0.29357774186E+03  0.92297851445E+02 0.  0.
          2    1    3    3  502    0 -0.50616941316E+03  0.76535482402E+01 -0.51995073380E+03  0.72568231148E+03  0.00000000000E+00 0. -1.
         -1    1    3    3    0  502 -0.23693100285E+03 -0.19222783652E+01 -0.32904350401E+03  0.40547456492E+03  0.00000000000E+00 0.  1.
         13    1    5    5    0    0  0.33586704437E+03 -0.24739986892E+02 -0.61095778608E+03  0.69763038553E+03  0.00000000000E+00 0.  1.
        -13    1    5    5    0    0  0.60295440709E+03  0.20920114493E+01 -0.87861801912E+03  0.10656115695E+04  0.00000000000E+00 0. -1.
          3    1    6    6  503    0 -0.97718607219E+02 -0.63114771063E+01 -0.15683473423E+03  0.18489428007E+03  0.00000000000E+00 0. -1.
         -3    1    6    6    0  503 -0.98002428229E+02  0.23228182674E+02 -0.40842018303E+02  0.10868346180E+03  0.00000000000E+00 0.  1.
<mgrwt>
<rscale>  0 0.19314882E+04</rscale>
<asrwt>0</asrwt>
<pdfrwt beam="1">  1        2 0.44032487E+00 0.19314882E+04</pdfrwt>
<pdfrwt beam="2">  1       -1 0.50133061E-01 0.19314882E+04</pdfrwt>
<totfact> 0.90210208E+00</totfact>
</mgrwt>
</event>
<event>
12    7  0.1660832E-007  0.1221614E+04  0.7818608E-02  0.9094146E-01
         -1   -1    0    0    0  501 -0.00000000000E+00  0.00000000000E+00  0.49134916960E+03  0.49134916960E+03  0.00000000000E+00 0.  1.
          2   -1    0    0  501    0  0.00000000000E+00 -0.00000000000E+00 -0.75930743916E+03  0.75930743916E+03  0.00000000000E+00 0. -1.
         24    2    1    2    0    0  0.24044815282E+03 -0.36586048214E+02 -0.19434342136E+03  0.32136200486E+03  0.79688892730E+02 0.  0.
        254    2    1    2    0    0 -0.24044815282E+03  0.36586048214E+02 -0.73614848208E+02  0.92929460390E+03  0.89387664800E+03 0.  0.
         23    2    4    4    0    0 -0.37102694762E+03 -0.12255296142E+03 -0.37682265155E+03  0.55183169796E+03  0.99210321749E+02 0.  0.
         23    2    4    4    0    0  0.13057879480E+03  0.15913900963E+03  0.30320780334E+03  0.37746290594E+03  0.90372713365E+02 0.  0.
          2    1    3    3  502    0  0.23738645960E+03 -0.27251206882E+02 -0.16489820966E+03  0.29032116532E+03  0.00000000000E+00 0. -1.
         -1    1    3    3    0  502  0.30616932169E+01 -0.93348413322E+01 -0.29445211691E+02  0.31040839544E+02  0.00000000000E+00 0.  1.
         13    1    5    5    0    0 -0.10221762832E+02 -0.28387076569E+02 -0.31147901490E+02  0.43364758950E+02  0.00000000000E+00 0. -1.
        -13    1    5    5    0    0 -0.36080518479E+03 -0.94165884846E+02 -0.34567475006E+03  0.50846693901E+03  0.00000000000E+00 0.  1.
          4    1    6    6  503    0 -0.96722543676E+01  0.33466602938E+02  0.65615139683E+02  0.74289383982E+02  0.00000000000E+00 0. -1.
         -4    1    6    6    0  503  0.14025104916E+03  0.12567240669E+03  0.23759266366E+03  0.30317352196E+03  0.00000000000E+00 0.  1.
<mgrwt>
<rscale>  0 0.12216138E+04</rscale>
<asrwt>0</asrwt>
<pdfrwt beam="1">  1        2 0.11681653E+00 0.12216138E+04</pdfrwt>
<pdfrwt beam="2">  1       -1 0.75592180E-01 0.12216138E+04</pdfrwt>
<totfact> 0.73049476E+01</totfact>
</mgrwt>
</event>
<event>
12    7  0.1660832E-007  0.1651802E+04  0.7818608E-02  0.8789341E-01
          2   -1    0    0  501    0  0.00000000000E+00  0.00000000000E+00  0.19517187866E+04  0.19517187866E+04  0.00000000000E+00 0. -1.
         -1   -1    0    0    0  501 -0.00000000000E+00 -0.00000000000E+00 -0.34949325063E+03  0.34949325063E+03  0.00000000000E+00 0.  1.
         24    2    1    2    0    0  0.25224806415E+03  0.51763031457E+03  0.58609284144E+03  0.82571982614E+03  0.82086442687E+02 0.  0.
        254    2    1    2    0    0 -0.25224806415E+03 -0.51763031457E+03  0.10161326946E+04  0.14754922111E+04  0.90165480295E+03 0.  0.
         23    2    4    4    0    0  0.17421238995E+03 -0.29264427003E+03  0.90753460718E+03  0.97349100621E+03  0.89861283984E+02 0.  0.
         23    2    4    4    0    0 -0.42646045410E+03 -0.22498604453E+03  0.10859808738E+03  0.50200120490E+03  0.87888713669E+02 0.  0.
          4    1    3    3  502    0 -0.48513528360E+01  0.11095862904E+02  0.49961010566E+01  0.13100184109E+02  0.00000000000E+00 0. -1.
         -3    1    3    3    0  502  0.25709941698E+03  0.50653445166E+03  0.58109674038E+03  0.81261964203E+03  0.00000000000E+00 0.  1.
         13    1    5    5    0    0  0.73142733487E+02 -0.20534045515E+03  0.53262230966E+03  0.57550072696E+03  0.00000000000E+00 0.  1.
        -13    1    5    5    0    0  0.10106965646E+03 -0.87303814879E+02  0.37491229752E+03  0.39799027925E+03  0.00000000000E+00 0. -1.
          2    1    6    6  503    0 -0.40507257293E+03 -0.22096241670E+03  0.12090811000E+03  0.47699785115E+03  0.00000000000E+00 0. -1.
         -2    1    6    6    0  503 -0.21387881175E+02 -0.40236278302E+01 -0.12310022620E+02  0.25003353754E+02  0.00000000000E+00 0.  1.
<mgrwt>
<rscale>  0 0.16518021E+04</rscale>
<asrwt>0</asrwt>
<pdfrwt beam="1">  1        2 0.30026442E+00 0.16518021E+04</pdfrwt>
<pdfrwt beam="2">  1       -1 0.53768193E-01 0.16518021E+04</pdfrwt>
<totfact> 0.26996237E+01</totfact>
</mgrwt>
</event>
<event>
12    7  0.1773457E-007  0.1621296E+04  0.7818608E-02  0.8807571E-01
          2   -1    0    0  501    0  0.00000000000E+00  0.00000000000E+00  0.30625115054E+04  0.30625115054E+04  0.00000000000E+00 0. -1.
         -1   -1    0    0    0  501 -0.00000000000E+00 -0.00000000000E+00 -0.21457873303E+03  0.21457873303E+03  0.00000000000E+00 0.  1.
         24    2    1    2    0    0  0.15939701134E+03  0.13085399794E+02  0.20257583917E+04  0.20337167104E+04  0.82024152597E+02 0.  0.
        254    2    1    2    0    0 -0.15939701134E+03 -0.13085399794E+02  0.82217438067E+03  0.12433735281E+04  0.91892784436E+03 0.  0.
         23    2    4    4    0    0  0.54446730279E+02  0.36241658612E+03  0.68254504482E+03  0.78012291824E+03  0.91726773747E+02 0.  0.
         23    2    4    4    0    0 -0.21384374162E+03 -0.37550198592E+03  0.13962933585E+03  0.46325060982E+03  0.91508954791E+02 0.  0.
          4    1    3    3  502    0  0.16225694263E+03  0.27256780563E+02  0.19062020527E+04  0.19132894484E+04  0.00000000000E+00 0. -1.
         -3    1    3    3    0  502 -0.28599312841E+01 -0.14171380769E+02  0.11955633895E+03  0.12042726196E+03  0.00000000000E+00 0.  1.
         13    1    5    5    0    0  0.80172757628E+02  0.27432829338E+03  0.52778708869E+03  0.60020237804E+03  0.00000000000E+00 0. -1.
        -13    1    5    5    0    0 -0.25726027349E+02  0.88088292745E+02  0.15475795613E+03  0.17992054021E+03  0.00000000000E+00 0.  1.
          3    1    6    6  503    0 -0.22251716076E+03 -0.35814117386E+03  0.12805919816E+03  0.44065649374E+03  0.00000000000E+00 0. -1.
         -3    1    6    6    0  503  0.86734191387E+01 -0.17360812056E+02  0.11570137692E+02  0.22594116071E+02  0.00000000000E+00 0.  1.
<mgrwt>
<rscale>  0 0.16212956E+04</rscale>
<asrwt>0</asrwt>
<pdfrwt beam="1">  1        2 0.47115558E+00 0.16212956E+04</pdfrwt>
<pdfrwt beam="2">  1       -1 0.33012115E-01 0.16212956E+04</pdfrwt>
<totfact> 0.15026383E+01</totfact>
</mgrwt>
</event>
<event>
12    7  0.1660832E-007  0.2087258E+04  0.7818608E-02  0.8566877E-01
         -1   -1    0    0    0  501 -0.00000000000E+00  0.00000000000E+00  0.63142840592E+03  0.63142840592E+03  0.00000000000E+00 0.  1.
          2   -1    0    0  501    0  0.00000000000E+00 -0.00000000000E+00 -0.17249160295E+04  0.17249160295E+04  0.00000000000E+00 0. -1.
         24    2    1    2    0    0 -0.26606950404E+03 -0.19265814132E+03 -0.12497334922E+04  0.12946765954E+04  0.80271693589E+02 0.  0.
        254    2    1    2    0    0  0.26606950404E+03  0.19265814132E+03  0.15624586862E+03  0.10616678400E+04  0.99740447696E+03 0.  0.
         23    2    4    4    0    0  0.10243148730E+03  0.29210514639E+03  0.53622957182E+03  0.62633255250E+03  0.94512890628E+02 0.  0.
         23    2    4    4    0    0  0.16363801674E+03 -0.99447005075E+02 -0.37998370320E+03  0.43533528751E+03  0.91989621746E+02 0.  0.
          4    1    3    3  502    0 -0.20117161057E+03 -0.17315032432E+03 -0.10744570670E+04  0.11067560890E+04  0.00000000000E+00 0. -1.
         -3    1    3    3    0  502 -0.64897893469E+02 -0.19507816991E+02 -0.17527642524E+03  0.18792050646E+03  0.00000000000E+00 0.  1.
         13    1    5    5    0    0  0.64143886915E+00  0.11405339040E+02  0.81752524493E+02  0.82546765312E+02  0.00000000000E+00 0.  1.
        -13    1    5    5    0    0  0.10179004843E+03  0.28069980735E+03  0.45447704733E+03  0.54378578719E+03  0.00000000000E+00 0. -1.
          1    1    6    6  503    0  0.16408501541E+03 -0.81584532753E+02 -0.37401982379E+03  0.41649820751E+03  0.00000000000E+00 0. -1.
         -1    1    6    6    0  503 -0.44699867688E+00 -0.17862472323E+02 -0.59638794121E+01  0.18837080000E+02  0.00000000000E+00 0.  1.
<mgrwt>
<rscale>  0 0.20872575E+04</rscale>
<asrwt>0</asrwt>
<pdfrwt beam="1">  1        2 0.26537169E+00 0.20872575E+04</pdfrwt>
<pdfrwt beam="2">  1       -1 0.97142833E-01 0.20872575E+04</pdfrwt>
<totfact> 0.10160182E+01</totfact>
</mgrwt>
</event>
<event>
12    7  0.1660832E-007  0.1224514E+04  0.7818608E-02  0.9091666E-01
          2   -1    0    0  501    0  0.00000000000E+00  0.00000000000E+00  0.47560761136E+03  0.47560761136E+03  0.00000000000E+00 0. -1.
         -1   -1    0    0    0  501 -0.00000000000E+00 -0.00000000000E+00 -0.78816788663E+03  0.78816788663E+03  0.00000000000E+00 0.  1.
         24    2    1    2    0    0  0.11909422203E+03  0.13357353163E+03  0.13531226643E+03  0.23890459741E+03  0.82101614732E+02 0.  0.
        254    2    1    2    0    0 -0.11909422203E+03 -0.13357353163E+03 -0.44787254170E+03  0.10248709006E+04  0.90429266677E+03 0.  0.
         23    2    4    4    0    0 -0.32547081454E+03 -0.42172670145E+03 -0.35865760822E+03  0.64830709253E+03  0.88781442034E+02 0.  0.
         23    2    4    4    0    0  0.20637659251E+03  0.28815316982E+03 -0.89214933485E+02  0.37656380805E+03  0.90650151503E+02 0.  0.
          2    1    3    3  502    0  0.71667073535E+02  0.10421321553E+03  0.13232104101E+03  0.18304486230E+03  0.00000000000E+00 0. -1.
         -1    1    3    3    0  502  0.47427148499E+02  0.29360316102E+02  0.29912254122E+01  0.55859735103E+02  0.00000000000E+00 0.  1.
         13    1    5    5    0    0 -0.30219301789E+03 -0.34813126127E+03 -0.32533220526E+03  0.56423137001E+03  0.00000000000E+00 0. -1.
        -13    1    5    5    0    0 -0.23277796654E+02 -0.73595440186E+02 -0.33325402960E+02  0.84075722511E+02  0.00000000000E+00 0.  1.
          4    1    6    6  503    0  0.93891005343E+02  0.15242641993E+03 -0.66193278137E-01  0.17902329111E+03  0.00000000000E+00 0. -1.
         -4    1    6    6    0  503  0.11248558716E+03  0.13572674989E+03 -0.89148740207E+02  0.19754051694E+03  0.00000000000E+00 0.  1.
<mgrwt>
<rscale>  0 0.12245140E+04</rscale>
<asrwt>0</asrwt>
<pdfrwt beam="1">  1        2 0.73170402E-01 0.12245140E+04</pdfrwt>
<pdfrwt beam="2">  1       -1 0.12125660E+00 0.12245140E+04</pdfrwt>
<totfact> 0.44389570E+01</totfact>
</mgrwt>
</event>
<event>
12    7  0.1660832E-007  0.2037744E+04  0.7818608E-02  0.8589175E-01
          2   -1    0    0  501    0  0.00000000000E+00  0.00000000000E+00  0.98016483608E+03  0.98016483608E+03  0.00000000000E+00 0. -1.
         -1   -1    0    0    0  501 -0.00000000000E+00 -0.00000000000E+00 -0.10591075980E+04  0.10591075980E+04  0.00000000000E+00 0.  1.
         24    2    1    2    0    0  0.31260952550E+03 -0.28845670051E+03  0.65493266800E+03  0.78537756567E+03  0.83361487261E+02 0.  0.
        254    2    1    2    0    0 -0.31260952550E+03  0.28845670051E+03 -0.73387542994E+03  0.12538948684E+04  0.92344312815E+03 0.  0.
         23    2    4    4    0    0  0.22061770444E+03 -0.12751308007E+03 -0.42849816123E+03  0.50639877713E+03  0.88866699035E+02 0.  0.
         23    2    4    4    0    0 -0.53322722993E+03  0.41596978057E+03 -0.30537726871E+03  0.74749609131E+03  0.90183109237E+02 0.  0.
          4    1    3    3  502    0  0.20223797910E+03 -0.23134526591E+03  0.43182071239E+03  0.52999052812E+03  0.00000000000E+00 0. -1.
         -3    1    3    3    0  502  0.11037154640E+03 -0.57111434596E+02  0.22311195561E+03  0.25538703756E+03  0.00000000000E+00 0.  1.
         13    1    5    5    0    0 -0.71115067914E+01  0.15063582742E+01 -0.19602944644E+02  0.20907369103E+02  0.00000000000E+00 0. -1.
        -13    1    5    5    0    0  0.22772921123E+03 -0.12901943834E+03 -0.40889521659E+03  0.48549140803E+03  0.00000000000E+00 0.  1.
          2    1    6    6  503    0 -0.42003498545E+03  0.34675716231E+03 -0.27994637792E+03  0.61240500743E+03  0.00000000000E+00 0. -1.
         -2    1    6    6    0  503 -0.11319224449E+03  0.69212618267E+02 -0.25430890786E+02  0.13509108389E+03  0.00000000000E+00 0.  1.
<mgrwt>
<rscale>  0 0.20377439E+04</rscale>
<asrwt>0</asrwt>
<pdfrwt beam="1">  1        2 0.15079459E+00 0.20377439E+04</pdfrwt>
<pdfrwt beam="2">  1       -1 0.16293963E+00 0.20377439E+04</pdfrwt>
<totfact> 0.76116471E+00</totfact>
</mgrwt>
</event>
<event>
12    7  0.1660832E-007  0.1282008E+04  0.7818608E-02  0.9043956E-01
         -1   -1    0    0    0  501 -0.00000000000E+00  0.00000000000E+00  0.15660877148E+03  0.15660877148E+03  0.00000000000E+00 0.  1.
          2   -1    0    0  501    0  0.00000000000E+00 -0.00000000000E+00 -0.26236482498E+04  0.26236482498E+04  0.00000000000E+00 0. -1.
         24    2    1    2    0    0 -0.90919011151E+02  0.14734195335E+03 -0.11943096429E+04  0.12094564734E+04  0.80209226896E+02 0.  0.
        254    2    1    2    0    0  0.90919011151E+02 -0.14734195335E+03 -0.12727298355E+04  0.15708005479E+04  0.90421082138E+03 0.  0.
         23    2    4    4    0    0  0.22701146336E+03  0.32708980290E+03 -0.45417804031E+03  0.61074365898E+03  0.90599012302E+02 0.  0.
         23    2    4    4    0    0 -0.13609245221E+03 -0.47443175625E+03 -0.81855179514E+03  0.96005688894E+03  0.89864018347E+02 0.  0.
          2    1    3    3  502    0 -0.85983743727E+02  0.76640101874E+02 -0.86287731930E+03  0.87053097450E+03  0.00000000000E+00 0. -1.
         -1    1    3    3    0  502 -0.49352674242E+01  0.70701851478E+02 -0.33143232359E+03  0.33892549887E+03  0.00000000000E+00 0.  1.
         13    1    5    5    0    0  0.11240980471E+03  0.19905873206E+03 -0.31721820842E+03  0.39100861213E+03  0.00000000000E+00 0. -1.
        -13    1    5    5    0    0  0.11460165865E+03  0.12803107084E+03 -0.13695983189E+03  0.21973504685E+03  0.00000000000E+00 0.  1.
          1    1    6    6  503    0 -0.14797943736E+02 -0.71966648406E+02 -0.69574029892E+02  0.10118657647E+03  0.00000000000E+00 0. -1.
         -1    1    6    6    0  503 -0.12129450847E+03 -0.40246510784E+03 -0.74897776525E+03  0.85887031247E+03  0.00000000000E+00 0.  1.
<mgrwt>
<rscale>  0 0.12820083E+04</rscale>
<asrwt>0</asrwt>
<pdfrwt beam="1">  1        2 0.40363820E+00 0.12820083E+04</pdfrwt>
<pdfrwt beam="2">  1       -1 0.24093657E-01 0.12820083E+04</pdfrwt>
<totfact> 0.49477530E+01</totfact>
</mgrwt>
</event>
<event>
12    7  0.1660832E-007  0.1796077E+04  0.7818608E-02  0.8708389E-01
          2   -1    0    0  501    0  0.00000000000E+00  0.00000000000E+00  0.21731901865E+04  0.21731901865E+04  0.00000000000E+00 0. -1.
         -1   -1    0    0    0  501 -0.00000000000E+00 -0.00000000000E+00 -0.37110086896E+03  0.37110086896E+03  0.00000000000E+00 0.  1.
         24    2    1    2    0    0  0.24925419682E+03 -0.56644822178E+03  0.10362860637E+04  0.12099770838E+04  0.84643339385E+02 0.  0.
        254    2    1    2    0    0 -0.24925419682E+03  0.56644822178E+03  0.76580325385E+03  0.13343139717E+04  0.90052646202E+03 0.  0.
         23    2    4    4    0    0 -0.43217548628E+02  0.47218611817E+03  0.92584978017E+03  0.10441555611E+04  0.90749840637E+02 0.  0.
         23    2    4    4    0    0 -0.20603664819E+03  0.94262103611E+02 -0.16004652633E+03  0.29015841059E+03  0.85091527620E+02 0.  0.
          4    1    3    3  502    0  0.17618086958E+03 -0.47610560037E+03  0.81905512105E+03  0.96362209025E+03  0.00000000000E+00 0. -1.
         -3    1    3    3    0  502  0.73073327243E+02 -0.90342621408E+02  0.21723094268E+03  0.24635499356E+03  0.00000000000E+00 0.  1.
         13    1    5    5    0    0 -0.61529915695E+02  0.39162454315E+03  0.71236008822E+03  0.81523776202E+03  0.00000000000E+00 0. -1.
        -13    1    5    5    0    0  0.18312367067E+02  0.80561575020E+02  0.21348969195E+03  0.22891779906E+03  0.00000000000E+00 0.  1.
          2    1    6    6  503    0 -0.76982377571E+02  0.54533767363E+01 -0.89984654826E+02  0.11854646295E+03  0.00000000000E+00 0. -1.
         -2    1    6    6    0  503 -0.12905427062E+03  0.88808726875E+02 -0.70061871500E+02  0.17161194764E+03  0.00000000000E+00 0.  1.
<mgrwt>
<rscale>  0 0.17960766E+04</rscale>
<asrwt>0</asrwt>
<pdfrwt beam="1">  1        2 0.33433695E+00 0.17960766E+04</pdfrwt>
<pdfrwt beam="2">  1       -1 0.57092442E-01 0.17960766E+04</pdfrwt>
<totfact> 0.17863633E+01</totfact>
</mgrwt>
</event>
<event>
12    7  0.1660832E-007  0.2388109E+04  0.7818608E-02  0.8443969E-01
         -1   -1    0    0    0  501 -0.00000000000E+00  0.00000000000E+00  0.11688903226E+04  0.11688903226E+04  0.00000000000E+00 0.  1.
          2   -1    0    0  501    0  0.00000000000E+00 -0.00000000000E+00 -0.12197605429E+04  0.12197605429E+04  0.00000000000E+00 0. -1.
         24    2    1    2    0    0  0.28107293425E+03  0.24873174533E+02 -0.10059716549E+04  0.10479431433E+04  0.81149195437E+02 0.  0.
        254    2    1    2    0    0 -0.28107293425E+03 -0.24873174533E+02  0.95510143461E+03  0.13407077221E+04  0.89758441197E+03 0.  0.
         23    2    4    4    0    0 -0.12555833903E+03 -0.44092386479E+03  0.34827613961E+03  0.58274446481E+03  0.90089348987E+02 0.  0.
         23    2    4    4    0    0 -0.15551459522E+03  0.41605069026E+03  0.60682529500E+03  0.75796325732E+03  0.94807144291E+02 0.  0.
          2    1    3    3  502    0  0.22354431923E+03 -0.14268593713E+02 -0.76141187177E+03  0.79367732354E+03  0.00000000000E+00 0. -1.
         -1    1    3    3    0  502  0.57528615013E+02  0.39141768246E+02 -0.24455978317E+03  0.25426581978E+03  0.00000000000E+00 0.  1.
         13    1    5    5    0    0 -0.21592689929E+02 -0.14570729010E+03  0.66539970923E+02  0.16163052428E+03  0.00000000000E+00 0.  1.
        -13    1    5    5    0    0 -0.10396564910E+03 -0.29521657469E+03  0.28173616869E+03  0.42111394053E+03  0.00000000000E+00 0. -1.
          1    1    6    6  503    0 -0.15692918548E+03  0.36874055519E+03  0.57521023631E+03  0.70104435114E+03  0.00000000000E+00 0. -1.
         -1    1    6    6    0  503  0.14145902685E+01  0.47310135068E+02  0.31615058688E+02  0.56918906187E+02  0.00000000000E+00 0.  1.
<mgrwt>
<rscale>  0 0.23881091E+04</rscale>
<asrwt>0</asrwt>
<pdfrwt beam="1">  1        2 0.18765547E+00 0.23881091E+04</pdfrwt>
<pdfrwt beam="2">  1       -1 0.17982928E+00 0.23881091E+04</pdfrwt>
<totfact> 0.39467923E+00</totfact>
</mgrwt>
</event>
<event>
12    7  0.1660832E-007  0.1642727E+04  0.7818608E-02  0.8794721E-01
          2   -1    0    0  501    0  0.00000000000E+00  0.00000000000E+00  0.17956436809E+04  0.17956436809E+04  0.00000000000E+00 0. -1.
         -1   -1    0    0    0  501 -0.00000000000E+00 -0.00000000000E+00 -0.37570831332E+03  0.37570831332E+03  0.00000000000E+00 0.  1.
         24    2    1    2    0    0  0.14869603629E+03  0.37558422153E+03 -0.35629036523E+02  0.41309006368E+03  0.78739785357E+02 0.  0.
        254    2    1    2    0    0 -0.14869603629E+03 -0.37558422153E+03  0.14555644041E+04  0.17582619305E+04  0.89980179107E+03 0.  0.
         23    2    4    4    0    0 -0.37701768043E+03  0.29125767325E+02  0.10990596784E+04  0.11658379578E+04  0.90858821032E+02 0.  0.
         23    2    4    4    0    0  0.22832164414E+03 -0.40470998886E+03  0.35650472567E+03  0.59242397276E+03  0.89160505890E+02 0.  0.
          4    1    3    3  502    0  0.10361722934E+03  0.27868545608E+03  0.85486061930E+01  0.29744779763E+03  0.00000000000E+00 0. -1.
         -3    1    3    3    0  502  0.45078806949E+02  0.96898765449E+02 -0.44177642716E+02  0.11564226605E+03  0.00000000000E+00 0.  1.
         13    1    5    5    0    0 -0.14945412914E+03  0.13777454916E+02  0.30911400270E+03  0.34362453586E+03  0.00000000000E+00 0. -1.
        -13    1    5    5    0    0 -0.22756355129E+03  0.15348312410E+02  0.78994567572E+03  0.82221342191E+03  0.00000000000E+00 0.  1.
          3    1    6    6  503    0  0.44026451789E+02 -0.76282603129E+02  0.11572597313E+03  0.14542993108E+03  0.00000000000E+00 0. -1.
         -3    1    6    6    0  503  0.18429519235E+03 -0.32842738573E+03  0.24077875254E+03  0.44699404167E+03  0.00000000000E+00 0.  1.
<mgrwt>
<rscale>  0 0.16427273E+04</rscale>
<asrwt>0</asrwt>
<pdfrwt beam="1">  1        2 0.27625287E+00 0.16427273E+04</pdfrwt>
<pdfrwt beam="2">  1       -1 0.57801280E-01 0.16427273E+04</pdfrwt>
<totfact> 0.28642962E+01</totfact>
</mgrwt>
</event>
<event>
12    7  0.1660832E-007  0.1423233E+04  0.7818608E-02  0.8937171E-01
         -1   -1    0    0    0  501 -0.00000000000E+00  0.00000000000E+00  0.54933713424E+03  0.54933713424E+03  0.00000000000E+00 0.  1.
          2   -1    0    0  501    0  0.00000000000E+00 -0.00000000000E+00 -0.92183448461E+03  0.92183448461E+03  0.00000000000E+00 0. -1.
         24    2    1    2    0    0  0.22458655997E+03 -0.27708480426E+03 -0.33078151056E+03  0.49301698595E+03  0.80213646236E+02 0.  0.
        254    2    1    2    0    0 -0.22458655997E+03  0.27708480426E+03 -0.41715839811E+02  0.97815463290E+03  0.90985227532E+03 0.  0.
         23    2    4    4    0    0 -0.50225737840E+03  0.27894927859E+03 -0.23203781807E+03  0.62712963387E+03  0.96823832184E+02 0.  0.
         23    2    4    4    0    0  0.27767081843E+03 -0.18644743370E+01  0.19032197826E+03  0.35102499902E+03  0.99456195668E+02 0.  0.
          4    1    3    3  502    0  0.13494660877E+03 -0.15439233309E+03 -0.24136946182E+03  0.31671248292E+03  0.00000000000E+00 0. -1.
         -3    1    3    3    0  502  0.89639951200E+02 -0.12269247116E+03 -0.89412048741E+02  0.17630450304E+03  0.00000000000E+00 0.  1.
         13    1    5    5    0    0 -0.33972662278E+03  0.14958093316E+03 -0.11453131825E+03  0.38846628766E+03  0.00000000000E+00 0.  1.
        -13    1    5    5    0    0 -0.16253075562E+03  0.12936834544E+03 -0.11750649983E+03  0.23866334621E+03  0.00000000000E+00 0. -1.
          1    1    6    6  503    0  0.11116258369E+03 -0.46723499481E+02  0.98235460244E+02  0.15553266881E+03  0.00000000000E+00 0. -1.
         -1    1    6    6    0  503  0.16650823474E+03  0.44859025144E+02  0.92086518018E+02  0.19549233022E+03  0.00000000000E+00 0.  1.
<mgrwt>
<rscale>  0 0.14232328E+04</rscale>
<asrwt>0</asrwt>
<pdfrwt beam="1">  1        2 0.14182069E+00 0.14232328E+04</pdfrwt>
<pdfrwt beam="2">  1       -1 0.84513406E-01 0.14232328E+04</pdfrwt>
<totfact> 0.43585541E+01</totfact>
</mgrwt>
</event>
<event>
12    7  0.1660832E-007  0.2474193E+04  0.7818608E-02  0.8412237E-01
          2   -1    0    0  501    0  0.00000000000E+00  0.00000000000E+00  0.18797347892E+04  0.18797347892E+04  0.00000000000E+00 0. -1.
         -1   -1    0    0    0  501 -0.00000000000E+00 -0.00000000000E+00 -0.81416154474E+03  0.81416154474E+03  0.00000000000E+00 0.  1.
         24    2    1    2    0    0 -0.44460181646E+03 -0.35410675154E+03 -0.53286400635E+03  0.78328193523E+03  0.80772359779E+02 0.  0.
        254    2    1    2    0    0  0.44460181646E+03  0.35410675154E+03  0.15984372508E+04  0.19106143987E+04  0.87885344004E+03 0.  0.
         23    2    4    4    0    0  0.67242927016E+03  0.35772023617E+03  0.13925862875E+04  0.15904459936E+04  0.10048382751E+03 0.  0.
         23    2    4    4    0    0 -0.22782745370E+03 -0.36134846277E+01  0.20585096326E+03  0.32016840509E+03  0.90635437955E+02 0.  0.
          2    1    3    3  502    0 -0.10140483505E+03 -0.99379707874E+02 -0.17851744504E+03  0.22809591204E+03  0.00000000000E+00 0. -1.
         -1    1    3    3    0  502 -0.34319698141E+03 -0.25472704367E+03 -0.35434656132E+03  0.55518602319E+03  0.00000000000E+00 0.  1.
         13    1    5    5    0    0  0.55252013000E+03  0.32300532083E+03  0.11055533041E+04  0.12774423821E+04  0.00000000000E+00 0.  1.
        -13    1    5    5    0    0  0.11990914016E+03  0.34714915340E+02  0.28703298344E+03  0.31300361152E+03  0.00000000000E+00 0. -1.
          4    1    6    6  503    0 -0.63959982979E+02  0.39635035804E+02  0.54047759814E+02  0.92644351294E+02  0.00000000000E+00 0. -1.
         -4    1    6    6    0  503 -0.16386747072E+03 -0.43248520431E+02  0.15180320344E+03  0.22752405379E+03  0.00000000000E+00 0.  1.
<mgrwt>
<rscale>  0 0.24741930E+04</rscale>
<asrwt>0</asrwt>
<pdfrwt beam="1">  1        2 0.28918997E+00 0.24741930E+04</pdfrwt>
<pdfrwt beam="2">  1       -1 0.12525562E+00 0.24741930E+04</pdfrwt>
<totfact> 0.44135729E+00</totfact>
</mgrwt>
</event>
<event>
12    7  0.1660832E-007  0.1388084E+04  0.7818608E-02  0.8962490E-01
          2   -1    0    0  501    0  0.00000000000E+00  0.00000000000E+00  0.15709496445E+04  0.15709496445E+04  0.00000000000E+00 0. -1.
         -1   -1    0    0    0  501 -0.00000000000E+00 -0.00000000000E+00 -0.30662606579E+03  0.30662606579E+03  0.00000000000E+00 0.  1.
         24    2    1    2    0    0 -0.12966329263E+03  0.25385432607E+03  0.73458675064E+03  0.79188256989E+03  0.78776404893E+02 0.  0.
        254    2    1    2    0    0  0.12966329263E+03 -0.25385432607E+03  0.52973682804E+03  0.10856931404E+04  0.90379970110E+03 0.  0.
         23    2    4    4    0    0  0.43847070878E+03  0.29483270996E+02  0.64801114215E+02  0.45339699091E+03  0.90795491305E+02 0.  0.
         23    2    4    4    0    0 -0.30880741615E+03 -0.28333759706E+03  0.46493571382E+03  0.63229614944E+03  0.89392328695E+02 0.  0.
          2    1    3    3  502    0 -0.44066263483E+02  0.13762908566E+03  0.45241301624E+03  0.47493277215E+03  0.00000000000E+00 0. -1.
         -1    1    3    3    0  502 -0.85597029142E+02  0.11622524040E+03  0.28217373440E+03  0.31694979774E+03  0.00000000000E+00 0.  1.
         13    1    5    5    0    0  0.32194522491E+03  0.82172283682E+01  0.82894303475E+01  0.32215674033E+03  0.00000000000E+00 0. -1.
        -13    1    5    5    0    0  0.11652548386E+03  0.21266042628E+02  0.56511683867E+02  0.13124025058E+03  0.00000000000E+00 0.  1.
          4    1    6    6  503    0 -0.84484851838E+02 -0.91986295766E+02  0.83716236825E+02  0.15035816275E+03  0.00000000000E+00 0.  1.
         -4    1    6    6    0  503 -0.22432256431E+03 -0.19135130130E+03  0.38121947700E+03  0.48193798669E+03  0.00000000000E+00 0. -1.
<mgrwt>
<rscale>  0 0.13880837E+04</rscale>
<asrwt>0</asrwt>
<pdfrwt beam="1">  1        2 0.24168456E+00 0.13880837E+04</pdfrwt>
<pdfrwt beam="2">  1       -1 0.47173242E-01 0.13880837E+04</pdfrwt>
<totfact> 0.57592481E+01</totfact>
</mgrwt>
</event>
<event>
12    7  0.1660832E-007  0.1453432E+04  0.7818608E-02  0.8916024E-01
          2   -1    0    0  501    0  0.00000000000E+00  0.00000000000E+00  0.17942611992E+04  0.17942611992E+04  0.00000000000E+00 0. -1.
         -1   -1    0    0    0  501 -0.00000000000E+00 -0.00000000000E+00 -0.29433646780E+03  0.29433646780E+03  0.00000000000E+00 0.  1.
         24    2    1    2    0    0 -0.35476545705E+03  0.28461314153E+03  0.57926783885E+03  0.74125842079E+03  0.83962178507E+02 0.  0.
        254    2    1    2    0    0  0.35476545705E+03 -0.28461314153E+03  0.92065689252E+03  0.13473392462E+04  0.87226759697E+03 0.  0.
         23    2    4    4    0    0  0.34820729975E+02 -0.40774542031E+02 -0.15940247286E+03  0.19123706107E+03  0.91035260522E+02 0.  0.
         23    2    4    4    0    0  0.31994472707E+03 -0.24383859950E+03  0.10800593654E+04  0.11561021851E+04  0.90676009416E+02 0.  0.
          4    1    3    3  502    0 -0.13856816421E+03  0.77287455674E+02  0.25026335820E+03  0.29632116933E+03  0.00000000000E+00 0. -1.
         -3    1    3    3    0  502 -0.21619729284E+03  0.20732568586E+03  0.32900448065E+03  0.44493725146E+03  0.00000000000E+00 0.  1.
         13    1    5    5    0    0 -0.17666657476E+02 -0.38981869026E+02 -0.32012781681E+02  0.53446375837E+02  0.00000000000E+00 0.  1.
        -13    1    5    5    0    0  0.52487387451E+02 -0.17926730054E+01 -0.12738969118E+03  0.13779068523E+03  0.00000000000E+00 0. -1.
          4    1    6    6  503    0  0.22127855399E+02 -0.54911512581E+02  0.13665482822E+03  0.14892769479E+03  0.00000000000E+00 0. -1.
         -4    1    6    6    0  503  0.29781687167E+03 -0.18892708692E+03  0.94340453717E+03  0.10071744903E+04  0.00000000000E+00 0.  1.
<mgrwt>
<rscale>  0 0.14534325E+04</rscale>
<asrwt>0</asrwt>
<pdfrwt beam="1">  1        2 0.27604018E+00 0.14534325E+04</pdfrwt>
<pdfrwt beam="2">  1       -1 0.45282535E-01 0.14534325E+04</pdfrwt>
<totfact> 0.46473064E+01</totfact>
</mgrwt>
</event>
<event>
12    7  0.1660832E-007  0.2849963E+04  0.7818608E-02  0.8287922E-01
         -1   -1    0    0    0  501 -0.00000000000E+00  0.00000000000E+00  0.80065515436E+03  0.80065515436E+03  0.00000000000E+00 0.  1.
          2   -1    0    0  501    0  0.00000000000E+00 -0.00000000000E+00 -0.25361391753E+04  0.25361391753E+04  0.00000000000E+00 0. -1.
         24    2    1    2    0    0  0.97712142495E+03 -0.10479699458E+03 -0.17446174504E+04  0.20034423890E+04  0.65898929627E+02 0.  0.
        254    2    1    2    0    0 -0.97712142495E+03  0.10479699458E+03  0.91334294610E+01  0.13333519406E+04  0.90110781194E+03 0.  0.
         23    2    4    4    0    0 -0.71401552402E+02 -0.57674275510E+00  0.33940221731E+03  0.35911845190E+03  0.93132610095E+02 0.  0.
         23    2    4    4    0    0 -0.90571987255E+03  0.10537373733E+03 -0.33026878785E+03  0.97423348868E+03  0.92850989104E+02 0.  0.
          2    1    3    3  502    0  0.63644551706E+03 -0.41609072874E+02 -0.10956137864E+04  0.12677396342E+04  0.00000000000E+00 0. -1.
         -1    1    3    3    0  502  0.34067590789E+03 -0.63187921704E+02 -0.64900366399E+03  0.73570275488E+03  0.00000000000E+00 0.  1.
         13    1    5    5    0    0 -0.50106111732E+01 -0.78143010394E+01 -0.33891175603E+01  0.98820869709E+01  0.00000000000E+00 0.  1.
        -13    1    5    5    0    0 -0.66390941229E+02  0.72375582843E+01  0.34279133487E+03  0.34923636493E+03  0.00000000000E+00 0. -1.
          2    1    6    6  503    0 -0.83385656289E+03  0.87172224499E+02 -0.32735783044E+03  0.90004383968E+03  0.00000000000E+00 0. -1.
         -2    1    6    6    0  503 -0.71863309660E+02  0.18201512834E+02 -0.29109574094E+01  0.74189648993E+02  0.00000000000E+00 0.  1.
<mgrwt>
<rscale>  0 0.28499634E+04</rscale>
<asrwt>0</asrwt>
<pdfrwt beam="1">  1        2 0.39017525E+00 0.28499634E+04</pdfrwt>
<pdfrwt beam="2">  1       -1 0.12317772E+00 0.28499634E+04</pdfrwt>
<totfact> 0.18959797E+00</totfact>
</mgrwt>
</event>
<event>
12    7  0.1660832E-007  0.2631799E+04  0.7818608E-02  0.8357479E-01
          2   -1    0    0  501    0  0.00000000000E+00  0.00000000000E+00  0.34211863385E+04  0.34211863385E+04  0.00000000000E+00 0. -1.
         -3   -1    0    0    0  501 -0.00000000000E+00 -0.00000000000E+00 -0.50613790627E+03  0.50613790627E+03  0.00000000000E+00 0.  1.
         24    2    1    2    0    0  0.26071890181E+03  0.85808426241E+03  0.19433345822E+03  0.92082720696E+03  0.76644014407E+02 0.  0.
        254    2    1    2    0    0 -0.26071890181E+03 -0.85808426241E+03  0.27207149740E+04  0.30064970378E+04  0.91238781305E+03 0.  0.
         23    2    4    4    0    0 -0.13418490601E+03 -0.23479213527E+03  0.20794070903E+04  0.20989223818E+04  0.91697228178E+02 0.  0.
         23    2    4    4    0    0 -0.12653399580E+03 -0.62329212714E+03  0.64130788363E+03  0.90757465598E+03  0.88949574030E+02 0.  0.
          2    1    3    3  502    0  0.79980181078E+02  0.18518525415E+03  0.20766904475E+02  0.20278479243E+03  0.00000000000E+00 0. -1.
         -1    1    3    3    0  502  0.18073872073E+03  0.67289900826E+03  0.17356655375E+03  0.71804241453E+03  0.00000000000E+00 0.  1.
         13    1    5    5    0    0 -0.12321343844E+03 -0.16430689120E+03  0.17414939849E+04  0.17535619765E+04  0.00000000000E+00 0. -1.
        -13    1    5    5    0    0 -0.10971467567E+02 -0.70485244062E+02  0.33791310543E+03  0.34536040530E+03  0.00000000000E+00 0.  1.
          3    1    6    6  503    0 -0.38860510666E+02 -0.36238668065E+03  0.40456239792E+03  0.54452270789E+03  0.00000000000E+00 0. -1.
         -3    1    6    6    0  503 -0.87673485134E+02 -0.26090544649E+03  0.23674548572E+03  0.36305194809E+03  0.00000000000E+00 0.  1.
<mgrwt>
<rscale>  0 0.26317995E+04</rscale>
<asrwt>0</asrwt>
<pdfrwt beam="1">  1        2 0.52633634E+00 0.26317995E+04</pdfrwt>
<pdfrwt beam="2">  1       -3 0.77867372E-01 0.26317995E+04</pdfrwt>
<totfact> 0.80778249E-01</totfact>
</mgrwt>
</event>
<event>
12    7  0.1660832E-007  0.1369862E+04  0.7818608E-02  0.8975927E-01
          2   -1    0    0  501    0  0.00000000000E+00  0.00000000000E+00  0.14855454565E+04  0.14855454565E+04  0.00000000000E+00 0. -1.
         -1   -1    0    0    0  501 -0.00000000000E+00 -0.00000000000E+00 -0.31579700086E+03  0.31579700086E+03  0.00000000000E+00 0.  1.
         24    2    1    2    0    0 -0.23290003930E+03 -0.42836735505E+02 -0.63194072085E+02  0.25528628041E+03  0.71415544557E+02 0.  0.
        254    2    1    2    0    0  0.23290003930E+03  0.42836735505E+02  0.12329425277E+04  0.15460561769E+04  0.90225551335E+03 0.  0.
         23    2    4    4    0    0  0.47894698002E+03  0.28693693343E+03  0.64889426161E+03  0.86082944396E+03  0.90777504953E+02 0.  0.
         23    2    4    4    0    0 -0.24604694072E+03 -0.24410019793E+03  0.58404826609E+03  0.68522673295E+03  0.91100465243E+02 0.  0.
          4    1    3    3  502    0 -0.24903745459E+02 -0.29759739245E+02 -0.69426341394E+01  0.39421298642E+02  0.00000000000E+00 0. -1.
         -3    1    3    3    0  502 -0.20799629384E+03 -0.13076996259E+02 -0.56251437946E+02  0.21586498177E+03  0.00000000000E+00 0.  1.
         13    1    5    5    0    0  0.33688230473E+03  0.16934418609E+03  0.48324689569E+03  0.61293939570E+03  0.00000000000E+00 0. -1.
        -13    1    5    5    0    0  0.14206467529E+03  0.11759274735E+03  0.16564736591E+03  0.24789004826E+03  0.00000000000E+00 0.  1.
          1    1    6    6  503    0 -0.18967405520E+03 -0.22138355593E+03  0.42887796564E+03  0.51857809004E+03  0.00000000000E+00 0. -1.
         -1    1    6    6    0  503 -0.56372885524E+02 -0.22716641996E+02  0.15517030045E+03  0.16664864292E+03  0.00000000000E+00 0.  1.
<mgrwt>
<rscale>  0 0.13698625E+04</rscale>
<asrwt>0</asrwt>
<pdfrwt beam="1">  1        2 0.22854545E+00 0.13698625E+04</pdfrwt>
<pdfrwt beam="2">  1       -1 0.48584155E-01 0.13698625E+04</pdfrwt>
<totfact> 0.60937808E+01</totfact>
</mgrwt>
</event>
<event>
12    7  0.1660832E-007  0.2239341E+04  0.7818608E-02  0.8502230E-01
         -1   -1    0    0    0  501 -0.00000000000E+00  0.00000000000E+00  0.83498379635E+03  0.83498379635E+03  0.00000000000E+00 0.  1.
          2   -1    0    0  501    0  0.00000000000E+00 -0.00000000000E+00 -0.15014204120E+04  0.15014204120E+04  0.00000000000E+00 0. -1.
         24    2    1    2    0    0  0.44576029200E+03  0.82395179391E+03 -0.26153035306E+03  0.97588827558E+03  0.79755904040E+02 0.  0.
        254    2    1    2    0    0 -0.44576029200E+03 -0.82395179391E+03 -0.40490626262E+03  0.13605159328E+04  0.89969757433E+03 0.  0.
         23    2    4    4    0    0 -0.43110000893E+03 -0.14802532046E+03 -0.48569049956E+03  0.67358174914E+03  0.10029156604E+03 0.  0.
         23    2    4    4    0    0 -0.14660283072E+02 -0.67592647345E+03  0.80784236939E+02  0.68693418365E+03  0.90889814166E+02 0.  0.
          2    1    3    3  502    0  0.91079760426E+02  0.12979324644E+03 -0.69112612592E+02  0.17296925392E+03  0.00000000000E+00 0. -1.
         -1    1    3    3    0  502  0.35468053157E+03  0.69415854747E+03 -0.19241774047E+03  0.80291902166E+03  0.00000000000E+00 0.  1.
         13    1    5    5    0    0 -0.50245643361E+02 -0.22096397525E+02 -0.18759947311E+02  0.58006991677E+02  0.00000000000E+00 0. -1.
        -13    1    5    5    0    0 -0.38085436557E+03 -0.12592892294E+03 -0.46693055225E+03  0.61557475746E+03  0.00000000000E+00 0.  1.
          3    1    6    6  503    0 -0.31770600600E+02 -0.13631369485E+03  0.39704084293E+02  0.14548954868E+03  0.00000000000E+00 0. -1.
         -3    1    6    6    0  503  0.17110317527E+02 -0.53961277861E+03  0.41080152646E+02  0.54144463497E+03  0.00000000000E+00 0.  1.
<mgrwt>
<rscale>  0 0.22393407E+04</rscale>
<asrwt>0</asrwt>
<pdfrwt beam="1">  1        2 0.23098775E+00 0.22393407E+04</pdfrwt>
<pdfrwt beam="2">  1       -1 0.12845905E+00 0.22393407E+04</pdfrwt>
<totfact> 0.68733702E+00</totfact>
</mgrwt>
</event>
<event>
12    7  0.1660832E-007  0.2307629E+04  0.7818608E-02  0.8474919E-01
          2   -1    0    0  501    0  0.00000000000E+00  0.00000000000E+00  0.23400510492E+04  0.23400510492E+04  0.00000000000E+00 0. -1.
         -1   -1    0    0    0  501 -0.00000000000E+00 -0.00000000000E+00 -0.56891412143E+03  0.56891412143E+03  0.00000000000E+00 0.  1.
         24    2    1    2    0    0 -0.37317925860E+03  0.66747344397E+03 -0.15395700796E+02  0.76970942961E+03  0.86209169926E+02 0.  0.
        254    2    1    2    0    0  0.37317925860E+03 -0.66747344397E+03  0.17865326286E+04  0.21392557410E+04  0.89438958801E+03 0.  0.
         23    2    4    4    0    0  0.24472846801E+03 -0.74358256380E+03  0.75027545347E+03  0.10881850770E+04  0.91795715493E+02 0.  0.
         23    2    4    4    0    0  0.12845079058E+03  0.76109119833E+02  0.10362571751E+04  0.10510706641E+04  0.92889203898E+02 0.  0.
          2    1    3    3  502    0 -0.18901342137E+03  0.37084018126E+03  0.31494448303E+02  0.41742114677E+03  0.00000000000E+00 0. -1.
         -1    1    3    3    0  502 -0.18416583722E+03  0.29663326271E+03 -0.46890149099E+02  0.35228828284E+03  0.00000000000E+00 0.  1.
         13    1    5    5    0    0  0.12221548059E+03 -0.29771163633E+03  0.36220853581E+03  0.48452437040E+03  0.00000000000E+00 0. -1.
        -13    1    5    5    0    0  0.12251298743E+03 -0.44587092747E+03  0.38806691766E+03  0.60366070655E+03  0.00000000000E+00 0.  1.
          4    1    6    6  503    0  0.57970217650E+02 -0.13447006756E+02  0.27808728542E+03  0.28438337933E+03  0.00000000000E+00 0. -1.
         -4    1    6    6    0  503  0.70480572932E+02  0.89556126589E+02  0.75816988969E+03  0.76668728476E+03  0.00000000000E+00 0.  1.
<mgrwt>
<rscale>  0 0.23076292E+04</rscale>
<asrwt>0</asrwt>
<pdfrwt beam="1">  1        2 0.36000785E+00 0.23076292E+04</pdfrwt>
<pdfrwt beam="2">  1       -1 0.87525250E-01 0.23076292E+04</pdfrwt>
<totfact> 0.56955305E+00</totfact>
</mgrwt>
</event>
<event>
12    7  0.1660832E-007  0.1684918E+04  0.7818608E-02  0.8770013E-01
         -3   -1    0    0    0  501 -0.00000000000E+00  0.00000000000E+00  0.20037236067E+04  0.20037236067E+04  0.00000000000E+00 0.  1.
          2   -1    0    0  501    0  0.00000000000E+00 -0.00000000000E+00 -0.35420897747E+03  0.35420897747E+03  0.00000000000E+00 0. -1.
         24    2    1    2    0    0  0.30242933496E+03  0.51254359123E+03  0.65561934377E+03  0.88902159656E+03  0.79738570756E+02 0.  0.
        254    2    1    2    0    0 -0.30242933496E+03 -0.51254359123E+03  0.99389528545E+03  0.14689109876E+04  0.90316510976E+03 0.  0.
         23    2    4    4    0    0 -0.36916657868E+03 -0.50869541860E+03  0.19793271442E+03  0.66551924899E+03  0.93185404510E+02 0.  0.
         23    2    4    4    0    0  0.66737243719E+02 -0.38481726292E+01  0.79596257103E+03  0.80339173861E+03  0.86099959705E+02 0.  0.
          4    1    3    3  502    0  0.27921432071E+02  0.63042272420E+02  0.43621596712E+02  0.81589081258E+02  0.00000000000E+00 0. -1.
         -3    1    3    3    0  502  0.27450790289E+03  0.44950131881E+03  0.61199774706E+03  0.80743251530E+03  0.00000000000E+00 0.  1.
         13    1    5    5    0    0 -0.28134543403E+03 -0.38283855357E+03  0.10654203386E+03  0.48690021188E+03  0.00000000000E+00 0. -1.
        -13    1    5    5    0    0 -0.87821144644E+02 -0.12585686504E+03  0.91390680569E+02  0.17861903711E+03  0.00000000000E+00 0.  1.
          1    1    6    6  503    0  0.27397197900E+02 -0.38194462238E+02  0.54671134121E+03  0.54872826974E+03  0.00000000000E+00 0. -1.
         -1    1    6    6    0  503  0.39340045819E+02  0.34346289609E+02  0.24925122982E+03  0.25466346887E+03  0.00000000000E+00 0.  1.
<mgrwt>
<rscale>  0 0.16849177E+04</rscale>
<asrwt>0</asrwt>
<pdfrwt beam="1">  1        2 0.54493690E-01 0.16849177E+04</pdfrwt>
<pdfrwt beam="2">  1       -3 0.30826516E+00 0.16849177E+04</pdfrwt>
<totfact> 0.18487980E+00</totfact>
</mgrwt>
</event>
<event>
12    7  0.1660832E-007  0.9968270E+03  0.7818608E-02  0.9312032E-01
          2   -1    0    0  501    0  0.00000000000E+00  0.00000000000E+00  0.22312319390E+04  0.22312319390E+04  0.00000000000E+00 0. -1.
         -1   -1    0    0    0  501 -0.00000000000E+00 -0.00000000000E+00 -0.11133580586E+03  0.11133580586E+03  0.00000000000E+00 0.  1.
         24    2    1    2    0    0  0.19864016010E+02  0.37934106888E+02  0.10144546979E+03  0.13637018252E+03  0.80449162459E+02 0.  0.
        254    2    1    2    0    0 -0.19864016010E+02 -0.37934106888E+02  0.20184506634E+04  0.22061975624E+04  0.88956788843E+03 0.  0.
         23    2    4    4    0    0  0.21111442547E+03 -0.17835617371E+03  0.18526886459E+04  0.18755277350E+04  0.93642088121E+02 0.  0.
         23    2    4    4    0    0 -0.23097844148E+03  0.14042206682E+03  0.16576201744E+03  0.33066982736E+03  0.93787477963E+02 0.  0.
          2    1    3    3  502    0 -0.43617824138E+01  0.33896343816E+02  0.10601610589E+03  0.11138851816E+03  0.00000000000E+00 0. -1.
         -3    1    3    3    0  502  0.24225798423E+02  0.40377630723E+01 -0.45706360921E+01  0.24981664359E+02  0.00000000000E+00 0.  1.
         13    1    5    5    0    0  0.98310824270E+02 -0.45856095352E+02  0.49595905513E+03  0.50768413804E+03  0.00000000000E+00 0.  1.
        -13    1    5    5    0    0  0.11280360120E+03 -0.13250007836E+03  0.13567295908E+04  0.13678435969E+04  0.00000000000E+00 0. -1.
          3    1    6    6  503    0 -0.20714378669E+03  0.92439159263E+02  0.10590899916E+03  0.25034029366E+03  0.00000000000E+00 0. -1.
         -3    1    6    6    0  503 -0.23834654793E+02  0.47982907562E+02  0.59853018281E+02  0.80329533700E+02  0.00000000000E+00 0.  1.
<mgrwt>
<rscale>  0 0.99682698E+03</rscale>
<asrwt>0</asrwt>
<pdfrwt beam="1">  1        2 0.34326642E+00 0.99682698E+03</pdfrwt>
<pdfrwt beam="2">  1       -1 0.17128587E-01 0.99682698E+03</pdfrwt>
<totfact> 0.15039357E+02</totfact>
</mgrwt>
</event>
<event>
12    7  0.1660832E-007  0.1588490E+04  0.7818608E-02  0.8827651E-01
         -1   -1    0    0    0  501 -0.00000000000E+00  0.00000000000E+00  0.62406787948E+03  0.62406787948E+03  0.00000000000E+00 0.  1.
          2   -1    0    0  501    0  0.00000000000E+00 -0.00000000000E+00 -0.10108275021E+04  0.10108275021E+04  0.00000000000E+00 0. -1.
         24    2    1    2    0    0  0.17994898605E+03  0.17843256817E+03 -0.63201292080E+03  0.68566030377E+03  0.80435695701E+02 0.  0.
        254    2    1    2    0    0 -0.17994898605E+03 -0.17843256817E+03  0.24525329815E+03  0.94923507783E+03  0.88129350035E+03 0.  0.
         23    2    4    4    0    0 -0.21611315303E+03 -0.40982185376E+03  0.42904898356E+03  0.63821754676E+03  0.92626993734E+02 0.  0.
         23    2    4    4    0    0  0.36164166974E+02  0.23138928559E+03 -0.18379568541E+03  0.31101753107E+03  0.90012233617E+02 0.  0.
          4    1    3    3  502    0  0.17072939427E+03  0.15990603498E+03 -0.61767337077E+03  0.66048380680E+03  0.00000000000E+00 0. -1.
         -3    1    3    3    0  502  0.92195917856E+01  0.18526533181E+02 -0.14339550031E+02  0.25176496966E+02  0.00000000000E+00 0.  1.
         13    1    5    5    0    0 -0.16792579591E+03 -0.34707913724E+03  0.30741651143E+03  0.49312058560E+03  0.00000000000E+00 0. -1.
        -13    1    5    5    0    0 -0.48187357121E+02 -0.62742716514E+02  0.12163247213E+03  0.14509696116E+03  0.00000000000E+00 0.  1.
          1    1    6    6  503    0  0.48126797247E+02  0.11247085273E+03 -0.13427196911E+03  0.18164482656E+03  0.00000000000E+00 0. -1.
         -1    1    6    6    0  503 -0.11962630272E+02  0.11891843286E+03 -0.49523716297E+02  0.12937270451E+03  0.00000000000E+00 0.  1.
<mgrwt>
<rscale>  0 0.15884898E+04</rscale>
<asrwt>0</asrwt>
<pdfrwt beam="1">  1        2 0.15551192E+00 0.15884898E+04</pdfrwt>
<pdfrwt beam="2">  1       -1 0.96010445E-01 0.15884898E+04</pdfrwt>
<totfact> 0.28385546E+01</totfact>
</mgrwt>
</event>
<event>
12    7  0.1660832E-007  0.1307729E+04  0.7818608E-02  0.9023459E-01
         -1   -1    0    0    0  501 -0.00000000000E+00  0.00000000000E+00  0.17409025425E+03  0.17409025425E+03  0.00000000000E+00 0.  1.
          2   -1    0    0  501    0  0.00000000000E+00 -0.00000000000E+00 -0.24558446108E+04  0.24558446108E+04  0.00000000000E+00 0. -1.
         24    2    1    2    0    0 -0.90059429789E+01  0.32086209605E+03 -0.33087367928E+03  0.46816839912E+03  0.81674148918E+02 0.  0.
        254    2    1    2    0    0  0.90059429789E+01 -0.32086209605E+03 -0.19508806773E+04  0.21617664660E+04  0.87422265163E+03 0.  0.
         23    2    4    4    0    0  0.33273063083E+03  0.53597348849E+02 -0.12532200200E+04  0.13012563828E+04  0.95526994249E+02 0.  0.
         23    2    4    4    0    0 -0.32372468786E+03 -0.37445944490E+03 -0.69766065729E+03  0.86051008320E+03  0.93432655779E+02 0.  0.
          2    1    3    3  502    0 -0.41772225118E+01  0.12496335228E+03 -0.18748018827E+03  0.22534886198E+03  0.00000000000E+00 0. -1.
         -1    1    3    3    0  502 -0.48287204671E+01  0.19589874377E+03 -0.14339349101E+03  0.24281953714E+03  0.00000000000E+00 0.  1.
         13    1    5    5    0    0  0.25066419658E+03 -0.16946470401E+01 -0.86117801064E+03  0.89691860126E+03  0.00000000000E+00 0. -1.
        -13    1    5    5    0    0  0.82066434251E+02  0.55291995889E+02 -0.39204200936E+03  0.40433778149E+03  0.00000000000E+00 0.  1.
          1    1    6    6  503    0 -0.28638440191E+03 -0.31058471530E+03 -0.53404311784E+03  0.68094121828E+03  0.00000000000E+00 0. -1.
         -1    1    6    6    0  503 -0.37340285941E+02 -0.63874729599E+02 -0.16361753945E+03  0.17956886493E+03  0.00000000000E+00 0.  1.
<mgrwt>
<rscale>  0 0.13077287E+04</rscale>
<asrwt>0</asrwt>
<pdfrwt beam="1">  1        2 0.37782222E+00 0.13077287E+04</pdfrwt>
<pdfrwt beam="2">  1       -1 0.26783118E-01 0.13077287E+04</pdfrwt>
<totfact> 0.51454926E+01</totfact>
</mgrwt>
</event>
<event>
12    7  0.1660832E-007  0.1594004E+04  0.7818608E-02  0.8824240E-01
          2   -1    0    0  501    0  0.00000000000E+00  0.00000000000E+00  0.77052583003E+03  0.77052583003E+03  0.00000000000E+00 0. -1.
         -1   -1    0    0    0  501 -0.00000000000E+00 -0.00000000000E+00 -0.82438840841E+03  0.82438840841E+03  0.00000000000E+00 0.  1.
         24    2    1    2    0    0  0.13028929642E+02 -0.39576753604E+03  0.34749629408E+03  0.53288599307E+03  0.80075661840E+02 0.  0.
        254    2    1    2    0    0 -0.13028929642E+02  0.39576753604E+03 -0.40135887246E+03  0.10620282454E+04  0.90000741879E+03 0.  0.
         23    2    4    4    0    0  0.20434828142E+03  0.56934739641E+03 -0.45557005375E+03  0.76259330139E+03  0.89943268329E+02 0.  0.
         23    2    4    4    0    0 -0.21737721106E+03 -0.17357986038E+03  0.54211181297E+02  0.29943494398E+03  0.96641676739E+02 0.  0.
          2    1    3    3  502    0  0.46092610259E+01 -0.79515598368E+02  0.11666928134E+03  0.14126463422E+03  0.00000000000E+00 0. -1.
         -1    1    3    3    0  502  0.84196686164E+01 -0.31625193767E+03  0.23082701273E+03  0.39162135885E+03  0.00000000000E+00 0.  1.
         13    1    5    5    0    0  0.17894944804E+03  0.37719562462E+03 -0.32108601992E+03  0.52668365873E+03  0.00000000000E+00 0. -1.
        -13    1    5    5    0    0  0.25398833378E+02  0.19215177180E+03 -0.13448403384E+03  0.23590964266E+03  0.00000000000E+00 0.  1.
          1    1    6    6  503    0 -0.21369947834E+03 -0.14280538788E+03  0.67459804238E+02  0.26572856647E+03  0.00000000000E+00 0. -1.
         -1    1    6    6    0  503 -0.36777327255E+01 -0.30774472494E+02 -0.13248622941E+02  0.33706377514E+02  0.00000000000E+00 0.  1.
<mgrwt>
<rscale>  0 0.15940045E+04</rscale>
<asrwt>0</asrwt>
<pdfrwt beam="1">  1        2 0.11854244E+00 0.15940045E+04</pdfrwt>
<pdfrwt beam="2">  1       -1 0.12682899E+00 0.15940045E+04</pdfrwt>
<totfact> 0.21405084E+01</totfact>
</mgrwt>
</event>
<event>
12    7  0.1660832E-007  0.1988352E+04  0.7818608E-02  0.8612086E-01
         -1   -1    0    0    0  501 -0.00000000000E+00  0.00000000000E+00  0.14802735271E+04  0.14802735271E+04  0.00000000000E+00 0.  1.
          2   -1    0    0  501    0  0.00000000000E+00 -0.00000000000E+00 -0.66770458621E+03  0.66770458621E+03  0.00000000000E+00 0. -1.
         24    2    1    2    0    0  0.32752508796E+03 -0.59231429975E+03 -0.12409435998E+03  0.69262940185E+03  0.78912389363E+02 0.  0.
        254    2    1    2    0    0 -0.32752508796E+03  0.59231429975E+03  0.93666330091E+03  0.14553487115E+04  0.88464276398E+03 0.  0.
         23    2    4    4    0    0 -0.51324298794E+03  0.34676512906E+03  0.20746967947E+03  0.65819834709E+03  0.80727794497E+02 0.  0.
         23    2    4    4    0    0  0.18571789998E+03  0.24554917069E+03  0.72919362144E+03  0.79715036441E+03  0.94550686595E+02 0.  0.
          2    1    3    3  502    0  0.25490967444E+03 -0.40297389697E+03 -0.63874146499E+02  0.48108919169E+03  0.00000000000E+00 0. -1.
         -1    1    3    3    0  502  0.72615413520E+02 -0.18934040278E+03 -0.60220213480E+02  0.21154021017E+03  0.00000000000E+00 0.  1.
         13    1    5    5    0    0 -0.20925463592E+03  0.13008564853E+03  0.12328463813E+03  0.27551566309E+03  0.00000000000E+00 0.  1.
        -13    1    5    5    0    0 -0.30398835202E+03  0.21667948054E+03  0.84185041343E+02  0.38268268400E+03  0.00000000000E+00 0. -1.
          1    1    6    6  503    0  0.15398425240E+03  0.23270291809E+03  0.69426477099E+03  0.74824151870E+03  0.00000000000E+00 0. -1.
         -1    1    6    6    0  503  0.31733647584E+02  0.12846252602E+02  0.34928850446E+02  0.48908845707E+02  0.00000000000E+00 0.  1.
<mgrwt>
<rscale>  0 0.19883515E+04</rscale>
<asrwt>0</asrwt>
<pdfrwt beam="1">  1        2 0.10272378E+00 0.19883515E+04</pdfrwt>
<pdfrwt beam="2">  1       -1 0.22773439E+00 0.19883515E+04</pdfrwt>
<totfact> 0.45109190E+00</totfact>
</mgrwt>
</event>
<event>
12    7  0.1660832E-007  0.2241462E+04  0.7818608E-02  0.8501366E-01
         -1   -1    0    0    0  501 -0.00000000000E+00  0.00000000000E+00  0.14902248209E+04  0.14902248209E+04  0.00000000000E+00 0.  1.
          2   -1    0    0  501    0  0.00000000000E+00 -0.00000000000E+00 -0.84285136042E+03  0.84285136042E+03  0.00000000000E+00 0. -1.
         24    2    1    2    0    0  0.53428277834E+03  0.85407691581E+02 -0.53698956523E+03  0.76655005358E+03  0.80552035788E+02 0.  0.
        254    2    1    2    0    0 -0.53428277834E+03 -0.85407691581E+02  0.11843630257E+04  0.15665261277E+04  0.87093959102E+03 0.  0.
         23    2    4    4    0    0 -0.75409018574E+03 -0.40833628114E+02  0.10264423580E+04  0.12774425539E+04  0.89197369792E+02 0.  0.
         23    2    4    4    0    0  0.21980740740E+03 -0.44574063467E+02  0.15792066767E+03  0.28908357382E+03  0.91259146893E+02 0.  0.
          2    1    3    3  502    0  0.34010482814E+03  0.92512751527E+02 -0.35737116657E+03  0.50194028929E+03  0.00000000000E+00 0. -1.
         -1    1    3    3    0  502  0.19417795020E+03 -0.71050599457E+01 -0.17961839866E+03  0.26460976429E+03  0.00000000000E+00 0.  1.
         13    1    5    5    0    0 -0.24063415532E+03 -0.29246034670E+01  0.26157724799E+03  0.35543776766E+03  0.00000000000E+00 0.  1.
        -13    1    5    5    0    0 -0.51345603042E+03 -0.37909024647E+02  0.76486511001E+03  0.92200478623E+03  0.00000000000E+00 0. -1.
          3    1    6    6  503    0  0.20255251353E+03 -0.17020852300E+02  0.10984614092E+03  0.23104849020E+03  0.00000000000E+00 0. -1.
         -3    1    6    6    0  503  0.17254893873E+02 -0.27553211167E+02  0.48074526747E+02  0.58035083614E+02  0.00000000000E+00 0.  1.
<mgrwt>
<rscale>  0 0.22414620E+04</rscale>
<asrwt>0</asrwt>
<pdfrwt beam="1">  1        2 0.12966944E+00 0.22414620E+04</pdfrwt>
<pdfrwt beam="2">  1       -1 0.22926536E+00 0.22414620E+04</pdfrwt>
<totfact> 0.31847667E+00</totfact>
</mgrwt>
</event>
<event>
12    7  0.1660832E-007  0.1767033E+04  0.7818608E-02  0.8724030E-01
         -1   -1    0    0    0  501 -0.00000000000E+00  0.00000000000E+00  0.19469985203E+04  0.19469985203E+04  0.00000000000E+00 0.  1.
          2   -1    0    0  501    0  0.00000000000E+00 -0.00000000000E+00 -0.40092555508E+03  0.40092555508E+03  0.00000000000E+00 0. -1.
         24    2    1    2    0    0 -0.61736112651E+02  0.26321231278E+03 -0.20861948629E+03  0.35082066986E+03  0.80380240946E+02 0.  0.
        254    2    1    2    0    0  0.61736112651E+02 -0.26321231278E+03  0.17546924515E+04  0.19971034055E+04  0.91454050962E+03 0.  0.
         23    2    4    4    0    0  0.34242846650E+03 -0.43977295541E+03  0.77474858856E+03  0.95881310965E+03  0.91813380186E+02 0.  0.
         23    2    4    4    0    0 -0.28069235384E+03  0.17656064262E+03  0.97994386297E+03  0.10382902959E+04  0.88288764454E+02 0.  0.
          4    1    3    3  502    0 -0.37422832779E+01  0.96910306599E+02 -0.33904666690E+02  0.10273820435E+03  0.00000000000E+00 0. -1.
         -3    1    3    3    0  502 -0.57993829373E+02  0.16630200619E+03 -0.17471481960E+03  0.24808246551E+03  0.00000000000E+00 0.  1.
         13    1    5    5    0    0  0.17558197744E+03 -0.19279744886E+03  0.43195496036E+03  0.50456414346E+03  0.00000000000E+00 0. -1.
        -13    1    5    5    0    0  0.16684648906E+03 -0.24697550655E+03  0.34279362820E+03  0.45424896619E+03  0.00000000000E+00 0.  1.
          3    1    6    6  503    0 -0.23507521183E+02  0.15000241653E+02  0.29928883516E+02  0.40906587127E+02  0.00000000000E+00 0. -1.
         -3    1    6    6    0  503 -0.25718483266E+03  0.16156040097E+03  0.95001497946E+03  0.99738370876E+03  0.00000000000E+00 0.  1.
<mgrwt>
<rscale>  0 0.17670331E+04</rscale>
<asrwt>0</asrwt>
<pdfrwt beam="1">  1        2 0.61680856E-01 0.17670331E+04</pdfrwt>
<pdfrwt beam="2">  1       -1 0.29953823E+00 0.17670331E+04</pdfrwt>
<totfact> 0.28581289E+00</totfact>
</mgrwt>
</event>
<event>
12    7  0.1660832E-007  0.1307601E+04  0.7818608E-02  0.9023559E-01
          2   -1    0    0  501    0  0.00000000000E+00  0.00000000000E+00  0.18736736174E+04  0.18736736174E+04  0.00000000000E+00 0. -1.
         -1   -1    0    0    0  501 -0.00000000000E+00 -0.00000000000E+00 -0.22813730923E+03  0.22813730923E+03  0.00000000000E+00 0.  1.
         24    2    1    2    0    0  0.21510009204E+03 -0.24324165334E+03  0.56465684091E+03  0.65620193951E+03  0.79555552407E+02 0.  0.
        254    2    1    2    0    0 -0.21510009204E+03  0.24324165334E+03  0.10808794672E+04  0.14456089871E+04  0.90335506272E+03 0.  0.
         23    2    4    4    0    0  0.32023026065E+03  0.32724679626E+02  0.20032269531E+03  0.38992744681E+03  0.91081869935E+02 0.  0.
         23    2    4    4    0    0 -0.53533035268E+03  0.21051697371E+03  0.88055677191E+03  0.10556815403E+04  0.90483717702E+02 0.  0.
          4    1    3    3  502    0  0.17284236763E+03 -0.17547725295E+03  0.48189176840E+03  0.54118982511E+03  0.00000000000E+00 0. -1.
         -3    1    3    3    0  502  0.42257724401E+02 -0.67764400381E+02  0.82765072512E+02  0.11501211440E+03  0.00000000000E+00 0.  1.
         13    1    5    5    0    0 -0.35854350880E+01  0.76699084045E+01  0.26019726514E+00  0.84705691852E+01  0.00000000000E+00 0.  1.
        -13    1    5    5    0    0  0.32381569574E+03  0.25054771222E+02  0.20006249805E+03  0.38145687763E+03  0.00000000000E+00 0. -1.
          3    1    6    6  503    0 -0.47810099120E+03  0.18012245682E+03  0.72280554661E+03  0.88513982819E+03  0.00000000000E+00 0. -1.
         -3    1    6    6    0  503 -0.57229361478E+02  0.30394516894E+02  0.15775122529E+03  0.17054171207E+03  0.00000000000E+00 0.  1.
<mgrwt>
<rscale>  0 0.13076006E+04</rscale>
<asrwt>0</asrwt>
<pdfrwt beam="1">  1        2 0.28825747E+00 0.13076006E+04</pdfrwt>
<pdfrwt beam="2">  1       -1 0.35098049E-01 0.13076006E+04</pdfrwt>
<totfact> 0.67693310E+01</totfact>
</mgrwt>
</event>
<event>
12    7  0.1660832E-007  0.1781761E+04  0.7818608E-02  0.8716059E-01
          2   -1    0    0  501    0  0.00000000000E+00  0.00000000000E+00  0.20144020291E+04  0.20144020291E+04  0.00000000000E+00 0. -1.
         -1   -1    0    0    0  501 -0.00000000000E+00 -0.00000000000E+00 -0.39399691516E+03  0.39399691516E+03  0.00000000000E+00 0.  1.
         24    2    1    2    0    0 -0.25693753039E+03  0.35408376566E+03  0.12749856431E+04  0.13504539372E+04  0.82129403157E+02 0.  0.
        254    2    1    2    0    0  0.25693753039E+03 -0.35408376566E+03  0.34541947085E+03  0.10579450070E+04  0.89918897871E+03 0.  0.
         23    2    4    4    0    0  0.46654865318E+03 -0.52582662155E+03  0.19549816345E+03  0.73523916734E+03  0.90530765882E+02 0.  0.
         23    2    4    4    0    0 -0.20961112279E+03  0.17174285588E+03  0.14992130741E+03  0.32270583969E+03  0.90720610730E+02 0.  0.
          2    1    3    3  502    0 -0.14957188974E+03  0.14899934796E+03  0.68009866833E+03  0.71211428476E+03  0.00000000000E+00 0. -1.
         -1    1    3    3    0  502 -0.10736564065E+03  0.20508441770E+03  0.59488697473E+03  0.63833965244E+03  0.00000000000E+00 0.  1.
         13    1    5    5    0    0  0.27641085546E+03 -0.30609928020E+03  0.16052334391E+03  0.44256917459E+03  0.00000000000E+00 0.  1.
        -13    1    5    5    0    0  0.19013779772E+03 -0.21972734134E+03  0.34974819535E+02  0.29266999275E+03  0.00000000000E+00 0. -1.
          3    1    6    6  503    0 -0.16279791414E+03  0.81851096008E+02  0.11517413102E+03  0.21556401189E+03  0.00000000000E+00 0. -1.
         -3    1    6    6    0  503 -0.46813208652E+02  0.89891759877E+02  0.34747176390E+02  0.10714182780E+03  0.00000000000E+00 0.  1.
<mgrwt>
<rscale>  0 0.17817611E+04</rscale>
<asrwt>0</asrwt>
<pdfrwt beam="1">  1        2 0.30990800E+00 0.17817611E+04</pdfrwt>
<pdfrwt beam="2">  1       -1 0.60614911E-01 0.17817611E+04</pdfrwt>
<totfact> 0.19493148E+01</totfact>
</mgrwt>
</event>
<event>
12    7  0.1660832E-007  0.1903926E+04  0.7818608E-02  0.8652905E-01
          2   -1    0    0  501    0  0.00000000000E+00  0.00000000000E+00  0.12650540712E+04  0.12650540712E+04  0.00000000000E+00 0. -1.
         -1   -1    0    0    0  501 -0.00000000000E+00 -0.00000000000E+00 -0.71635956510E+03  0.71635956510E+03  0.00000000000E+00 0.  1.
         24    2    1    2    0    0 -0.71257929541E+02  0.78116603944E+02 -0.54643789082E+03  0.56241457245E+03  0.80844829403E+02 0.  0.
        254    2    1    2    0    0  0.71257929541E+02 -0.78116603944E+02  0.10951323969E+04  0.14189990639E+04  0.89613809209E+03 0.  0.
         23    2    4    4    0    0  0.62454495516E+02 -0.32235674002E+03  0.11067669047E+04  0.11582037316E+04  0.93211967076E+02 0.  0.
         23    2    4    4    0    0  0.88034340251E+01  0.24424013608E+03 -0.11634507725E+02  0.26079533226E+03  0.90266821343E+02 0.  0.
          4    1    3    3  502    0  0.14077362568E+02  0.26767334990E+02 -0.81526154891E+02  0.86955024528E+02  0.00000000000E+00 0. -1.
         -3    1    3    3    0  502 -0.85335292110E+02  0.51349268954E+02 -0.46491173593E+03  0.47545954792E+03  0.00000000000E+00 0.  1.
         13    1    5    5    0    0  0.80413978546E+02 -0.30792744178E+03  0.10360117622E+04  0.10837924565E+04  0.00000000000E+00 0.  1.
        -13    1    5    5    0    0 -0.17959483030E+02 -0.14429298240E+02  0.70755142499E+02  0.74411275143E+02  0.00000000000E+00 0. -1.
          3    1    6    6  503    0  0.16243411126E+02  0.10715765954E+02 -0.18779289481E+02  0.27043257171E+02  0.00000000000E+00 0. -1.
         -3    1    6    6    0  503 -0.74399771010E+01  0.23352437012E+03  0.71447817560E+01  0.23375207509E+03  0.00000000000E+00 0.  1.
<mgrwt>
<rscale>  0 0.19039260E+04</rscale>
<asrwt>0</asrwt>
<pdfrwt beam="1">  1        2 0.19462370E+00 0.19039260E+04</pdfrwt>
<pdfrwt beam="2">  1       -1 0.11020916E+00 0.19039260E+04</pdfrwt>
<totfact> 0.14054700E+01</totfact>
</mgrwt>
</event>
<event>
12    7  0.1660832E-007  0.1848980E+04  0.7818608E-02  0.8680678E-01
          2   -1    0    0  501    0  0.00000000000E+00  0.00000000000E+00  0.32349332518E+03  0.32349332518E+03  0.00000000000E+00 0. -1.
         -1   -1    0    0    0  501 -0.00000000000E+00 -0.00000000000E+00 -0.26420384463E+04  0.26420384463E+04  0.00000000000E+00 0.  1.
         24    2    1    2    0    0 -0.13807781719E+03 -0.27404586220E+03  0.12773568854E+03  0.34220250175E+03  0.81360481104E+02 0.  0.
        254    2    1    2    0    0  0.13807781719E+03  0.27404586220E+03 -0.24462808097E+04  0.26233292697E+04  0.89632585564E+03 0.  0.
         23    2    4    4    0    0 -0.31193848531E+03  0.11227601607E+03 -0.16867992891E+04  0.17214699818E+04  0.90859970326E+02 0.  0.
         23    2    4    4    0    0  0.45001630250E+03  0.16176984613E+03 -0.75948152059E+03  0.90185928793E+03  0.88621890496E+02 0.  0.
          2    1    3    3  502    0 -0.97128643134E+02 -0.15016866114E+03  0.11143395611E+03  0.21071812139E+03  0.00000000000E+00 0. -1.
         -1    1    3    3    0  502 -0.40949174051E+02 -0.12387720106E+03  0.16301732429E+02  0.13148438036E+03  0.00000000000E+00 0.  1.
         13    1    5    5    0    0 -0.30238633948E+03  0.12332079681E+03 -0.16473018415E+04  0.16793596619E+04  0.00000000000E+00 0.  1.
        -13    1    5    5    0    0 -0.95521458303E+01 -0.11044780738E+02 -0.39497447590E+02  0.42110319848E+02  0.00000000000E+00 0. -1.
          1    1    6    6  503    0  0.14173583539E+03  0.95836646063E+02 -0.26548892762E+03  0.31584502601E+03  0.00000000000E+00 0. -1.
         -1    1    6    6    0  503  0.30828046710E+03  0.65933200070E+02 -0.49399259297E+03  0.58601426192E+03  0.00000000000E+00 0.  1.
<mgrwt>
<rscale>  0 0.18489800E+04</rscale>
<asrwt>0</asrwt>
<pdfrwt beam="1">  1        2 0.49768206E-01 0.18489800E+04</pdfrwt>
<pdfrwt beam="2">  1       -1 0.40646743E+00 0.18489800E+04</pdfrwt>
<totfact> 0.70321622E-01</totfact>
</mgrwt>
</event>
<event>
12    7  0.1660832E-007  0.1571779E+04  0.7818608E-02  0.8838075E-01
         -1   -1    0    0    0  501 -0.00000000000E+00  0.00000000000E+00  0.27859515134E+03  0.27859515134E+03  0.00000000000E+00 0.  1.
          2   -1    0    0  501    0  0.00000000000E+00 -0.00000000000E+00 -0.22169178291E+04  0.22169178291E+04  0.00000000000E+00 0. -1.
         24    2    1    2    0    0 -0.34287253123E+02 -0.50796172419E+03 -0.45558877759E+03  0.68667545258E+03  0.69002274895E+02 0.  0.
        254    2    1    2    0    0  0.34287253123E+02  0.50796172419E+03 -0.14827339001E+04  0.18088375278E+04  0.90232624615E+03 0.  0.
         23    2    4    4    0    0  0.81645401383E+02  0.66941509317E+03 -0.14659293219E+04  0.16162354815E+04  0.92118489614E+02 0.  0.
         23    2    4    4    0    0 -0.47358148260E+02 -0.16145336899E+03 -0.16804578191E+02  0.19260204635E+03  0.92212633870E+02 0.  0.
          4    1    3    3  502    0 -0.10611833167E+02 -0.16549141158E+02 -0.31537129374E+02  0.37162825584E+02  0.00000000000E+00 0. -1.
         -1    1    3    3    0  502 -0.23675419957E+02 -0.49141258303E+03 -0.42405164822E+03  0.64951262699E+03  0.00000000000E+00 0.  1.
         13    1    5    5    0    0  0.30305695921E+02  0.35945696949E+03 -0.67832631124E+03  0.76828011340E+03  0.00000000000E+00 0.  1.
        -13    1    5    5    0    0  0.51339705462E+02  0.30995812368E+03 -0.78760301069E+03  0.84795536807E+03  0.00000000000E+00 0. -1.
          1    1    6    6  503    0  0.21870914821E+02 -0.32723417790E+02 -0.24281154809E+02  0.46246442737E+02  0.00000000000E+00 0. -1.
         -1    1    6    6    0  503 -0.69229063081E+02 -0.12872995120E+03  0.74765766171E+01  0.14635560361E+03  0.00000000000E+00 0.  1.
<mgrwt>
<rscale>  0 0.15717793E+04</rscale>
<asrwt>0</asrwt>
<pdfrwt beam="1">  1        2 0.34106429E+00 0.15717793E+04</pdfrwt>
<pdfrwt beam="2">  1       -1 0.42860792E-01 0.15717793E+04</pdfrwt>
<totfact> 0.29676642E+01</totfact>
</mgrwt>
</event>
<event>
12    7  0.1660832E-007  0.1843357E+04  0.7818608E-02  0.8683577E-01
          2   -1    0    0  501    0  0.00000000000E+00  0.00000000000E+00  0.93040841536E+03  0.93040841536E+03  0.00000000000E+00 0. -1.
         -1   -1    0    0    0  501 -0.00000000000E+00 -0.00000000000E+00 -0.91303050635E+03  0.91303050635E+03  0.00000000000E+00 0.  1.
         24    2    1    2    0    0 -0.28361844478E+03 -0.39600334912E+02  0.64530753573E+03  0.71056751404E+03  0.80478367185E+02 0.  0.
        254    2    1    2    0    0  0.28361844478E+03  0.39600334912E+02 -0.62792962672E+03  0.11328714077E+04  0.89838432838E+03 0.  0.
         23    2    4    4    0    0 -0.10637194217E+03 -0.24889762983E+03  0.54846036753E+02  0.29035643452E+03  0.89631194925E+02 0.  0.
         23    2    4    4    0    0  0.38999038695E+03  0.28849796475E+03 -0.68277566348E+03  0.84251497316E+03  0.91243058826E+02 0.  0.
          2    1    3    3  502    0 -0.23138978242E+03 -0.60854233399E+02  0.48887012905E+03  0.54427793654E+03  0.00000000000E+00 0. -1.
         -1    1    3    3    0  502 -0.52228662363E+02  0.21253898488E+02  0.15643740669E+03  0.16628957750E+03  0.00000000000E+00 0.  1.
         13    1    5    5    0    0 -0.10566350139E+03 -0.24669358786E+03  0.68121260033E+02  0.27688085504E+03  0.00000000000E+00 0. -1.
        -13    1    5    5    0    0 -0.70844078117E+00 -0.22040419722E+01 -0.13275223280E+02  0.13475579486E+02  0.00000000000E+00 0.  1.
          3    1    6    6  503    0  0.17953323764E+03  0.17891457450E+03 -0.39784412877E+03  0.47172296868E+03  0.00000000000E+00 0. -1.
         -3    1    6    6    0  503  0.21045714930E+03  0.10958339024E+03 -0.28493153471E+03  0.37079200448E+03  0.00000000000E+00 0.  1.
<mgrwt>
<rscale>  0 0.18433570E+04</rscale>
<asrwt>0</asrwt>
<pdfrwt beam="1">  1        2 0.14313976E+00 0.18433570E+04</pdfrwt>
<pdfrwt beam="2">  1       -1 0.14046623E+00 0.18433570E+04</pdfrwt>
<totfact> 0.12479257E+01</totfact>
</mgrwt>
</event>
<event>
12    7  0.1660832E-007  0.2285991E+04  0.7818608E-02  0.8483465E-01
         -1   -1    0    0    0  501 -0.00000000000E+00  0.00000000000E+00  0.50632308555E+03  0.50632308555E+03  0.00000000000E+00 0.  1.
          2   -1    0    0  501    0  0.00000000000E+00 -0.00000000000E+00 -0.25802482532E+04  0.25802482532E+04  0.00000000000E+00 0. -1.
         24    2    1    2    0    0 -0.16344014452E+03  0.67933985121E+03  0.15340086363E+02  0.70358772709E+03  0.81148365277E+02 0.  0.
        254    2    1    2    0    0  0.16344014452E+03 -0.67933985121E+03 -0.20892652540E+04  0.23829836117E+04  0.90849671303E+03 0.  0.
         23    2    4    4    0    0 -0.62478903106E+02 -0.19450435419E+03 -0.17010111390E+04  0.17156434880E+04  0.90874231570E+02 0.  0.
         23    2    4    4    0    0  0.22591904763E+03 -0.48483549701E+03 -0.38825411506E+03  0.66734012366E+03  0.92177586987E+02 0.  0.
          4    1    3    3  502    0 -0.36958640749E+02  0.55720732203E+02 -0.39384948779E+01  0.66979495856E+02  0.00000000000E+00 0. -1.
         -3    1    3    3    0  502 -0.12648150377E+03  0.62361911900E+03  0.19278581241E+02  0.63660823124E+03  0.00000000000E+00 0.  1.
         13    1    5    5    0    0  0.22523163451E+01 -0.37606207999E+02 -0.12594236272E+03  0.13145637503E+03  0.00000000000E+00 0.  1.
        -13    1    5    5    0    0 -0.64731219451E+02 -0.15689814620E+03 -0.15750687763E+04  0.15841871130E+04  0.00000000000E+00 0. -1.
          1    1    6    6  503    0  0.19392281381E+03 -0.46088547514E+03 -0.33991678323E+03  0.60461963120E+03  0.00000000000E+00 0. -1.
         -1    1    6    6    0  503  0.31996233815E+02 -0.23950021871E+02 -0.48337331827E+02  0.62720492457E+02  0.00000000000E+00 0.  1.
<mgrwt>
<rscale>  0 0.22859915E+04</rscale>
<asrwt>0</asrwt>
<pdfrwt beam="1">  1        2 0.39696127E+00 0.22859915E+04</pdfrwt>
<pdfrwt beam="2">  1       -1 0.77895859E-01 0.22859915E+04</pdfrwt>
<totfact> 0.53287563E+00</totfact>
</mgrwt>
</event>
<event>
12    7  0.1660832E-007  0.1411520E+04  0.7818608E-02  0.8945522E-01
          2   -1    0    0  501    0  0.00000000000E+00  0.00000000000E+00  0.48239042778E+03  0.48239042778E+03  0.00000000000E+00 0. -1.
         -1   -1    0    0    0  501 -0.00000000000E+00 -0.00000000000E+00 -0.10325604676E+04  0.10325604676E+04  0.00000000000E+00 0.  1.
         24    2    1    2    0    0 -0.55249993515E+02 -0.19539566348E+03  0.22253752654E+03  0.31081238191E+03  0.76481101856E+02 0.  0.
        254    2    1    2    0    0  0.55249993515E+02  0.19539566348E+03 -0.77270756638E+03  0.12041385135E+04  0.90091095532E+03 0.  0.
         23    2    4    4    0    0 -0.20664536781E+03  0.60468345872E+02  0.11754646256E+03  0.26194224429E+03  0.91857713850E+02 0.  0.
         23    2    4    4    0    0  0.26189536133E+03  0.13492731761E+03 -0.89025402894E+03  0.94219626919E+03  0.91580632859E+02 0.  0.
          4    1    3    3  502    0 -0.70387022419E+02 -0.17276359416E+03  0.17370419932E+03  0.25490143439E+03  0.00000000000E+00 0. -1.
         -3    1    3    3    0  502  0.15137028905E+02 -0.22632069327E+02  0.48833327219E+02  0.55910947527E+02  0.00000000000E+00 0.  1.
         13    1    5    5    0    0 -0.84826013933E+02  0.41804561667E+02  0.44496396904E+01  0.94672452748E+02  0.00000000000E+00 0.  1.
        -13    1    5    5    0    0 -0.12181935388E+03  0.18663784205E+02  0.11309682287E+03  0.16726979154E+03  0.00000000000E+00 0. -1.
          1    1    6    6  503    0  0.13233823316E+02  0.56103294966E+01 -0.14953028720E+03  0.15021956153E+03  0.00000000000E+00 0. -1.
         -1    1    6    6    0  503  0.24866153801E+03  0.12931698811E+03 -0.74072374174E+03  0.79197670766E+03  0.00000000000E+00 0.  1.
<mgrwt>
<rscale>  0 0.14115202E+04</rscale>
<asrwt>0</asrwt>
<pdfrwt beam="1">  1        2 0.74213912E-01 0.14115202E+04</pdfrwt>
<pdfrwt beam="2">  1       -1 0.15885546E+00 0.14115202E+04</pdfrwt>
<totfact> 0.21286215E+01</totfact>
</mgrwt>
</event>
<event>
12    7  0.1660832E-007  0.1934064E+04  0.7818608E-02  0.8638084E-01
          2   -1    0    0  501    0  0.00000000000E+00  0.00000000000E+00  0.14096031160E+04  0.14096031160E+04  0.00000000000E+00 0. -1.
         -1   -1    0    0    0  501 -0.00000000000E+00 -0.00000000000E+00 -0.66341399360E+03  0.66341399360E+03  0.00000000000E+00 0.  1.
         24    2    1    2    0    0  0.65485684747E+03  0.36485977786E+03  0.39671322267E+03  0.85201396824E+03  0.81155855394E+02 0.  0.
        254    2    1    2    0    0 -0.65485684747E+03 -0.36485977786E+03  0.34947589972E+03  0.12210031414E+04  0.89819547903E+03 0.  0.
         23    2    4    4    0    0 -0.79534253242E+02  0.23974341636E+03 -0.76368803303E+02  0.27940627613E+03  0.91831747770E+02 0.  0.
         23    2    4    4    0    0 -0.57532259422E+03 -0.60460319422E+03  0.42584470302E+03  0.94159686522E+03  0.93380060092E+02 0.  0.
          4    1    3    3  502    0  0.20016027226E+03  0.99967907314E+02  0.78790666595E+02  0.23720389167E+03  0.00000000000E+00 0. -1.
         -3    1    3    3    0  502  0.45469657521E+03  0.26489187054E+03  0.31792255608E+03  0.61481007657E+03  0.00000000000E+00 0.  1.
         13    1    5    5    0    0  0.51374442973E+01  0.93220727859E+02  0.91345139152E+00  0.93366652665E+02  0.00000000000E+00 0.  1.
        -13    1    5    5    0    0 -0.84671697539E+02  0.14652268850E+03 -0.77282254695E+02  0.18603962347E+03  0.00000000000E+00 0. -1.
          1    1    6    6  503    0 -0.20226344945E+03 -0.21412062926E+03  0.20111272295E+03  0.35665736245E+03  0.00000000000E+00 0. -1.
         -1    1    6    6    0  503 -0.37305914478E+03 -0.39048256496E+03  0.22473198007E+03  0.58493950277E+03  0.00000000000E+00 0.  1.
<mgrwt>
<rscale>  0 0.19340635E+04</rscale>
<asrwt>0</asrwt>
<pdfrwt beam="1">  1        2 0.21686202E+00 0.19340635E+04</pdfrwt>
<pdfrwt beam="2">  1       -1 0.10206369E+00 0.19340635E+04</pdfrwt>
<totfact> 0.13830543E+01</totfact>
</mgrwt>
</event>
<event>
12    7  0.1660832E-007  0.4401705E+04  0.7818608E-02  0.7928075E-01
         -1   -1    0    0    0  501 -0.00000000000E+00  0.00000000000E+00  0.16926344815E+04  0.16926344815E+04  0.00000000000E+00 0.  1.
          2   -1    0    0  501    0  0.00000000000E+00 -0.00000000000E+00 -0.28616637395E+04  0.28616637395E+04  0.00000000000E+00 0. -1.
         24    2    1    2    0    0  0.13628399809E+04  0.15748998787E+04 -0.65999080087E+03  0.21865038152E+04  0.86997901768E+02 0.  0.
        254    2    1    2    0    0 -0.13628399809E+04 -0.15748998787E+04 -0.50903845712E+03  0.23677944059E+04  0.10048322031E+04 0.  0.
         23    2    4    4    0    0 -0.13578234983E+04 -0.15539796658E+04 -0.67848727995E+03  0.21742696511E+04  0.92553079748E+02 0.  0.
         23    2    4    4    0    0 -0.50164825782E+01 -0.20920212951E+02  0.16944882283E+03  0.19352475478E+03  0.90973110016E+02 0.  0.
          4    1    3    3  502    0  0.11137078693E+04  0.13143770686E+04 -0.51655713411E+03  0.17985448478E+04  0.00000000000E+00 0. -1.
         -3    1    3    3    0  502  0.24913211154E+03  0.26052281016E+03 -0.14343366676E+03  0.38795896739E+03  0.00000000000E+00 0.  1.
         13    1    5    5    0    0 -0.60212355793E+03 -0.73104768302E+03 -0.35020791590E+03  0.10097668435E+04  0.00000000000E+00 0. -1.
        -13    1    5    5    0    0 -0.75569994038E+03 -0.82293198278E+03 -0.32827936405E+03  0.11645028076E+04  0.00000000000E+00 0.  1.
          2    1    6    6  503    0  0.38062907202E+00  0.13474230631E+02  0.15539717410E+03  0.15598070871E+03  0.00000000000E+00 0. -1.
         -2    1    6    6    0  503 -0.53971116502E+01 -0.34394443582E+02  0.14051648729E+02  0.37544046073E+02  0.00000000000E+00 0.  1.
<mgrwt>
<rscale>  0 0.44017045E+04</rscale>
<asrwt>0</asrwt>
<pdfrwt beam="1">  1        2 0.44025596E+00 0.44017045E+04</pdfrwt>
<pdfrwt beam="2">  1       -1 0.26040531E+00 0.44017045E+04</pdfrwt>
<totfact> 0.10973243E-01</totfact>
</mgrwt>
</event>
<event>
12    7  0.1660832E-007  0.2731920E+04  0.7818608E-02  0.8324722E-01
          2   -1    0    0  501    0  0.00000000000E+00  0.00000000000E+00  0.31075499223E+04  0.31075499223E+04  0.00000000000E+00 0. -1.
         -1   -1    0    0    0  501 -0.00000000000E+00 -0.00000000000E+00 -0.60042387448E+03  0.60042387448E+03  0.00000000000E+00 0.  1.
         24    2    1    2    0    0  0.19744705262E+03 -0.87016154271E+03 -0.24735729906E+01  0.89565146300E+03  0.77582057292E+02 0.  0.
        254    2    1    2    0    0 -0.19744705262E+03  0.87016154271E+03  0.25095996208E+04  0.28123223338E+04  0.90271823033E+03 0.  0.
         23    2    4    4    0    0 -0.52364804463E+03  0.72130452194E+03  0.18619854751E+04  0.20663837678E+04  0.92002598239E+02 0.  0.
         23    2    4    4    0    0  0.32620099202E+03  0.14885702077E+03  0.64761414570E+03  0.74593856604E+03  0.91949783969E+02 0.  0.
          4    1    3    3  502    0  0.94815847831E+02 -0.25781040539E+03  0.41349488254E+01  0.27472413059E+03  0.00000000000E+00 0. -1.
         -3    1    3    3    0  502  0.10263120478E+03 -0.61235113732E+03 -0.66085218161E+01  0.62092733241E+03  0.00000000000E+00 0.  1.
         13    1    5    5    0    0 -0.18483346071E+03  0.32909106326E+03  0.81278746423E+03  0.89615166023E+03  0.00000000000E+00 0. -1.
        -13    1    5    5    0    0 -0.33881458392E+03  0.39221345868E+03  0.10491980109E+04  0.11702321075E+04  0.00000000000E+00 0.  1.
          4    1    6    6  503    0  0.47221102485E+02 -0.87624619967E+01  0.62387769933E+02  0.78732757460E+02  0.00000000000E+00 0. -1.
         -4    1    6    6    0  503  0.27897988953E+03  0.15761948276E+03  0.58522637577E+03  0.66720580858E+03  0.00000000000E+00 0.  1.
<mgrwt>
<rscale>  0 0.27319203E+04</rscale>
<asrwt>0</asrwt>
<pdfrwt beam="1">  1        2 0.47808459E+00 0.27319203E+04</pdfrwt>
<pdfrwt beam="2">  1       -1 0.92372905E-01 0.27319203E+04</pdfrwt>
<totfact> 0.16871315E+00</totfact>
</mgrwt>
</event>
<event>
12    7  0.1660832E-007  0.1692276E+04  0.7818608E-02  0.8765782E-01
         -1   -1    0    0    0  501 -0.00000000000E+00  0.00000000000E+00  0.16335384440E+03  0.16335384440E+03  0.00000000000E+00 0.  1.
          2   -1    0    0  501    0  0.00000000000E+00 -0.00000000000E+00 -0.43828117509E+04  0.43828117509E+04  0.00000000000E+00 0. -1.
         24    2    1    2    0    0 -0.30730207473E+03  0.51517573443E+03 -0.14077281321E+04  0.15324000285E+04  0.81919173340E+02 0.  0.
        254    2    1    2    0    0  0.30730207473E+03 -0.51517573443E+03 -0.28117297744E+04  0.30137655668E+04  0.90394577540E+03 0.  0.
         23    2    4    4    0    0  0.58974674277E+03 -0.23222492195E+03 -0.13245019851E+04  0.14711428842E+04  0.90698633987E+02 0.  0.
         23    2    4    4    0    0 -0.28244466804E+03 -0.28295081248E+03 -0.14872277893E+04  0.15426226826E+04  0.89454406334E+02 0.  0.
          2    1    3    3  502    0 -0.19200431860E+03  0.32369708588E+03 -0.77963999847E+03  0.86572743342E+03  0.00000000000E+00 0. -1.
         -1    1    3    3    0  502 -0.11529775613E+03  0.19147864855E+03 -0.62808813361E+03  0.66667259506E+03  0.00000000000E+00 0.  1.
         13    1    5    5    0    0  0.23566626848E+03 -0.11213790242E+03 -0.45260118744E+03  0.52245701653E+03  0.00000000000E+00 0. -1.
        -13    1    5    5    0    0  0.35408047429E+03 -0.12008701953E+03 -0.87190079768E+03  0.94868586768E+03  0.00000000000E+00 0.  1.
          4    1    6    6  503    0 -0.53206220947E+02 -0.11781583801E+02 -0.20995976925E+03  0.21691660233E+03  0.00000000000E+00 0. -1.
         -4    1    6    6    0  503 -0.22923844709E+03 -0.27116922868E+03 -0.12772680201E+04  0.13257060803E+04  0.00000000000E+00 0.  1.
<mgrwt>
<rscale>  0 0.16922756E+04</rscale>
<asrwt>0</asrwt>
<pdfrwt beam="1">  1        2 0.67427862E+00 0.16922756E+04</pdfrwt>
<pdfrwt beam="2">  1       -1 0.25131365E-01 0.16922756E+04</pdfrwt>
<totfact> 0.24557149E+00</totfact>
</mgrwt>
</event>
<event>
12    7  0.1660832E-007  0.1892352E+04  0.7818608E-02  0.8658673E-01
          2   -1    0    0  501    0  0.00000000000E+00  0.00000000000E+00  0.60164033553E+03  0.60164033553E+03  0.00000000000E+00 0. -1.
         -1   -1    0    0    0  501 -0.00000000000E+00 -0.00000000000E+00 -0.14880138050E+04  0.14880138050E+04  0.00000000000E+00 0.  1.
         24    2    1    2    0    0 -0.27269702919E+03  0.29573380545E+03 -0.10145850153E+04  0.10943142879E+04  0.79491219774E+02 0.  0.
        254    2    1    2    0    0  0.27269702919E+03 -0.29573380545E+03  0.12821154586E+03  0.99533985259E+03  0.90135512882E+03 0.  0.
         23    2    4    4    0    0  0.28157496231E+03 -0.49249071457E+03 -0.19381362000E+03  0.60667007336E+03  0.93023089981E+02 0.  0.
         23    2    4    4    0    0 -0.88779331238E+01  0.19675690912E+03  0.32202516586E+03  0.38866977923E+03  0.92584506571E+02 0.  0.
          4    1    3    3  502    0 -0.62980240994E+02  0.25437309569E+02 -0.17141944830E+03  0.18438599386E+03  0.00000000000E+00 0. -1.
         -3    1    3    3    0  502 -0.20971678819E+03  0.27029649588E+03 -0.84316556701E+03  0.90992829406E+03  0.00000000000E+00 0.  1.
         13    1    5    5    0    0  0.87983656686E+02 -0.12294981682E+03 -0.92936323349E+02  0.17746814220E+03  0.00000000000E+00 0.  1.
        -13    1    5    5    0    0  0.19359130562E+03 -0.36954089775E+03 -0.10087729665E+03  0.42920193115E+03  0.00000000000E+00 0. -1.
          2    1    6    6  503    0 -0.12549846067E+02  0.48590403952E+01  0.73170203447E+02  0.74397497151E+02  0.00000000000E+00 0.  1.
         -2    1    6    6    0  503  0.36719129428E+01  0.19189786873E+03  0.24885496241E+03  0.31427228208E+03  0.00000000000E+00 0. -1.
<mgrwt>
<rscale>  0 0.18923521E+04</rscale>
<asrwt>0</asrwt>
<pdfrwt beam="1">  1        2 0.92560051E-01 0.18923521E+04</pdfrwt>
<pdfrwt beam="2">  1       -1 0.22892520E+00 0.18923521E+04</pdfrwt>
<totfact> 0.50763027E+00</totfact>
</mgrwt>
</event>
<event>
12    7  0.1660832E-007  0.2938371E+04  0.7818608E-02  0.8261552E-01
         -1   -1    0    0    0  501 -0.00000000000E+00  0.00000000000E+00  0.12349207087E+04  0.12349207087E+04  0.00000000000E+00 0.  1.
          2   -1    0    0  501    0  0.00000000000E+00 -0.00000000000E+00 -0.17478899290E+04  0.17478899290E+04  0.00000000000E+00 0. -1.
         24    2    1    2    0    0 -0.86448001517E+03  0.76285134532E+03  0.44027756923E+03  0.12360236625E+04  0.68134312872E+02 0.  0.
        254    2    1    2    0    0  0.86448001517E+03 -0.76285134532E+03 -0.95324678955E+03  0.17467869751E+04  0.90184112962E+03 0.  0.
         23    2    4    4    0    0  0.14488541123E+03 -0.40325684875E+03 -0.81316212434E+03  0.92385337581E+03  0.93083570520E+02 0.  0.
         23    2    4    4    0    0  0.71959460394E+03 -0.35959449658E+03 -0.14008466522E+03  0.82293359933E+03  0.10232985635E+03 0.  0.
          4    1    3    3  502    0 -0.44808412285E+02  0.32527658219E+02  0.36375661763E+02  0.66249763240E+02  0.00000000000E+00 0. -1.
         -3    1    3    3    0  502 -0.81967160288E+03  0.73032368711E+03  0.40390190747E+03  0.11697738993E+04  0.00000000000E+00 0.  1.
         13    1    5    5    0    0  0.13579796309E+03 -0.37442293788E+03 -0.68686348821E+03  0.79398682271E+03  0.00000000000E+00 0. -1.
        -13    1    5    5    0    0  0.90874481392E+01 -0.28833910863E+02 -0.12629863612E+03  0.12986655311E+03  0.00000000000E+00 0.  1.
          3    1    6    6  503    0  0.23301717922E+03 -0.65584019742E+02 -0.30864517798E+02  0.24403050612E+03  0.00000000000E+00 0. -1.
         -3    1    6    6    0  503  0.48657742472E+03 -0.29401047683E+03 -0.10922014742E+03  0.57890309321E+03  0.00000000000E+00 0.  1.
<mgrwt>
<rscale>  0 0.29383706E+04</rscale>
<asrwt>0</asrwt>
<pdfrwt beam="1">  1        2 0.26890614E+00 0.29383706E+04</pdfrwt>
<pdfrwt beam="2">  1       -1 0.18998780E+00 0.29383706E+04</pdfrwt>
<totfact> 0.15962462E+00</totfact>
</mgrwt>
</event>
<event>
12    7  0.1660832E-007  0.1635292E+04  0.7818608E-02  0.8799156E-01
         -1   -1    0    0    0  501 -0.00000000000E+00  0.00000000000E+00  0.25601980136E+03  0.25601980136E+03  0.00000000000E+00 0.  1.
          2   -1    0    0  501    0  0.00000000000E+00 -0.00000000000E+00 -0.26113009739E+04  0.26113009739E+04  0.00000000000E+00 0. -1.
         24    2    1    2    0    0  0.16120241615E+03  0.15533009996E+03 -0.17021707063E+04  0.17186708168E+04  0.79565095413E+02 0.  0.
        254    2    1    2    0    0 -0.16120241615E+03 -0.15533009996E+03 -0.65311046623E+03  0.11486499584E+04  0.91800315190E+03 0.  0.
         23    2    4    4    0    0 -0.10295303189E+03 -0.35270898344E+03 -0.79643694060E+03  0.88175210751E+03  0.90399253170E+02 0.  0.
         23    2    4    4    0    0 -0.58249384255E+02  0.19737888348E+03  0.14332647437E+03  0.26689785089E+03  0.91326721959E+02 0.  0.
          2    1    3    3  502    0  0.12477097853E+03  0.14778809850E+03 -0.15498714348E+04  0.15618932689E+04  0.00000000000E+00 0. -1.
         -1    1    3    3    0  502  0.36431437614E+02  0.75420014615E+01 -0.15229927150E+03  0.15677754792E+03  0.00000000000E+00 0.  1.
         13    1    5    5    0    0 -0.56931380998E+02 -0.17299096885E+03 -0.29040730448E+03  0.34278777683E+03  0.00000000000E+00 0.  1.
        -13    1    5    5    0    0 -0.46021650893E+02 -0.17971801459E+03 -0.50602963612E+03  0.53896433068E+03  0.00000000000E+00 0. -1.
          3    1    6    6  503    0 -0.66869822685E+02  0.98974925510E+02  0.11073351813E+03  0.16287885407E+03  0.00000000000E+00 0. -1.
         -3    1    6    6    0  503  0.86204384297E+01  0.98403957969E+02  0.32592956241E+02  0.10401899682E+03  0.00000000000E+00 0.  1.
<mgrwt>
<rscale>  0 0.16352917E+04</rscale>
<asrwt>0</asrwt>
<pdfrwt beam="1">  1        2 0.40173861E+00 0.16352917E+04</pdfrwt>
<pdfrwt beam="2">  1       -1 0.39387662E-01 0.16352917E+04</pdfrwt>
<totfact> 0.20502378E+01</totfact>
</mgrwt>
</event>
<event>
12    7  0.1660832E-007  0.1470838E+04  0.7818608E-02  0.8904080E-01
         -1   -1    0    0    0  501 -0.00000000000E+00  0.00000000000E+00  0.22565464062E+03  0.22565464062E+03  0.00000000000E+00 0.  1.
          2   -1    0    0  501    0  0.00000000000E+00 -0.00000000000E+00 -0.23967648869E+04  0.23967648869E+04  0.00000000000E+00 0. -1.
         24    2    1    2    0    0  0.78218562887E+02  0.42946782688E+03 -0.90032695243E+03  0.10038758322E+04  0.81346833082E+02 0.  0.
        254    2    1    2    0    0 -0.78218562887E+02 -0.42946782688E+03 -0.12707832939E+04  0.16185436953E+04  0.90234846699E+03 0.  0.
         23    2    4    4    0    0  0.43976432123E+02  0.14783987148E+03  0.34831109248E+02  0.18279470332E+03  0.91706832934E+02 0.  0.
         23    2    4    4    0    0 -0.12219499501E+03 -0.57730769837E+03 -0.13056144031E+04  0.14357489920E+04  0.92360181411E+02 0.  0.
          2    1    3    3  502    0  0.44395248166E+01  0.18487054434E+03 -0.31588648149E+03  0.36603428355E+03  0.00000000000E+00 0. -1.
         -1    1    3    3    0  502  0.73779038071E+02  0.24459728255E+03 -0.58444047094E+03  0.63784154863E+03  0.00000000000E+00 0.  1.
         13    1    5    5    0    0  0.55154894265E+02  0.58395095440E+02 -0.11997902509E+02  0.81215757076E+02  0.00000000000E+00 0. -1.
        -13    1    5    5    0    0 -0.11178462142E+02  0.89444776043E+02  0.46829011756E+02  0.10157894624E+03  0.00000000000E+00 0.  1.
          4    1    6    6  503    0 -0.10497606092E+03 -0.28092556857E+03 -0.68552406392E+03  0.74825289218E+03  0.00000000000E+00 0. -1.
         -4    1    6    6    0  503 -0.17218934095E+02 -0.29638212979E+03 -0.62009033919E+03  0.68749609985E+03  0.00000000000E+00 0.  1.
<mgrwt>
<rscale>  0 0.14708380E+04</rscale>
<asrwt>0</asrwt>
<pdfrwt beam="1">  1        2 0.36873308E+00 0.14708380E+04</pdfrwt>
<pdfrwt beam="2">  1       -1 0.34716097E-01 0.14708380E+04</pdfrwt>
<totfact> 0.34749095E+01</totfact>
</mgrwt>
</event>
<event>
12    7  0.2056189E-007  0.2384861E+04  0.7818608E-02  0.8445193E-01
          2   -1    0    0  501    0  0.00000000000E+00  0.00000000000E+00  0.12528042560E+04  0.12528042560E+04  0.00000000000E+00 0. -1.
         -1   -1    0    0    0  501 -0.00000000000E+00 -0.00000000000E+00 -0.11349660732E+04  0.11349660732E+04  0.00000000000E+00 0.  1.
         24    2    1    2    0    0 -0.19929132381E+02  0.90342661048E+03 -0.43898606850E+03  0.10078701988E+04  0.80726441796E+02 0.  0.
        254    2    1    2    0    0  0.19929132381E+02 -0.90342661048E+03  0.55682425134E+03  0.13799001304E+04  0.88175637916E+03 0.  0.
         23    2    4    4    0    0  0.38579364159E+03 -0.18072276675E+03  0.28392770076E+03  0.51999634869E+03  0.91015444147E+02 0.  0.
         23    2    4    4    0    0 -0.36586450921E+03 -0.72270384373E+03  0.27289655058E+03  0.85990378173E+03  0.93831240357E+02 0.  0.
          2    1    3    3  502    0  0.26441047579E+01  0.24623916673E+02 -0.28214812145E+02  0.37542032266E+02  0.00000000000E+00 0. -1.
         -1    1    3    3    0  502 -0.22573237139E+02  0.87880269381E+03 -0.41077125635E+03  0.97032816651E+03  0.00000000000E+00 0.  1.
         13    1    5    5    0    0  0.23980789068E+03 -0.11025500544E+03  0.22718541592E+03  0.34824876721E+03  0.00000000000E+00 0. -1.
        -13    1    5    5    0    0  0.14598575091E+03 -0.70467761314E+02  0.56742284837E+02  0.17174758147E+03  0.00000000000E+00 0.  1.
          4    1    6    6  503    0 -0.27454604905E+03 -0.55328208180E+03  0.16523944010E+03  0.63937521664E+03  0.00000000000E+00 0. -1.
         -4    1    6    6    0  503 -0.91318460156E+02 -0.16942176193E+03  0.10765711048E+03  0.22052856509E+03  0.00000000000E+00 0.  1.
<mgrwt>
<rscale>  0 0.23848609E+04</rscale>
<asrwt>0</asrwt>
<pdfrwt beam="1">  1        2 0.19273912E+00 0.23848609E+04</pdfrwt>
<pdfrwt beam="2">  1       -1 0.17461017E+00 0.23848609E+04</pdfrwt>
<totfact> 0.41165674E+00</totfact>
</mgrwt>
</event>
<event>
12    7  0.1660832E-007  0.1522357E+04  0.7818608E-02  0.8869720E-01
         -1   -1    0    0    0  501 -0.00000000000E+00  0.00000000000E+00  0.31527597197E+03  0.31527597197E+03  0.00000000000E+00 0.  1.
          2   -1    0    0  501    0  0.00000000000E+00 -0.00000000000E+00 -0.18377327139E+04  0.18377327139E+04  0.00000000000E+00 0. -1.
         24    2    1    2    0    0  0.35175580705E+03  0.18627494279E+03 -0.86867784248E+03  0.95883527286E+03  0.79582563176E+02 0.  0.
        254    2    1    2    0    0 -0.35175580705E+03 -0.18627494279E+03 -0.65377889949E+03  0.11941734130E+04  0.91662030792E+03 0.  0.
         23    2    4    4    0    0  0.14648031846E+03  0.17562760141E+03  0.53879999634E+02  0.25171975609E+03  0.90322993589E+02 0.  0.
         23    2    4    4    0    0 -0.49823612551E+03 -0.36190254420E+03 -0.70765889912E+03  0.94245365695E+03  0.90692280477E+02 0.  0.
          4    1    3    3  502    0  0.22645809758E+03  0.14714662024E+03 -0.51369430405E+03  0.58035957460E+03  0.00000000000E+00 0. -1.
         -3    1    3    3    0  502  0.12529770947E+03  0.39128322552E+02 -0.35498353842E+03  0.37847569826E+03  0.00000000000E+00 0.  1.
         13    1    5    5    0    0  0.16441481254E+02  0.15691462885E+02 -0.22416555561E+02  0.31922504233E+02  0.00000000000E+00 0. -1.
        -13    1    5    5    0    0  0.13003883721E+03  0.15993613853E+03  0.76296555195E+02  0.21979725185E+03  0.00000000000E+00 0.  1.
          3    1    6    6  503    0 -0.13506507638E+03 -0.60382096378E+02 -0.13451935922E+03  0.19996007208E+03  0.00000000000E+00 0. -1.
         -3    1    6    6    0  503 -0.36317104912E+03 -0.30152044783E+03 -0.57313953990E+03  0.74249358488E+03  0.00000000000E+00 0.  1.
<mgrwt>
<rscale>  0 0.15223573E+04</rscale>
<asrwt>0</asrwt>
<pdfrwt beam="1">  1        2 0.28272811E+00 0.15223573E+04</pdfrwt>
<pdfrwt beam="2">  1       -1 0.48503996E-01 0.15223573E+04</pdfrwt>
<totfact> 0.38422957E+01</totfact>
</mgrwt>
</event>
<event>
12    7  0.1660832E-007  0.1561489E+04  0.7818608E-02  0.8844562E-01
          2   -1    0    0  501    0  0.00000000000E+00  0.00000000000E+00  0.19805713921E+04  0.19805713921E+04  0.00000000000E+00 0. -1.
         -1   -1    0    0    0  501 -0.00000000000E+00 -0.00000000000E+00 -0.30777093661E+03  0.30777093661E+03  0.00000000000E+00 0.  1.
         24    2    1    2    0    0  0.88912106803E+02 -0.21502387063E+03 -0.11634825468E+03  0.27249558550E+03  0.81094389908E+02 0.  0.
        254    2    1    2    0    0 -0.88912106803E+02  0.21502387063E+03  0.17891487102E+04  0.20158467432E+04  0.89913533874E+03 0.  0.
         23    2    4    4    0    0 -0.14079965907E+03 -0.20637774231E+03  0.11996835624E+03  0.29109421919E+03  0.89034383447E+02 0.  0.
         23    2    4    4    0    0  0.51887552265E+02  0.42140161294E+03  0.16691803539E+04  0.17247525240E+04  0.91304861424E+02 0.  0.
          2    1    3    3  502    0 -0.87899241070E+01  0.14767605140E+00 -0.10113913217E+02  0.13400590084E+02  0.00000000000E+00 0. -1.
         -1    1    3    3    0  502  0.97702030910E+02 -0.21517154668E+03 -0.10623434146E+03  0.25909499542E+03  0.00000000000E+00 0.  1.
         13    1    5    5    0    0 -0.15156529237E+03 -0.20321251518E+03  0.11828421902E+03  0.27974724421E+03  0.00000000000E+00 0. -1.
        -13    1    5    5    0    0  0.10765633297E+02 -0.31652271270E+01  0.16841372213E+01  0.11346974982E+02  0.00000000000E+00 0.  1.
          1    1    6    6  503    0  0.70937217813E+02  0.20771767155E+03  0.87410735149E+03  0.90124490671E+03  0.00000000000E+00 0. -1.
         -1    1    6    6    0  503 -0.19049665548E+02  0.21368394139E+03  0.79507300244E+03  0.82350761732E+03  0.00000000000E+00 0.  1.
<mgrwt>
<rscale>  0 0.15614894E+04</rscale>
<asrwt>0</asrwt>
<pdfrwt beam="1">  1        2 0.30470328E+00 0.15614894E+04</pdfrwt>
<pdfrwt beam="2">  1       -1 0.47349376E-01 0.15614894E+04</pdfrwt>
<totfact> 0.33405497E+01</totfact>
</mgrwt>
</event>
<event>
12    7  0.1660832E-007  0.1797303E+04  0.7818608E-02  0.8707735E-01
         -1   -1    0    0    0  501 -0.00000000000E+00  0.00000000000E+00  0.39693936997E+03  0.39693936997E+03  0.00000000000E+00 0.  1.
          2   -1    0    0  501    0  0.00000000000E+00 -0.00000000000E+00 -0.20345028126E+04  0.20345028126E+04  0.00000000000E+00 0. -1.
         24    2    1    2    0    0  0.53250454685E+03 -0.25472972858E+03 -0.17985868215E+03  0.62222236239E+03  0.79769641322E+02 0.  0.
        254    2    1    2    0    0 -0.53250454685E+03  0.25472972858E+03 -0.14577047604E+04  0.18092198201E+04  0.89438518657E+03 0.  0.
         23    2    4    4    0    0 -0.46053116447E+03  0.26076961148E+03 -0.24393179947E+03  0.58960265368E+03  0.89659481999E+02 0.  0.
         23    2    4    4    0    0 -0.71973382374E+02 -0.60398829091E+01 -0.12137729610E+04  0.12196171665E+04  0.94892486422E+02 0.  0.
          4    1    3    3  502    0  0.65256914718E+02 -0.56067161473E+02 -0.43995808698E+02  0.96631375325E+02  0.00000000000E+00 0. -1.
         -3    1    3    3    0  502  0.46724763213E+03 -0.19866256710E+03 -0.13586287345E+03  0.52559098706E+03  0.00000000000E+00 0.  1.
         13    1    5    5    0    0 -0.32006255555E+02  0.46193029059E+02 -0.13303275869E+02  0.57750960833E+02  0.00000000000E+00 0.  1.
        -13    1    5    5    0    0 -0.42852490892E+03  0.21457658243E+03 -0.23062852360E+03  0.53185169285E+03  0.00000000000E+00 0. -1.
          3    1    6    6  503    0 -0.16967658668E+02 -0.21370627082E+02 -0.91669754696E+03  0.91710359161E+03  0.00000000000E+00 0. -1.
         -3    1    6    6    0  503 -0.55005723706E+02  0.15330744173E+02 -0.29707541402E+03  0.30251357485E+03  0.00000000000E+00 0.  1.
<mgrwt>
<rscale>  0 0.17973027E+04</rscale>
<asrwt>0</asrwt>
<pdfrwt beam="1">  1        2 0.31300043E+00 0.17973027E+04</pdfrwt>
<pdfrwt beam="2">  1       -1 0.61067595E-01 0.17973027E+04</pdfrwt>
<totfact> 0.18694305E+01</totfact>
</mgrwt>
</event>
<event>
12    7  0.1660832E-007  0.1482598E+04  0.7818608E-02  0.8896108E-01
         -1   -1    0    0    0  501 -0.00000000000E+00  0.00000000000E+00  0.48818118804E+03  0.48818118804E+03  0.00000000000E+00 0.  1.
          2   -1    0    0  501    0  0.00000000000E+00 -0.00000000000E+00 -0.11256559321E+04  0.11256559321E+04  0.00000000000E+00 0. -1.
         24    2    1    2    0    0  0.64985669349E+01 -0.45681564468E+03 -0.31675523725E+03  0.56146902636E+03  0.78681780817E+02 0.  0.
        254    2    1    2    0    0 -0.64985669349E+01  0.45681564468E+03 -0.32071950679E+03  0.10523680938E+04  0.89212938418E+03 0.  0.
         23    2    4    4    0    0 -0.91628779363E+02  0.34153500901E+03 -0.61349218722E+03  0.71525701094E+03  0.10088573897E+03 0.  0.
         23    2    4    4    0    0  0.85130212428E+02  0.11528063568E+03  0.29277268043E+03  0.33711108282E+03  0.85972447448E+02 0.  0.
          4    1    3    3  502    0  0.10404322418E+02 -0.19206001596E+03 -0.18010859772E+03  0.26350409224E+03  0.00000000000E+00 0. -1.
         -3    1    3    3    0  502 -0.39057554832E+01 -0.26475562873E+03 -0.13664663953E+03  0.29796493412E+03  0.00000000000E+00 0.  1.
         13    1    5    5    0    0 -0.55643193802E+02  0.30406486898E+03 -0.46896236662E+03  0.56167366938E+03  0.00000000000E+00 0.  1.
        -13    1    5    5    0    0 -0.35985585561E+02  0.37470140026E+02 -0.14452982060E+03  0.15358334156E+03  0.00000000000E+00 0. -1.
          1    1    6    6  503    0  0.54980442478E+02  0.52852535488E+02  0.69001672526E+02  0.10284682967E+03  0.00000000000E+00 0. -1.
         -1    1    6    6    0  503  0.30149769951E+02  0.62428100188E+02  0.22377100791E+03  0.23426425314E+03  0.00000000000E+00 0.  1.
<mgrwt>
<rscale>  0 0.14825978E+04</rscale>
<asrwt>0</asrwt>
<pdfrwt beam="1">  1        2 0.17317784E+00 0.14825978E+04</pdfrwt>
<pdfrwt beam="2">  1       -1 0.75104798E-01 0.14825978E+04</pdfrwt>
<totfact> 0.41328077E+01</totfact>
</mgrwt>
</event>
<event>
12    7  0.1660832E-007  0.2961365E+04  0.7818608E-02  0.8254850E-01
          2   -1    0    0  501    0  0.00000000000E+00  0.00000000000E+00  0.20776774476E+04  0.20776774476E+04  0.00000000000E+00 0. -1.
         -1   -1    0    0    0  501 -0.00000000000E+00 -0.00000000000E+00 -0.10552269264E+04  0.10552269264E+04  0.00000000000E+00 0.  1.
         24    2    1    2    0    0  0.11088362400E+04 -0.71110375721E+03  0.22652650270E+03  0.13388221127E+04  0.77097551402E+02 0.  0.
        254    2    1    2    0    0 -0.11088362400E+04  0.71110375721E+03  0.79592401849E+03  0.17940822614E+04  0.92198142967E+03 0.  0.
         23    2    4    4    0    0  0.14042790737E+03  0.14709067679E+01  0.10278760440E+03  0.19617321988E+03  0.90534412478E+02 0.  0.
         23    2    4    4    0    0 -0.12492641474E+04  0.70963285045E+03  0.69313641409E+03  0.15979090415E+04  0.92927520139E+02 0.  0.
          2    1    3    3  502    0  0.27317053595E+03 -0.20490935591E+03  0.35735562297E+02  0.34334678718E+03  0.00000000000E+00 0. -1.
         -1    1    3    3    0  502  0.83566570404E+03 -0.50619440130E+03  0.19079094040E+03  0.99547532553E+03  0.00000000000E+00 0.  1.
         13    1    5    5    0    0  0.90605638872E+01 -0.26597378628E+02  0.37380459037E+02  0.46763373334E+02  0.00000000000E+00 0.  1.
        -13    1    5    5    0    0  0.13136734348E+03  0.28068285396E+02  0.65407145366E+02  0.14940984654E+03  0.00000000000E+00 0. -1.
          1    1    6    6  503    0 -0.72337088357E+03  0.36394877807E+03  0.41373187837E+03  0.90933943907E+03  0.00000000000E+00 0. -1.
         -1    1    6    6    0  503 -0.52589326378E+03  0.34568407237E+03  0.27940453572E+03  0.68856960241E+03  0.00000000000E+00 0.  1.
<mgrwt>
<rscale>  0 0.29613654E+04</rscale>
<asrwt>0</asrwt>
<pdfrwt beam="1">  1        2 0.31964268E+00 0.29613654E+04</pdfrwt>
<pdfrwt beam="2">  1       -1 0.16234260E+00 0.29613654E+04</pdfrwt>
<totfact> 0.16570626E+00</totfact>
</mgrwt>
</event>
<event>
12    7  0.1660832E-007  0.2562162E+04  0.7818608E-02  0.8381169E-01
         -1   -1    0    0    0  501 -0.00000000000E+00  0.00000000000E+00  0.95648408124E+03  0.95648408124E+03  0.00000000000E+00 0.  1.
          2   -1    0    0  501    0  0.00000000000E+00 -0.00000000000E+00 -0.17158350818E+04  0.17158350818E+04  0.00000000000E+00 0. -1.
         24    2    1    2    0    0  0.70261438182E+03  0.87012300037E+03 -0.33760319500E+03  0.11709476173E+04  0.79758384127E+02 0.  0.
        254    2    1    2    0    0 -0.70261438182E+03 -0.87012300037E+03 -0.42174780553E+03  0.15013715457E+04  0.90855065986E+03 0.  0.
         23    2    4    4    0    0 -0.26699475182E+03 -0.37119151786E+03  0.27049173227E+03  0.53910711123E+03  0.91658931481E+02 0.  0.
         23    2    4    4    0    0 -0.43561963001E+03 -0.49893148252E+03 -0.69223953780E+03  0.96226443450E+03  0.89778493637E+02 0.  0.
          2    1    3    3  502    0  0.58485632757E+03  0.70491717860E+03 -0.24641598924E+03  0.94851778704E+03  0.00000000000E+00 0. -1.
         -3    1    3    3    0  502  0.11775805426E+03  0.16520582177E+03 -0.91187205762E+02  0.22242983025E+03  0.00000000000E+00 0.  1.
         13    1    5    5    0    0 -0.23126034388E+03 -0.25273170867E+03  0.20160761988E+03  0.39749251013E+03  0.00000000000E+00 0.  1.
        -13    1    5    5    0    0 -0.35734407942E+02 -0.11845980918E+03  0.68884112396E+02  0.14161460109E+03  0.00000000000E+00 0. -1.
          1    1    6    6  503    0 -0.12353592573E+03 -0.86755701184E+02 -0.14197934165E+03  0.20723370886E+03  0.00000000000E+00 0. -1.
         -1    1    6    6    0  503 -0.31208370428E+03 -0.41217578133E+03 -0.55026019615E+03  0.75503072564E+03  0.00000000000E+00 0.  1.
<mgrwt>
<rscale>  0 0.25621623E+04</rscale>
<asrwt>0</asrwt>
<pdfrwt beam="1">  1        2 0.26397463E+00 0.25621623E+04</pdfrwt>
<pdfrwt beam="2">  1       -1 0.14715140E+00 0.25621623E+04</pdfrwt>
<totfact> 0.35662050E+00</totfact>
</mgrwt>
</event>
<event>
12    7  0.1660832E-007  0.2416759E+04  0.7818608E-02  0.8433256E-01
         -1   -1    0    0    0  501 -0.00000000000E+00  0.00000000000E+00  0.88102213825E+03  0.88102213825E+03  0.00000000000E+00 0.  1.
          2   -1    0    0  501    0  0.00000000000E+00 -0.00000000000E+00 -0.16573715193E+04  0.16573715193E+04  0.00000000000E+00 0. -1.
         24    2    1    2    0    0 -0.30593092332E+03  0.78895126706E+03  0.29987203339E+03  0.90030942019E+03  0.67793687326E+02 0.  0.
        254    2    1    2    0    0  0.30593092332E+03 -0.78895126706E+03 -0.10762214144E+04  0.16380842373E+04  0.89946072961E+03 0.  0.
         23    2    4    4    0    0 -0.15432522148E+03  0.10700112862E+03 -0.28719206112E+03  0.35517392389E+03  0.91671809887E+02 0.  0.
         23    2    4    4    0    0  0.46025614480E+03 -0.89595239567E+03 -0.78902935331E+03  0.12829103135E+04  0.93408446379E+02 0.  0.
          4    1    3    3  502    0 -0.14780402457E+03  0.35327331362E+03  0.10160022665E+03  0.39619524208E+03  0.00000000000E+00 0. -1.
         -3    1    3    3    0  502 -0.15812689875E+03  0.43567795344E+03  0.19827180674E+03  0.50411417811E+03  0.00000000000E+00 0.  1.
         13    1    5    5    0    0 -0.30374901494E+00  0.23844650757E+01 -0.66022619572E+02  0.66066362336E+02  0.00000000000E+00 0.  1.
        -13    1    5    5    0    0 -0.15402147246E+03  0.10461666354E+03 -0.22116944155E+03  0.28910756155E+03  0.00000000000E+00 0. -1.
          4    1    6    6  503    0  0.17847224599E+03 -0.44934166975E+03 -0.38073320651E+03  0.61540072579E+03  0.00000000000E+00 0.  1.
         -4    1    6    6    0  503  0.28178389881E+03 -0.44661072592E+03 -0.40829614680E+03  0.66750958767E+03  0.00000000000E+00 0. -1.
<mgrwt>
<rscale>  0 0.24167590E+04</rscale>
<asrwt>0</asrwt>
<pdfrwt beam="1">  1        2 0.25498023E+00 0.24167590E+04</pdfrwt>
<pdfrwt beam="2">  1       -1 0.13554187E+00 0.24167590E+04</pdfrwt>
<totfact> 0.48290903E+00</totfact>
</mgrwt>
</event>
<event>
12    7  0.1660832E-007  0.1706924E+04  0.7818608E-02  0.8757425E-01
          2   -1    0    0  501    0  0.00000000000E+00  0.00000000000E+00  0.19837994551E+04  0.19837994551E+04  0.00000000000E+00 0. -1.
         -1   -1    0    0    0  501 -0.00000000000E+00 -0.00000000000E+00 -0.36717301437E+03  0.36717301437E+03  0.00000000000E+00 0.  1.
         24    2    1    2    0    0 -0.11317721418E+03  0.18907102303E+02  0.14126905676E+04  0.14194996914E+04  0.78218756967E+02 0.  0.
        254    2    1    2    0    0  0.11317721418E+03 -0.18907102303E+02  0.20393587319E+03  0.93147277808E+03  0.90160142835E+03 0.  0.
         23    2    4    4    0    0 -0.18891729211E+03  0.32438115665E+03  0.25404700159E+03  0.46200718833E+03  0.89430895137E+02 0.  0.
         23    2    4    4    0    0  0.30209450630E+03 -0.34328825895E+03 -0.50111128399E+02  0.46946558975E+03  0.93695759238E+02 0.  0.
          4    1    3    3  502    0 -0.58415113409E+02  0.35061018287E+01  0.11079902943E+04  0.11095346369E+04  0.00000000000E+00 0. -1.
         -3    1    3    3    0  502 -0.54762100775E+02  0.15401000474E+02  0.30470027323E+03  0.30996505449E+03  0.00000000000E+00 0.  1.
         13    1    5    5    0    0 -0.89926498624E+01  0.82828174492E+02  0.71643857848E+02  0.10988274027E+03  0.00000000000E+00 0.  1.
        -13    1    5    5    0    0 -0.17992464225E+03  0.24155298216E+03  0.18240314374E+03  0.35212444807E+03  0.00000000000E+00 0. -1.
          2    1    6    6  503    0  0.24463324135E+03 -0.32438836907E+03 -0.43188225928E+02  0.40858103189E+03  0.00000000000E+00 0. -1.
         -2    1    6    6    0  503  0.57461264949E+02 -0.18899889881E+02 -0.69229024709E+01  0.60884557859E+02  0.00000000000E+00 0.  1.
<mgrwt>
<rscale>  0 0.17069243E+04</rscale>
<asrwt>0</asrwt>
<pdfrwt beam="1">  1        2 0.30519991E+00 0.17069243E+04</pdfrwt>
<pdfrwt beam="2">  1       -1 0.56488157E-01 0.17069243E+04</pdfrwt>
<totfact> 0.23436781E+01</totfact>
</mgrwt>
</event>
<event>
12    7  0.1660832E-007  0.1465023E+04  0.7818608E-02  0.8908051E-01
          2   -1    0    0  501    0  0.00000000000E+00  0.00000000000E+00  0.79601525398E+03  0.79601525398E+03  0.00000000000E+00 0. -1.
         -1   -1    0    0    0  501 -0.00000000000E+00 -0.00000000000E+00 -0.67407425827E+03  0.67407425827E+03  0.00000000000E+00 0.  1.
         24    2    1    2    0    0 -0.15520567798E+03  0.12637438795E+03 -0.37297818281E+03  0.43088840264E+03  0.80577926676E+02 0.  0.
        254    2    1    2    0    0  0.15520567798E+03 -0.12637438795E+03  0.49491917852E+03  0.10392011096E+04  0.89159108595E+03 0.  0.
         23    2    4    4    0    0 -0.26821000290E+03  0.21977689900E+03  0.19261143977E+03  0.40762703207E+03  0.93926245295E+02 0.  0.
         23    2    4    4    0    0  0.42341568088E+03 -0.34615128694E+03  0.30230773874E+03  0.63157407754E+03  0.91620381167E+02 0.  0.
          2    1    3    3  502    0 -0.84728690939E+02  0.80300847721E+02 -0.13509833482E+03  0.17854617689E+03  0.00000000000E+00 0. -1.
         -1    1    3    3    0  502 -0.70476987044E+02  0.46073540227E+02 -0.23787984799E+03  0.25234222574E+03  0.00000000000E+00 0.  1.
         13    1    5    5    0    0 -0.17232134300E+03  0.18141455060E+03  0.10189031079E+03  0.27016202520E+03  0.00000000000E+00 0. -1.
        -13    1    5    5    0    0 -0.95888659895E+02  0.38362348394E+02  0.90721128986E+02  0.13746500687E+03  0.00000000000E+00 0.  1.
          3    1    6    6  503    0  0.36928693191E+03 -0.33613684017E+03  0.27609439167E+03  0.57060400149E+03  0.00000000000E+00 0. -1.
         -3    1    6    6    0  503  0.54128748968E+02 -0.10014446776E+02  0.26213347075E+02  0.60970076053E+02  0.00000000000E+00 0.  1.
<mgrwt>
<rscale>  0 0.14650234E+04</rscale>
<asrwt>0</asrwt>
<pdfrwt beam="1">  1        2 0.12246389E+00 0.14650234E+04</pdfrwt>
<pdfrwt beam="2">  1       -1 0.10370373E+00 0.14650234E+04</pdfrwt>
<totfact> 0.33621935E+01</totfact>
</mgrwt>
</event>
<event>
12    7  0.1660832E-007  0.2426480E+04  0.7818608E-02  0.8429656E-01
          2   -1    0    0  501    0  0.00000000000E+00  0.00000000000E+00  0.16929003557E+04  0.16929003557E+04  0.00000000000E+00 0. -1.
         -1   -1    0    0    0  501 -0.00000000000E+00 -0.00000000000E+00 -0.86948480953E+03  0.86948480953E+03  0.00000000000E+00 0.  1.
         24    2    1    2    0    0 -0.61057157202E+03 -0.30386230096E+03  0.11826529218E+04  0.13675743353E+04  0.80384617985E+02 0.  0.
        254    2    1    2    0    0  0.61057157202E+03  0.30386230096E+03 -0.35923737554E+03  0.11948108299E+04  0.91290277953E+03 0.  0.
         23    2    4    4    0    0  0.37428219799E+03  0.30873151760E+02  0.26493325385E+03  0.46794040409E+03  0.87967480075E+02 0.  0.
         23    2    4    4    0    0  0.23628937403E+03  0.27298914920E+03 -0.62417062940E+03  0.72687042585E+03  0.91629130317E+02 0.  0.
          4    1    3    3  502    0 -0.51900879072E+03 -0.24770767998E+03  0.10470088822E+04  0.11945529787E+04  0.00000000000E+00 0. -1.
         -1    1    3    3    0  502 -0.91562781301E+02 -0.56154620976E+02  0.13564403960E+03  0.17302135664E+03  0.00000000000E+00 0.  1.
         13    1    5    5    0    0 -0.35223627689E+01  0.37586155264E+01 -0.84591096857E+00  0.52201336685E+01  0.00000000000E+00 0. -1.
        -13    1    5    5    0    0  0.37780456076E+03  0.27114536234E+02  0.26577916482E+03  0.46272027042E+03  0.00000000000E+00 0.  1.
          2    1    6    6  503    0  0.18583458357E+03  0.23566613777E+03 -0.44259999030E+03  0.53475954629E+03  0.00000000000E+00 0.  1.
         -2    1    6    6    0  503  0.50454790455E+02  0.37323011425E+02 -0.18157063910E+03  0.19211087956E+03  0.00000000000E+00 0. -1.
<mgrwt>
<rscale>  0 0.24264799E+04</rscale>
<asrwt>0</asrwt>
<pdfrwt beam="1">  1        2 0.26044621E+00 0.24264799E+04</pdfrwt>
<pdfrwt beam="2">  1       -1 0.13376689E+00 0.24264799E+04</pdfrwt>
<totfact> 0.47682895E+00</totfact>
</mgrwt>
</event>
<event>
12    7  0.1660832E-007  0.1710863E+04  0.7818608E-02  0.8755193E-01
         -1   -1    0    0    0  501 -0.00000000000E+00  0.00000000000E+00  0.59790004707E+03  0.59790004707E+03  0.00000000000E+00 0.  1.
          2   -1    0    0  501    0  0.00000000000E+00 -0.00000000000E+00 -0.12238887769E+04  0.12238887769E+04  0.00000000000E+00 0. -1.
         24    2    1    2    0    0  0.30004256747E+03 -0.43607309457E+03 -0.55033989977E+03  0.76816087114E+03  0.83736685933E+02 0.  0.
        254    2    1    2    0    0 -0.30004256747E+03  0.43607309457E+03 -0.75648830094E+02  0.10536279529E+04  0.90786773896E+03 0.  0.
         23    2    4    4    0    0  0.11303597842E+02 -0.10055718268E+03 -0.34505674158E+03  0.37101717214E+03  0.91378710846E+02 0.  0.
         23    2    4    4    0    0 -0.31134616531E+03  0.53663027725E+03  0.26940791149E+03  0.68261078072E+03  0.92023725563E+02 0.  0.
          2    1    3    3  502    0  0.11287280472E+03 -0.21850210210E+03 -0.29448058963E+03  0.38366946234E+03  0.00000000000E+00 0. -1.
         -1    1    3    3    0  502  0.18716976275E+03 -0.21757099247E+03 -0.25585931014E+03  0.38449140880E+03  0.00000000000E+00 0.  1.
         13    1    5    5    0    0 -0.38871785321E+02 -0.37125513264E+02 -0.16737136272E+03  0.17579104781E+03  0.00000000000E+00 0. -1.
        -13    1    5    5    0    0  0.50175383162E+02 -0.63431669419E+02 -0.17768537886E+03  0.19522612433E+03  0.00000000000E+00 0.  1.
          3    1    6    6  503    0 -0.21845723806E+02  0.36034860540E+02  0.46771828128E+02  0.62955148552E+02  0.00000000000E+00 0. -1.
         -3    1    6    6    0  503 -0.28950044151E+03  0.50059541671E+03  0.22263608336E+03  0.61965563217E+03  0.00000000000E+00 0.  1.
<mgrwt>
<rscale>  0 0.17108631E+04</rscale>
<asrwt>0</asrwt>
<pdfrwt beam="1">  1        2 0.18829058E+00 0.17108631E+04</pdfrwt>
<pdfrwt beam="2">  1       -1 0.91984623E-01 0.17108631E+04</pdfrwt>
<totfact> 0.22870441E+01</totfact>
</mgrwt>
</event>
<event>
12    7  0.1660832E-007  0.1526025E+04  0.7818608E-02  0.8867329E-01
          2   -1    0    0  501    0  0.00000000000E+00  0.00000000000E+00  0.20511212070E+04  0.20511212070E+04  0.00000000000E+00 0. -1.
         -1   -1    0    0    0  501 -0.00000000000E+00 -0.00000000000E+00 -0.28383881078E+03  0.28383881078E+03  0.00000000000E+00 0.  1.
         24    2    1    2    0    0 -0.19634681864E+03 -0.40550563140E+03  0.77425080729E+03  0.89971699116E+03  0.83901497632E+02 0.  0.
        254    2    1    2    0    0  0.19634681864E+03  0.40550563140E+03  0.99303158890E+03  0.14352430266E+04  0.93317946749E+03 0.  0.
         23    2    4    4    0    0  0.11561232173E+03 -0.26546251425E+03  0.11867982152E+03  0.32636818008E+03  0.92707785643E+02 0.  0.
         23    2    4    4    0    0  0.80734496903E+02  0.67096814565E+03  0.87435176738E+03  0.11088748465E+04  0.91630238731E+02 0.  0.
          4    1    3    3  502    0 -0.18127555303E+03 -0.40257151276E+03  0.73291988874E+03  0.85562621063E+03  0.00000000000E+00 0. -1.
         -3    1    3    3    0  502 -0.15071265610E+02 -0.29341186425E+01  0.41330918554E+02  0.44090780531E+02  0.00000000000E+00 0.  1.
         13    1    5    5    0    0  0.77421332256E+02 -0.97011995561E+02  0.84880977174E+02  0.15036678575E+03  0.00000000000E+00 0.  1.
        -13    1    5    5    0    0  0.38190989477E+02 -0.16845051869E+03  0.33798844349E+02  0.17600139432E+03  0.00000000000E+00 0. -1.
          2    1    6    6  503    0  0.91166390235E+02  0.37893916447E+03  0.50437647768E+03  0.63741809851E+03  0.00000000000E+00 0. -1.
         -2    1    6    6    0  503 -0.10431893333E+02  0.29202898119E+03  0.36997528970E+03  0.47145674801E+03  0.00000000000E+00 0.  1.
<mgrwt>
<rscale>  0 0.15260246E+04</rscale>
<asrwt>0</asrwt>
<pdfrwt beam="1">  1        2 0.31555710E+00 0.15260246E+04</pdfrwt>
<pdfrwt beam="2">  1       -1 0.43667511E-01 0.15260246E+04</pdfrwt>
<totfact> 0.35616121E+01</totfact>
</mgrwt>
</event>
<event>
12    7  0.1660832E-007  0.5092929E+04  0.7818608E-02  0.7814330E-01
         -1   -1    0    0    0  501 -0.00000000000E+00  0.00000000000E+00  0.19531751413E+04  0.19531751413E+04  0.00000000000E+00 0.  1.
          2   -1    0    0  501    0  0.00000000000E+00 -0.00000000000E+00 -0.33199694820E+04  0.33199694820E+04  0.00000000000E+00 0. -1.
         24    2    1    2    0    0  0.28200942998E+03  0.23929988137E+04 -0.12274424355E+03  0.24139522126E+04  0.78271926961E+02 0.  0.
        254    2    1    2    0    0 -0.28200942998E+03 -0.23929988137E+04 -0.12440500972E+04  0.28591924107E+04  0.90628249253E+03 0.  0.
         23    2    4    4    0    0 -0.57456032686E+03 -0.11969239667E+04 -0.52767696580E+03  0.14315834465E+04  0.90783439330E+02 0.  0.
         23    2    4    4    0    0  0.29255089688E+03 -0.11960748470E+04 -0.71637313136E+03  0.14276089642E+04  0.93251404378E+02 0.  0.
          4    1    3    3  502    0  0.28960061364E+02  0.11002688824E+03 -0.10917120665E+01  0.11377958132E+03  0.00000000000E+00 0. -1.
         -3    1    3    3    0  502  0.25304936862E+03  0.22829719255E+04 -0.12165253149E+03  0.23001726313E+04  0.00000000000E+00 0.  1.
         13    1    5    5    0    0 -0.11523405562E+03 -0.24581178374E+03 -0.14796474071E+03  0.30918584232E+03  0.00000000000E+00 0.  1.
        -13    1    5    5    0    0 -0.45932627124E+03 -0.95111218297E+03 -0.37971222509E+03  0.11223976042E+04  0.00000000000E+00 0. -1.
          2    1    6    6  503    0  0.68524599640E+02 -0.26764824365E+03 -0.20675099554E+03  0.34507561091E+03  0.00000000000E+00 0. -1.
         -2    1    6    6    0  503  0.22402629724E+03 -0.92842660334E+03 -0.50962213582E+03  0.10825333533E+04  0.00000000000E+00 0.  1.
<mgrwt>
<rscale>  0 0.50929292E+04</rscale>
<asrwt>0</asrwt>
<pdfrwt beam="1">  1        2 0.51076454E+00 0.50929292E+04</pdfrwt>
<pdfrwt beam="2">  1       -1 0.30048848E+00 0.50929292E+04</pdfrwt>
<totfact> 0.29037888E-02</totfact>
</mgrwt>
</event>
<event>
12    7  0.1660832E-007  0.3396388E+04  0.7818608E-02  0.8138793E-01
          2   -1    0    0  501    0  0.00000000000E+00  0.00000000000E+00  0.32771971305E+04  0.32771971305E+04  0.00000000000E+00 0. -1.
         -1   -1    0    0    0  501 -0.00000000000E+00 -0.00000000000E+00 -0.87997826398E+03  0.87997826398E+03  0.00000000000E+00 0.  1.
         24    2    1    2    0    0  0.79338026863E+03  0.92205006286E+03 -0.11462448244E+03  0.12244023233E+04  0.79960667175E+02 0.  0.
        254    2    1    2    0    0 -0.79338026863E+03 -0.92205006286E+03  0.25118433489E+04  0.29327730711E+04  0.90120602982E+03 0.  0.
         23    2    4    4    0    0 -0.13714609627E+03 -0.35036476057E+02 -0.20177999504E+02  0.16931807027E+03  0.90690963604E+02 0.  0.
         23    2    4    4    0    0 -0.65623417236E+03 -0.88701358681E+03  0.25320213484E+04  0.27634550009E+04  0.90083521044E+02 0.  0.
          2    1    3    3  502    0  0.68001956374E+01  0.22537267967E+02  0.28951898640E+01  0.23718204663E+02  0.00000000000E+00 0. -1.
         -1    1    3    3    0  502  0.78658007299E+03  0.89951279490E+03 -0.11751967230E+03  0.12006841187E+04  0.00000000000E+00 0.  1.
         13    1    5    5    0    0 -0.11817575900E+03 -0.59767444683E+02 -0.45004928677E+00  0.13243058560E+03  0.00000000000E+00 0. -1.
        -13    1    5    5    0    0 -0.18970337275E+02  0.24730968626E+02 -0.19727950218E+02  0.36887484670E+02  0.00000000000E+00 0.  1.
          1    1    6    6  503    0 -0.21750749619E+03 -0.34294343729E+03  0.10122179275E+04  0.10906442339E+04  0.00000000000E+00 0. -1.
         -1    1    6    6    0  503 -0.43872667616E+03 -0.54407014952E+03  0.15198034209E+04  0.16728107670E+04  0.00000000000E+00 0.  1.
<mgrwt>
<rscale>  0 0.33963876E+04</rscale>
<asrwt>0</asrwt>
<pdfrwt beam="1">  1        2 0.50418417E+00 0.33963876E+04</pdfrwt>
<pdfrwt beam="2">  1       -1 0.13538127E+00 0.33963876E+04</pdfrwt>
<totfact> 0.49577283E-01</totfact>
</mgrwt>
</event>
<event>
12    7  0.1660832E-007  0.2745483E+04  0.7818608E-02  0.8320396E-01
         -1   -1    0    0    0  501 -0.00000000000E+00  0.00000000000E+00  0.61450854813E+03  0.61450854813E+03  0.00000000000E+00 0.  1.
          2   -1    0    0  501    0  0.00000000000E+00 -0.00000000000E+00 -0.30665465597E+04  0.30665465597E+04  0.00000000000E+00 0. -1.
         24    2    1    2    0    0  0.34996154252E+03 -0.10041192183E+03  0.47173144385E+03  0.60116841137E+03  0.79481245735E+02 0.  0.
        254    2    1    2    0    0 -0.34996154252E+03  0.10041192183E+03 -0.29237694555E+04  0.30798866965E+04  0.89706109005E+03 0.  0.
         23    2    4    4    0    0 -0.24689177658E+03  0.18061049449E+03 -0.29006114730E+04  0.29183221945E+04  0.97374604018E+02 0.  0.
         23    2    4    4    0    0 -0.10306976595E+03 -0.80198572659E+02 -0.23157982493E+02  0.16156450204E+03  0.92258378787E+02 0.  0.
          4    1    3    3  502    0  0.31072492593E+02 -0.24516048799E+02  0.24065977817E+02  0.46321784648E+02  0.00000000000E+00 0. -1.
         -3    1    3    3    0  502  0.31888904993E+03 -0.75895873036E+02  0.44766546603E+03  0.55484662672E+03  0.00000000000E+00 0.  1.
         13    1    5    5    0    0 -0.17580006511E+03  0.16947928475E+03 -0.20027448393E+04  0.20175767103E+04  0.00000000000E+00 0. -1.
        -13    1    5    5    0    0 -0.71091711468E+02  0.11131209739E+02 -0.89786663371E+03  0.90074548414E+03  0.00000000000E+00 0.  1.
          3    1    6    6  503    0 -0.76903553419E+02 -0.98014007432E+02 -0.32135490489E+02  0.12866076298E+03  0.00000000000E+00 0. -1.
         -3    1    6    6    0  503 -0.26166212526E+02  0.17815434773E+02  0.89775079955E+01  0.32903739057E+02  0.00000000000E+00 0.  1.
<mgrwt>
<rscale>  0 0.27454829E+04</rscale>
<asrwt>0</asrwt>
<pdfrwt beam="1">  1        2 0.47177639E+00 0.27454829E+04</pdfrwt>
<pdfrwt beam="2">  1       -1 0.94539777E-01 0.27454829E+04</pdfrwt>
<totfact> 0.16993202E+00</totfact>
</mgrwt>
</event>
<event>
12    7  0.1660832E-007  0.2136197E+04  0.7818608E-02  0.8545464E-01
          2   -1    0    0  501    0  0.00000000000E+00  0.00000000000E+00  0.12003206309E+04  0.12003206309E+04  0.00000000000E+00 0. -1.
         -1   -1    0    0    0  501 -0.00000000000E+00 -0.00000000000E+00 -0.95044112393E+03  0.95044112393E+03  0.00000000000E+00 0.  1.
         24    2    1    2    0    0  0.65786532119E+03  0.57128062326E+03  0.28663164412E+03  0.92061624213E+03  0.78919164457E+02 0.  0.
        254    2    1    2    0    0 -0.65786532119E+03 -0.57128062326E+03 -0.36752137163E+02  0.12301455127E+04  0.86761681140E+03 0.  0.
         23    2    4    4    0    0 -0.24060066793E+03 -0.71755031163E+03  0.73158289174E+02  0.76498794556E+03  0.84186046600E+02 0.  0.
         23    2    4    4    0    0 -0.41726465326E+03  0.14626968837E+03 -0.10991042634E+03  0.46515756712E+03  0.93737120876E+02 0.  0.
          2    1    3    3  502    0  0.57378782980E+03  0.49461903482E+03  0.22038435733E+03  0.78895483279E+03  0.00000000000E+00 0. -1.
         -1    1    3    3    0  502  0.84077491397E+02  0.76661588446E+02  0.66247286789E+02  0.13166140934E+03  0.00000000000E+00 0.  1.
         13    1    5    5    0    0 -0.51648054264E+00 -0.63251973001E+02  0.18444049498E+02  0.65888252387E+02  0.00000000000E+00 0.  1.
        -13    1    5    5    0    0 -0.24008418739E+03 -0.65429833863E+03  0.54714239676E+02  0.69909969317E+03  0.00000000000E+00 0. -1.
          1    1    6    6  503    0 -0.26701259240E+03  0.12065040580E+03 -0.34277818867E+02  0.29500375215E+03  0.00000000000E+00 0. -1.
         -1    1    6    6    0  503 -0.15025206087E+03  0.25619282569E+02 -0.75632607470E+02  0.17015381496E+03  0.00000000000E+00 0.  1.
<mgrwt>
<rscale>  0 0.21361967E+04</rscale>
<asrwt>0</asrwt>
<pdfrwt beam="1">  1        2 0.18466471E+00 0.21361967E+04</pdfrwt>
<pdfrwt beam="2">  1       -1 0.14622171E+00 0.21361967E+04</pdfrwt>
<totfact> 0.74103672E+00</totfact>
</mgrwt>
</event>
<event>
12    7  0.1660832E-007  0.2046756E+04  0.7818608E-02  0.8585067E-01
          2   -1    0    0  501    0  0.00000000000E+00  0.00000000000E+00  0.23506042741E+04  0.23506042741E+04  0.00000000000E+00 0. -1.
         -1   -1    0    0    0  501 -0.00000000000E+00 -0.00000000000E+00 -0.44554630199E+03  0.44554630199E+03  0.00000000000E+00 0.  1.
         24    2    1    2    0    0 -0.54539542270E+03  0.30954559826E+03  0.15117824944E+04  0.16386368405E+04  0.79810652204E+02 0.  0.
        254    2    1    2    0    0  0.54539542270E+03 -0.30954559826E+03  0.39327547769E+03  0.11575137356E+04  0.88988639845E+03 0.  0.
         23    2    4    4    0    0  0.35560279042E+03 -0.41043148574E+03  0.62224911658E+03  0.83052979211E+03  0.87626613846E+02 0.  0.
         23    2    4    4    0    0  0.18979263228E+03  0.10088588749E+03 -0.22897363889E+03  0.32698394344E+03  0.91051449186E+02 0.  0.
          2    1    3    3  502    0 -0.34762026510E+03  0.16869145136E+03  0.10041312853E+04  0.10759071952E+04  0.00000000000E+00 0. -1.
         -1    1    3    3    0  502 -0.19777515760E+03  0.14085414689E+03  0.50765120911E+03  0.56272964537E+03  0.00000000000E+00 0.  1.
         13    1    5    5    0    0  0.13847837883E+03 -0.12793845735E+03  0.16262707495E+03  0.24898207923E+03  0.00000000000E+00 0. -1.
        -13    1    5    5    0    0  0.21712441159E+03 -0.28249302839E+03  0.45962204164E+03  0.58154771288E+03  0.00000000000E+00 0.  1.
          4    1    6    6  503    0  0.19978003423E+03  0.95033257537E+02 -0.21179236439E+03  0.30626685705E+03  0.00000000000E+00 0. -1.
         -4    1    6    6    0  503 -0.99874019467E+01  0.58526299484E+01 -0.17181274503E+02  0.20717086390E+02  0.00000000000E+00 0.  1.
<mgrwt>
<rscale>  0 0.20467565E+04</rscale>
<asrwt>0</asrwt>
<pdfrwt beam="1">  1        2 0.36163142E+00 0.20467565E+04</pdfrwt>
<pdfrwt beam="2">  1       -1 0.68545587E-01 0.20467565E+04</pdfrwt>
<totfact> 0.96301070E+00</totfact>
</mgrwt>
</event>
<event>
12    7  0.1660832E-007  0.1800289E+04  0.7818608E-02  0.8706146E-01
         -1   -1    0    0    0  501 -0.00000000000E+00  0.00000000000E+00  0.12372108956E+04  0.12372108956E+04  0.00000000000E+00 0.  1.
          2   -1    0    0  501    0  0.00000000000E+00 -0.00000000000E+00 -0.65490892181E+03  0.65490892181E+03  0.00000000000E+00 0. -1.
         24    2    1    2    0    0  0.17141933506E+03 -0.60379712391E+03 -0.35482773444E+02  0.63321225961E+03  0.75783792744E+02 0.  0.
        254    2    1    2    0    0 -0.17141933506E+03  0.60379712391E+03  0.61778474728E+03  0.12589075579E+04  0.89957472729E+03 0.  0.
         23    2    4    4    0    0 -0.14146861196E+03  0.17967385677E+03  0.76195103066E+03  0.80002948306E+03  0.84745133575E+02 0.  0.
         23    2    4    4    0    0 -0.29950723101E+02  0.42412326713E+03 -0.14416628338E+03  0.45887807479E+03  0.94908264791E+02 0.  0.
          2    1    3    3  502    0  0.34440478209E+02 -0.11023565539E+03  0.22704192607E+02  0.11770100518E+03  0.00000000000E+00 0. -1.
         -1    1    3    3    0  502  0.13697885685E+03 -0.49356146852E+03 -0.58186966051E+02  0.51551125444E+03  0.00000000000E+00 0.  1.
         13    1    5    5    0    0 -0.13214446692E+03  0.12747103107E+03  0.66063677794E+03  0.68567629117E+03  0.00000000000E+00 0.  1.
        -13    1    5    5    0    0 -0.93241450366E+01  0.52202825705E+02  0.10131425272E+03  0.11435319189E+03  0.00000000000E+00 0. -1.
          2    1    6    6  503    0 -0.74987749708E+01  0.14632492098E+03 -0.98269007906E+02  0.17641998765E+03  0.00000000000E+00 0. -1.
         -2    1    6    6    0  503 -0.22451948131E+02  0.27779834615E+03 -0.45897275473E+02  0.28245808715E+03  0.00000000000E+00 0.  1.
<mgrwt>
<rscale>  0 0.18002894E+04</rscale>
<asrwt>0</asrwt>
<pdfrwt beam="1">  1        2 0.10075522E+00 0.18002894E+04</pdfrwt>
<pdfrwt beam="2">  1       -1 0.19034014E+00 0.18002894E+04</pdfrwt>
<totfact> 0.84381569E+00</totfact>
</mgrwt>
</event>
<event>
12    7  0.1660832E-007  0.1933605E+04  0.7818608E-02  0.8638308E-01
         -1   -1    0    0    0  501 -0.00000000000E+00  0.00000000000E+00  0.92180480614E+03  0.92180480614E+03  0.00000000000E+00 0.  1.
          2   -1    0    0  501    0  0.00000000000E+00 -0.00000000000E+00 -0.10139964456E+04  0.10139964456E+04  0.00000000000E+00 0. -1.
         24    2    1    2    0    0  0.74282486958E+03  0.95219920376E+02 -0.16179282645E+03  0.77040323170E+03  0.80551850545E+02 0.  0.
        254    2    1    2    0    0 -0.74282486958E+03 -0.95219920376E+02  0.69601187023E+02  0.11653980200E+04  0.89019806767E+03 0.  0.
         23    2    4    4    0    0 -0.80383323061E+03 -0.59925139228E+02 -0.23318395063E+03  0.84401421956E+03  0.90809487638E+02 0.  0.
         23    2    4    4    0    0  0.61008361033E+02 -0.35294781148E+02  0.30278513765E+03  0.32138380044E+03  0.81492121761E+02 0.  0.
          2    1    3    3  502    0  0.43647178432E+03  0.48876489097E+02 -0.13465553449E+03  0.45937853962E+03  0.00000000000E+00 0. -1.
         -1    1    3    3    0  502  0.30635308526E+03  0.46343431279E+02 -0.27137291957E+02  0.31102469209E+03  0.00000000000E+00 0.  1.
         13    1    5    5    0    0 -0.42165405149E+03  0.14027900819E+02 -0.12303850376E+03  0.43946262019E+03  0.00000000000E+00 0. -1.
        -13    1    5    5    0    0 -0.38217917913E+03 -0.73953040047E+02 -0.11014544687E+03  0.40455159938E+03  0.00000000000E+00 0.  1.
          3    1    6    6  503    0  0.59412696267E+02 -0.49329025079E+02  0.15748577108E+03  0.17539951336E+03  0.00000000000E+00 0. -1.
         -3    1    6    6    0  503  0.15956647657E+01  0.14034243931E+02  0.14529936657E+03  0.14598428708E+03  0.00000000000E+00 0.  1.
<mgrwt>
<rscale>  0 0.19336047E+04</rscale>
<asrwt>0</asrwt>
<pdfrwt beam="1">  1        2 0.15599945E+00 0.19336047E+04</pdfrwt>
<pdfrwt beam="2">  1       -1 0.14181612E+00 0.19336047E+04</pdfrwt>
<totfact> 0.10653213E+01</totfact>
</mgrwt>
</event>
<event>
12    7  0.1660832E-007  0.1990648E+04  0.7818608E-02  0.8611005E-01
          2   -1    0    0  501    0  0.00000000000E+00  0.00000000000E+00  0.19299086064E+04  0.19299086064E+04  0.00000000000E+00 0. -1.
         -1   -1    0    0    0  501 -0.00000000000E+00 -0.00000000000E+00 -0.51332498730E+03  0.51332498730E+03  0.00000000000E+00 0.  1.
         24    2    1    2    0    0  0.71212188312E+02 -0.68848755694E+02  0.15490490588E+04  0.15542317652E+04  0.79196379706E+02 0.  0.
        254    2    1    2    0    0 -0.71212188312E+02  0.68848755694E+02 -0.13246543969E+03  0.88900182848E+03  0.87347915339E+03 0.  0.
         23    2    4    4    0    0 -0.44629058228E+02  0.20052788550E+03  0.32865776813E+03  0.40062958601E+03  0.10141474713E+03 0.  0.
         23    2    4    4    0    0 -0.26583130084E+02 -0.13167912981E+03 -0.46112320782E+03  0.48837224247E+03  0.88469081594E+02 0.  0.
          4    1    3    3  502    0  0.84101418566E+02 -0.73009454250E+02  0.14484054577E+04  0.14526809005E+04  0.00000000000E+00 0. -1.
         -3    1    3    3    0  502 -0.12889230254E+02  0.41606985553E+01  0.10064360114E+03  0.10155086469E+03  0.00000000000E+00 0.  1.
         13    1    5    5    0    0 -0.77257761478E+02  0.12775616353E+03  0.21824358557E+03  0.26442515325E+03  0.00000000000E+00 0.  1.
        -13    1    5    5    0    0  0.32628703249E+02  0.72771721968E+02  0.11041418255E+03  0.13620443276E+03  0.00000000000E+00 0. -1.
          2    1    6    6  503    0 -0.37350226940E+02 -0.25929902836E+02 -0.73398747025E+02  0.86341041100E+02  0.00000000000E+00 0. -1.
         -2    1    6    6    0  503  0.10767096856E+02 -0.10574922697E+03 -0.38772446079E+03  0.40203120137E+03  0.00000000000E+00 0.  1.
<mgrwt>
<rscale>  0 0.19906484E+04</rscale>
<asrwt>0</asrwt>
<pdfrwt beam="1">  1        2 0.29690901E+00 0.19906484E+04</pdfrwt>
<pdfrwt beam="2">  1       -1 0.78973076E-01 0.19906484E+04</pdfrwt>
<totfact> 0.12405220E+01</totfact>
</mgrwt>
</event>
<event>
12    7  0.1660832E-007  0.2915598E+04  0.7818608E-02  0.8268252E-01
          2   -1    0    0  501    0  0.00000000000E+00  0.00000000000E+00  0.15411798100E+04  0.15411798100E+04  0.00000000000E+00 0. -1.
         -1   -1    0    0    0  501 -0.00000000000E+00 -0.00000000000E+00 -0.13789295626E+04  0.13789295626E+04  0.00000000000E+00 0.  1.
         24    2    1    2    0    0 -0.82778163180E+03  0.39222897072E+03  0.10247246759E+04  0.13768029833E+04  0.80372867912E+02 0.  0.
        254    2    1    2    0    0  0.82778163180E+03 -0.39222897072E+03 -0.86247442850E+03  0.15433063893E+04  0.89379330726E+03 0.  0.
         23    2    4    4    0    0  0.10973405746E+03 -0.48197539425E+03 -0.55954212939E+03  0.75358568939E+03  0.10228466484E+03 0.  0.
         23    2    4    4    0    0  0.71804757434E+03  0.89746423530E+02 -0.30293229911E+03  0.78972069994E+03  0.90796841980E+02 0.  0.
          2    1    3    3  502    0 -0.79046972992E+03  0.36848030896E+03  0.94727379451E+03  0.12876132081E+04  0.00000000000E+00 0. -1.
         -1    1    3    3    0  502 -0.37311901887E+02  0.23748661756E+02  0.77450881422E+02  0.89189775147E+02  0.00000000000E+00 0.  1.
         13    1    5    5    0    0  0.10548470467E+03 -0.29094902865E+03 -0.29754713069E+03  0.42931649768E+03  0.00000000000E+00 0.  1.
        -13    1    5    5    0    0  0.42493527883E+01 -0.19102636559E+03 -0.26199499870E+03  0.32426919171E+03  0.00000000000E+00 0. -1.
          1    1    6    6  503    0  0.33823652939E+03  0.96368149367E+01 -0.10687965451E+03  0.35485219256E+03  0.00000000000E+00 0. -1.
         -1    1    6    6    0  503  0.37981104496E+03  0.80109608593E+02 -0.19605264460E+03  0.43486850738E+03  0.00000000000E+00 0.  1.
<mgrwt>
<rscale>  0 0.29155983E+04</rscale>
<asrwt>0</asrwt>
<pdfrwt beam="1">  1        2 0.23710459E+00 0.29155983E+04</pdfrwt>
<pdfrwt beam="2">  1       -1 0.21214301E+00 0.29155983E+04</pdfrwt>
<totfact> 0.14682443E+00</totfact>
</mgrwt>
</event>
<event>
12    7  0.1660832E-007  0.1772962E+04  0.7818608E-02  0.8720811E-01
         -1   -1    0    0    0  501 -0.00000000000E+00  0.00000000000E+00  0.34748207261E+03  0.34748207261E+03  0.00000000000E+00 0.  1.
          2   -1    0    0  501    0  0.00000000000E+00 -0.00000000000E+00 -0.22615518994E+04  0.22615518994E+04  0.00000000000E+00 0. -1.
         24    2    1    2    0    0  0.57714566728E+03 -0.47818199017E+02 -0.24425072477E+03  0.63431951262E+03  0.85551891430E+02 0.  0.
        254    2    1    2    0    0 -0.57714566728E+03  0.47818199017E+02 -0.16698191021E+04  0.19747144594E+04  0.88080512102E+03 0.  0.
         23    2    4    4    0    0 -0.17518963493E+03  0.43183161804E+03 -0.93328388781E+03  0.10471562286E+04  0.91364092016E+02 0.  0.
         23    2    4    4    0    0 -0.40195603235E+03 -0.38401341903E+03 -0.73653521425E+03  0.92755823082E+03  0.94048879842E+02 0.  0.
          2    1    3    3  502    0  0.18001896859E+03 -0.49191373197E+02 -0.56061295035E+02  0.19485761224E+03  0.00000000000E+00 0. -1.
         -1    1    3    3    0  502  0.39712669869E+03  0.13731741796E+01 -0.18818942973E+03  0.43946190038E+03  0.00000000000E+00 0.  1.
         13    1    5    5    0    0 -0.83650635418E+02  0.10680454291E+03 -0.30706228517E+03  0.33569612177E+03  0.00000000000E+00 0. -1.
        -13    1    5    5    0    0 -0.91538999510E+02  0.32502707513E+03 -0.62622160263E+03  0.71146010683E+03  0.00000000000E+00 0.  1.
          3    1    6    6  503    0 -0.45621813705E+02 -0.31880758539E+02 -0.35849906665E+02  0.66203840211E+02  0.00000000000E+00 0. -1.
         -3    1    6    6    0  503 -0.35633421865E+03 -0.35213266049E+03 -0.70068530759E+03  0.86135439061E+03  0.00000000000E+00 0.  1.
<mgrwt>
<rscale>  0 0.17729622E+04</rscale>
<asrwt>0</asrwt>
<pdfrwt beam="1">  1        2 0.34793105E+00 0.17729622E+04</pdfrwt>
<pdfrwt beam="2">  1       -1 0.53458782E-01 0.17729622E+04</pdfrwt>
<totfact> 0.18139102E+01</totfact>
</mgrwt>
</event>
<event>
12    7  0.1660832E-007  0.1727047E+04  0.7818608E-02  0.8746087E-01
          2   -1    0    0  501    0  0.00000000000E+00  0.00000000000E+00  0.47232126479E+03  0.47232126479E+03  0.00000000000E+00 0. -1.
         -1   -1    0    0    0  501 -0.00000000000E+00 -0.00000000000E+00 -0.15787406603E+04  0.15787406603E+04  0.00000000000E+00 0.  1.
         24    2    1    2    0    0  0.35645365730E+03  0.39322769405E+03 -0.79838220056E+03  0.96194383918E+03  0.78959371845E+02 0.  0.
        254    2    1    2    0    0 -0.35645365730E+03 -0.39322769405E+03 -0.30803719497E+03  0.10891180859E+04  0.89978000779E+03 0.  0.
         23    2    4    4    0    0 -0.50090431501E+03 -0.52552265673E+03 -0.42234698977E+03  0.84456991121E+03  0.88555968934E+02 0.  0.
         23    2    4    4    0    0  0.14445065770E+03  0.13229496268E+03  0.11430979480E+03  0.24454817471E+03  0.91482954188E+02 0.  0.
          2    1    3    3  502    0  0.29405916861E+03  0.35565712603E+03 -0.65661693346E+03  0.80256375650E+03  0.00000000000E+00 0. -1.
         -1    1    3    3    0  502  0.62394488695E+02  0.37570568015E+02 -0.14176526710E+03  0.15938008269E+03  0.00000000000E+00 0.  1.
         13    1    5    5    0    0 -0.26094359568E+03 -0.33467638357E+03 -0.23135182830E+03  0.48334615992E+03  0.00000000000E+00 0. -1.
        -13    1    5    5    0    0 -0.23996071933E+03 -0.19084627315E+03 -0.19099516146E+03  0.36122375129E+03  0.00000000000E+00 0.  1.
          4    1    6    6  503    0  0.57842813534E+02 -0.17207244722E+00  0.33515034663E+02  0.66851164799E+02  0.00000000000E+00 0.  1.
         -4    1    6    6    0  503  0.86607844168E+02  0.13246703513E+03  0.80794760135E+02  0.17769700991E+03  0.00000000000E+00 0. -1.
<mgrwt>
<rscale>  0 0.17270469E+04</rscale>
<asrwt>0</asrwt>
<pdfrwt beam="1">  1        2 0.72664809E-01 0.17270469E+04</pdfrwt>
<pdfrwt beam="2">  1       -1 0.24288318E+00 0.17270469E+04</pdfrwt>
<totfact> 0.55421809E+00</totfact>
</mgrwt>
</event>
<event>
12    7  0.1660832E-007  0.1261973E+04  0.7818608E-02  0.9060277E-01
          2   -1    0    0  501    0  0.00000000000E+00  0.00000000000E+00  0.16557403689E+04  0.16557403689E+04  0.00000000000E+00 0. -1.
         -1   -1    0    0    0  501 -0.00000000000E+00 -0.00000000000E+00 -0.24046278832E+03  0.24046278832E+03  0.00000000000E+00 0.  1.
         24    2    1    2    0    0 -0.29110241016E+03  0.38264370783E+02  0.18448317114E+03  0.35586098847E+03  0.79988920560E+02 0.  0.
        254    2    1    2    0    0  0.29110241016E+03 -0.38264370783E+02  0.12307944095E+04  0.15403421688E+04  0.87840443034E+03 0.  0.
         23    2    4    4    0    0  0.48583699900E+03 -0.30538836536E+03  0.72199746512E+03  0.92669313973E+03  0.90444415398E+02 0.  0.
         23    2    4    4    0    0 -0.19473458884E+03  0.26712399458E+03  0.50879694433E+03  0.61364902903E+03  0.91727922145E+02 0.  0.
          2    1    3    3  502    0 -0.26603041286E+03  0.12592945651E+02  0.17522704357E+03  0.31880288525E+03  0.00000000000E+00 0. -1.
         -1    1    3    3    0  502 -0.25071997297E+02  0.25671425131E+02  0.92561275701E+01  0.37058103221E+02  0.00000000000E+00 0.  1.
         13    1    5    5    0    0  0.41424146819E+03 -0.28927491655E+03  0.60078193146E+03  0.78499356716E+03  0.00000000000E+00 0. -1.
        -13    1    5    5    0    0  0.71595530810E+02 -0.16113448813E+02  0.12121553366E+03  0.14169957257E+03  0.00000000000E+00 0.  1.
          3    1    6    6  503    0 -0.10258755682E+03  0.20529745790E+03  0.30630716219E+03  0.38274708444E+03  0.00000000000E+00 0. -1.
         -3    1    6    6    0  503 -0.92147032018E+02  0.61826536682E+02  0.20248978214E+03  0.23090194459E+03  0.00000000000E+00 0.  1.
<mgrwt>
<rscale>  0 0.12619730E+04</rscale>
<asrwt>0</asrwt>
<pdfrwt beam="1">  1        2 0.25472928E+00 0.12619730E+04</pdfrwt>
<pdfrwt beam="2">  1       -1 0.36994276E-01 0.12619730E+04</pdfrwt>
<totfact> 0.81590630E+01</totfact>
</mgrwt>
</event>
<event>
12    7  0.1660832E-007  0.2471784E+04  0.7818608E-02  0.8413107E-01
          2   -1    0    0  501    0  0.00000000000E+00  0.00000000000E+00  0.14351294748E+04  0.14351294748E+04  0.00000000000E+00 0. -1.
         -1   -1    0    0    0  501 -0.00000000000E+00 -0.00000000000E+00 -0.10643148278E+04  0.10643148278E+04  0.00000000000E+00 0.  1.
         24    2    1    2    0    0 -0.44662843570E+03 -0.74460883645E+03  0.75778754191E+03  0.11551922628E+04  0.79422454950E+02 0.  0.
        254    2    1    2    0    0  0.44662843570E+03  0.74460883645E+03 -0.38697289491E+03  0.13442520398E+04  0.95044528837E+03 0.  0.
         23    2    4    4    0    0  0.13995064136E+03 -0.87016070503E+02 -0.41151780325E+03  0.45281585942E+03  0.92397627707E+02 0.  0.
         23    2    4    4    0    0  0.30667779434E+03  0.83162490695E+03  0.24544908341E+02  0.89143618037E+03  0.91677454953E+02 0.  0.
          4    1    3    3  502    0 -0.29835685383E+03 -0.44404139057E+03  0.42950329270E+03  0.68604857496E+03  0.00000000000E+00 0. -1.
         -3    1    3    3    0  502 -0.14827158187E+03 -0.30056744588E+03  0.32828424922E+03  0.46914368780E+03  0.00000000000E+00 0.  1.
         13    1    5    5    0    0 -0.60835822780E+01 -0.26914978228E+02 -0.97444468825E+02  0.10127611037E+03  0.00000000000E+00 0.  1.
        -13    1    5    5    0    0  0.14603422364E+03 -0.60101092276E+02 -0.31407333443E+03  0.35153974905E+03  0.00000000000E+00 0. -1.
          3    1    6    6  503    0  0.30848009500E+03  0.82911732999E+03  0.30016415122E+02  0.88515337715E+03  0.00000000000E+00 0. -1.
         -3    1    6    6    0  503 -0.18023006617E+01  0.25075769647E+01 -0.54715067814E+01  0.62828032253E+01  0.00000000000E+00 0.  1.
<mgrwt>
<rscale>  0 0.24717844E+04</rscale>
<asrwt>0</asrwt>
<pdfrwt beam="1">  1        2 0.22078915E+00 0.24717844E+04</pdfrwt>
<pdfrwt beam="2">  1       -1 0.16374074E+00 0.24717844E+04</pdfrwt>
<totfact> 0.38536115E+00</totfact>
</mgrwt>
</event>
<event>
12    7  0.1660832E-007  0.1027447E+04  0.7818608E-02  0.9278944E-01
          2   -1    0    0  501    0  0.00000000000E+00  0.00000000000E+00  0.56455810547E+03  0.56455810547E+03  0.00000000000E+00 0. -1.
         -1   -1    0    0    0  501 -0.00000000000E+00 -0.00000000000E+00 -0.46746593021E+03  0.46746593021E+03  0.00000000000E+00 0.  1.
         24    2    1    2    0    0 -0.20047504078E+02  0.83855093619E+02 -0.31340524231E+02  0.12160899981E+03  0.79830703556E+02 0.  0.
        254    2    1    2    0    0  0.20047504078E+02 -0.83855093619E+02  0.12843269949E+03  0.91041503587E+03  0.89717724007E+03 0.  0.
         23    2    4    4    0    0 -0.13882202389E+01 -0.46359783501E+03 -0.59928503068E+02  0.47583297131E+03  0.88885945598E+02 0.  0.
         23    2    4    4    0    0  0.21435724317E+02  0.37974274139E+03  0.18836120255E+03  0.43458206457E+03  0.93368026133E+02 0.  0.
          4    1    3    3  502    0 -0.30479764540E+02  0.91238060150E+02 -0.99719494454E+01  0.96710079321E+02  0.00000000000E+00 0. -1.
         -3    1    3    3    0  502  0.10432260463E+02 -0.73829665318E+01 -0.21368574786E+02  0.24898920490E+02  0.00000000000E+00 0.  1.
         13    1    5    5    0    0 -0.34391768876E+02 -0.33007426245E+03 -0.65133835253E+02  0.33819259157E+03  0.00000000000E+00 0.  1.
        -13    1    5    5    0    0  0.33003548637E+02 -0.13352357255E+03  0.52053321855E+01  0.13764037973E+03  0.00000000000E+00 0. -1.
          2    1    6    6  503    0 -0.13278608483E+02  0.10334372216E+03  0.12009677575E+02  0.10488316694E+03  0.00000000000E+00 0. -1.
         -2    1    6    6    0  503  0.34714332800E+02  0.27639901923E+03  0.17635152498E+03  0.32969889762E+03  0.00000000000E+00 0.  1.
<mgrwt>
<rscale>  0 0.10274467E+04</rscale>
<asrwt>0</asrwt>
<pdfrwt beam="1">  1        2 0.86855093E-01 0.10274467E+04</pdfrwt>
<pdfrwt beam="2">  1       -1 0.71917836E-01 0.10274467E+04</pdfrwt>
<totfact> 0.11871116E+02</totfact>
</mgrwt>
</event>
<event>
12    7  0.1660832E-007  0.1288546E+04  0.7818608E-02  0.9038698E-01
          2   -1    0    0  501    0  0.00000000000E+00  0.00000000000E+00  0.43867961100E+03  0.43867961100E+03  0.00000000000E+00 0. -1.
         -1   -1    0    0    0  501 -0.00000000000E+00 -0.00000000000E+00 -0.94622129945E+03  0.94622129945E+03  0.00000000000E+00 0.  1.
         24    2    1    2    0    0  0.12042696445E+03 -0.21546520637E+03 -0.36098570670E+03  0.44571174838E+03  0.86141588589E+02 0.  0.
        254    2    1    2    0    0 -0.12042696445E+03  0.21546520637E+03 -0.14655598176E+03  0.93918916207E+03  0.89424253837E+03 0.  0.
         23    2    4    4    0    0  0.32789183264E+03  0.17406998475E+03  0.12935603095E+03  0.40348377793E+03  0.90844718089E+02 0.  0.
         23    2    4    4    0    0 -0.44831879708E+03  0.41395221627E+02 -0.27591201271E+03  0.53570538414E+03  0.90274645665E+02 0.  0.
          4    1    3    3  502    0  0.40695104671E+02 -0.15672664553E+03 -0.21074582419E+03  0.26576895112E+03  0.00000000000E+00 0. -1.
         -3    1    3    3    0  502  0.79731859774E+02 -0.58738560843E+02 -0.15023988251E+03  0.17994279727E+03  0.00000000000E+00 0.  1.
         13    1    5    5    0    0  0.37259193139E+00 -0.45164399282E+01 -0.52153289759E+01  0.69091758336E+01  0.00000000000E+00 0.  1.
        -13    1    5    5    0    0  0.32751924071E+03  0.17858642468E+03  0.13457135993E+03  0.39657460209E+03  0.00000000000E+00 0. -1.
          3    1    6    6  503    0 -0.41575544798E+03  0.46995295712E+02 -0.27841480728E+03  0.50256935368E+03  0.00000000000E+00 0. -1.
         -3    1    6    6    0  503 -0.32563349100E+02 -0.56000740851E+01  0.25027945628E+01  0.33136030465E+02  0.00000000000E+00 0.  1.
<mgrwt>
<rscale>  0 0.12885465E+04</rscale>
<asrwt>0</asrwt>
<pdfrwt beam="1">  1        2 0.67489171E-01 0.12885465E+04</pdfrwt>
<pdfrwt beam="2">  1       -1 0.14557251E+00 0.12885465E+04</pdfrwt>
<totfact> 0.30386750E+01</totfact>
</mgrwt>
</event>
<event>
12    7  0.1660832E-007  0.1735955E+04  0.7818608E-02  0.8741120E-01
          2   -1    0    0  501    0  0.00000000000E+00  0.00000000000E+00  0.28576674926E+04  0.28576674926E+04  0.00000000000E+00 0. -1.
         -1   -1    0    0    0  501 -0.00000000000E+00 -0.00000000000E+00 -0.26363617719E+03  0.26363617719E+03  0.00000000000E+00 0.  1.
         24    2    1    2    0    0  0.45262317562E+03  0.17477879199E+03  0.22622292083E+03  0.54118498368E+03  0.79303287531E+02 0.  0.
        254    2    1    2    0    0 -0.45262317562E+03 -0.17477879199E+03  0.23678083946E+04  0.25801186861E+04  0.90281807454E+03 0.  0.
         23    2    4    4    0    0 -0.58596718565E+03 -0.42273022980E+03  0.16632582473E+04  0.18158599011E+04  0.94131787849E+02 0.  0.
         23    2    4    4    0    0  0.13334401002E+03  0.24795143781E+03  0.70455014730E+03  0.76425878499E+03  0.91869689558E+02 0.  0.
          2    1    3    3  502    0  0.93397901042E+02  0.37717521576E+02  0.84282387702E+02  0.13133659136E+03  0.00000000000E+00 0. -1.
         -1    1    3    3    0  502  0.35922527458E+03  0.13706127042E+03  0.14194053313E+03  0.40984839232E+03  0.00000000000E+00 0.  1.
         13    1    5    5    0    0 -0.20959407707E+03 -0.18740001758E+03  0.55897300293E+03  0.62569901849E+03  0.00000000000E+00 0.  1.
        -13    1    5    5    0    0 -0.37637310858E+03 -0.23533021223E+03  0.11042852444E+04  0.11901608827E+04  0.00000000000E+00 0. -1.
          2    1    6    6  503    0 -0.10463556296E+01 -0.11713684913E+01 -0.23306838566E+01  0.28105251262E+01  0.00000000000E+00 0. -1.
         -2    1    6    6    0  503  0.13439036565E+03  0.24912280630E+03  0.70688083115E+03  0.76144825986E+03  0.00000000000E+00 0.  1.
<mgrwt>
<rscale>  0 0.17359545E+04</rscale>
<asrwt>0</asrwt>
<pdfrwt beam="1">  1        2 0.43964113E+00 0.17359545E+04</pdfrwt>
<pdfrwt beam="2">  1       -1 0.40559414E-01 0.17359545E+04</pdfrwt>
<totfact> 0.13729480E+01</totfact>
</mgrwt>
</event>
<event>
12    7  0.1660832E-007  0.1795471E+04  0.7818608E-02  0.8708712E-01
          2   -1    0    0  501    0  0.00000000000E+00  0.00000000000E+00  0.53731044159E+03  0.53731044159E+03  0.00000000000E+00 0. -1.
         -1   -1    0    0    0  501 -0.00000000000E+00 -0.00000000000E+00 -0.14999318730E+04  0.14999318730E+04  0.00000000000E+00 0.  1.
         24    2    1    2    0    0  0.49550432139E+03 -0.46521758576E+02 -0.87205603392E+03  0.10073644265E+04  0.81317617623E+02 0.  0.
        254    2    1    2    0    0 -0.49550432139E+03  0.46521758576E+02 -0.90565397463E+02  0.10298778881E+04  0.89708280922E+03 0.  0.
         23    2    4    4    0    0 -0.54430810604E+03  0.38233897978E+03 -0.92781227557E+02  0.67793131820E+03  0.92347746305E+02 0.  0.
         23    2    4    4    0    0  0.48803784651E+02 -0.33581722121E+03  0.22158300949E+01  0.35194656988E+03  0.93308427747E+02 0.  0.
          4    1    3    3  502    0  0.16347481633E+03 -0.23047007945E+02 -0.21774729116E+03  0.27325640515E+03  0.00000000000E+00 0. -1.
         -1    1    3    3    0  502  0.33202950505E+03 -0.23474750631E+02 -0.65430874276E+03  0.73410802134E+03  0.00000000000E+00 0.  1.
         13    1    5    5    0    0 -0.40939547450E+03  0.23862744467E+03 -0.78241035223E+02  0.48028051333E+03  0.00000000000E+00 0. -1.
        -13    1    5    5    0    0 -0.13491263154E+03  0.14371153511E+03 -0.14540192334E+02  0.19765080487E+03  0.00000000000E+00 0.  1.
          2    1    6    6  503    0 -0.20364068022E+02 -0.51098412734E+02 -0.18959202162E+02  0.58182423436E+02  0.00000000000E+00 0.  1.
         -2    1    6    6    0  503  0.69167852674E+02 -0.28471880847E+03  0.21175032257E+02  0.29376414644E+03  0.00000000000E+00 0. -1.
<mgrwt>
<rscale>  0 0.17954710E+04</rscale>
<asrwt>0</asrwt>
<pdfrwt beam="1">  1        2 0.82663145E-01 0.17954710E+04</pdfrwt>
<pdfrwt beam="2">  1       -1 0.23075875E+00 0.17954710E+04</pdfrwt>
<totfact> 0.56975299E+00</totfact>
</mgrwt>
</event>
<event>
12    7  0.1660832E-007  0.2312275E+04  0.7818608E-02  0.8473097E-01
          2   -1    0    0  501    0  0.00000000000E+00  0.00000000000E+00  0.20500359641E+04  0.20500359641E+04  0.00000000000E+00 0. -1.
         -1   -1    0    0    0  501 -0.00000000000E+00 -0.00000000000E+00 -0.65201509548E+03  0.65201509548E+03  0.00000000000E+00 0.  1.
         24    2    1    2    0    0 -0.18619276097E+03 -0.98497267958E+03  0.65728833415E+03  0.12012235478E+04  0.77917481105E+02 0.  0.
        254    2    1    2    0    0  0.18619276097E+03  0.98497267958E+03  0.74073253450E+03  0.15008275118E+04  0.83603804264E+03 0.  0.
         23    2    4    4    0    0 -0.17082143464E+03 -0.51021853731E+02  0.51449999576E+02  0.20296973782E+03  0.82258251416E+02 0.  0.
         23    2    4    4    0    0  0.35701419561E+03  0.10359945333E+04  0.68928253492E+03  0.12978577740E+04  0.92631417968E+02 0.  0.
          4    1    3    3  502    0 -0.16107123523E+03 -0.92278021816E+03  0.59526922913E+03  0.11098705911E+04  0.00000000000E+00 0. -1.
         -3    1    3    3    0  502 -0.25121525733E+02 -0.62192461422E+02  0.62019105021E+02  0.91352956714E+02  0.00000000000E+00 0.  1.
         13    1    5    5    0    0 -0.12886160708E+03 -0.70526104613E+02  0.54293421569E+02  0.15661104954E+03  0.00000000000E+00 0.  1.
        -13    1    5    5    0    0 -0.41959827554E+02  0.19504250882E+02 -0.28434219930E+01  0.46358688285E+02  0.00000000000E+00 0. -1.
          1    1    6    6  503    0  0.25871022984E+02  0.15069436840E+03  0.12087659422E+03  0.19490832083E+03  0.00000000000E+00 0. -1.
         -1    1    6    6    0  503  0.33114317262E+03  0.88530016490E+03  0.56840594071E+03  0.11029494531E+04  0.00000000000E+00 0.  1.
<mgrwt>
<rscale>  0 0.23122754E+04</rscale>
<asrwt>0</asrwt>
<pdfrwt beam="1">  1        2 0.31539014E+00 0.23122754E+04</pdfrwt>
<pdfrwt beam="2">  1       -1 0.10031002E+00 0.23122754E+04</pdfrwt>
<totfact> 0.61114948E+00</totfact>
</mgrwt>
</event>
<event>
12    7  0.1660832E-007  0.1975367E+04  0.7818608E-02  0.8618225E-01
         -1   -1    0    0    0  501 -0.00000000000E+00  0.00000000000E+00  0.73339108727E+03  0.73339108727E+03  0.00000000000E+00 0.  1.
          2   -1    0    0  501    0  0.00000000000E+00 -0.00000000000E+00 -0.13301475856E+04  0.13301475856E+04  0.00000000000E+00 0. -1.
         24    2    1    2    0    0  0.28186623749E+03  0.33245993076E+03 -0.91988684303E+03  0.10235864093E+04  0.10751349692E+03 0.  0.
        254    2    1    2    0    0 -0.28186623749E+03 -0.33245993076E+03  0.32313034467E+03  0.10399522636E+04  0.88719181096E+03 0.  0.
         23    2    4    4    0    0  0.16582105066E+03 -0.45506726626E+03  0.27539350715E+03  0.56453214252E+03  0.90951187402E+02 0.  0.
         23    2    4    4    0    0 -0.44768728816E+03  0.12260733551E+03  0.47736837523E+02  0.47542012104E+03  0.91044050525E+02 0.  0.
          2    1    3    3  502    0  0.23626850797E+03  0.27966893486E+03 -0.84679015794E+03  0.92254598399E+03  0.00000000000E+00 0. -1.
         -1    1    3    3    0  502  0.45597729523E+02  0.52790995899E+02 -0.73096685087E+02  0.10104042536E+03  0.00000000000E+00 0.  1.
         13    1    5    5    0    0  0.87190843454E+02 -0.33330224947E+03  0.16309043348E+03  0.38117072576E+03  0.00000000000E+00 0.  1.
        -13    1    5    5    0    0  0.78630207208E+02 -0.12176501679E+03  0.11230307366E+03  0.18336141675E+03  0.00000000000E+00 0. -1.
          4    1    6    6  503    0 -0.19159018487E+03  0.97249931306E+02  0.78865912905E+01  0.21500359625E+03  0.00000000000E+00 0.  1.
         -4    1    6    6    0  503 -0.25609710329E+03  0.25357404199E+02  0.39850246233E+02  0.26041652479E+03  0.00000000000E+00 0. -1.
<mgrwt>
<rscale>  0 0.19753667E+04</rscale>
<asrwt>0</asrwt>
<pdfrwt beam="1">  1        2 0.20463809E+00 0.19753667E+04</pdfrwt>
<pdfrwt beam="2">  1       -1 0.11282940E+00 0.19753667E+04</pdfrwt>
<totfact> 0.12104158E+01</totfact>
</mgrwt>
</event>
<event>
12    7  0.1660832E-007  0.1887087E+04  0.7818608E-02  0.8661311E-01
         -1   -1    0    0    0  501 -0.00000000000E+00  0.00000000000E+00  0.57391565458E+03  0.57391565458E+03  0.00000000000E+00 0.  1.
          2   -1    0    0  501    0  0.00000000000E+00 -0.00000000000E+00 -0.15512289926E+04  0.15512289926E+04  0.00000000000E+00 0. -1.
         24    2    1    2    0    0  0.35012375898E+03  0.42938957367E+03  0.19728396671E+03  0.59362731597E+03  0.80686889649E+02 0.  0.
        254    2    1    2    0    0 -0.35012375898E+03 -0.42938957367E+03 -0.11745973047E+04  0.15315173312E+04  0.81172929903E+03 0.  0.
         23    2    4    4    0    0  0.22653480584E+03 -0.65202731045E+02 -0.53034173919E+03  0.58828578646E+03  0.96168559493E+02 0.  0.
         23    2    4    4    0    0 -0.57665856482E+03 -0.36418684263E+03 -0.64425556551E+03  0.94323154471E+03  0.97228373023E+02 0.  0.
          2    1    3    3  502    0  0.39528819629E+02  0.25682795956E+02  0.36091781136E+02  0.59369607166E+02  0.00000000000E+00 0. -1.
         -1    1    3    3    0  502  0.31059493935E+03  0.40370677772E+03  0.16119218558E+03  0.53425770880E+03  0.00000000000E+00 0.  1.
         13    1    5    5    0    0  0.68597822807E+02 -0.65689086323E+02 -0.16735666527E+03  0.19242913181E+03  0.00000000000E+00 0.  1.
        -13    1    5    5    0    0  0.15793698303E+03  0.48635527770E+00 -0.36298507391E+03  0.39585665465E+03  0.00000000000E+00 0. -1.
          1    1    6    6  503    0 -0.73090596703E+02 -0.81010898831E+02 -0.13057959656E+03  0.17016472047E+03  0.00000000000E+00 0. -1.
         -1    1    6    6    0  503 -0.50356796812E+03 -0.28317594380E+03 -0.51367596895E+03  0.77306682424E+03  0.00000000000E+00 0.  1.
<mgrwt>
<rscale>  0 0.18870873E+04</rscale>
<asrwt>0</asrwt>
<pdfrwt beam="1">  1        2 0.23865061E+00 0.18870873E+04</pdfrwt>
<pdfrwt beam="2">  1       -1 0.88294718E-01 0.18870873E+04</pdfrwt>
<totfact> 0.15984369E+01</totfact>
</mgrwt>
</event>
<event>
12    7  0.1660832E-007  0.1625966E+04  0.7818608E-02  0.8804753E-01
         -1   -1    0    0    0  501 -0.00000000000E+00  0.00000000000E+00  0.59290771869E+03  0.59290771869E+03  0.00000000000E+00 0.  1.
          2   -1    0    0  501    0  0.00000000000E+00 -0.00000000000E+00 -0.11147457555E+04  0.11147457555E+04  0.00000000000E+00 0. -1.
         24    2    1    2    0    0 -0.47919603150E+03  0.66976289028E+01 -0.50387867694E+03  0.70028465492E+03  0.82650964980E+02 0.  0.
        254    2    1    2    0    0  0.47919603150E+03 -0.66976289028E+01 -0.17959359877E+02  0.10073688193E+04  0.88588695926E+03 0.  0.
         23    2    4    4    0    0 -0.19313579220E+03 -0.97496071996E+02  0.17729580266E+03  0.29546596937E+03  0.95180980949E+02 0.  0.
         23    2    4    4    0    0  0.67233182370E+03  0.90798443093E+02 -0.19525516254E+03  0.71190284989E+03  0.91687789595E+02 0.  0.
          4    1    3    3  502    0 -0.17354008208E+02 -0.15359994672E+02 -0.33254992382E+02  0.40533758222E+02  0.00000000000E+00 0. -1.
         -3    1    3    3    0  502 -0.46184202329E+03  0.22057623575E+02 -0.47062368455E+03  0.65975089670E+03  0.00000000000E+00 0.  1.
         13    1    5    5    0    0 -0.18718564736E+02 -0.22205242196E+02 -0.79642598854E+01  0.30114562628E+02  0.00000000000E+00 0.  1.
        -13    1    5    5    0    0 -0.17441722747E+03 -0.75290829800E+02  0.18526006254E+03  0.26535140675E+03  0.00000000000E+00 0. -1.
          3    1    6    6  503    0  0.44557058659E+03  0.84143118216E+02 -0.16731614201E+03  0.48333001495E+03  0.00000000000E+00 0. -1.
         -3    1    6    6    0  503  0.22676123711E+03  0.66553248771E+01 -0.27939020529E+02  0.22857283494E+03  0.00000000000E+00 0.  1.
<mgrwt>
<rscale>  0 0.16259660E+04</rscale>
<asrwt>0</asrwt>
<pdfrwt beam="1">  1        2 0.17149935E+00 0.16259660E+04</pdfrwt>
<pdfrwt beam="2">  1       -1 0.91216573E-01 0.16259660E+04</pdfrwt>
<totfact> 0.27310440E+01</totfact>
</mgrwt>
</event>
<event>
12    7  0.1660832E-007  0.2307248E+04  0.7818608E-02  0.8475069E-01
         -1   -1    0    0    0  501 -0.00000000000E+00  0.00000000000E+00  0.20185616010E+04  0.20185616010E+04  0.00000000000E+00 0.  1.
          2   -1    0    0  501    0  0.00000000000E+00 -0.00000000000E+00 -0.65930541312E+03  0.65930541312E+03  0.00000000000E+00 0. -1.
         24    2    1    2    0    0  0.30672594978E+03  0.60208212138E+03 -0.23723369252E+03  0.72053576985E+03  0.79424691471E+02 0.  0.
        254    2    1    2    0    0 -0.30672594978E+03 -0.60208212138E+03  0.15964898804E+04  0.19573312442E+04  0.90872546589E+03 0.  0.
         23    2    4    4    0    0  0.82082405794E+02  0.18063766311E+03  0.14810066112E+03  0.26314334907E+03  0.89124237230E+02 0.  0.
         23    2    4    4    0    0 -0.38880835557E+03 -0.78271978449E+03  0.14483892193E+04  0.16941878952E+04  0.92839082705E+02 0.  0.
          4    1    3    3  502    0  0.29442579883E+03  0.55630878151E+03 -0.20053217283E+03  0.66059001184E+03  0.00000000000E+00 0. -1.
         -3    1    3    3    0  502  0.12300150948E+02  0.45773339874E+02 -0.36701519686E+02  0.59945758014E+02  0.00000000000E+00 0.  1.
         13    1    5    5    0    0  0.55587821265E+01  0.29866693924E+02 -0.96759739368E+01  0.31883286159E+02  0.00000000000E+00 0. -1.
        -13    1    5    5    0    0  0.76523623668E+02  0.15077096918E+03  0.15777663506E+03  0.23126006291E+03  0.00000000000E+00 0.  1.
          3    1    6    6  503    0 -0.55916295247E+02 -0.15831810786E+03  0.33983516934E+03  0.37905038935E+03  0.00000000000E+00 0. -1.
         -3    1    6    6    0  503 -0.33289206032E+03 -0.62440167662E+03  0.11085540499E+04  0.13151375058E+04  0.00000000000E+00 0.  1.
<mgrwt>
<rscale>  0 0.23072482E+04</rscale>
<asrwt>0</asrwt>
<pdfrwt beam="1">  1        2 0.10143160E+00 0.23072482E+04</pdfrwt>
<pdfrwt beam="2">  1       -1 0.31054793E+00 0.23072482E+04</pdfrwt>
<totfact> 0.12887597E+00</totfact>
</mgrwt>
</event>
<event>
12    7  0.1660832E-007  0.1267380E+04  0.7818608E-02  0.9055840E-01
         -1   -1    0    0    0  501 -0.00000000000E+00  0.00000000000E+00  0.19367625602E+03  0.19367625602E+03  0.00000000000E+00 0.  1.
          2   -1    0    0  501    0  0.00000000000E+00 -0.00000000000E+00 -0.20733736401E+04  0.20733736401E+04  0.00000000000E+00 0. -1.
         24    2    1    2    0    0 -0.28597493319E+03 -0.53176689300E+02 -0.32081341231E+03  0.44123389313E+03  0.84597164394E+02 0.  0.
        254    2    1    2    0    0  0.28597493319E+03  0.53176689300E+02 -0.15588839717E+04  0.18258160029E+04  0.90491735347E+03 0.  0.
         23    2    4    4    0    0 -0.41498792355E+02  0.23018245475E+03 -0.13801273092E+04  0.14029280597E+04  0.93539505017E+02 0.  0.
         23    2    4    4    0    0  0.32747372555E+03 -0.17700576545E+03 -0.17875666255E+03  0.42288794322E+03  0.91160222599E+02 0.  0.
          4    1    3    3  502    0 -0.26286424089E+02  0.20094982992E+02 -0.36387755566E+02  0.49181837989E+02  0.00000000000E+00 0. -1.
         -3    1    3    3    0  502 -0.25968850911E+03 -0.73271672292E+02 -0.28442565675E+03  0.39205205514E+03  0.00000000000E+00 0.  1.
         13    1    5    5    0    0 -0.38466025689E+02  0.11855485775E+03 -0.48072761632E+03  0.49662252317E+03  0.00000000000E+00 0.  1.
        -13    1    5    5    0    0 -0.30327666660E+01  0.11162759700E+03 -0.89939969286E+03  0.90630553656E+03  0.00000000000E+00 0. -1.
          4    1    6    6  503    0  0.28435636470E+02 -0.39190051425E+02 -0.40756854525E+00  0.48421190240E+02  0.00000000000E+00 0.  1.
         -4    1    6    6    0  503  0.29903808908E+03 -0.13781571402E+03 -0.17834909400E+03  0.37446675297E+03  0.00000000000E+00 0. -1.
<mgrwt>
<rscale>  0 0.12673804E+04</rscale>
<asrwt>0</asrwt>
<pdfrwt beam="1">  1        2 0.31898054E+00 0.12673804E+04</pdfrwt>
<pdfrwt beam="2">  1       -1 0.29796349E-01 0.12673804E+04</pdfrwt>
<totfact> 0.70366857E+01</totfact>
</mgrwt>
</event>
<event>
12    7  0.1660832E-007  0.1978503E+04  0.7818608E-02  0.8616737E-01
          2   -1    0    0  501    0  0.00000000000E+00  0.00000000000E+00  0.19716783494E+04  0.19716783494E+04  0.00000000000E+00 0. -1.
         -1   -1    0    0    0  501 -0.00000000000E+00 -0.00000000000E+00 -0.49633804905E+03  0.49633804905E+03  0.00000000000E+00 0.  1.
         24    2    1    2    0    0 -0.38225882559E+03  0.47777449737E+03 -0.24393307658E+02  0.61766496278E+03  0.80775569969E+02 0.  0.
        254    2    1    2    0    0  0.38225882559E+03 -0.47777449737E+03  0.14997336081E+04  0.18503514357E+04  0.89454416350E+03 0.  0.
         23    2    4    4    0    0  0.56072955577E+03 -0.50966288427E+03  0.14556131704E+04  0.16433755035E+04  0.87746530399E+02 0.  0.
         23    2    4    4    0    0 -0.17847073019E+03  0.31888386897E+02  0.44120437699E+02  0.20697593218E+03  0.89575402462E+02 0.  0.
          4    1    3    3  502    0  0.31825277161E+01  0.86738088030E+01 -0.43011909620E+01  0.10191353468E+02  0.00000000000E+00 0. -1.
         -3    1    3    3    0  502 -0.38544135330E+03  0.46910068857E+03 -0.20092116696E+02  0.60747360931E+03  0.00000000000E+00 0.  1.
         13    1    5    5    0    0  0.19880867496E+03 -0.12605294037E+03  0.44513864847E+03  0.50355004655E+03  0.00000000000E+00 0. -1.
        -13    1    5    5    0    0  0.36192088081E+03 -0.38360994390E+03  0.10104745219E+04  0.11398254570E+04  0.00000000000E+00 0.  1.
          4    1    6    6  503    0 -0.20436422993E+02 -0.25316993260E+02  0.17075103391E+02  0.36744478338E+02  0.00000000000E+00 0. -1.
         -4    1    6    6    0  503 -0.15803430719E+03  0.57205380157E+02  0.27045334308E+02  0.17023145384E+03  0.00000000000E+00 0.  1.
<mgrwt>
<rscale>  0 0.19785035E+04</rscale>
<asrwt>0</asrwt>
<pdfrwt beam="1">  1        2 0.30333513E+00 0.19785035E+04</pdfrwt>
<pdfrwt beam="2">  1       -1 0.76359701E-01 0.19785035E+04</pdfrwt>
<totfact> 0.12639258E+01</totfact>
</mgrwt>
</event>
<event>
12    7  0.1660832E-007  0.1152230E+04  0.7818608E-02  0.9155728E-01
         -1   -1    0    0    0  501 -0.00000000000E+00  0.00000000000E+00  0.82672028391E+03  0.82672028391E+03  0.00000000000E+00 0.  1.
          2   -1    0    0  501    0  0.00000000000E+00 -0.00000000000E+00 -0.40147651689E+03  0.40147651689E+03  0.00000000000E+00 0. -1.
         24    2    1    2    0    0 -0.16578513951E+03 -0.16205727216E+03  0.10490380574E+03  0.27017377076E+03  0.90784282804E+02 0.  0.
        254    2    1    2    0    0  0.16578513951E+03  0.16205727216E+03  0.32033996128E+03  0.95802303004E+03  0.87260710710E+03 0.  0.
         23    2    4    4    0    0 -0.21499047757E+03 -0.22217518660E+03 -0.16831622094E+01  0.32206154201E+03  0.90211334184E+02 0.  0.
         23    2    4    4    0    0  0.38077561708E+03  0.38423245876E+03  0.32202312349E+03  0.63596148803E+03  0.90130290530E+02 0.  0.
          2    1    3    3  502    0 -0.43339361348E+01 -0.90623356343E+01 -0.14564569384E+02  0.17692812409E+02  0.00000000000E+00 0. -1.
         -3    1    3    3    0  502 -0.16145120338E+03 -0.15299493652E+03  0.11946837513E+03  0.25248095835E+03  0.00000000000E+00 0.  1.
         13    1    5    5    0    0 -0.19071904071E+03 -0.17368557173E+03  0.29293637758E+02  0.25961230235E+03  0.00000000000E+00 0. -1.
        -13    1    5    5    0    0 -0.24271436863E+02 -0.48489614871E+02 -0.30976799967E+02  0.62449239658E+02  0.00000000000E+00 0.  1.
          2    1    6    6  503    0  0.17823516927E+03  0.12091740955E+03  0.10974428463E+03  0.24172836720E+03  0.00000000000E+00 0.  1.
         -2    1    6    6    0  503  0.20254044781E+03  0.26331504921E+03  0.21227883886E+03  0.39423312084E+03  0.00000000000E+00 0. -1.
<mgrwt>
<rscale>  0 0.11522305E+04</rscale>
<asrwt>0</asrwt>
<pdfrwt beam="1">  1        2 0.61765618E-01 0.11522305E+04</pdfrwt>
<pdfrwt beam="2">  1       -1 0.12718774E+00 0.11522305E+04</pdfrwt>
<totfact> 0.48086347E+01</totfact>
</mgrwt>
</event>
<event>
12    7  0.1660832E-007  0.1218040E+04  0.7818608E-02  0.9097211E-01
         -1   -1    0    0    0  501 -0.00000000000E+00  0.00000000000E+00  0.27175279647E+03  0.27175279647E+03  0.00000000000E+00 0.  1.
          2   -1    0    0  501    0  0.00000000000E+00 -0.00000000000E+00 -0.13648636800E+04  0.13648636800E+04  0.00000000000E+00 0. -1.
         24    2    1    2    0    0 -0.15066563403E+02  0.22635070982E+03 -0.44936309862E+03  0.50930626143E+03  0.77485665520E+02 0.  0.
        254    2    1    2    0    0  0.15066563403E+02 -0.22635070982E+03 -0.64374778491E+03  0.11273102150E+04  0.89719310363E+03 0.  0.
         23    2    4    4    0    0 -0.13816661618E+02  0.25695102088E+03 -0.56159866154E+03  0.62591655396E+03  0.10081541849E+03 0.  0.
         23    2    4    4    0    0  0.28883225021E+02 -0.48330173070E+03 -0.82149123372E+02  0.50139366109E+03  0.10115493722E+03 0.  0.
          2    1    3    3  502    0  0.88637930100E+01  0.20573371163E+03 -0.36290526714E+03  0.41725910397E+03  0.00000000000E+00 0. -1.
         -1    1    3    3    0  502 -0.23930356413E+02  0.20616998194E+02 -0.86457831480E+02  0.92047157462E+02  0.00000000000E+00 0.  1.
         13    1    5    5    0    0  0.11297406345E+02  0.31401660365E+02 -0.20530648579E+02  0.39181669118E+02  0.00000000000E+00 0. -1.
        -13    1    5    5    0    0 -0.25114067963E+02  0.22554936052E+03 -0.54106801296E+03  0.58673488484E+03  0.00000000000E+00 0.  1.
          3    1    6    6  503    0 -0.27236528556E+02 -0.26175683532E+03 -0.71001507299E+02  0.27257968260E+03  0.00000000000E+00 0. -1.
         -3    1    6    6    0  503  0.56119753577E+02 -0.22154489538E+03 -0.11147616073E+02  0.22881397849E+03  0.00000000000E+00 0.  1.
<mgrwt>
<rscale>  0 0.12180403E+04</rscale>
<asrwt>0</asrwt>
<pdfrwt beam="1">  1        2 0.20997903E+00 0.12180403E+04</pdfrwt>
<pdfrwt beam="2">  1       -1 0.41808123E-01 0.12180403E+04</pdfrwt>
<totfact> 0.95561294E+01</totfact>
</mgrwt>
</event>
<event>
12    7  0.1660832E-007  0.1564410E+04  0.7818608E-02  0.8842715E-01
          2   -1    0    0  501    0  0.00000000000E+00  0.00000000000E+00  0.85098263748E+03  0.85098263748E+03  0.00000000000E+00 0. -1.
         -3   -1    0    0    0  501 -0.00000000000E+00 -0.00000000000E+00 -0.71898649398E+03  0.71898649398E+03  0.00000000000E+00 0.  1.
         24    2    1    2    0    0  0.39085315377E+01 -0.14400284356E+03  0.54506473492E+03  0.56854929485E+03  0.73489045772E+02 0.  0.
        254    2    1    2    0    0 -0.39085315377E+01  0.14400284356E+03 -0.41306859142E+03  0.10014198366E+04  0.90081292862E+03 0.  0.
         23    2    4    4    0    0 -0.14022662777E+03 -0.30367462436E+03 -0.39363956905E+03  0.52441679982E+03  0.90438293827E+02 0.  0.
         23    2    4    4    0    0  0.13631809623E+03  0.44767746792E+03 -0.19429022364E+02  0.47700303680E+03  0.90314293232E+02 0.  0.
          2    1    3    3  502    0  0.45316857256E+01 -0.14004170520E+03  0.54658701555E+03  0.56426020677E+03  0.00000000000E+00 0. -1.
         -1    1    3    3    0  502 -0.62315418791E+00 -0.39611383583E+01 -0.15222806336E+01  0.42890880805E+01  0.00000000000E+00 0.  1.
         13    1    5    5    0    0 -0.10323115750E+03 -0.23236656495E+03 -0.23330477637E+03  0.34508261484E+03  0.00000000000E+00 0.  1.
        -13    1    5    5    0    0 -0.36995470271E+02 -0.71308059404E+02 -0.16033479269E+03  0.17933418498E+03  0.00000000000E+00 0. -1.
          4    1    6    6  503    0  0.55711546449E+02  0.19007402291E+03  0.36353444998E+02  0.20137895510E+03  0.00000000000E+00 0. -1.
         -4    1    6    6    0  503  0.80606549783E+02  0.25760344501E+03 -0.55782467362E+02  0.27562408170E+03  0.00000000000E+00 0.  1.
<mgrwt>
<rscale>  0 0.15644105E+04</rscale>
<asrwt>0</asrwt>
<pdfrwt beam="1">  1        2 0.13092041E+00 0.15644105E+04</pdfrwt>
<pdfrwt beam="2">  1       -3 0.11061331E+00 0.15644105E+04</pdfrwt>
<totfact> 0.13258386E+01</totfact>
</mgrwt>
</event>
<event>
12    7  0.1660832E-007  0.2307955E+04  0.7818608E-02  0.8474791E-01
          2   -1    0    0  501    0  0.00000000000E+00  0.00000000000E+00  0.13614288569E+04  0.13614288569E+04  0.00000000000E+00 0. -1.
         -1   -1    0    0    0  501 -0.00000000000E+00 -0.00000000000E+00 -0.97813675773E+03  0.97813675773E+03  0.00000000000E+00 0.  1.
         24    2    1    2    0    0  0.43396698683E+03  0.46335174087E+02  0.10408953689E+04  0.11316399518E+04  0.81679356949E+02 0.  0.
        254    2    1    2    0    0 -0.43396698683E+03 -0.46335174087E+02 -0.65760326976E+03  0.12079256629E+04  0.91442225072E+03 0.  0.
         23    2    4    4    0    0  0.14114343545E+03 -0.29993704977E+03 -0.88148246945E+02  0.35488460075E+03  0.91045390934E+02 0.  0.
         23    2    4    4    0    0 -0.57511042228E+03  0.25360187569E+03 -0.56945502281E+03  0.85304106213E+03  0.91291409767E+02 0.  0.
          4    1    3    3  502    0  0.37097483456E+03  0.64449088190E+02  0.92104162822E+03  0.99503451888E+03  0.00000000000E+00 0. -1.
         -3    1    3    3    0  502  0.62992152266E+02 -0.18113914103E+02  0.11985374072E+03  0.13660543289E+03  0.00000000000E+00 0.  1.
         13    1    5    5    0    0  0.41613083132E+01 -0.92872097163E+02 -0.43454247556E+02  0.10261975711E+03  0.00000000000E+00 0. -1.
        -13    1    5    5    0    0  0.13698212714E+03 -0.20706495261E+03 -0.44693999389E+02  0.25226484364E+03  0.00000000000E+00 0.  1.
          2    1    6    6  503    0 -0.26655123759E+03  0.16624772674E+03 -0.29502474098E+03  0.43096109650E+03  0.00000000000E+00 0. -1.
         -2    1    6    6    0  503 -0.30855918469E+03  0.87354148948E+02 -0.27443028184E+03  0.42207996563E+03  0.00000000000E+00 0.  1.
<mgrwt>
<rscale>  0 0.23079546E+04</rscale>
<asrwt>0</asrwt>
<pdfrwt beam="1">  1        2 0.20945059E+00 0.23079546E+04</pdfrwt>
<pdfrwt beam="2">  1       -1 0.15048258E+00 0.23079546E+04</pdfrwt>
<totfact> 0.54383737E+00</totfact>
</mgrwt>
</event>
<event>
12    7  0.1660832E-007  0.1602567E+04  0.7818608E-02  0.8818973E-01
          2   -1    0    0  501    0  0.00000000000E+00  0.00000000000E+00  0.58644015989E+03  0.58644015989E+03  0.00000000000E+00 0. -1.
         -1   -1    0    0    0  501 -0.00000000000E+00 -0.00000000000E+00 -0.10948349483E+04  0.10948349483E+04  0.00000000000E+00 0.  1.
         24    2    1    2    0    0 -0.98958071344E+02 -0.27384563276E+03 -0.64714265863E+03  0.71410276609E+03  0.79781009344E+02 0.  0.
        254    2    1    2    0    0  0.98958071344E+02  0.27384563276E+03  0.13874787020E+03  0.96717234213E+03  0.91180438551E+03 0.  0.
         23    2    4    4    0    0 -0.26231692574E+03  0.42309693601E+03 -0.75241434174E+02  0.51112024986E+03  0.88099089759E+02 0.  0.
         23    2    4    4    0    0  0.36127499708E+03 -0.14925130325E+03  0.21398930437E+03  0.45605209227E+03  0.96935614904E+02 0.  0.
          4    1    3    3  502    0 -0.34880477003E+01 -0.27097750236E+02 -0.21330405139E+02  0.34661805031E+02  0.00000000000E+00 0. -1.
         -3    1    3    3    0  502 -0.95470023644E+02 -0.24674788252E+03 -0.62581225349E+03  0.67944096106E+03  0.00000000000E+00 0.  1.
         13    1    5    5    0    0 -0.22171649728E+03  0.39406273585E+03 -0.49204901996E+02  0.45482388606E+03  0.00000000000E+00 0. -1.
        -13    1    5    5    0    0 -0.40600428452E+02  0.29034200161E+02 -0.26036532178E+02  0.56296363803E+02  0.00000000000E+00 0.  1.
          4    1    6    6  503    0  0.13696403484E+02  0.12999532302E+02  0.13669742351E+02  0.23311824562E+02  0.00000000000E+00 0.  1.
         -4    1    6    6    0  503  0.34757859360E+03 -0.16225083555E+03  0.20031956202E+03  0.43274026770E+03  0.00000000000E+00 0. -1.
<mgrwt>
<rscale>  0 0.16025669E+04</rscale>
<asrwt>0</asrwt>
<pdfrwt beam="1">  1        2 0.90221563E-01 0.16025669E+04</pdfrwt>
<pdfrwt beam="2">  1       -1 0.16843615E+00 0.16025669E+04</pdfrwt>
<totfact> 0.14112588E+01</totfact>
</mgrwt>
</event>
<event>
12    7  0.1660832E-007  0.2450423E+04  0.7818608E-02  0.8420863E-01
          4   -1    0    0  501    0  0.00000000000E+00  0.00000000000E+00  0.15674280535E+04  0.15674280535E+04  0.00000000000E+00 0. -1.
         -1   -1    0    0    0  501 -0.00000000000E+00 -0.00000000000E+00 -0.95771146416E+03  0.95771146416E+03  0.00000000000E+00 0.  1.
         24    2    1    2    0    0 -0.10175812195E+04  0.10773305015E+03  0.48857770604E+03  0.11374929451E+04  0.90022646472E+02 0.  0.
        254    2    1    2    0    0  0.10175812195E+04 -0.10773305015E+03  0.12113888326E+03  0.13876465725E+04  0.92941402663E+03 0.  0.
         23    2    4    4    0    0  0.10125479946E+03  0.30335031792E+03  0.17918797340E+03  0.37750885310E+03  0.90170142285E+02 0.  0.
         23    2    4    4    0    0  0.91632642004E+03 -0.41108336807E+03 -0.58049090133E+02  0.10101377194E+04  0.91459673258E+02 0.  0.
          4    1    3    3  502    0 -0.57436246935E+02  0.16037174763E+02  0.50547123920E+02  0.78173685937E+02  0.00000000000E+00 0. -1.
         -3    1    3    3    0  502 -0.96014497256E+03  0.91695875386E+02  0.43803058212E+03  0.10593192591E+04  0.00000000000E+00 0.  1.
         13    1    5    5    0    0 -0.44992205438E+01  0.33768073732E+02 -0.48249126591E+01  0.34406475717E+02  0.00000000000E+00 0.  1.
        -13    1    5    5    0    0  0.10575402001E+03  0.26958224419E+03  0.18401288606E+03  0.34310237738E+03  0.00000000000E+00 0. -1.
          4    1    6    6  503    0  0.83896403854E+03 -0.36498855662E+03 -0.76854137091E+02  0.91814152657E+03  0.00000000000E+00 0. -1.
         -4    1    6    6    0  503  0.77362381498E+02 -0.46094811444E+02  0.18805046958E+02  0.91996192879E+02  0.00000000000E+00 0.  1.
<mgrwt>
<rscale>  0 0.24504235E+04</rscale>
<asrwt>0</asrwt>
<pdfrwt beam="1">  1        4 0.24114278E+00 0.24504235E+04</pdfrwt>
<pdfrwt beam="2">  1       -1 0.14734023E+00 0.24504235E+04</pdfrwt>
<totfact> 0.96134364E-02</totfact>
</mgrwt>
</event>
<event>
12    7  0.1660832E-007  0.1503662E+04  0.7818608E-02  0.8882021E-01
         -1   -1    0    0    0  501 -0.00000000000E+00  0.00000000000E+00  0.74692511102E+03  0.74692511102E+03  0.00000000000E+00 0.  1.
          2   -1    0    0  501    0  0.00000000000E+00 -0.00000000000E+00 -0.75676894106E+03  0.75676894106E+03  0.00000000000E+00 0. -1.
         24    2    1    2    0    0 -0.96876368604E+02 -0.34640269073E+02  0.46274177285E+03  0.48109492963E+03  0.82081690660E+02 0.  0.
        254    2    1    2    0    0  0.96876368604E+02  0.34640269073E+02 -0.47258560289E+03  0.10225991225E+04  0.90099213879E+03 0.  0.
         23    2    4    4    0    0  0.49218393396E+03  0.37733921793E+02 -0.26230954973E+03  0.56623621838E+03  0.90267831625E+02 0.  0.
         23    2    4    4    0    0 -0.39530756535E+03 -0.30936527204E+01 -0.21027605316E+03  0.45636290408E+03  0.88167112775E+02 0.  0.
          2    1    3    3  502    0  0.43504540411E+01 -0.29919556321E+02  0.10121408616E+03  0.10563331642E+03  0.00000000000E+00 0. -1.
         -1    1    3    3    0  502 -0.10122682264E+03 -0.47207127519E+01  0.36152768668E+03  0.37546161320E+03  0.00000000000E+00 0.  1.
         13    1    5    5    0    0 -0.29331043509E+01  0.46781526942E+01 -0.39346499896E+01  0.67800947121E+01  0.00000000000E+00 0.  1.
        -13    1    5    5    0    0  0.49511703831E+03  0.33055769099E+02 -0.25837489974E+03  0.55945612367E+03  0.00000000000E+00 0. -1.
          4    1    6    6  503    0 -0.35681841115E+03  0.14177874976E+02 -0.20980790321E+03  0.41417357101E+03  0.00000000000E+00 0. -1.
         -4    1    6    6    0  503 -0.38489154207E+02 -0.17271527696E+02 -0.46814994497E+00  0.42189333070E+02  0.00000000000E+00 0.  1.
<mgrwt>
<rscale>  0 0.15036618E+04</rscale>
<asrwt>0</asrwt>
<pdfrwt beam="1">  1        2 0.11642599E+00 0.15036618E+04</pdfrwt>
<pdfrwt beam="2">  1       -1 0.11491156E+00 0.15036618E+04</pdfrwt>
<totfact> 0.28122007E+01</totfact>
</mgrwt>
</event>
<event>
12    7  0.1660832E-007  0.1367634E+04  0.7818608E-02  0.8977585E-01
         -1   -1    0    0    0  501 -0.00000000000E+00  0.00000000000E+00  0.62458315488E+03  0.62458315488E+03  0.00000000000E+00 0.  1.
          2   -1    0    0  501    0  0.00000000000E+00 -0.00000000000E+00 -0.74866883075E+03  0.74866883075E+03  0.00000000000E+00 0. -1.
         24    2    1    2    0    0  0.18837566969E+03 -0.26618947778E+03  0.17004745753E+03  0.37620244642E+03  0.79182775049E+02 0.  0.
        254    2    1    2    0    0 -0.18837566969E+03  0.26618947778E+03 -0.29413313341E+03  0.99704953921E+03  0.89512638910E+03 0.  0.
         23    2    4    4    0    0 -0.44338814867E+03  0.41704775595E+03 -0.81767956560E+02  0.62079196062E+03  0.90414481849E+02 0.  0.
         23    2    4    4    0    0  0.25501247897E+03 -0.15085827818E+03 -0.21236517685E+03  0.37625757859E+03  0.93173024966E+02 0.  0.
          4    1    3    3  502    0  0.24400931041E+02 -0.45192334870E+02 -0.24565513078E+01  0.51417771353E+02  0.00000000000E+00 0. -1.
         -3    1    3    3    0  502  0.16397473865E+03 -0.22099714291E+03  0.17250400884E+03  0.32478467506E+03  0.00000000000E+00 0.  1.
         13    1    5    5    0    0 -0.59222066184E+02  0.31368729481E+02  0.12930018866E+02  0.68252734013E+02  0.00000000000E+00 0. -1.
        -13    1    5    5    0    0 -0.38416608248E+03  0.38567902647E+03 -0.94697975426E+02  0.55253922661E+03  0.00000000000E+00 0.  1.
          3    1    6    6  503    0  0.21059652584E+03 -0.14806477716E+03 -0.20905772520E+03  0.33163113153E+03  0.00000000000E+00 0. -1.
         -3    1    6    6    0  503  0.44415953138E+02 -0.27935010151E+01 -0.33074516440E+01  0.44626447062E+02  0.00000000000E+00 0.  1.
<mgrwt>
<rscale>  0 0.13676344E+04</rscale>
<asrwt>0</asrwt>
<pdfrwt beam="1">  1        2 0.11517982E+00 0.13676344E+04</pdfrwt>
<pdfrwt beam="2">  1       -1 0.96089716E-01 0.13676344E+04</pdfrwt>
<totfact> 0.43718683E+01</totfact>
</mgrwt>
</event>
<event>
12    7  0.1660832E-007  0.1707522E+04  0.7818608E-02  0.8757086E-01
          2   -1    0    0  501    0  0.00000000000E+00  0.00000000000E+00  0.44322295942E+03  0.44322295942E+03  0.00000000000E+00 0. -1.
         -1   -1    0    0    0  501 -0.00000000000E+00 -0.00000000000E+00 -0.16445617740E+04  0.16445617740E+04  0.00000000000E+00 0.  1.
         24    2    1    2    0    0  0.50911360507E+03  0.13620778378E+03 -0.84704175777E+03  0.10018365448E+04  0.91910282041E+02 0.  0.
        254    2    1    2    0    0 -0.50911360507E+03 -0.13620778378E+03 -0.35429705686E+03  0.10859481886E+04  0.88091307213E+03 0.  0.
         23    2    4    4    0    0 -0.36470878255E+03  0.28054409887E+03  0.61879656621E+02  0.47224920648E+03  0.86444974633E+02 0.  0.
         23    2    4    4    0    0 -0.14440482252E+03 -0.41675188265E+03 -0.41617671348E+03  0.61369898214E+03  0.94278838472E+02 0.  0.
          2    1    3    3  502    0  0.10794346471E+03  0.15665315794E+02 -0.11557112905E+03  0.15891469272E+03  0.00000000000E+00 0. -1.
         -1    1    3    3    0  502  0.40117014036E+03  0.12054246798E+03 -0.73147062872E+03  0.84292185212E+03  0.00000000000E+00 0.  1.
         13    1    5    5    0    0 -0.11657072444E+03  0.12983236457E+03  0.50743549334E+02  0.18171429356E+03  0.00000000000E+00 0.  1.
        -13    1    5    5    0    0 -0.24813805811E+03  0.15071173430E+03  0.11136107288E+02  0.29053491292E+03  0.00000000000E+00 0. -1.
          3    1    6    6  503    0 -0.48808218062E+02 -0.27749999840E+03 -0.24828661216E+03  0.37554591336E+03  0.00000000000E+00 0. -1.
         -3    1    6    6    0  503 -0.95596604457E+02 -0.13925188424E+03 -0.16789010132E+03  0.23815306878E+03  0.00000000000E+00 0.  1.
<mgrwt>
<rscale>  0 0.17075216E+04</rscale>
<asrwt>0</asrwt>
<pdfrwt beam="1">  1        2 0.68188147E-01 0.17075216E+04</pdfrwt>
<pdfrwt beam="2">  1       -1 0.25300951E+00 0.17075216E+04</pdfrwt>
<totfact> 0.51283628E+00</totfact>
</mgrwt>
</event>
<event>
12    7  0.1660832E-007  0.1100663E+04  0.7818608E-02  0.9204546E-01
          2   -1    0    0  501    0  0.00000000000E+00  0.00000000000E+00  0.24262497731E+03  0.24262497731E+03  0.00000000000E+00 0. -1.
         -1   -1    0    0    0  501 -0.00000000000E+00 -0.00000000000E+00 -0.12482826619E+04  0.12482826619E+04  0.00000000000E+00 0.  1.
         24    2    1    2    0    0  0.10843688968E+03  0.19666174113E+01 -0.21663770438E+01  0.13434576387E+03  0.79256952072E+02 0.  0.
        254    2    1    2    0    0 -0.10843688968E+03 -0.19666174113E+01 -0.10034913075E+04  0.13565618753E+04  0.90636796647E+03 0.  0.
         23    2    4    4    0    0  0.11013822260E+03 -0.24002771698E+03  0.19051617943E+02  0.28012540346E+03  0.91452416697E+02 0.  0.
         23    2    4    4    0    0 -0.21857511229E+03  0.23806109957E+03 -0.10225429255E+04  0.10764364718E+04  0.93130428307E+02 0.  0.
          4    1    3    3  502    0  0.16423229137E+02  0.20064816251E+02  0.25708790231E+02  0.36513849450E+02  0.00000000000E+00 0. -1.
         -3    1    3    3    0  502  0.92013660544E+02 -0.18098198840E+02 -0.27875167275E+02  0.97831914417E+02  0.00000000000E+00 0.  1.
         13    1    5    5    0    0  0.91611013083E+02 -0.22745428084E+03 -0.75857047904E+01  0.24532747606E+03  0.00000000000E+00 0.  1.
        -13    1    5    5    0    0  0.18527209522E+02 -0.12573436136E+02  0.26637322734E+02  0.34797927400E+02  0.00000000000E+00 0. -1.
          3    1    6    6  503    0 -0.89998782499E+02  0.10479217609E+03 -0.58935686295E+03  0.60532858261E+03  0.00000000000E+00 0. -1.
         -3    1    6    6    0  503 -0.12857632979E+03  0.13326892348E+03 -0.43318606251E+03  0.47110788923E+03  0.00000000000E+00 0.  1.
<mgrwt>
<rscale>  0 0.11006626E+04</rscale>
<asrwt>0</asrwt>
<pdfrwt beam="1">  1        2 0.37326919E-01 0.11006626E+04</pdfrwt>
<pdfrwt beam="2">  1       -1 0.19204349E+00 0.11006626E+04</pdfrwt>
<totfact> 0.27112233E+01</totfact>
</mgrwt>
</event>
<event>
12    7  0.1660832E-007  0.1139811E+04  0.7818608E-02  0.9167235E-01
         -1   -1    0    0    0  501 -0.00000000000E+00  0.00000000000E+00  0.17337037339E+03  0.17337037339E+03  0.00000000000E+00 0.  1.
          2   -1    0    0  501    0  0.00000000000E+00 -0.00000000000E+00 -0.18734028990E+04  0.18734028990E+04  0.00000000000E+00 0. -1.
         24    2    1    2    0    0 -0.90834058162E+01 -0.15527604322E+03 -0.18606780740E+03  0.26277703865E+03  0.10117996459E+03 0.  0.
        254    2    1    2    0    0  0.90834058162E+01  0.15527604322E+03 -0.15139647182E+04  0.17839962337E+04  0.93078474209E+03 0.  0.
         23    2    4    4    0    0  0.38756492931E+03  0.10655334927E+03 -0.30440992190E+03  0.51230254747E+03  0.90710026632E+02 0.  0.
         23    2    4    4    0    0 -0.37848152349E+03  0.48722693947E+02 -0.12095547963E+04  0.12716936862E+04  0.92519521464E+02 0.  0.
          4    1    3    3  502    0 -0.19814944807E+02 -0.12812767352E+03 -0.19325186828E+03  0.23271359512E+03  0.00000000000E+00 0. -1.
         -3    1    3    3    0  502  0.10731538991E+02 -0.27148369698E+02  0.71840608820E+01  0.30063443534E+02  0.00000000000E+00 0.  1.
         13    1    5    5    0    0  0.34060593953E+03  0.60042147356E+02 -0.25132917097E+03  0.42753224169E+03  0.00000000000E+00 0. -1.
        -13    1    5    5    0    0  0.46958989776E+02  0.46511201914E+02 -0.53080750929E+02  0.84770305788E+02  0.00000000000E+00 0.  1.
          2    1    6    6  503    0 -0.29934522329E+03  0.19230694369E+02 -0.82138762329E+03  0.87444554434E+03  0.00000000000E+00 0. -1.
         -2    1    6    6    0  503 -0.79136300199E+02  0.29491999579E+02 -0.38816717298E+03  0.39724814189E+03  0.00000000000E+00 0.  1.
<mgrwt>
<rscale>  0 0.11398115E+04</rscale>
<asrwt>0</asrwt>
<pdfrwt beam="1">  1        2 0.28821582E+00 0.11398115E+04</pdfrwt>
<pdfrwt beam="2">  1       -1 0.26672366E-01 0.11398115E+04</pdfrwt>
<totfact> 0.11114207E+02</totfact>
</mgrwt>
</event>
<event>
12    7  0.1660832E-007  0.2142069E+04  0.7818608E-02  0.8542935E-01
          2   -1    0    0  501    0  0.00000000000E+00  0.00000000000E+00  0.26124767950E+04  0.26124767950E+04  0.00000000000E+00 0. -1.
         -1   -1    0    0    0  501 -0.00000000000E+00 -0.00000000000E+00 -0.43909075273E+03  0.43909075273E+03  0.00000000000E+00 0.  1.
         24    2    1    2    0    0 -0.24762050644E+03 -0.71063723186E+03  0.23975175727E+03  0.79399263213E+03  0.81376927028E+02 0.  0.
        254    2    1    2    0    0  0.24762050644E+03  0.71063723186E+03  0.19336342850E+04  0.22575749156E+04  0.88959640337E+03 0.  0.
         23    2    4    4    0    0  0.39114936259E+03  0.69744915083E+03  0.19259647536E+04  0.20873852005E+04  0.91671159422E+02 0.  0.
         23    2    4    4    0    0 -0.14352885615E+03  0.13188081028E+02  0.76695313850E+01  0.17018971504E+03  0.90173495913E+02 0.  0.
          2    1    3    3  502    0 -0.58877354148E+02 -0.25779909700E+03  0.11094205836E+03  0.28676655586E+03  0.00000000000E+00 0. -1.
         -1    1    3    3    0  502 -0.18874315229E+03 -0.45283813486E+03  0.12880969892E+03  0.50722607627E+03  0.00000000000E+00 0.  1.
         13    1    5    5    0    0  0.22090369635E+02  0.37638652581E+02  0.60937189440E+02  0.74953276483E+02  0.00000000000E+00 0. -1.
        -13    1    5    5    0    0  0.36905899296E+03  0.65981049825E+03  0.18650275641E+04  0.20124319240E+04  0.00000000000E+00 0.  1.
          4    1    6    6  503    0 -0.52865650033E+02  0.19257770220E+02  0.44908434763E+02  0.71988930955E+02  0.00000000000E+00 0. -1.
         -4    1    6    6    0  503 -0.90663206119E+02 -0.60696891921E+01 -0.37238903378E+02  0.98200784088E+02  0.00000000000E+00 0.  1.
<mgrwt>
<rscale>  0 0.21420685E+04</rscale>
<asrwt>0</asrwt>
<pdfrwt beam="1">  1        2 0.40191950E+00 0.21420685E+04</pdfrwt>
<pdfrwt beam="2">  1       -1 0.67552425E-01 0.21420685E+04</pdfrwt>
<totfact> 0.69434120E+00</totfact>
</mgrwt>
</event>
<event>
12    7  0.1660832E-007  0.2211919E+04  0.7818608E-02  0.8513483E-01
         -1   -1    0    0    0  501 -0.00000000000E+00  0.00000000000E+00  0.14197183751E+04  0.14197183751E+04  0.00000000000E+00 0.  1.
          2   -1    0    0  501    0  0.00000000000E+00 -0.00000000000E+00 -0.86154160601E+03  0.86154160601E+03  0.00000000000E+00 0. -1.
         24    2    1    2    0    0  0.23217158779E+02 -0.30240927424E+03  0.11787152137E+04  0.12197710313E+04  0.80507193897E+02 0.  0.
        254    2    1    2    0    0 -0.23217158779E+02  0.30240927424E+03 -0.62053844464E+03  0.10614889498E+04  0.80603996400E+03 0.  0.
         23    2    4    4    0    0  0.28598234004E+03  0.41139701413E+03 -0.28729666687E+03  0.58500661015E+03  0.93058890309E+02 0.  0.
         23    2    4    4    0    0 -0.30919949882E+03 -0.10898773990E+03 -0.33324177777E+03  0.47648233961E+03  0.92209977695E+02 0.  0.
          4    1    3    3  502    0  0.11528247524E+02 -0.44494041702E+02  0.92447897336E+02  0.10324356619E+03  0.00000000000E+00 0. -1.
         -3    1    3    3    0  502  0.11688911255E+02 -0.25791523253E+03  0.10862673164E+04  0.11165274652E+04  0.00000000000E+00 0.  1.
         13    1    5    5    0    0  0.19042553553E+03  0.23151620676E+03 -0.12592948852E+03  0.32514592824E+03  0.00000000000E+00 0. -1.
        -13    1    5    5    0    0  0.95556804513E+02  0.17988080738E+03 -0.16136717835E+03  0.25986068191E+03  0.00000000000E+00 0.  1.
          1    1    6    6  503    0 -0.27260660891E+03 -0.77333024881E+02 -0.31759555609E+03  0.42563094014E+03  0.00000000000E+00 0. -1.
         -1    1    6    6    0  503 -0.36592889911E+02 -0.31654715018E+02 -0.15646221687E+02  0.50851399469E+02  0.00000000000E+00 0.  1.
<mgrwt>
<rscale>  0 0.22119190E+04</rscale>
<asrwt>0</asrwt>
<pdfrwt beam="1">  1        2 0.13254486E+00 0.22119190E+04</pdfrwt>
<pdfrwt beam="2">  1       -1 0.21841821E+00 0.22119190E+04</pdfrwt>
<totfact> 0.36599110E+00</totfact>
</mgrwt>
</event>
<event>
12    7  0.1660832E-007  0.1396944E+04  0.7818608E-02  0.8956034E-01
          2   -1    0    0  501    0  0.00000000000E+00  0.00000000000E+00  0.16731732603E+04  0.16731732603E+04  0.00000000000E+00 0. -1.
         -1   -1    0    0    0  501 -0.00000000000E+00 -0.00000000000E+00 -0.29157950262E+03  0.29157950262E+03  0.00000000000E+00 0.  1.
         24    2    1    2    0    0 -0.29474209634E+01 -0.70695749354E+02 -0.14531739633E+03  0.17991188464E+03  0.79022555588E+02 0.  0.
        254    2    1    2    0    0  0.29474209634E+01  0.70695749354E+02  0.15269111540E+04  0.17848408783E+04  0.92151652849E+03 0.  0.
         23    2    4    4    0    0  0.96374243186E+02  0.11341269660E+03 -0.65898545243E+02  0.18606381408E+03  0.90148156647E+02 0.  0.
         23    2    4    4    0    0 -0.93426822223E+02 -0.42716947241E+02  0.15928096992E+04  0.15987770642E+04  0.92152342889E+02 0.  0.
          2    1    3    3  502    0  0.18945803609E+02 -0.27624225506E+01 -0.82941415033E+02  0.85122575034E+02  0.00000000000E+00 0. -1.
         -1    1    3    3    0  502 -0.21893224572E+02 -0.67933326804E+02 -0.62375981292E+02  0.94789309602E+02  0.00000000000E+00 0.  1.
         13    1    5    5    0    0  0.10717544899E+03  0.89397690133E+02 -0.74700584732E+02  0.15829940375E+03  0.00000000000E+00 0.  1.
        -13    1    5    5    0    0 -0.10801205802E+02  0.24015006462E+02  0.88020394886E+01  0.27764410336E+02  0.00000000000E+00 0. -1.
          2    1    6    6  503    0  0.95317405192E+00  0.16569332661E+02  0.71974713378E+02  0.73863459785E+02  0.00000000000E+00 0. -1.
         -2    1    6    6    0  503 -0.94379996275E+02 -0.59286279903E+02  0.15208349859E+04  0.15249136044E+04  0.00000000000E+00 0.  1.
<mgrwt>
<rscale>  0 0.13969438E+04</rscale>
<asrwt>0</asrwt>
<pdfrwt beam="1">  1        2 0.25741126E+00 0.13969438E+04</pdfrwt>
<pdfrwt beam="2">  1       -1 0.44858386E-01 0.13969438E+04</pdfrwt>
<totfact> 0.55456271E+01</totfact>
</mgrwt>
</event>
<event>
12    7  0.1660832E-007  0.1080051E+04  0.7818608E-02  0.9224857E-01
         -1   -1    0    0    0  501 -0.00000000000E+00  0.00000000000E+00  0.24343659914E+03  0.24343659914E+03  0.00000000000E+00 0.  1.
          2   -1    0    0  501    0  0.00000000000E+00 -0.00000000000E+00 -0.11979610483E+04  0.11979610483E+04  0.00000000000E+00 0. -1.
         24    2    1    2    0    0 -0.23162784536E+02 -0.37478630496E+02  0.24289348825E+02  0.11693493908E+03  0.10555872858E+03 0.  0.
        254    2    1    2    0    0  0.23162784536E+02  0.37478630496E+02 -0.97881379802E+03  0.13244627084E+04  0.89116993463E+03 0.  0.
         23    2    4    4    0    0 -0.37755121344E+03  0.30795146298E+02 -0.18644035632E+03  0.43178886330E+03  0.90489536382E+02 0.  0.
         23    2    4    4    0    0  0.40071399798E+03  0.66834841982E+01 -0.79237344169E+03  0.89267384509E+03  0.91621752140E+02 0.  0.
          4    1    3    3  502    0  0.77525519260E+01  0.27395039577E+02 -0.17873193792E+02  0.33616087088E+02  0.00000000000E+00 0. -1.
         -3    1    3    3    0  502 -0.30915336462E+02 -0.64873670074E+02  0.42162542616E+02  0.83318851992E+02  0.00000000000E+00 0.  1.
         13    1    5    5    0    0 -0.81633645529E+02  0.38111957260E+02 -0.68389256293E+02  0.11310907897E+03  0.00000000000E+00 0.  1.
        -13    1    5    5    0    0 -0.29591756791E+03 -0.73168109622E+01 -0.11805110003E+03  0.31867978433E+03  0.00000000000E+00 0. -1.
          3    1    6    6  503    0  0.22333715411E+03  0.49166313506E+02 -0.43534248223E+03  0.49175185574E+03  0.00000000000E+00 0. -1.
         -3    1    6    6    0  503  0.17737684387E+03 -0.42482829308E+02 -0.35703095947E+03  0.40092198935E+03  0.00000000000E+00 0.  1.
<mgrwt>
<rscale>  0 0.10800510E+04</rscale>
<asrwt>0</asrwt>
<pdfrwt beam="1">  1        2 0.18430170E+00 0.10800510E+04</pdfrwt>
<pdfrwt beam="2">  1       -1 0.37451785E-01 0.10800510E+04</pdfrwt>
<totfact> 0.14765219E+02</totfact>
</mgrwt>
</event>
<event>
12    7  0.1660832E-007  0.2488947E+04  0.7818608E-02  0.8406934E-01
         -1   -1    0    0    0  501 -0.00000000000E+00  0.00000000000E+00  0.43780627633E+03  0.43780627633E+03  0.00000000000E+00 0.  1.
          2   -1    0    0  501    0  0.00000000000E+00 -0.00000000000E+00 -0.35374408006E+04  0.35374408006E+04  0.00000000000E+00 0. -1.
         24    2    1    2    0    0  0.12067768216E+03  0.90138129889E+03 -0.41767513535E+03  0.10038100501E+04  0.78299099358E+02 0.  0.
        254    2    1    2    0    0 -0.12067768216E+03 -0.90138129889E+03 -0.26819593889E+04  0.29714370268E+04  0.89971133805E+03 0.  0.
         23    2    4    4    0    0 -0.11942467240E+03 -0.72506797508E+02 -0.15839228028E+04  0.15925460451E+04  0.88724136599E+02 0.  0.
         23    2    4    4    0    0 -0.12530097600E+01 -0.82887450139E+03 -0.10980365861E+04  0.13788909818E+04  0.92851957903E+02 0.  0.
          2    1    3    3  502    0 -0.52707881555E+01  0.18344019068E+03 -0.72692680970E+02  0.19738872975E+03  0.00000000000E+00 0. -1.
         -1    1    3    3    0  502  0.12594847031E+03  0.71794110821E+03 -0.34498245438E+03  0.80642132032E+03  0.00000000000E+00 0.  1.
         13    1    5    5    0    0 -0.11255630460E+03 -0.68175724356E+02 -0.10064885607E+04  0.10150547148E+04  0.00000000000E+00 0. -1.
        -13    1    5    5    0    0 -0.68683677946E+01 -0.43310731524E+01 -0.57743424203E+03  0.57749133027E+03  0.00000000000E+00 0.  1.
          1    1    6    6  503    0  0.37120273049E+02 -0.35979813848E+03 -0.43372751799E+03  0.56475851032E+03  0.00000000000E+00 0. -1.
         -1    1    6    6    0  503 -0.38373282809E+02 -0.46907636291E+03 -0.66430906811E+03  0.81413247143E+03  0.00000000000E+00 0.  1.
<mgrwt>
<rscale>  0 0.24889466E+04</rscale>
<asrwt>0</asrwt>
<pdfrwt beam="1">  1        2 0.54422166E+00 0.24889466E+04</pdfrwt>
<pdfrwt beam="2">  1       -1 0.67354811E-01 0.24889466E+04</pdfrwt>
<totfact> 0.17367288E+00</totfact>
</mgrwt>
</event>
<event>
12    7  0.1660832E-007  0.1733646E+04  0.7818608E-02  0.8742404E-01
          2   -1    0    0  501    0  0.00000000000E+00  0.00000000000E+00  0.14367192427E+04  0.14367192427E+04  0.00000000000E+00 0. -1.
         -1   -1    0    0    0  501 -0.00000000000E+00 -0.00000000000E+00 -0.52298452585E+03  0.52298452585E+03  0.00000000000E+00 0.  1.
         24    2    1    2    0    0 -0.17351647511E+03 -0.19180544620E+03 -0.31665420073E+03  0.41632113424E+03  0.78460867008E+02 0.  0.
        254    2    1    2    0    0  0.17351647511E+03  0.19180544620E+03  0.12303889176E+04  0.15433826343E+04  0.89514008459E+03 0.  0.
         23    2    4    4    0    0 -0.31244216992E+03  0.51035605525E+02  0.82611270687E+03  0.88944268096E+03  0.91767835790E+02 0.  0.
         23    2    4    4    0    0  0.48595864503E+03  0.14076984068E+03  0.40427621070E+03  0.65393995333E+03  0.90698706168E+02 0.  0.
          4    1    3    3  502    0 -0.14736253108E+03 -0.11473937768E+03 -0.24362454675E+03  0.30697517837E+03  0.00000000000E+00 0. -1.
         -3    1    3    3    0  502 -0.26153944030E+02 -0.77066068520E+02 -0.73029653980E+02  0.10934595587E+03  0.00000000000E+00 0.  1.
         13    1    5    5    0    0 -0.15369021016E+03  0.19142096974E+01  0.50509175300E+03  0.52796024835E+03  0.00000000000E+00 0.  1.
        -13    1    5    5    0    0 -0.15875195977E+03  0.49121395828E+02  0.32102095387E+03  0.36148243261E+03  0.00000000000E+00 0. -1.
          1    1    6    6  503    0  0.28273971399E+02  0.43888539881E+01  0.55924528606E+02  0.62819044866E+02  0.00000000000E+00 0. -1.
         -1    1    6    6    0  503  0.45768467363E+03  0.13638098669E+03  0.34835168209E+03  0.59112090847E+03  0.00000000000E+00 0.  1.
<mgrwt>
<rscale>  0 0.17336458E+04</rscale>
<asrwt>0</asrwt>
<pdfrwt beam="1">  1        2 0.22103373E+00 0.17336458E+04</pdfrwt>
<pdfrwt beam="2">  1       -1 0.80459159E-01 0.17336458E+04</pdfrwt>
<totfact> 0.22980147E+01</totfact>
</mgrwt>
</event>
<event>
12    7  0.1660832E-007  0.2115026E+04  0.7818608E-02  0.8554653E-01
         -1   -1    0    0    0  501 -0.00000000000E+00  0.00000000000E+00  0.62726340927E+03  0.62726340927E+03  0.00000000000E+00 0.  1.
          2   -1    0    0  501    0  0.00000000000E+00 -0.00000000000E+00 -0.17828770680E+04  0.17828770680E+04  0.00000000000E+00 0. -1.
         24    2    1    2    0    0  0.35237736142E+03 -0.18131712722E+03 -0.11958254710E+04  0.12623028263E+04  0.79775702661E+02 0.  0.
        254    2    1    2    0    0 -0.35237736142E+03  0.18131712722E+03  0.40211812317E+02  0.11478376509E+04  0.10765075836E+04 0.  0.
         23    2    4    4    0    0 -0.51020504440E+03 -0.21691925634E+03 -0.25517356016E+03  0.61823319446E+03  0.98669072270E+02 0.  0.
         23    2    4    4    0    0  0.15782768297E+03  0.39823638356E+03  0.29538537248E+03  0.52960445647E+03  0.98623360975E+02 0.  0.
          2    1    3    3  502    0  0.66480851843E+02 -0.59828767840E+02 -0.34972673845E+03  0.36098196175E+03  0.00000000000E+00 0. -1.
         -1    1    3    3    0  502  0.28589650958E+03 -0.12148835938E+03 -0.84609873259E+03  0.90132086459E+03  0.00000000000E+00 0.  1.
         13    1    5    5    0    0 -0.17729156922E+02 -0.31540244386E+02 -0.24415217487E+02  0.43648744152E+02  0.00000000000E+00 0. -1.
        -13    1    5    5    0    0 -0.49247588748E+03 -0.18537901195E+03 -0.23075834268E+03  0.57458445030E+03  0.00000000000E+00 0.  1.
          3    1    6    6  503    0 -0.12919559352E+02  0.43998491279E+02  0.38680101861E+02  0.59991103746E+02  0.00000000000E+00 0. -1.
         -3    1    6    6    0  503  0.17074724233E+03  0.35423789228E+03  0.25670527062E+03  0.46961335272E+03  0.00000000000E+00 0.  1.
<mgrwt>
<rscale>  0 0.21150258E+04</rscale>
<asrwt>0</asrwt>
<pdfrwt beam="1">  1        2 0.27428878E+00 0.21150258E+04</pdfrwt>
<pdfrwt beam="2">  1       -1 0.96502063E-01 0.21150258E+04</pdfrwt>
<totfact> 0.95534333E+00</totfact>
</mgrwt>
</event>
<event>
12    7  0.1660832E-007  0.1529489E+04  0.7818608E-02  0.8865077E-01
          2   -1    0    0  501    0  0.00000000000E+00  0.00000000000E+00  0.59663234638E+03  0.59663234638E+03  0.00000000000E+00 0. -1.
         -1   -1    0    0    0  501 -0.00000000000E+00 -0.00000000000E+00 -0.98022492842E+03  0.98022492842E+03  0.00000000000E+00 0.  1.
         24    2    1    2    0    0  0.38559639641E+03  0.29769529253E+03 -0.21514040982E+03  0.53875803905E+03  0.81656356671E+02 0.  0.
        254    2    1    2    0    0 -0.38559639641E+03 -0.29769529253E+03 -0.16845217222E+03  0.10380992357E+04  0.90109201573E+03 0.  0.
         23    2    4    4    0    0 -0.52424751674E+03 -0.27665529277E+02  0.18435157009E+03  0.56365328557E+03  0.90103743682E+02 0.  0.
         23    2    4    4    0    0  0.13865112033E+03 -0.27002976326E+03 -0.35280374231E+03  0.47444595017E+03  0.92131823118E+02 0.  0.
          4    1    3    3  502    0  0.71343024292E+02  0.58130023484E+02 -0.73978517195E+01  0.92323642451E+02  0.00000000000E+00 0. -1.
         -3    1    3    3    0  502  0.31425337212E+03  0.23956526905E+03 -0.20774255810E+03  0.44643439660E+03  0.00000000000E+00 0.  1.
         13    1    5    5    0    0 -0.21031561050E+03 -0.27486648900E+02  0.11824175515E+03  0.24283592104E+03  0.00000000000E+00 0. -1.
        -13    1    5    5    0    0 -0.31393190624E+03 -0.17888037771E+00  0.66109814944E+02  0.32081736453E+03  0.00000000000E+00 0.  1.
          3    1    6    6  503    0  0.29692858213E+02 -0.85978225857E+01 -0.57435841817E+02  0.65226254739E+02  0.00000000000E+00 0. -1.
         -3    1    6    6    0  503  0.10895826211E+03 -0.26143194067E+03 -0.29536790050E+03  0.40921969543E+03  0.00000000000E+00 0.  1.
<mgrwt>
<rscale>  0 0.15294887E+04</rscale>
<asrwt>0</asrwt>
<pdfrwt beam="1">  1        2 0.91789592E-01 0.15294887E+04</pdfrwt>
<pdfrwt beam="2">  1       -1 0.15080383E+00 0.15294887E+04</pdfrwt>
<totfact> 0.18918378E+01</totfact>
</mgrwt>
</event>
<event>
12    7  0.1660832E-007  0.2210279E+04  0.7818608E-02  0.8514162E-01
         -1   -1    0    0    0  501 -0.00000000000E+00  0.00000000000E+00  0.81671283051E+03  0.81671283051E+03  0.00000000000E+00 0.  1.
          2   -1    0    0  501    0  0.00000000000E+00 -0.00000000000E+00 -0.14954257896E+04  0.14954257896E+04  0.00000000000E+00 0. -1.
         24    2    1    2    0    0  0.33564467693E+03 -0.30776019976E+02 -0.11754829460E+04  0.12253877235E+04  0.78806117506E+02 0.  0.
        254    2    1    2    0    0 -0.33564467693E+03  0.30776019976E+02  0.49676998684E+03  0.10867508966E+04  0.90589324919E+03 0.  0.
         23    2    4    4    0    0  0.22202569307E+03 -0.20329095296E+03  0.32426448428E+03  0.45199348053E+03  0.92347337462E+02 0.  0.
         23    2    4    4    0    0 -0.55767037000E+03  0.23406697293E+03  0.17250550256E+03  0.63475741609E+03  0.85879214465E+02 0.  0.
          4    1    3    3  502    0  0.27929734845E+03 -0.36302409105E+02 -0.10599005909E+04  0.10966832434E+04  0.00000000000E+00 0. -1.
         -3    1    3    3    0  502  0.56347328472E+02  0.55263891289E+01 -0.11558235509E+03  0.12870448015E+03  0.00000000000E+00 0.  1.
         13    1    5    5    0    0  0.84073644660E+02 -0.35199191897E+02  0.13954872450E+03  0.16667695505E+03  0.00000000000E+00 0. -1.
        -13    1    5    5    0    0  0.13795204841E+03 -0.16809176106E+03  0.18471575978E+03  0.28531652548E+03  0.00000000000E+00 0.  1.
          2    1    6    6  503    0 -0.22392704415E+03  0.49246007886E+02  0.59557787193E+02  0.23688735806E+03  0.00000000000E+00 0. -1.
         -2    1    6    6    0  503 -0.33374332585E+03  0.18482096505E+03  0.11294771537E+03  0.39787005803E+03  0.00000000000E+00 0.  1.
<mgrwt>
<rscale>  0 0.22102791E+04</rscale>
<asrwt>0</asrwt>
<pdfrwt beam="1">  1        2 0.23006550E+00 0.22102791E+04</pdfrwt>
<pdfrwt beam="2">  1       -1 0.12564813E+00 0.22102791E+04</pdfrwt>
<totfact> 0.73400534E+00</totfact>
</mgrwt>
</event>
<event>
12    7  0.1660832E-007  0.1472550E+04  0.7818608E-02  0.8902915E-01
          2   -1    0    0  501    0  0.00000000000E+00  0.00000000000E+00  0.18661173768E+04  0.18661173768E+04  0.00000000000E+00 0. -1.
         -1   -1    0    0    0  501 -0.00000000000E+00 -0.00000000000E+00 -0.29049660031E+03  0.29049660031E+03  0.00000000000E+00 0.  1.
         24    2    1    2    0    0  0.44302539916E+03  0.37763936525E+02  0.31127680368E+03  0.54860346004E+03  0.79842899873E+02 0.  0.
        254    2    1    2    0    0 -0.44302539916E+03 -0.37763936525E+02  0.12643439728E+04  0.16080105171E+04  0.88850127870E+03 0.  0.
         23    2    4    4    0    0  0.28227093344E+02  0.33108590693E+03  0.70138032455E+03  0.78134888732E+03  0.90316540530E+02 0.  0.
         23    2    4    4    0    0 -0.47125249250E+03 -0.36884984346E+03  0.56296364830E+03  0.82666162978E+03  0.91171608227E+02 0.  0.
          4    1    3    3  502    0  0.37860987241E+03  0.49543178180E+02  0.29089660003E+03  0.48002165982E+03  0.00000000000E+00 0. -1.
         -1    1    3    3    0  502  0.64415526750E+02 -0.11779241656E+02  0.20380203645E+02  0.68581800218E+02  0.00000000000E+00 0.  1.
         13    1    5    5    0    0 -0.10478079603E+02  0.11707346195E+02  0.95804757557E+01  0.18402109194E+02  0.00000000000E+00 0.  1.
        -13    1    5    5    0    0  0.38705172946E+02  0.31937856074E+03  0.69179984879E+03  0.76294677813E+03  0.00000000000E+00 0. -1.
          3    1    6    6  503    0 -0.34401641865E+03 -0.22814586825E+03  0.42197023779E+03  0.59030222351E+03  0.00000000000E+00 0. -1.
         -3    1    6    6    0  503 -0.12723607385E+03 -0.14070397521E+03  0.14099341051E+03  0.23635940628E+03  0.00000000000E+00 0.  1.
<mgrwt>
<rscale>  0 0.14725498E+04</rscale>
<asrwt>0</asrwt>
<pdfrwt beam="1">  1        2 0.28709497E+00 0.14725498E+04</pdfrwt>
<pdfrwt beam="2">  1       -1 0.44691786E-01 0.14725498E+04</pdfrwt>
<totfact> 0.43390089E+01</totfact>
</mgrwt>
</event>
<event>
12    7  0.1660832E-007  0.1164347E+04  0.7818608E-02  0.9144649E-01
         -1   -1    0    0    0  501 -0.00000000000E+00  0.00000000000E+00  0.13373248574E+04  0.13373248574E+04  0.00000000000E+00 0.  1.
          2   -1    0    0  501    0  0.00000000000E+00 -0.00000000000E+00 -0.25343560774E+03  0.25343560774E+03  0.00000000000E+00 0. -1.
         24    2    1    2    0    0 -0.51651879894E+02 -0.13702438088E+03 -0.79103864652E+01  0.16638167614E+03  0.78591922546E+02 0.  0.
        254    2    1    2    0    0  0.51651879894E+02  0.13702438088E+03  0.10917996362E+04  0.14243787890E+04  0.90298665077E+03 0.  0.
         23    2    4    4    0    0 -0.18263053526E+03  0.46148304512E+03  0.61388577298E+03  0.79468565849E+03  0.91373082461E+02 0.  0.
         23    2    4    4    0    0  0.23428241515E+03 -0.32445866425E+03  0.47791386318E+03  0.62969313054E+03  0.89163351068E+02 0.  0.
          2    1    3    3  502    0 -0.50236720365E+02 -0.13993489488E+03 -0.23442519040E+02  0.15051596120E+03  0.00000000000E+00 0. -1.
         -1    1    3    3    0  502 -0.14151595294E+01  0.29105139978E+01  0.15532132575E+02  0.15865714940E+02  0.00000000000E+00 0.  1.
         13    1    5    5    0    0 -0.10563846001E+03  0.18129539399E+03  0.20746401467E+03  0.29507426438E+03  0.00000000000E+00 0. -1.
        -13    1    5    5    0    0 -0.76992075246E+02  0.28018765114E+03  0.40642175831E+03  0.49961139412E+03  0.00000000000E+00 0.  1.
          2    1    6    6  503    0  0.35841810783E+02 -0.11539044013E+02  0.63135819160E+02  0.73511336526E+02  0.00000000000E+00 0. -1.
         -2    1    6    6    0  503  0.19844060437E+03 -0.31291962023E+03  0.41477804402E+03  0.55618179401E+03  0.00000000000E+00 0.  1.
<mgrwt>
<rscale>  0 0.11643466E+04</rscale>
<asrwt>0</asrwt>
<pdfrwt beam="1">  1        2 0.38990094E-01 0.11643466E+04</pdfrwt>
<pdfrwt beam="2">  1       -1 0.20574228E+00 0.11643466E+04</pdfrwt>
<totfact> 0.20670949E+01</totfact>
</mgrwt>
</event>
<event>
12    7  0.1660832E-007  0.2675905E+04  0.7818608E-02  0.8342866E-01
         -1   -1    0    0    0  501 -0.00000000000E+00  0.00000000000E+00  0.21318057407E+04  0.21318057407E+04  0.00000000000E+00 0.  1.
          2   -1    0    0  501    0  0.00000000000E+00 -0.00000000000E+00 -0.83971857455E+03  0.83971857455E+03  0.00000000000E+00 0. -1.
         24    2    1    2    0    0  0.83199744386E+03 -0.78976669004E+03  0.25850256798E+03  0.11786645783E+04  0.80470114173E+02 0.  0.
        254    2    1    2    0    0 -0.83199744386E+03  0.78976669004E+03  0.10335845981E+04  0.17928597369E+04  0.91109699997E+03 0.  0.
         23    2    4    4    0    0 -0.46833081020E+03 -0.93374232665E+02  0.21565784743E+03  0.53190393097E+03  0.91438446589E+02 0.  0.
         23    2    4    4    0    0 -0.36366663366E+03  0.88314092271E+03  0.81792675070E+03  0.12609558059E+04  0.93883252780E+02 0.  0.
          4    1    3    3  502    0  0.52324372904E+03 -0.52081400615E+03  0.13092412360E+03  0.74978153826E+03  0.00000000000E+00 0. -1.
         -3    1    3    3    0  502  0.30875371482E+03 -0.26895268389E+03  0.12757844438E+03  0.42888304007E+03  0.00000000000E+00 0.  1.
         13    1    5    5    0    0 -0.15300188882E+02 -0.47130011051E+01 -0.91595520921E+01  0.18444661931E+02  0.00000000000E+00 0. -1.
        -13    1    5    5    0    0 -0.45303062132E+03 -0.88661231560E+02  0.22481739952E+03  0.51345926904E+03  0.00000000000E+00 0.  1.
          1    1    6    6  503    0 -0.49163031905E+02  0.22395639283E+03  0.19994335475E+03  0.30422165391E+03  0.00000000000E+00 0. -1.
         -1    1    6    6    0  503 -0.31450360175E+03  0.65918452987E+03  0.61798339596E+03  0.95673415201E+03  0.00000000000E+00 0.  1.
<mgrwt>
<rscale>  0 0.26759050E+04</rscale>
<asrwt>0</asrwt>
<pdfrwt beam="1">  1        2 0.12918747E+00 0.26759050E+04</pdfrwt>
<pdfrwt beam="2">  1       -1 0.32797011E+00 0.26759050E+04</pdfrwt>
<totfact> 0.70209827E-01</totfact>
</mgrwt>
</event>
<event>
12    7  0.1660832E-007  0.1391811E+04  0.7818608E-02  0.8959768E-01
          2   -1    0    0  501    0  0.00000000000E+00  0.00000000000E+00  0.17283853559E+04  0.17283853559E+04  0.00000000000E+00 0. -1.
         -1   -1    0    0    0  501 -0.00000000000E+00 -0.00000000000E+00 -0.28019472994E+03  0.28019472994E+03  0.00000000000E+00 0.  1.
         24    2    1    2    0    0  0.37305599717E+02  0.39493047909E+03  0.37034034004E+03  0.54851141212E+03  0.79693228613E+02 0.  0.
        254    2    1    2    0    0 -0.37305599717E+02 -0.39493047909E+03  0.10778502860E+04  0.14600686738E+04  0.90148627392E+03 0.  0.
         23    2    4    4    0    0 -0.41379339758E+03 -0.12072634065E+03  0.25188201358E+03  0.50747139466E+03  0.91010122664E+02 0.  0.
         23    2    4    4    0    0  0.37648779786E+03 -0.27420413844E+03  0.82596827238E+03  0.95259727909E+03  0.91033058226E+02 0.  0.
          4    1    3    3  502    0 -0.22580041696E+02  0.12856306879E+03  0.13876520280E+03  0.19051011114E+03  0.00000000000E+00 0. -1.
         -3    1    3    3    0  502  0.59885641414E+02  0.26636741030E+03  0.23157513724E+03  0.35800130098E+03  0.00000000000E+00 0.  1.
         13    1    5    5    0    0 -0.27133228920E+03 -0.10975860781E+03  0.13252771166E+03  0.32129699269E+03  0.00000000000E+00 0. -1.
        -13    1    5    5    0    0 -0.14246110837E+03 -0.10967732840E+02  0.11935430192E+03  0.18617440197E+03  0.00000000000E+00 0.  1.
          3    1    6    6  503    0  0.11204948997E+03 -0.49810242771E+02  0.28158538219E+03  0.30712615641E+03  0.00000000000E+00 0. -1.
         -3    1    6    6    0  503  0.26443830789E+03 -0.22439389567E+03  0.54438289019E+03  0.64547112269E+03  0.00000000000E+00 0.  1.
<mgrwt>
<rscale>  0 0.13918110E+04</rscale>
<asrwt>0</asrwt>
<pdfrwt beam="1">  1        2 0.26590543E+00 0.13918110E+04</pdfrwt>
<pdfrwt beam="2">  1       -1 0.43106882E-01 0.13918110E+04</pdfrwt>
<totfact> 0.55667710E+01</totfact>
</mgrwt>
</event>
<event>
12    7  0.1660832E-007  0.1328898E+04  0.7818608E-02  0.9006957E-01
          2   -1    0    0  501    0  0.00000000000E+00  0.00000000000E+00  0.64950230032E+03  0.64950230032E+03  0.00000000000E+00 0. -1.
         -1   -1    0    0    0  501 -0.00000000000E+00 -0.00000000000E+00 -0.67974011221E+03  0.67974011221E+03  0.00000000000E+00 0.  1.
         24    2    1    2    0    0 -0.48057870400E+02  0.29546665974E+03  0.18522487347E+03  0.36100670471E+03  0.80046743641E+02 0.  0.
        254    2    1    2    0    0  0.48057870400E+02 -0.29546665974E+03 -0.21546268536E+03  0.96823570781E+03  0.89523522673E+03 0.  0.
         23    2    4    4    0    0 -0.58250307565E+02  0.12916876416E+03  0.26399152342E+03  0.31309174898E+03  0.90869416637E+02 0.  0.
         23    2    4    4    0    0  0.10630817797E+03 -0.42463542390E+03 -0.47945420877E+03  0.65514395883E+03  0.87866925219E+02 0.  0.
          2    1    3    3  502    0 -0.60925400765E+02  0.26105918123E+03  0.13901688814E+03  0.30197598539E+03  0.00000000000E+00 0. -1.
         -1    1    3    3    0  502  0.12867530365E+02  0.34407478515E+02  0.46207985339E+02  0.59030719329E+02  0.00000000000E+00 0.  1.
         13    1    5    5    0    0 -0.39008398998E+02  0.13052005244E+03  0.17361253992E+03  0.22067726049E+03  0.00000000000E+00 0.  1.
        -13    1    5    5    0    0 -0.19241908568E+02 -0.13512882780E+01  0.90378983497E+02  0.92414488492E+02  0.00000000000E+00 0. -1.
          3    1    6    6  503    0  0.58644529015E+02 -0.12311157576E+03 -0.19454023791E+03  0.23757429372E+03  0.00000000000E+00 0. -1.
         -3    1    6    6    0  503  0.47663648950E+02 -0.30152384814E+03 -0.28491397086E+03  0.41756966511E+03  0.00000000000E+00 0.  1.
<mgrwt>
<rscale>  0 0.13288984E+04</rscale>
<asrwt>0</asrwt>
<pdfrwt beam="1">  1        2 0.99923431E-01 0.13288984E+04</pdfrwt>
<pdfrwt beam="2">  1       -1 0.10457540E+00 0.13288984E+04</pdfrwt>
<totfact> 0.43249943E+01</totfact>
</mgrwt>
</event>
<event>
12    7  0.1660832E-007  0.1981358E+04  0.7818608E-02  0.8615386E-01
          2   -1    0    0  501    0  0.00000000000E+00  0.00000000000E+00  0.56068355697E+03  0.56068355697E+03  0.00000000000E+00 0. -1.
         -1   -1    0    0    0  501 -0.00000000000E+00 -0.00000000000E+00 -0.17504430512E+04  0.17504430512E+04  0.00000000000E+00 0.  1.
         24    2    1    2    0    0 -0.56363318078E+03 -0.53649821052E+03 -0.34831083997E+03  0.85636471031E+03  0.80792223966E+02 0.  0.
        254    2    1    2    0    0  0.56363318078E+03  0.53649821052E+03 -0.84144865422E+03  0.14547618978E+04  0.89598194696E+03 0.  0.
         23    2    4    4    0    0  0.19427539624E+03  0.46395765376E+03  0.18655108641E+02  0.51151353369E+03  0.91095817721E+02 0.  0.
         23    2    4    4    0    0  0.36935778454E+03  0.72540556768E+02 -0.86010376286E+03  0.94324836413E+03  0.90838803187E+02 0.  0.
          4    1    3    3  502    0 -0.37053301565E+03 -0.33135174627E+03 -0.18288461293E+03  0.52965599883E+03  0.00000000000E+00 0. -1.
         -3    1    3    3    0  502 -0.19310016513E+03 -0.20514646425E+03 -0.16542622704E+03  0.32670871148E+03  0.00000000000E+00 0.  1.
         13    1    5    5    0    0  0.87391749432E+02  0.30179670604E+03 -0.14299792752E+02  0.31452035501E+03  0.00000000000E+00 0. -1.
        -13    1    5    5    0    0  0.10688364681E+03  0.16216094772E+03  0.32954901393E+02  0.19699317867E+03  0.00000000000E+00 0.  1.
          1    1    6    6  503    0  0.24641086735E+03  0.14850310412E+02 -0.62101270200E+03  0.66827810328E+03  0.00000000000E+00 0. -1.
         -1    1    6    6    0  503  0.12294691719E+03  0.57690246356E+02 -0.23909106086E+03  0.27497026085E+03  0.00000000000E+00 0.  1.
<mgrwt>
<rscale>  0 0.19813578E+04</rscale>
<asrwt>0</asrwt>
<pdfrwt beam="1">  1        2 0.86259009E-01 0.19813578E+04</pdfrwt>
<pdfrwt beam="2">  1       -1 0.26929893E+00 0.19813578E+04</pdfrwt>
<totfact> 0.29862286E+00</totfact>
</mgrwt>
</event>
<event>
12    7  0.1660832E-007  0.1626910E+04  0.7818608E-02  0.8804184E-01
         -1   -1    0    0    0  501 -0.00000000000E+00  0.00000000000E+00  0.65094117144E+03  0.65094117144E+03  0.00000000000E+00 0.  1.
          2   -1    0    0  501    0  0.00000000000E+00 -0.00000000000E+00 -0.10165425593E+04  0.10165425593E+04  0.00000000000E+00 0. -1.
         24    2    1    2    0    0  0.53908461322E+03 -0.91833217561E+02 -0.52882320383E+01  0.55322742177E+03  0.83588604169E+02 0.  0.
        254    2    1    2    0    0 -0.53908461322E+03  0.91833217561E+02 -0.36031315581E+03  0.11142563090E+04  0.90149652897E+03 0.  0.
         23    2    4    4    0    0 -0.37602029705E+03 -0.21367225473E+03 -0.55215524617E+03  0.70713548999E+03  0.90100438940E+02 0.  0.
         23    2    4    4    0    0 -0.16306431617E+03  0.30550547229E+03  0.19184209036E+03  0.40712081897E+03  0.94975832718E+02 0.  0.
          4    1    3    3  502    0  0.10601060825E+03  0.42936650683E+01 -0.25622260166E+02  0.10914753702E+03  0.00000000000E+00 0. -1.
         -3    1    3    3    0  502  0.43307400496E+03 -0.96126882629E+02  0.20334028128E+02  0.44407988475E+03  0.00000000000E+00 0.  1.
         13    1    5    5    0    0 -0.27417173727E+03 -0.19035920900E+03 -0.38017728765E+03  0.50590665148E+03  0.00000000000E+00 0.  1.
        -13    1    5    5    0    0 -0.10184855978E+03 -0.23313045723E+02 -0.17197795852E+03  0.20122883851E+03  0.00000000000E+00 0. -1.
          4    1    6    6  503    0 -0.16878249819E+03  0.25311948365E+03  0.17861372488E+03  0.35278870080E+03  0.00000000000E+00 0. -1.
         -4    1    6    6    0  503  0.57181820218E+01  0.52385988640E+02  0.13228365475E+02  0.54332118167E+02  0.00000000000E+00 0.  1.
<mgrwt>
<rscale>  0 0.16269105E+04</rscale>
<asrwt>0</asrwt>
<pdfrwt beam="1">  1        2 0.15639116E+00 0.16269105E+04</pdfrwt>
<pdfrwt beam="2">  1       -1 0.10014480E+00 0.16269105E+04</pdfrwt>
<totfact> 0.25498889E+01</totfact>
</mgrwt>
</event>
<event>
12    7  0.1660832E-007  0.4146460E+04  0.7818608E-02  0.7975635E-01
         -1   -1    0    0    0  501 -0.00000000000E+00  0.00000000000E+00  0.18685217087E+04  0.18685217087E+04  0.00000000000E+00 0.  1.
          2   -1    0    0  501    0  0.00000000000E+00 -0.00000000000E+00 -0.23003656986E+04  0.23003656986E+04  0.00000000000E+00 0. -1.
         24    2    1    2    0    0 -0.17121046838E+02 -0.92271908961E+03 -0.19611392953E+04  0.21691777716E+04  0.86955279540E+02 0.  0.
        254    2    1    2    0    0  0.17121046838E+02  0.92271908961E+03  0.15292953053E+04  0.19997096357E+04  0.89910558215E+03 0.  0.
         23    2    4    4    0    0  0.27151675304E+03  0.32356705258E+03  0.11770047412E+04  0.12537857612E+04  0.90672980409E+02 0.  0.
         23    2    4    4    0    0 -0.25439570620E+03  0.59915203703E+03  0.35229056409E+03  0.74592387457E+03  0.92700843019E+02 0.  0.
          4    1    3    3  502    0 -0.36471726079E+02 -0.74026840981E+03 -0.16303550763E+04  0.17909174130E+04  0.00000000000E+00 0. -1.
         -3    1    3    3    0  502  0.19350679240E+02 -0.18245067980E+03 -0.33078421900E+03  0.37826035860E+03  0.00000000000E+00 0.  1.
         13    1    5    5    0    0  0.30635462498E+02  0.95477764585E+02  0.27661124438E+03  0.29422494050E+03  0.00000000000E+00 0. -1.
        -13    1    5    5    0    0  0.24088129055E+03  0.22808928800E+03  0.90039349682E+03  0.95956082066E+03  0.00000000000E+00 0.  1.
          4    1    6    6  503    0 -0.18487869290E+03  0.35281749333E+03  0.17814718455E+03  0.43634474220E+03  0.00000000000E+00 0. -1.
         -4    1    6    6    0  503 -0.69517013307E+02  0.24633454370E+03  0.17414337954E+03  0.30957913236E+03  0.00000000000E+00 0.  1.
<mgrwt>
<rscale>  0 0.41464603E+04</rscale>
<asrwt>0</asrwt>
<pdfrwt beam="1">  1        2 0.35390242E+00 0.41464603E+04</pdfrwt>
<pdfrwt beam="2">  1       -1 0.28746488E+00 0.41464603E+04</pdfrwt>
<totfact> 0.15997232E-01</totfact>
</mgrwt>
</event>
<event>
12    7  0.1660832E-007  0.1630842E+04  0.7818608E-02  0.8801822E-01
          2   -1    0    0  501    0  0.00000000000E+00  0.00000000000E+00  0.25039735512E+04  0.25039735512E+04  0.00000000000E+00 0. -1.
         -1   -1    0    0    0  501 -0.00000000000E+00 -0.00000000000E+00 -0.26554245406E+03  0.26554245406E+03  0.00000000000E+00 0.  1.
         24    2    1    2    0    0 -0.42149725108E+02  0.55918919686E+03  0.87511130997E+03  0.10423980666E+04  0.79402564419E+02 0.  0.
        254    2    1    2    0    0  0.42149725108E+02 -0.55918919686E+03  0.13633197872E+04  0.17271179386E+04  0.89990353631E+03 0.  0.
         23    2    4    4    0    0  0.32505152401E+03 -0.66672174403E+03  0.97262747293E+03  0.12264026695E+04  0.88785863094E+02 0.  0.
         23    2    4    4    0    0 -0.28290179891E+03  0.10753254717E+03  0.39069231422E+03  0.50071526910E+03  0.80489873860E+02 0.  0.
          4    1    3    3  502    0 -0.42109514768E+02  0.46816506236E+03  0.67483812962E+03  0.82241001820E+03  0.00000000000E+00 0. -1.
         -3    1    3    3    0  502 -0.40210340705E-01  0.91024134503E+02  0.20027318035E+03  0.21998804841E+03  0.00000000000E+00 0.  1.
         13    1    5    5    0    0  0.10823843928E+03 -0.19788577460E+03  0.36296954574E+03  0.42734205346E+03  0.00000000000E+00 0.  1.
        -13    1    5    5    0    0  0.21681308474E+03 -0.46883596944E+03  0.60965792719E+03  0.79906061606E+03  0.00000000000E+00 0. -1.
          3    1    6    6  503    0 -0.18414957023E+03  0.79006929305E+02  0.19464960157E+03  0.27935931430E+03  0.00000000000E+00 0. -1.
         -3    1    6    6    0  503 -0.98752228679E+02  0.28525617868E+02  0.19604271265E+03  0.22135595481E+03  0.00000000000E+00 0.  1.
<mgrwt>
<rscale>  0 0.16308418E+04</rscale>
<asrwt>0</asrwt>
<pdfrwt beam="1">  1        2 0.38522669E+00 0.16308418E+04</pdfrwt>
<pdfrwt beam="2">  1       -1 0.40852687E-01 0.16308418E+04</pdfrwt>
<totfact> 0.22148244E+01</totfact>
</mgrwt>
</event>
<event>
12    7  0.1660832E-007  0.2447132E+04  0.7818608E-02  0.8422066E-01
         -1   -1    0    0    0  501 -0.00000000000E+00  0.00000000000E+00  0.84385432358E+03  0.84385432358E+03  0.00000000000E+00 0.  1.
          2   -1    0    0  501    0  0.00000000000E+00 -0.00000000000E+00 -0.17741382494E+04  0.17741382494E+04  0.00000000000E+00 0. -1.
         24    2    1    2    0    0  0.68330213636E+03  0.78174586778E+03 -0.53410178712E+03  0.11705031447E+04  0.82367963111E+02 0.  0.
        254    2    1    2    0    0 -0.68330213636E+03 -0.78174586778E+03 -0.39618213866E+03  0.14474894283E+04  0.92748959380E+03 0.  0.
         23    2    4    4    0    0 -0.35165283033E+03 -0.75968899084E+03  0.94913640140E+02  0.84745025361E+03  0.91521895615E+02 0.  0.
         23    2    4    4    0    0 -0.33164930603E+03 -0.22056876944E+02 -0.49109577880E+03  0.60003917466E+03  0.91619753119E+02 0.  0.
          2    1    3    3  502    0  0.53386656556E+03  0.61637753814E+03 -0.45634687068E+03  0.93444488640E+03  0.00000000000E+00 0. -1.
         -1    1    3    3    0  502  0.14943557080E+03  0.16536832964E+03 -0.77754916444E+02  0.23605825828E+03  0.00000000000E+00 0.  1.
         13    1    5    5    0    0 -0.29379800530E+03 -0.59541471033E+03  0.41375113187E+02  0.66524269645E+03  0.00000000000E+00 0. -1.
        -13    1    5    5    0    0 -0.57854825035E+02 -0.16427428051E+03  0.53538526953E+02  0.18220755716E+03  0.00000000000E+00 0.  1.
          2    1    6    6  503    0 -0.71074853757E+02  0.18560268759E+02 -0.16527049414E+03  0.18086031806E+03  0.00000000000E+00 0. -1.
         -2    1    6    6    0  503 -0.26057445227E+03 -0.40617145703E+02 -0.32582528465E+03  0.41917885660E+03  0.00000000000E+00 0.  1.
<mgrwt>
<rscale>  0 0.24471324E+04</rscale>
<asrwt>0</asrwt>
<pdfrwt beam="1">  1        2 0.27294435E+00 0.24471324E+04</pdfrwt>
<pdfrwt beam="2">  1       -1 0.12982374E+00 0.24471324E+04</pdfrwt>
<totfact> 0.46282285E+00</totfact>
</mgrwt>
</event>
<event>
12    7  0.1660832E-007  0.1184731E+04  0.7818608E-02  0.9126327E-01
         -1   -1    0    0    0  501 -0.00000000000E+00  0.00000000000E+00  0.17227921650E+03  0.17227921650E+03  0.00000000000E+00 0.  1.
          2   -1    0    0  501    0  0.00000000000E+00 -0.00000000000E+00 -0.20367921118E+04  0.20367921118E+04  0.00000000000E+00 0. -1.
         24    2    1    2    0    0 -0.15245106642E+03  0.14861365245E+02 -0.95206578282E+01  0.17307682152E+03  0.80017219343E+02 0.  0.
        254    2    1    2    0    0  0.15245106642E+03 -0.14861365245E+02 -0.18549922375E+04  0.20359945068E+04  0.82511529055E+03 0.  0.
         23    2    4    4    0    0  0.64865029895E+02 -0.35140871585E+03 -0.14416032964E+04  0.14880757683E+04  0.91944931457E+02 0.  0.
         23    2    4    4    0    0  0.87586036529E+02  0.33654735060E+03 -0.41338894106E+03  0.54791873843E+03  0.91591999347E+02 0.  0.
          2    1    3    3  502    0 -0.60379479021E+02 -0.32294277568E+02  0.48194955632E+01  0.68642766465E+02  0.00000000000E+00 0. -1.
         -1    1    3    3    0  502 -0.92071587402E+02  0.47155642813E+02 -0.14340153391E+02  0.10443405505E+03  0.00000000000E+00 0.  1.
         13    1    5    5    0    0  0.26434461342E+02 -0.15626664670E+03 -0.82839635636E+03  0.84342075433E+03  0.00000000000E+00 0.  1.
        -13    1    5    5    0    0  0.38430568553E+02 -0.19514206915E+03 -0.61320694004E+03  0.64465501399E+03  0.00000000000E+00 0. -1.
          4    1    6    6  503    0  0.56266123818E+02  0.19444222434E+03 -0.16995048540E+03  0.26430441310E+03  0.00000000000E+00 0. -1.
         -4    1    6    6    0  503  0.31319912711E+02  0.14210512627E+03 -0.24343845566E+03  0.28361432533E+03  0.00000000000E+00 0.  1.
<mgrwt>
<rscale>  0 0.11847311E+04</rscale>
<asrwt>0</asrwt>
<pdfrwt beam="1">  1        2 0.31335264E+00 0.11847311E+04</pdfrwt>
<pdfrwt beam="2">  1       -1 0.26504494E-01 0.11847311E+04</pdfrwt>
<totfact> 0.90973962E+01</totfact>
</mgrwt>
</event>
<event>
12    7  0.1660832E-007  0.1397026E+04  0.7818608E-02  0.8955974E-01
         -1   -1    0    0    0  501 -0.00000000000E+00  0.00000000000E+00  0.32722568588E+03  0.32722568588E+03  0.00000000000E+00 0.  1.
          2   -1    0    0  501    0  0.00000000000E+00 -0.00000000000E+00 -0.14910825377E+04  0.14910825377E+04  0.00000000000E+00 0. -1.
         24    2    1    2    0    0 -0.13947828793E+03 -0.29843486693E+02 -0.83141678704E+03  0.84742836384E+03  0.80846345394E+02 0.  0.
        254    2    1    2    0    0  0.13947828793E+03  0.29843486693E+02 -0.33244006478E+03  0.97087985974E+03  0.90096974359E+03 0.  0.
         23    2    4    4    0    0 -0.16440469434E+03 -0.15102854215E+03 -0.51031514269E+03  0.56383911475E+03  0.87489875971E+02 0.  0.
         23    2    4    4    0    0  0.30388298227E+03  0.18087202885E+03  0.17787507791E+03  0.40704074499E+03  0.94779043078E+02 0.  0.
          4    1    3    3  502    0 -0.13962758215E+03 -0.57058040672E+01 -0.71759622506E+03  0.73107643931E+03  0.00000000000E+00 0. -1.
         -3    1    3    3    0  502  0.14929422337E+00 -0.24137682625E+02 -0.11382056198E+03  0.11635192452E+03  0.00000000000E+00 0.  1.
         13    1    5    5    0    0 -0.34362504347E+02 -0.16088366286E+02 -0.30356567221E+02  0.48591546674E+02  0.00000000000E+00 0.  1.
        -13    1    5    5    0    0 -0.13004218999E+03 -0.13494017587E+03 -0.47995857547E+03  0.51524756808E+03  0.00000000000E+00 0. -1.
          1    1    6    6  503    0  0.28649597039E+03  0.16873130060E+03  0.18965909958E+03  0.38278031154E+03  0.00000000000E+00 0. -1.
         -1    1    6    6    0  503  0.17387011879E+02  0.12140728245E+02 -0.11784021664E+02  0.24260433446E+02  0.00000000000E+00 0.  1.
<mgrwt>
<rscale>  0 0.13970261E+04</rscale>
<asrwt>0</asrwt>
<pdfrwt beam="1">  1        2 0.22939732E+00 0.13970261E+04</pdfrwt>
<pdfrwt beam="2">  1       -1 0.50342412E-01 0.13970261E+04</pdfrwt>
<totfact> 0.56434396E+01</totfact>
</mgrwt>
</event>
<event>
12    7  0.1660832E-007  0.2266908E+04  0.7818608E-02  0.8491084E-01
         -1   -1    0    0    0  501 -0.00000000000E+00  0.00000000000E+00  0.12345511389E+04  0.12345511389E+04  0.00000000000E+00 0.  1.
          2   -1    0    0  501    0  0.00000000000E+00 -0.00000000000E+00 -0.10406353533E+04  0.10406353533E+04  0.00000000000E+00 0. -1.
         24    2    1    2    0    0  0.70276626419E+03  0.41466615237E+03  0.57280763683E+03  0.10001556992E+04  0.79839801647E+02 0.  0.
        254    2    1    2    0    0 -0.70276626419E+03 -0.41466615237E+03 -0.37889185120E+03  0.12750307929E+04  0.90350210178E+03 0.  0.
         23    2    4    4    0    0  0.58719325528E+02 -0.22352581174E+03  0.18044845352E+03  0.30688717869E+03  0.90588897593E+02 0.  0.
         23    2    4    4    0    0 -0.76148558972E+03 -0.19114034063E+03 -0.55934030472E+03  0.96814361420E+03  0.89696979159E+02 0.  0.
          4    1    3    3  502    0  0.14205019567E+03  0.11038746140E+03  0.97658901487E+02  0.20469711958E+03  0.00000000000E+00 0. -1.
         -3    1    3    3    0  502  0.56071606852E+03  0.30427869097E+03  0.47514873534E+03  0.79545857967E+03  0.00000000000E+00 0.  1.
         13    1    5    5    0    0 -0.98458805817E+01  0.29901986862E+01  0.14736258186E+02  0.17973312381E+02  0.00000000000E+00 0.  1.
        -13    1    5    5    0    0  0.68565206110E+02 -0.22651601042E+03  0.16571219533E+03  0.28891386631E+03  0.00000000000E+00 0. -1.
          4    1    6    6  503    0 -0.39150824835E+03 -0.10849664198E+03 -0.34277982004E+03  0.53155266425E+03  0.00000000000E+00 0. -1.
         -4    1    6    6    0  503 -0.36997734137E+03 -0.82643698650E+02 -0.21656048468E+03  0.43659094995E+03  0.00000000000E+00 0.  1.
<mgrwt>
<rscale>  0 0.22669076E+04</rscale>
<asrwt>0</asrwt>
<pdfrwt beam="1">  1        2 0.16009775E+00 0.22669076E+04</pdfrwt>
<pdfrwt beam="2">  1       -1 0.18993095E+00 0.22669076E+04</pdfrwt>
<totfact> 0.43511516E+00</totfact>
</mgrwt>
</event>
<event>
12    7  0.1660832E-007  0.1500187E+04  0.7818608E-02  0.8884329E-01
          2   -1    0    0  501    0  0.00000000000E+00  0.00000000000E+00  0.15470934720E+04  0.15470934720E+04  0.00000000000E+00 0. -1.
         -1   -1    0    0    0  501 -0.00000000000E+00 -0.00000000000E+00 -0.36367546846E+03  0.36367546846E+03  0.00000000000E+00 0.  1.
         24    2    1    2    0    0 -0.45104869558E+02 -0.21902847124E+03  0.90940708354E+03  0.93947657784E+03  0.74746747411E+02 0.  0.
        254    2    1    2    0    0  0.45104869558E+02  0.21902847124E+03  0.27401092001E+03  0.97129236263E+03  0.90460983244E+03 0.  0.
         23    2    4    4    0    0  0.39600691786E+03  0.35020933405E+03  0.23106082913E+03  0.58349443265E+03  0.87227229280E+02 0.  0.
         23    2    4    4    0    0 -0.35090204830E+03 -0.13118086282E+03  0.42950090873E+02  0.38779792997E+03  0.90564109412E+02 0.  0.
          2    1    3    3  502    0 -0.28008942150E+02 -0.58177188775E+02  0.39481136737E+03  0.40005637345E+03  0.00000000000E+00 0. -1.
         -1    1    3    3    0  502 -0.17095927408E+02 -0.16085128246E+03  0.51459571617E+03  0.53942020439E+03  0.00000000000E+00 0.  1.
         13    1    5    5    0    0  0.89939749011E+02  0.11163596557E+03  0.30109367728E+02  0.14648659080E+03  0.00000000000E+00 0. -1.
        -13    1    5    5    0    0  0.30606716885E+03  0.23857336848E+03  0.20095146140E+03  0.43700784185E+03  0.00000000000E+00 0.  1.
          3    1    6    6  503    0 -0.52703672254E+02 -0.20973587594E+02  0.40810487577E+02  0.69878926307E+02  0.00000000000E+00 0. -1.
         -3    1    6    6    0  503 -0.29819837605E+03 -0.11020727522E+03  0.21396032964E+01  0.31791900367E+03  0.00000000000E+00 0.  1.
<mgrwt>
<rscale>  0 0.15001866E+04</rscale>
<asrwt>0</asrwt>
<pdfrwt beam="1">  1        2 0.23801438E+00 0.15001866E+04</pdfrwt>
<pdfrwt beam="2">  1       -1 0.55950073E-01 0.15001866E+04</pdfrwt>
<totfact> 0.42477413E+01</totfact>
</mgrwt>
</event>
<event>
12    7  0.1660832E-007  0.5208997E+04  0.7818608E-02  0.7797052E-01
          2   -1    0    0  501    0  0.00000000000E+00  0.00000000000E+00  0.22254044968E+04  0.22254044968E+04  0.00000000000E+00 0. -1.
         -1   -1    0    0    0  501 -0.00000000000E+00 -0.00000000000E+00 -0.30481704493E+04  0.30481704493E+04  0.00000000000E+00 0.  1.
         24    2    1    2    0    0 -0.14874701961E+04 -0.17345239281E+04  0.69174678681E+03  0.23887790012E+04  0.81305953584E+02 0.  0.
        254    2    1    2    0    0  0.14874701961E+04  0.17345239281E+04 -0.15145127393E+04  0.28847959449E+04  0.89841970405E+03 0.  0.
         23    2    4    4    0    0  0.52080819253E+03  0.79169854883E+03 -0.11300609240E+04  0.14776881714E+04  0.92178492251E+02 0.  0.
         23    2    4    4    0    0  0.96666200355E+03  0.94282537931E+03 -0.38445181528E+03  0.14071077734E+04  0.93776131344E+02 0.  0.
          4    1    3    3  502    0 -0.13966425316E+04 -0.16479764645E+04  0.66774518806E+03  0.22610441006E+04  0.00000000000E+00 0. -1.
         -3    1    3    3    0  502 -0.90827664457E+02 -0.86547463621E+02  0.24001598750E+02  0.12773490060E+03  0.00000000000E+00 0.  1.
         13    1    5    5    0    0  0.42181123177E+03  0.56810114271E+03 -0.83727730782E+03  0.10962193730E+04  0.00000000000E+00 0. -1.
        -13    1    5    5    0    0  0.98996960758E+02  0.22359740612E+03 -0.29278361620E+03  0.38146879843E+03  0.00000000000E+00 0.  1.
          1    1    6    6  503    0  0.57940308327E+03  0.51258983561E+03 -0.19160152861E+03  0.79697391315E+03  0.00000000000E+00 0. -1.
         -1    1    6    6    0  503  0.38725892028E+03  0.43023554370E+03 -0.19285028666E+03  0.61013386029E+03  0.00000000000E+00 0.  1.
<mgrwt>
<rscale>  0 0.52089969E+04</rscale>
<asrwt>0</asrwt>
<pdfrwt beam="1">  1        2 0.34236992E+00 0.52089969E+04</pdfrwt>
<pdfrwt beam="2">  1       -1 0.46894930E+00 0.52089969E+04</pdfrwt>
<totfact> 0.98159738E-03</totfact>
</mgrwt>
</event>
<event>
12    7  0.1660832E-007  0.3199129E+04  0.7818608E-02  0.8189047E-01
         -1   -1    0    0    0  501 -0.00000000000E+00  0.00000000000E+00  0.69345660136E+03  0.69345660136E+03  0.00000000000E+00 0.  1.
          2   -1    0    0  501    0  0.00000000000E+00 -0.00000000000E+00 -0.36896415579E+04  0.36896415579E+04  0.00000000000E+00 0. -1.
         24    2    1    2    0    0  0.13823504732E+04  0.34508268053E+03 -0.18848737321E+04  0.23641467845E+04  0.80412347624E+02 0.  0.
        254    2    1    2    0    0 -0.13823504732E+04 -0.34508268053E+03 -0.11113112245E+04  0.20189513748E+04  0.90065372305E+03 0.  0.
         23    2    4    4    0    0 -0.30139851126E+03 -0.39667133747E+03 -0.68639204474E+03  0.85272313041E+03  0.88393922280E+02 0.  0.
         23    2    4    4    0    0 -0.10809519619E+04  0.51588656949E+02 -0.42491917973E+03  0.11662282443E+04  0.91724996866E+02 0.  0.
          2    1    3    3  502    0  0.11715973961E+02  0.77967088306E+01 -0.97110374192E+01  0.17098449117E+02  0.00000000000E+00 0. -1.
         -1    1    3    3    0  502  0.13706344992E+04  0.33728597170E+03 -0.18751626946E+04  0.23470483354E+04  0.00000000000E+00 0.  1.
         13    1    5    5    0    0 -0.42365916942E+02 -0.29772397011E+02 -0.11361901791E+03  0.12486211504E+03  0.00000000000E+00 0. -1.
        -13    1    5    5    0    0 -0.25903259432E+03 -0.36689894046E+03 -0.57277302683E+03  0.72786101537E+03  0.00000000000E+00 0.  1.
          4    1    6    6  503    0 -0.13285370529E+03  0.36095472748E+02 -0.47095734371E+02  0.14550257165E+03  0.00000000000E+00 0. -1.
         -4    1    6    6    0  503 -0.94809825666E+03  0.15493184201E+02 -0.37782344536E+03  0.10207256727E+04  0.00000000000E+00 0.  1.
<mgrwt>
<rscale>  0 0.31991288E+04</rscale>
<asrwt>0</asrwt>
<pdfrwt beam="1">  1        2 0.56763716E+00 0.31991288E+04</pdfrwt>
<pdfrwt beam="2">  1       -1 0.10668563E+00 0.31991288E+04</pdfrwt>
<totfact> 0.46529941E-01</totfact>
</mgrwt>
</event>
<event>
12    7  0.1660832E-007  0.2148533E+04  0.7818608E-02  0.8540161E-01
          2   -1    0    0  501    0  0.00000000000E+00  0.00000000000E+00  0.11535181977E+04  0.11535181977E+04  0.00000000000E+00 0. -1.
         -1   -1    0    0    0  501 -0.00000000000E+00 -0.00000000000E+00 -0.10004593861E+04  0.10004593861E+04  0.00000000000E+00 0.  1.
         24    2    1    2    0    0  0.79004235244E+02 -0.79596471483E+03  0.44243384431E+03  0.91745094700E+03  0.78530485217E+02 0.  0.
        254    2    1    2    0    0 -0.79004235244E+02  0.79596471483E+03 -0.28937503277E+03  0.12365266368E+04  0.89747351907E+03 0.  0.
         23    2    4    4    0    0 -0.25886876589E+03  0.70603633181E+03 -0.51903308823E+03  0.91818083488E+03  0.90334705846E+02 0.  0.
         23    2    4    4    0    0  0.17986453064E+03  0.89928383029E+02  0.22965805546E+03  0.31834580190E+03  0.90348567750E+02 0.  0.
          4    1    3    3  502    0  0.79744389042E+01 -0.34552956858E+03  0.22373217517E+03  0.41171635946E+03  0.00000000000E+00 0. -1.
         -1    1    3    3    0  502  0.71029796340E+02 -0.45043514626E+03  0.21870166914E+03  0.50573458754E+03  0.00000000000E+00 0.  1.
         13    1    5    5    0    0 -0.35257563222E+02  0.74392549017E+02 -0.26178482058E+02  0.86386689001E+02  0.00000000000E+00 0. -1.
        -13    1    5    5    0    0 -0.22361120267E+03  0.63164378279E+03 -0.49285460617E+03  0.83179414588E+03  0.00000000000E+00 0.  1.
          2    1    6    6  503    0 -0.78819507579E+01 -0.32568154931E+01  0.20663930312E+02  0.22354641819E+02  0.00000000000E+00 0. -1.
         -2    1    6    6    0  503  0.18774648140E+03  0.93185198522E+02  0.20899412515E+03  0.29599116009E+03  0.00000000000E+00 0.  1.
<mgrwt>
<rscale>  0 0.21485326E+04</rscale>
<asrwt>0</asrwt>
<pdfrwt beam="1">  1        2 0.17746434E+00 0.21485326E+04</pdfrwt>
<pdfrwt beam="2">  1       -1 0.15391683E+00 0.21485326E+04</pdfrwt>
<totfact> 0.68785078E+00</totfact>
</mgrwt>
</event>
<event>
12    7  0.1660832E-007  0.1845038E+04  0.7818608E-02  0.8682709E-01
         -1   -1    0    0    0  501 -0.00000000000E+00  0.00000000000E+00  0.17251239608E+04  0.17251239608E+04  0.00000000000E+00 0.  1.
          2   -1    0    0  501    0  0.00000000000E+00 -0.00000000000E+00 -0.49332187966E+03  0.49332187966E+03  0.00000000000E+00 0. -1.
         24    2    1    2    0    0  0.32465315880E+03 -0.61729355835E+03  0.37213112434E+03  0.79448016497E+03  0.79159005393E+02 0.  0.
        254    2    1    2    0    0 -0.32465315880E+03  0.61729355835E+03  0.85967095683E+03  0.14239656755E+04  0.89565232113E+03 0.  0.
         23    2    4    4    0    0 -0.61811847850E+03  0.40492427922E+03  0.45326658080E+03  0.87171038841E+03  0.91620317740E+02 0.  0.
         23    2    4    4    0    0  0.29346531971E+03  0.21236927913E+03  0.40640437603E+03  0.55225528711E+03  0.92729610686E+02 0.  0.
          2    1    3    3  502    0  0.10794278416E+03 -0.13393878546E+03  0.83024745650E+02  0.19100877282E+03  0.00000000000E+00 0. -1.
         -1    1    3    3    0  502  0.21671037464E+03 -0.48335477289E+03  0.28910637869E+03  0.60347139216E+03  0.00000000000E+00 0.  1.
         13    1    5    5    0    0 -0.55287136315E+03  0.34315560335E+03  0.42624935057E+03  0.77788882314E+03  0.00000000000E+00 0. -1.
        -13    1    5    5    0    0 -0.65247115357E+02  0.61768675871E+02  0.27017230228E+02  0.93821565274E+02  0.00000000000E+00 0.  1.
          3    1    6    6  503    0  0.27735241391E+03  0.19319421486E+03  0.33214858718E+03  0.47388928044E+03  0.00000000000E+00 0. -1.
         -3    1    6    6    0  503  0.16112905799E+02  0.19175064273E+02  0.74255788853E+02  0.78366006669E+02  0.00000000000E+00 0.  1.
<mgrwt>
<rscale>  0 0.18450381E+04</rscale>
<asrwt>0</asrwt>
<pdfrwt beam="1">  1        2 0.75895675E-01 0.18450381E+04</pdfrwt>
<pdfrwt beam="2">  1       -1 0.26540368E+00 0.18450381E+04</pdfrwt>
<totfact> 0.37222442E+00</totfact>
</mgrwt>
</event>
<event>
12    7  0.1660832E-007  0.1425042E+04  0.7818608E-02  0.8935889E-01
          2   -1    0    0  501    0  0.00000000000E+00  0.00000000000E+00  0.21102991389E+04  0.21102991389E+04  0.00000000000E+00 0. -1.
         -1   -1    0    0    0  501 -0.00000000000E+00 -0.00000000000E+00 -0.24057548954E+03  0.24057548954E+03  0.00000000000E+00 0.  1.
         24    2    1    2    0    0 -0.51581050556E+01  0.20029666321E+03 -0.44994400475E+02  0.21990334941E+03  0.78661475122E+02 0.  0.
        254    2    1    2    0    0  0.51581050556E+01 -0.20029666321E+03  0.19147180499E+04  0.21309712791E+04  0.91364545768E+03 0.  0.
         23    2    4    4    0    0 -0.71414655575E+02 -0.30768493317E+03  0.15393371260E+03  0.36294181297E+03  0.90890596852E+02 0.  0.
         23    2    4    4    0    0  0.76572760630E+02  0.10738826996E+03  0.17607843373E+04  0.17680294661E+04  0.90394039471E+02 0.  0.
          2    1    3    3  502    0  0.53045519904E+01  0.54999351268E+02  0.22113785439E+02  0.59515430084E+02  0.00000000000E+00 0. -1.
         -1    1    3    3    0  502 -0.10462657046E+02  0.14529731194E+03 -0.67108185914E+02  0.16038791933E+03  0.00000000000E+00 0.  1.
         13    1    5    5    0    0 -0.42814082982E+02 -0.28133117993E+03  0.11218525094E+03  0.30588528737E+03  0.00000000000E+00 0.  1.
        -13    1    5    5    0    0 -0.28600572593E+02 -0.26353753243E+02  0.41748461656E+02  0.57056525598E+02  0.00000000000E+00 0. -1.
          2    1    6    6  503    0 -0.92785254332E+01  0.23041319664E+02  0.10588264966E+03  0.10875720181E+03  0.00000000000E+00 0. -1.
         -2    1    6    6    0  503  0.85851286064E+02  0.84346950300E+02  0.16549016876E+04  0.16592722643E+04  0.00000000000E+00 0.  1.
<mgrwt>
<rscale>  0 0.14250421E+04</rscale>
<asrwt>0</asrwt>
<pdfrwt beam="1">  1        2 0.32466139E+00 0.14250421E+04</pdfrwt>
<pdfrwt beam="2">  1       -1 0.37011615E-01 0.14250421E+04</pdfrwt>
<totfact> 0.45065554E+01</totfact>
</mgrwt>
</event>
<event>
12    7  0.1660832E-007  0.1324708E+04  0.7818608E-02  0.9010198E-01
         -1   -1    0    0    0  501 -0.00000000000E+00  0.00000000000E+00  0.23085449551E+03  0.23085449551E+03  0.00000000000E+00 0.  1.
          2   -1    0    0  501    0  0.00000000000E+00 -0.00000000000E+00 -0.19003858600E+04  0.19003858600E+04  0.00000000000E+00 0. -1.
         24    2    1    2    0    0 -0.15051533655E+03 -0.84418425098E+02  0.33648297861E+02  0.19323751394E+03  0.80169768699E+02 0.  0.
        254    2    1    2    0    0  0.15051533655E+03  0.84418425098E+02 -0.17031796624E+04  0.19380028416E+04  0.90843421043E+03 0.  0.
         23    2    4    4    0    0 -0.29704237015E+02 -0.37425318566E+03 -0.10180581428E+04  0.10890527148E+04  0.92981959892E+02 0.  0.
         23    2    4    4    0    0  0.18021957357E+03  0.45867161075E+03 -0.68512151961E+03  0.84895012681E+03  0.92011303492E+02 0.  0.
          4    1    3    3  502    0 -0.57771971738E+02 -0.16208795200E+02 -0.23829341764E+02  0.64561314184E+02  0.00000000000E+00 0. -1.
         -3    1    3    3    0  502 -0.92743364813E+02 -0.68209629898E+02  0.57477639625E+02  0.12867619976E+03  0.00000000000E+00 0.  1.
         13    1    5    5    0    0 -0.22345615959E+02 -0.24035213796E+03 -0.52067563391E+03  0.57390904551E+03  0.00000000000E+00 0.  1.
        -13    1    5    5    0    0 -0.73586210559E+01 -0.13390104769E+03 -0.49738250884E+03  0.51514366926E+03  0.00000000000E+00 0. -1.
          3    1    6    6  503    0  0.16231685812E+03  0.45204428317E+03 -0.67108545667E+03  0.82525540684E+03  0.00000000000E+00 0. -1.
         -3    1    6    6    0  503  0.17902715448E+02  0.66273275878E+01 -0.14036062938E+02  0.23694719964E+02  0.00000000000E+00 0.  1.
<mgrwt>
<rscale>  0 0.13247077E+04</rscale>
<asrwt>0</asrwt>
<pdfrwt beam="1">  1        2 0.29236705E+00 0.13247077E+04</pdfrwt>
<pdfrwt beam="2">  1       -1 0.35516077E-01 0.13247077E+04</pdfrwt>
<totfact> 0.63971003E+01</totfact>
</mgrwt>
</event>
<event>
12    7  0.1660832E-007  0.2076735E+04  0.7818608E-02  0.8571561E-01
          2   -1    0    0  501    0  0.00000000000E+00  0.00000000000E+00  0.12174899894E+04  0.12174899894E+04  0.00000000000E+00 0. -1.
         -1   -1    0    0    0  501 -0.00000000000E+00 -0.00000000000E+00 -0.88559863838E+03  0.88559863838E+03  0.00000000000E+00 0.  1.
         24    2    1    2    0    0 -0.52860642361E+03  0.24260600415E+03  0.75452540085E+03  0.95602674047E+03  0.79975769060E+02 0.  0.
        254    2    1    2    0    0  0.52860642361E+03 -0.24260600415E+03 -0.42263404986E+03  0.11470618873E+04  0.89378353578E+03 0.  0.
         23    2    4    4    0    0  0.60507134104E+03 -0.47604150309E+03 -0.42697126312E+03  0.88492262862E+03  0.89759449028E+02 0.  0.
         23    2    4    4    0    0 -0.76464917434E+02  0.23343549894E+03  0.43372132678E+01  0.26213925867E+03  0.91428462475E+02 0.  0.
          4    1    3    3  502    0 -0.21312142677E+03  0.12674532218E+03  0.36899359594E+03  0.44456877205E+03  0.00000000000E+00 0. -1.
         -3    1    3    3    0  502 -0.31548499684E+03  0.11586068197E+03  0.38553180491E+03  0.51145796841E+03  0.00000000000E+00 0.  1.
         13    1    5    5    0    0  0.22491189643E+03 -0.12512950791E+03 -0.15473034865E+03  0.30030690252E+03  0.00000000000E+00 0.  1.
        -13    1    5    5    0    0  0.38015944461E+03 -0.35091199519E+03 -0.27224091447E+03  0.58461572610E+03  0.00000000000E+00 0. -1.
          1    1    6    6  503    0 -0.72560695843E+02  0.19811555534E+03 -0.29540099693E+02  0.21304329452E+03  0.00000000000E+00 0. -1.
         -1    1    6    6    0  503 -0.39042215915E+01  0.35319943604E+02  0.33877312961E+02  0.49095964151E+02  0.00000000000E+00 0.  1.
<mgrwt>
<rscale>  0 0.20767354E+04</rscale>
<asrwt>0</asrwt>
<pdfrwt beam="1">  1        2 0.18730615E+00 0.20767354E+04</pdfrwt>
<pdfrwt beam="2">  1       -1 0.13624595E+00 0.20767354E+04</pdfrwt>
<totfact> 0.87569897E+00</totfact>
</mgrwt>
</event>
<event>
12    7  0.1660832E-007  0.1574564E+04  0.7818608E-02  0.8836328E-01
         -1   -1    0    0    0  501 -0.00000000000E+00  0.00000000000E+00  0.44599052239E+03  0.44599052239E+03  0.00000000000E+00 0.  1.
          2   -1    0    0  501    0  0.00000000000E+00 -0.00000000000E+00 -0.13897452298E+04  0.13897452298E+04  0.00000000000E+00 0. -1.
         24    2    1    2    0    0  0.37609182649E+01  0.16768814904E+03  0.26861791743E+03  0.32603915962E+03  0.77540236021E+02 0.  0.
        254    2    1    2    0    0 -0.37609182649E+01 -0.16768814904E+03 -0.12123726249E+04  0.15096965926E+04  0.88385686644E+03 0.  0.
         23    2    4    4    0    0 -0.28785781207E+03  0.21304880097E+03 -0.29834607938E+03  0.47547640508E+03  0.93890985404E+02 0.  0.
         23    2    4    4    0    0  0.28409689381E+03 -0.38073695001E+03 -0.91402654548E+03  0.10342201875E+04  0.92169410615E+02 0.  0.
          2    1    3    3  502    0  0.14321737951E+02  0.72500434614E+02  0.55597086820E+02  0.92479518057E+02  0.00000000000E+00 0. -1.
         -1    1    3    3    0  502 -0.10560819686E+02  0.95187714430E+02  0.21302083061E+03  0.23355964156E+03  0.00000000000E+00 0.  1.
         13    1    5    5    0    0 -0.81894515637E+02  0.10248062317E+03 -0.69995842155E+02  0.14868896306E+03  0.00000000000E+00 0.  1.
        -13    1    5    5    0    0 -0.20596329643E+03  0.11056817780E+03 -0.22835023723E+03  0.32678744202E+03  0.00000000000E+00 0. -1.
          4    1    6    6  503    0  0.72340013785E+02 -0.42155955411E+02 -0.13644610771E+03  0.16008667178E+03  0.00000000000E+00 0.  1.
         -4    1    6    6    0  503  0.21175688002E+03 -0.33858099460E+03 -0.77758043777E+03  0.87413351574E+03  0.00000000000E+00 0. -1.
<mgrwt>
<rscale>  0 0.15745643E+04</rscale>
<asrwt>0</asrwt>
<pdfrwt beam="1">  1        2 0.21380695E+00 0.15745643E+04</pdfrwt>
<pdfrwt beam="2">  1       -1 0.68613928E-01 0.15745643E+04</pdfrwt>
<totfact> 0.34528797E+01</totfact>
</mgrwt>
</event>
<event>
12    7  0.1660832E-007  0.2021801E+04  0.7818608E-02  0.8596495E-01
          2   -1    0    0  501    0  0.00000000000E+00  0.00000000000E+00  0.85232920348E+03  0.85232920348E+03  0.00000000000E+00 0. -1.
         -1   -1    0    0    0  501 -0.00000000000E+00 -0.00000000000E+00 -0.11989736257E+04  0.11989736257E+04  0.00000000000E+00 0.  1.
         24    2    1    2    0    0 -0.26589282256E+03  0.65567273924E+03 -0.53398515592E+03  0.89060056229E+03  0.86159623516E+02 0.  0.
        254    2    1    2    0    0  0.26589282256E+03 -0.65567273924E+03  0.18734073373E+03  0.11607022669E+04  0.90084819350E+03 0.  0.
         23    2    4    4    0    0  0.15134227867E+03 -0.48753016909E+03  0.53592416450E+03  0.74601572359E+03  0.93459074786E+02 0.  0.
         23    2    4    4    0    0  0.11455054389E+03 -0.16814257015E+03 -0.34858343077E+03  0.41468654328E+03  0.95188076819E+02 0.  0.
          4    1    3    3  502    0 -0.75578866083E+02  0.28095949685E+03 -0.24743571412E+03  0.38193564444E+03  0.00000000000E+00 0. -1.
         -3    1    3    3    0  502 -0.19031395648E+03  0.37471324239E+03 -0.28654944180E+03  0.50866491785E+03  0.00000000000E+00 0.  1.
         13    1    5    5    0    0  0.60261170958E+02 -0.10070634330E+03  0.16442659428E+03  0.20201307188E+03  0.00000000000E+00 0.  1.
        -13    1    5    5    0    0  0.91081107717E+02 -0.38682382579E+03  0.37149757022E+03  0.54400265171E+03  0.00000000000E+00 0. -1.
          3    1    6    6  503    0  0.11130319082E+01  0.11803806201E+02 -0.16568069686E+02  0.20373257324E+02  0.00000000000E+00 0. -1.
         -3    1    6    6    0  503  0.11343751198E+03 -0.17994637635E+03 -0.33201536109E+03  0.39431328596E+03  0.00000000000E+00 0.  1.
<mgrwt>
<rscale>  0 0.20218014E+04</rscale>
<asrwt>0</asrwt>
<pdfrwt beam="1">  1        2 0.13112757E+00 0.20218014E+04</pdfrwt>
<pdfrwt beam="2">  1       -1 0.18445748E+00 0.20218014E+04</pdfrwt>
<totfact> 0.64706526E+00</totfact>
</mgrwt>
</event>
<event>
12    7  0.1660832E-007  0.2928199E+04  0.7818608E-02  0.8264537E-01
         -1   -1    0    0    0  501 -0.00000000000E+00  0.00000000000E+00  0.77386718783E+03  0.77386718783E+03  0.00000000000E+00 0.  1.
          2   -1    0    0  501    0  0.00000000000E+00 -0.00000000000E+00 -0.27699676491E+04  0.27699676491E+04  0.00000000000E+00 0. -1.
         24    2    1    2    0    0  0.42118396315E+01  0.31875258524E+03 -0.24868146782E+04  0.25083915511E+04  0.78485537234E+02 0.  0.
        254    2    1    2    0    0 -0.42118396315E+01 -0.31875258524E+03  0.49071421696E+03  0.10354432858E+04  0.85423732374E+03 0.  0.
         23    2    4    4    0    0  0.71303895602E+02 -0.34819077754E+03 -0.14033187902E+03  0.39275265792E+03  0.90777480358E+02 0.  0.
         23    2    4    4    0    0 -0.75515735233E+02  0.29438192309E+02  0.63104609599E+03  0.64269062792E+03  0.90900134846E+02 0.  0.
          2    1    3    3  502    0  0.11548367088E+01  0.28979574779E+03 -0.20215074442E+04  0.20421741493E+04  0.00000000000E+00 0. -1.
         -1    1    3    3    0  502  0.30570029227E+01  0.28956837442E+02 -0.46530723401E+03  0.46621740179E+03  0.00000000000E+00 0.  1.
         13    1    5    5    0    0  0.38999204534E+02 -0.39417704007E+02 -0.11529229394E+02  0.56635823238E+02  0.00000000000E+00 0. -1.
        -13    1    5    5    0    0  0.32304691068E+02 -0.30877307354E+03 -0.12880264963E+03  0.33611683468E+03  0.00000000000E+00 0.  1.
          1    1    6    6  503    0 -0.27950543282E+02 -0.26127399806E+02  0.10846064545E+03  0.11501124077E+03  0.00000000000E+00 0. -1.
         -1    1    6    6    0  503 -0.47565191951E+02  0.55565592114E+02  0.52258545053E+03  0.52767938715E+03  0.00000000000E+00 0.  1.
<mgrwt>
<rscale>  0 0.29281988E+04</rscale>
<asrwt>0</asrwt>
<pdfrwt beam="1">  1        2 0.42614887E+00 0.29281988E+04</pdfrwt>
<pdfrwt beam="2">  1       -1 0.11905649E+00 0.29281988E+04</pdfrwt>
<totfact> 0.14885672E+00</totfact>
</mgrwt>
</event>
<event>
12    7  0.1660832E-007  0.1801266E+04  0.7818608E-02  0.8705627E-01
         -1   -1    0    0    0  501 -0.00000000000E+00  0.00000000000E+00  0.10978134686E+04  0.10978134686E+04  0.00000000000E+00 0.  1.
          2   -1    0    0  501    0  0.00000000000E+00 -0.00000000000E+00 -0.73886813638E+03  0.73886813638E+03  0.00000000000E+00 0. -1.
         24    2    1    2    0    0 -0.51490671109E+03  0.43517911416E+02 -0.30428670700E+03  0.60502769481E+03  0.80283134530E+02 0.  0.
        254    2    1    2    0    0  0.51490671109E+03 -0.43517911416E+02  0.66323203920E+03  0.12316539102E+04  0.90003993625E+03 0.  0.
         23    2    4    4    0    0  0.68014549479E+03  0.70590667855E+02  0.72672941826E+03  0.10019321686E+04  0.90285583625E+02 0.  0.
         23    2    4    4    0    0 -0.16523878371E+03 -0.11410857927E+03 -0.63497379064E+02  0.22972174156E+03  0.91736240896E+02 0.  0.
          4    1    3    3  502    0 -0.47495081640E+03  0.61760554347E+02 -0.28141593003E+03  0.55550658840E+03  0.00000000000E+00 0. -1.
         -3    1    3    3    0  502 -0.39955894684E+02 -0.18242642931E+02 -0.22870776969E+02  0.49521106412E+02  0.00000000000E+00 0.  1.
         13    1    5    5    0    0  0.67861670290E+03  0.72692826711E+02  0.70938553379E+03  0.98439459164E+03  0.00000000000E+00 0. -1.
        -13    1    5    5    0    0  0.15287918959E+01 -0.21021588567E+01  0.17343884474E+02  0.17537576947E+02  0.00000000000E+00 0.  1.
          3    1    6    6  503    0 -0.14897572596E+03 -0.12798923694E+03 -0.68051965845E+02  0.20786072682E+03  0.00000000000E+00 0. -1.
         -3    1    6    6    0  503 -0.16263057746E+02  0.13880657674E+02  0.45545867814E+01  0.21861014740E+02  0.00000000000E+00 0.  1.
<mgrwt>
<rscale>  0 0.18012655E+04</rscale>
<asrwt>0</asrwt>
<pdfrwt beam="1">  1        2 0.11367202E+00 0.18012655E+04</pdfrwt>
<pdfrwt beam="2">  1       -1 0.16889438E+00 0.18012655E+04</pdfrwt>
<totfact> 0.10331003E+01</totfact>
</mgrwt>
</event>
<event>
12    7  0.1660832E-007  0.1382678E+04  0.7818608E-02  0.8966454E-01
          2   -1    0    0  501    0  0.00000000000E+00  0.00000000000E+00  0.16878665191E+04  0.16878665191E+04  0.00000000000E+00 0. -1.
         -1   -1    0    0    0  501 -0.00000000000E+00 -0.00000000000E+00 -0.28316773262E+03  0.28316773262E+03  0.00000000000E+00 0.  1.
         24    2    1    2    0    0 -0.22444487551E+03  0.31437850221E+03  0.36372517574E+03  0.54109559759E+03  0.10620309539E+03 0.  0.
        254    2    1    2    0    0  0.22444487551E+03 -0.31437850221E+03  0.10409736107E+04  0.14299386541E+04  0.90104891736E+03 0.  0.
         23    2    4    4    0    0  0.22928747855E+03 -0.56061861280E+03  0.38694940171E+03  0.72519625372E+03  0.96507979380E+02 0.  0.
         23    2    4    4    0    0 -0.48426030412E+01  0.24624011059E+03  0.65402420899E+03  0.70474240037E+03  0.90865516325E+02 0.  0.
          2    1    3    3  502    0  0.10606374428E+02  0.15797772617E+02  0.29061810011E+02  0.34736919830E+02  0.00000000000E+00 0. -1.
         -1    1    3    3    0  502 -0.23505124994E+03  0.29858072959E+03  0.33466336573E+03  0.50635867776E+03  0.00000000000E+00 0.  1.
         13    1    5    5    0    0  0.25843558989E+02 -0.95656496449E+02  0.10599901939E+03  0.14509943820E+03  0.00000000000E+00 0.  1.
        -13    1    5    5    0    0  0.20344391956E+03 -0.46496211635E+03  0.28095038232E+03  0.58009681552E+03  0.00000000000E+00 0. -1.
          4    1    6    6  503    0 -0.10896656817E+01  0.22677266238E+03  0.49484372729E+03  0.54433201469E+03  0.00000000000E+00 0. -1.
         -4    1    6    6    0  503 -0.37529373595E+01  0.19467448210E+02  0.15918048170E+03  0.16041038568E+03  0.00000000000E+00 0.  1.
<mgrwt>
<rscale>  0 0.13826776E+04</rscale>
<asrwt>0</asrwt>
<pdfrwt beam="1">  1        2 0.25967177E+00 0.13826776E+04</pdfrwt>
<pdfrwt beam="2">  1       -1 0.43564268E-01 0.13826776E+04</pdfrwt>
<totfact> 0.57532184E+01</totfact>
</mgrwt>
</event>
<event>
12    7  0.1660832E-007  0.2666085E+04  0.7818608E-02  0.8346094E-01
          2   -1    0    0  501    0  0.00000000000E+00  0.00000000000E+00  0.18299886289E+04  0.18299886289E+04  0.00000000000E+00 0. -1.
         -1   -1    0    0    0  501 -0.00000000000E+00 -0.00000000000E+00 -0.97104590733E+03  0.97104590733E+03  0.00000000000E+00 0.  1.
         24    2    1    2    0    0  0.70181311702E+02  0.11768309020E+04  0.40247991852E+03  0.12480183991E+04  0.75521198146E+02 0.  0.
        254    2    1    2    0    0 -0.70181311702E+02 -0.11768309020E+04  0.45646280303E+03  0.15530161371E+04  0.90202241828E+03 0.  0.
         23    2    4    4    0    0 -0.43937541701E+03 -0.79967163514E+03  0.43831908114E+03  0.10164519282E+04  0.92333224122E+02 0.  0.
         23    2    4    4    0    0  0.36919410531E+03 -0.37715926686E+03  0.18143721886E+02  0.53656420891E+03  0.94966076415E+02 0.  0.
          2    1    3    3  502    0 -0.80975509444E+01  0.78619732648E+02  0.12632660283E+02  0.80038845561E+02  0.00000000000E+00 0. -1.
         -1    1    3    3    0  502  0.78278862646E+02  0.10982111693E+04  0.38984725823E+03  0.11679795536E+04  0.00000000000E+00 0.  1.
         13    1    5    5    0    0 -0.40633740583E+03 -0.77369681632E+03  0.40698264358E+03  0.96402890161E+03  0.00000000000E+00 0. -1.
        -13    1    5    5    0    0 -0.33038011176E+02 -0.25974818819E+02  0.31336437559E+02  0.52423026563E+02  0.00000000000E+00 0.  1.
          2    1    6    6  503    0  0.26516104018E+03 -0.20874625492E+03  0.25871665787E+02  0.33845933177E+03  0.00000000000E+00 0. -1.
         -2    1    6    6    0  503  0.10403306513E+03 -0.16841301193E+03 -0.77279439008E+01  0.19810487714E+03  0.00000000000E+00 0.  1.
<mgrwt>
<rscale>  0 0.26660855E+04</rscale>
<asrwt>0</asrwt>
<pdfrwt beam="1">  1        2 0.28153671E+00 0.26660855E+04</pdfrwt>
<pdfrwt beam="2">  1       -1 0.14939168E+00 0.26660855E+04</pdfrwt>
<totfact> 0.29329427E+00</totfact>
</mgrwt>
</event>
<event>
12    7  0.1660832E-007  0.1244581E+04  0.7818608E-02  0.9074705E-01
         -1   -1    0    0    0  501 -0.00000000000E+00  0.00000000000E+00  0.84317573053E+03  0.84317573053E+03  0.00000000000E+00 0.  1.
          2   -1    0    0  501    0  0.00000000000E+00 -0.00000000000E+00 -0.45927046300E+03  0.45927046300E+03  0.00000000000E+00 0. -1.
         24    2    1    2    0    0 -0.75180238104E+02 -0.24143209804E+03 -0.93772708180E+02  0.28137929647E+03  0.80246255444E+02 0.  0.
        254    2    1    2    0    0  0.75180238104E+02  0.24143209804E+03  0.47767797572E+03  0.10210668971E+04  0.86629084818E+03 0.  0.
         23    2    4    4    0    0  0.33607155503E+03 -0.17827917458E+03  0.13227589799E+03  0.41141553417E+03  0.83894424019E+02 0.  0.
         23    2    4    4    0    0 -0.26089131692E+03  0.41971127263E+03  0.34540207773E+03  0.60965136289E+03  0.90279329650E+02 0.  0.
          2    1    3    3  502    0 -0.69876120631E+02 -0.23897876708E+03 -0.10381435327E+03  0.26976090023E+03  0.00000000000E+00 0. -1.
         -1    1    3    3    0  502 -0.53041174733E+01 -0.24533309634E+01  0.10041645087E+02  0.11618396234E+02  0.00000000000E+00 0.  1.
         13    1    5    5    0    0  0.24529778862E+03 -0.12134456755E+03  0.54580890016E+02  0.27906017762E+03  0.00000000000E+00 0. -1.
        -13    1    5    5    0    0  0.90773766406E+02 -0.56934607034E+02  0.77695007969E+02  0.13235535656E+03  0.00000000000E+00 0.  1.
          1    1    6    6  503    0 -0.24056579742E+03  0.31884662568E+03  0.27095491127E+03  0.48265063715E+03  0.00000000000E+00 0. -1.
         -1    1    6    6    0  503 -0.20325519504E+02  0.10086464694E+03  0.74447166461E+02  0.12700072575E+03  0.00000000000E+00 0.  1.
<mgrwt>
<rscale>  0 0.12445814E+04</rscale>
<asrwt>0</asrwt>
<pdfrwt beam="1">  1        2 0.70656994E-01 0.12445814E+04</pdfrwt>
<pdfrwt beam="2">  1       -1 0.12971934E+00 0.12445814E+04</pdfrwt>
<totfact> 0.39001619E+01</totfact>
</mgrwt>
</event>
<event>
12    7  0.1660832E-007  0.1452595E+04  0.7818608E-02  0.8916604E-01
          2   -1    0    0  501    0  0.00000000000E+00  0.00000000000E+00  0.26198824471E+04  0.26198824471E+04  0.00000000000E+00 0. -1.
         -1   -1    0    0    0  501 -0.00000000000E+00 -0.00000000000E+00 -0.20134792847E+03  0.20134792847E+03  0.00000000000E+00 0.  1.
         24    2    1    2    0    0 -0.22890117045E+03 -0.15403449692E+03  0.13715635171E+04  0.14013471611E+04  0.80405301273E+02 0.  0.
        254    2    1    2    0    0  0.22890117045E+03  0.15403449692E+03  0.10469710015E+04  0.14198832144E+04  0.91858461370E+03 0.  0.
         23    2    4    4    0    0  0.15385749104E+03  0.94349594040E+02  0.12013493303E+04  0.12181808765E+04  0.90279903703E+02 0.  0.
         23    2    4    4    0    0  0.75043679412E+02  0.59684902877E+02 -0.15437832880E+03  0.20170233791E+03  0.87506132733E+02 0.  0.
          2    1    3    3  502    0 -0.79821971293E+02 -0.65843538636E+02  0.70926461359E+03  0.71677277485E+03  0.00000000000E+00 0. -1.
         -1    1    3    3    0  502 -0.14907919916E+03 -0.88190958280E+02  0.66229890349E+03  0.68457438625E+03  0.00000000000E+00 0.  1.
         13    1    5    5    0    0  0.14773006168E+03  0.61724629327E+02  0.10985196803E+04  0.11101259338E+04  0.00000000000E+00 0. -1.
        -13    1    5    5    0    0  0.61274293590E+01  0.32624964713E+02  0.10282965002E+03  0.10805494268E+03  0.00000000000E+00 0.  1.
          1    1    6    6  503    0  0.89286432951E+02  0.34460887291E+02 -0.13940003548E+03  0.16909166081E+03  0.00000000000E+00 0. -1.
         -1    1    6    6    0  503 -0.14242753540E+02  0.25224015586E+02 -0.14978293317E+02  0.32610677107E+02  0.00000000000E+00 0.  1.
<mgrwt>
<rscale>  0 0.14525948E+04</rscale>
<asrwt>0</asrwt>
<pdfrwt beam="1">  1        2 0.40305881E+00 0.14525948E+04</pdfrwt>
<pdfrwt beam="2">  1       -1 0.30976606E-01 0.14525948E+04</pdfrwt>
<totfact> 0.31678163E+01</totfact>
</mgrwt>
</event>
<event>
12    7  0.1660832E-007  0.1328193E+04  0.7818608E-02  0.9007502E-01
         -1   -1    0    0    0  501 -0.00000000000E+00  0.00000000000E+00  0.60463646118E+03  0.60463646118E+03  0.00000000000E+00 0.  1.
          2   -1    0    0  501    0  0.00000000000E+00 -0.00000000000E+00 -0.72940384158E+03  0.72940384158E+03  0.00000000000E+00 0. -1.
         24    2    1    2    0    0  0.32574797065E+03 -0.15541515393E+03  0.42520890733E+01  0.36929101216E+03  0.78052296235E+02 0.  0.
        254    2    1    2    0    0 -0.32574797065E+03  0.15541515393E+03 -0.12901946948E+03  0.96474929061E+03  0.88534149331E+03 0.  0.
         23    2    4    4    0    0  0.51930923296E+02 -0.31992889987E+03 -0.95265572691E+02  0.34976075488E+03  0.90585509605E+02 0.  0.
         23    2    4    4    0    0 -0.37767889394E+03  0.47534405380E+03 -0.33753896785E+02  0.61498853572E+03  0.92077451698E+02 0.  0.
          4    1    3    3  502    0  0.10278722206E+03 -0.54173733106E+02  0.37687389077E+02  0.12214886685E+03  0.00000000000E+00 0. -1.
         -3    1    3    3    0  502  0.22296074858E+03 -0.10124142083E+03 -0.33435300004E+02  0.24714214531E+03  0.00000000000E+00 0.  1.
         13    1    5    5    0    0  0.30766695845E+02 -0.31130264551E+02 -0.29593255002E+02  0.52834114792E+02  0.00000000000E+00 0. -1.
        -13    1    5    5    0    0  0.21164227450E+02 -0.28879863532E+03 -0.65672317690E+02  0.29692664009E+03  0.00000000000E+00 0.  1.
          2    1    6    6  503    0 -0.12276240918E+03  0.97179680625E+02 -0.26977530191E+02  0.15887821301E+03  0.00000000000E+00 0. -1.
         -2    1    6    6    0  503 -0.25491648476E+03  0.37816437318E+03 -0.67763665941E+01  0.45611032272E+03  0.00000000000E+00 0.  1.
<mgrwt>
<rscale>  0 0.13281930E+04</rscale>
<asrwt>0</asrwt>
<pdfrwt beam="1">  1        2 0.11221598E+00 0.13281930E+04</pdfrwt>
<pdfrwt beam="2">  1       -1 0.93020994E-01 0.13281930E+04</pdfrwt>
<totfact> 0.48776516E+01</totfact>
</mgrwt>
</event>
<event>
12    7  0.1660832E-007  0.2431275E+04  0.7818608E-02  0.8427887E-01
         -3   -1    0    0    0  501 -0.00000000000E+00  0.00000000000E+00  0.16884220203E+04  0.16884220203E+04  0.00000000000E+00 0.  1.
          2   -1    0    0  501    0  0.00000000000E+00 -0.00000000000E+00 -0.87524021815E+03  0.87524021815E+03  0.00000000000E+00 0. -1.
         24    2    1    2    0    0  0.38180481494E+03 -0.81628185544E+03  0.93302089463E+03  0.12997602269E+04  0.82205069814E+02 0.  0.
        254    2    1    2    0    0 -0.38180481494E+03  0.81628185544E+03 -0.11983909249E+03  0.12639020115E+04  0.87806372342E+03 0.  0.
         23    2    4    4    0    0 -0.38142195477E+03  0.47453613710E+02  0.17874160001E+03  0.43391537536E+03  0.92733167581E+02 0.  0.
         23    2    4    4    0    0 -0.38286017102E+00  0.76882824173E+03 -0.29858069250E+03  0.82998663615E+03  0.92899808352E+02 0.  0.
          2    1    3    3  502    0  0.25476635740E+01 -0.19325867417E+02  0.75481329421E+01  0.20903445937E+02  0.00000000000E+00 0. -1.
         -1    1    3    3    0  502  0.37925715136E+03 -0.79695598802E+03  0.92547276169E+03  0.12788567810E+04  0.00000000000E+00 0.  1.
         13    1    5    5    0    0 -0.37250554666E+03  0.62665990895E+02  0.16990346711E+03  0.41419149779E+03  0.00000000000E+00 0. -1.
        -13    1    5    5    0    0 -0.89164081006E+01 -0.15212377185E+02  0.88381329044E+01  0.19723877567E+02  0.00000000000E+00 0.  1.
          4    1    6    6  503    0 -0.46538264829E+02  0.40130031473E+03 -0.15308764237E+03  0.43202266021E+03  0.00000000000E+00 0. -1.
         -4    1    6    6    0  503  0.46155404658E+02  0.36752792700E+03 -0.14549305013E+03  0.39796397593E+03  0.00000000000E+00 0.  1.
<mgrwt>
<rscale>  0 0.24312753E+04</rscale>
<asrwt>0</asrwt>
<pdfrwt beam="1">  1        2 0.13465234E+00 0.24312753E+04</pdfrwt>
<pdfrwt beam="2">  1       -3 0.25975723E+00 0.24312753E+04</pdfrwt>
<totfact> 0.11005073E+00</totfact>
</mgrwt>
</event>
<event>
12    7  0.1660832E-007  0.1417247E+04  0.7818608E-02  0.8941428E-01
          2   -1    0    0  501    0  0.00000000000E+00  0.00000000000E+00  0.13112914943E+04  0.13112914943E+04  0.00000000000E+00 0. -1.
         -1   -1    0    0    0  501 -0.00000000000E+00 -0.00000000000E+00 -0.38294072244E+03  0.38294072244E+03  0.00000000000E+00 0.  1.
         24    2    1    2    0    0  0.62235550751E+02 -0.36631830153E+02 -0.21224531007E+03  0.23747994153E+03  0.78316640792E+02 0.  0.
        254    2    1    2    0    0 -0.62235550751E+02  0.36631830153E+02  0.11405960819E+04  0.14567522752E+04  0.90330095451E+03 0.  0.
         23    2    4    4    0    0 -0.44550426037E+03 -0.13733223525E+03  0.57689959033E+03  0.74737091743E+03  0.91738552725E+02 0.  0.
         23    2    4    4    0    0  0.38326870962E+03  0.17396406540E+03  0.56369649158E+03  0.70938135775E+03  0.91157974256E+02 0.  0.
          4    1    3    3  502    0  0.28300424861E+02 -0.44846696498E+02 -0.54985432414E+02  0.76390693228E+02  0.00000000000E+00 0. -1.
         -3    1    3    3    0  502  0.33935125890E+02  0.82148663444E+01 -0.15725987766E+03  0.16108924831E+03  0.00000000000E+00 0.  1.
         13    1    5    5    0    0 -0.23325042806E+03 -0.56314967038E+02  0.22785400369E+03  0.33089965957E+03  0.00000000000E+00 0.  1.
        -13    1    5    5    0    0 -0.21225383231E+03 -0.81017268209E+02  0.34904558663E+03  0.41647125787E+03  0.00000000000E+00 0. -1.
          3    1    6    6  503    0  0.72984625489E+02  0.32873969649E+02  0.55284564663E+02  0.97282251867E+02  0.00000000000E+00 0. -1.
         -3    1    6    6    0  503  0.31028408413E+03  0.14109009575E+03  0.50841192692E+03  0.61209910588E+03  0.00000000000E+00 0.  1.
<mgrwt>
<rscale>  0 0.14172465E+04</rscale>
<asrwt>0</asrwt>
<pdfrwt beam="1">  1        2 0.20173715E+00 0.14172465E+04</pdfrwt>
<pdfrwt beam="2">  1       -1 0.58913958E-01 0.14172465E+04</pdfrwt>
<totfact> 0.52684976E+01</totfact>
</mgrwt>
</event>
<event>
12    7  0.1660832E-007  0.2263977E+04  0.7818608E-02  0.8492262E-01
          2   -1    0    0  501    0  0.00000000000E+00  0.00000000000E+00  0.14708115903E+04  0.14708115903E+04  0.00000000000E+00 0. -1.
         -1   -1    0    0    0  501 -0.00000000000E+00 -0.00000000000E+00 -0.87121792232E+03  0.87121792232E+03  0.00000000000E+00 0.  1.
         24    2    1    2    0    0  0.44816040782E+03 -0.21845690688E+03 -0.58528796959E+03  0.77306332988E+03  0.80583704044E+02 0.  0.
        254    2    1    2    0    0 -0.44816040782E+03  0.21845690688E+03  0.11848816375E+04  0.15689661827E+04  0.89952165966E+03 0.  0.
         23    2    4    4    0    0 -0.43201332234E+03 -0.23765436266E+03  0.87979694131E+03  0.10126658795E+04  0.91293037697E+02 0.  0.
         23    2    4    4    0    0 -0.16147085485E+02  0.45611126954E+03  0.30508469621E+03  0.55630030323E+03  0.89972978935E+02 0.  0.
          2    1    3    3  502    0  0.14402144526E+03 -0.58288056676E+02 -0.12996269249E+03  0.20255857347E+03  0.00000000000E+00 0. -1.
         -1    1    3    3    0  502  0.30413896256E+03 -0.16016885021E+03 -0.45532527710E+03  0.57050475641E+03  0.00000000000E+00 0.  1.
         13    1    5    5    0    0 -0.33892819851E+03 -0.22343157561E+03  0.68378069606E+03  0.79520439702E+03  0.00000000000E+00 0. -1.
        -13    1    5    5    0    0 -0.93085123820E+02 -0.14222787048E+02  0.19601624525E+03  0.21746148245E+03  0.00000000000E+00 0.  1.
          2    1    6    6  503    0  0.35211464186E+02  0.18068366868E+03  0.10395635284E+03  0.21140803824E+03  0.00000000000E+00 0. -1.
         -2    1    6    6    0  503 -0.51358549671E+02  0.27542760086E+03  0.20112834337E+03  0.34489226499E+03  0.00000000000E+00 0.  1.
<mgrwt>
<rscale>  0 0.22639765E+04</rscale>
<asrwt>0</asrwt>
<pdfrwt beam="1">  1        2 0.22627871E+00 0.22639765E+04</pdfrwt>
<pdfrwt beam="2">  1       -1 0.13403353E+00 0.22639765E+04</pdfrwt>
<totfact> 0.64093962E+00</totfact>
</mgrwt>
</event>
<event>
12    7  0.1660832E-007  0.2943559E+04  0.7818608E-02  0.8260034E-01
          2   -1    0    0  501    0  0.00000000000E+00  0.00000000000E+00  0.57275956336E+04  0.57275956336E+04  0.00000000000E+00 0. -1.
         -1   -1    0    0    0  501 -0.00000000000E+00 -0.00000000000E+00 -0.37819271027E+03  0.37819271027E+03  0.00000000000E+00 0.  1.
         24    2    1    2    0    0 -0.11084482182E+04 -0.21927844405E+03  0.38738956217E+04  0.40361225971E+04  0.80485047853E+02 0.  0.
        254    2    1    2    0    0  0.11084482182E+04  0.21927844405E+03  0.14755073017E+04  0.20696657468E+04  0.91085345568E+03 0.  0.
         23    2    4    4    0    0  0.72896018808E+03 -0.30618265441E+03  0.81526781671E+03  0.11395605809E+04  0.93839921946E+02 0.  0.
         23    2    4    4    0    0  0.37948803007E+03  0.52546109846E+03  0.66023948498E+03  0.93010516587E+03  0.95178312026E+02 0.  0.
          2    1    3    3  502    0 -0.53077537804E+03 -0.67401109173E+02  0.18873140810E+04  0.19616880108E+04  0.00000000000E+00 0. -1.
         -1    1    3    3    0  502 -0.57767284012E+03 -0.15187733488E+03  0.19865815407E+04  0.20744345863E+04  0.00000000000E+00 0.  1.
         13    1    5    5    0    0  0.59174910147E+03 -0.23096423388E+03  0.60302007159E+03  0.87586795989E+03  0.00000000000E+00 0. -1.
        -13    1    5    5    0    0  0.13721108661E+03 -0.75218420524E+02  0.21224774512E+03  0.26369262103E+03  0.00000000000E+00 0.  1.
          2    1    6    6  503    0  0.28888128133E+03  0.43459290146E+03  0.48130521309E+03  0.70991414471E+03  0.00000000000E+00 0. -1.
         -2    1    6    6    0  503  0.90606748740E+02  0.90868197000E+02  0.17893427189E+03  0.22019102116E+03  0.00000000000E+00 0.  1.
<mgrwt>
<rscale>  0 0.29435590E+04</rscale>
<asrwt>0</asrwt>
<pdfrwt beam="1">  1        2 0.88116849E+00 0.29435590E+04</pdfrwt>
<pdfrwt beam="2">  1       -1 0.58183498E-01 0.29435590E+04</pdfrwt>
<totfact> 0.59117784E-03</totfact>
</mgrwt>
</event>
<event>
12    7  0.1660832E-007  0.2448741E+04  0.7818608E-02  0.8421478E-01
         -1   -1    0    0    0  501 -0.00000000000E+00  0.00000000000E+00  0.22704710399E+04  0.22704710399E+04  0.00000000000E+00 0.  1.
          2   -1    0    0  501    0  0.00000000000E+00 -0.00000000000E+00 -0.66025206968E+03  0.66025206968E+03  0.00000000000E+00 0. -1.
         24    2    1    2    0    0 -0.18114115427E+03  0.85638213908E+03  0.13980651015E+04  0.16513918292E+04  0.79413219526E+02 0.  0.
        254    2    1    2    0    0  0.18114115427E+03 -0.85638213908E+03  0.21215386866E+03  0.12793312804E+04  0.90855752435E+03 0.  0.
         23    2    4    4    0    0 -0.28201535980E+03 -0.70193068578E+03  0.17222673567E+03  0.78105490540E+03  0.90251681250E+02 0.  0.
         23    2    4    4    0    0  0.46315651407E+03 -0.15445145330E+03  0.39927132987E+02  0.49827637498E+03  0.91191896349E+02 0.  0.
          4    1    3    3  502    0 -0.66273860381E+01  0.16749481423E+02  0.55102922963E+02  0.57972402854E+02  0.00000000000E+00 0. -1.
         -3    1    3    3    0  502 -0.17451376823E+03  0.83963265766E+03  0.13429621786E+04  0.15934194263E+04  0.00000000000E+00 0.  1.
         13    1    5    5    0    0 -0.11452891460E+03 -0.19074089794E+03  0.28844300591E+02  0.22434561752E+03  0.00000000000E+00 0.  1.
        -13    1    5    5    0    0 -0.16748644520E+03 -0.51118978784E+03  0.14338243508E+03  0.55670928788E+03  0.00000000000E+00 0. -1.
          1    1    6    6  503    0  0.18155810980E+03 -0.20330453179E+02 -0.71697692387E+01  0.18283347657E+03  0.00000000000E+00 0. -1.
         -1    1    6    6    0  503  0.28159840426E+03 -0.13412100012E+03  0.47096902225E+02  0.31544289841E+03  0.00000000000E+00 0.  1.
<mgrwt>
<rscale>  0 0.24487411E+04</rscale>
<asrwt>0</asrwt>
<pdfrwt beam="1">  1        2 0.10157724E+00 0.24487411E+04</pdfrwt>
<pdfrwt beam="2">  1       -1 0.34930323E+00 0.24487411E+04</pdfrwt>
<totfact> 0.70791646E-01</totfact>
</mgrwt>
</event>
<event>
12    7  0.1660832E-007  0.1354458E+04  0.7818608E-02  0.8987460E-01
         -3   -1    0    0    0  501 -0.00000000000E+00  0.00000000000E+00  0.66386614814E+03  0.66386614814E+03  0.00000000000E+00 0.  1.
          2   -1    0    0  501    0  0.00000000000E+00 -0.00000000000E+00 -0.69086123912E+03  0.69086123912E+03  0.00000000000E+00 0. -1.
         24    2    1    2    0    0  0.35473960857E+03 -0.81751145370E+02  0.66837622234E+02  0.37898249095E+03  0.81467914158E+02 0.  0.
        254    2    1    2    0    0 -0.35473960857E+03  0.81751145370E+02 -0.93832713216E+02  0.97574489631E+03  0.90041661743E+03 0.  0.
         23    2    4    4    0    0 -0.10703104501E+03  0.45019967265E+03 -0.19719814829E+03  0.51101876714E+03  0.90098173260E+02 0.  0.
         23    2    4    4    0    0 -0.24770856357E+03 -0.36844852728E+03  0.10336543508E+03  0.46472612918E+03  0.90399735907E+02 0.  0.
          2    1    3    3  502    0  0.71472151864E+02  0.38253374743E+00 -0.14732646384E+02  0.72975788407E+02  0.00000000000E+00 0. -1.
         -1    1    3    3    0  502  0.28326745671E+03 -0.82133679117E+02  0.81570268619E+02  0.30600670254E+03  0.00000000000E+00 0.  1.
         13    1    5    5    0    0 -0.12482671455E+02  0.16948382083E+03 -0.35733707930E+02  0.17365909274E+03  0.00000000000E+00 0. -1.
        -13    1    5    5    0    0 -0.94548373551E+02  0.28071585182E+03 -0.16146444036E+03  0.33735967439E+03  0.00000000000E+00 0.  1.
          4    1    6    6  503    0 -0.15633372673E+03 -0.23993848263E+03  0.11031857997E+03  0.30688906570E+03  0.00000000000E+00 0. -1.
         -4    1    6    6    0  503 -0.91374836839E+02 -0.12851004465E+03 -0.69531448925E+01  0.15783706348E+03  0.00000000000E+00 0.  1.
<mgrwt>
<rscale>  0 0.13544584E+04</rscale>
<asrwt>0</asrwt>
<pdfrwt beam="1">  1        2 0.10628634E+00 0.13544584E+04</pdfrwt>
<pdfrwt beam="2">  1       -3 0.10213325E+00 0.13544584E+04</pdfrwt>
<totfact> 0.21363908E+01</totfact>
</mgrwt>
</event>
<event>
12    7  0.1660832E-007  0.2109600E+04  0.7818608E-02  0.8557026E-01
          2   -1    0    0  501    0  0.00000000000E+00  0.00000000000E+00  0.12067356256E+04  0.12067356256E+04  0.00000000000E+00 0. -1.
         -1   -1    0    0    0  501 -0.00000000000E+00 -0.00000000000E+00 -0.92199432603E+03  0.92199432603E+03  0.00000000000E+00 0.  1.
         24    2    1    2    0    0 -0.15752719410E+03  0.85518776285E+03  0.11613836509E+03  0.88078575486E+03  0.78323045799E+02 0.  0.
        254    2    1    2    0    0  0.15752719410E+03 -0.85518776285E+03  0.16860293445E+03  0.12479441967E+04  0.87907726739E+03 0.  0.
         23    2    4    4    0    0  0.44500461114E+03 -0.16941889009E+03  0.28338138382E+02  0.48573360798E+03  0.91663643698E+02 0.  0.
         23    2    4    4    0    0 -0.28747741704E+03 -0.68576887276E+03  0.14026479607E+03  0.76221058876E+03  0.91479814361E+02 0.  0.
          4    1    3    3  502    0 -0.14108189731E+03  0.70795548151E+03  0.68273420570E+02  0.72509745931E+03  0.00000000000E+00 0. -1.
         -3    1    3    3    0  502 -0.16445296795E+02  0.14723228134E+03  0.47864944517E+02  0.15568829555E+03  0.00000000000E+00 0.  1.
         13    1    5    5    0    0  0.36743886876E+03 -0.10396111895E+03  0.38160113525E+02  0.38376481183E+03  0.00000000000E+00 0.  1.
        -13    1    5    5    0    0  0.77565742379E+02 -0.65457771137E+02 -0.98219751432E+01  0.10196879615E+03  0.00000000000E+00 0. -1.
          4    1    6    6  503    0 -0.28070583572E+03 -0.62641353490E+03  0.10982690289E+03  0.69516302513E+03  0.00000000000E+00 0. -1.
         -4    1    6    6    0  503 -0.67715813214E+01 -0.59355337861E+02  0.30437893184E+02  0.67047563622E+02  0.00000000000E+00 0.  1.
<mgrwt>
<rscale>  0 0.21096003E+04</rscale>
<asrwt>0</asrwt>
<pdfrwt beam="1">  1        2 0.18565164E+00 0.21096003E+04</pdfrwt>
<pdfrwt beam="2">  1       -1 0.14184528E+00 0.21096003E+04</pdfrwt>
<totfact> 0.79789853E+00</totfact>
</mgrwt>
</event>
<event>
12    7  0.1660832E-007  0.1441639E+04  0.7818608E-02  0.8924217E-01
          2   -1    0    0  501    0  0.00000000000E+00  0.00000000000E+00  0.51377444576E+03  0.51377444576E+03  0.00000000000E+00 0. -1.
         -1   -1    0    0    0  501 -0.00000000000E+00 -0.00000000000E+00 -0.10113018687E+04  0.10113018687E+04  0.00000000000E+00 0.  1.
         24    2    1    2    0    0 -0.23838942631E+03  0.26432853377E+03  0.11256938153E+03  0.38159711978E+03  0.79027867410E+02 0.  0.
        254    2    1    2    0    0  0.23838942631E+03 -0.26432853377E+03 -0.61009680448E+03  0.11434791947E+04  0.89923715753E+03 0.  0.
         23    2    4    4    0    0  0.29543333668E+03 -0.35808667047E+03 -0.78560920523E+03  0.91716855816E+03  0.92246521619E+02 0.  0.
         23    2    4    4    0    0 -0.57043910373E+02  0.93758136698E+02  0.17551240075E+03  0.22631063652E+03  0.91472976751E+02 0.  0.
          4    1    3    3  502    0 -0.12044650899E+03  0.84591020612E+02  0.24181646758E+02  0.14915681123E+03  0.00000000000E+00 0. -1.
         -3    1    3    3    0  502 -0.11794291732E+03  0.17973751316E+03  0.88387734775E+02  0.23244030855E+03  0.00000000000E+00 0.  1.
         13    1    5    5    0    0  0.14472117687E+03 -0.12601008428E+03 -0.25973713814E+03  0.32293364845E+03  0.00000000000E+00 0.  1.
        -13    1    5    5    0    0  0.15071215981E+03 -0.23207658619E+03 -0.52587206709E+03  0.59423490971E+03  0.00000000000E+00 0. -1.
          3    1    6    6  503    0  0.97707516264E+01  0.43172007182E+02  0.11418298032E+03  0.12246241377E+03  0.00000000000E+00 0. -1.
         -3    1    6    6    0  503 -0.66814661999E+02  0.50586129517E+02  0.61329420432E+02  0.10384822275E+03  0.00000000000E+00 0.  1.
<mgrwt>
<rscale>  0 0.14416394E+04</rscale>
<asrwt>0</asrwt>
<pdfrwt beam="1">  1        2 0.79042223E-01 0.14416394E+04</pdfrwt>
<pdfrwt beam="2">  1       -1 0.15558490E+00 0.14416394E+04</pdfrwt>
<totfact> 0.20903251E+01</totfact>
</mgrwt>
</event>
<event>
12    7  0.1660832E-007  0.1172632E+04  0.7818608E-02  0.9137155E-01
          2   -1    0    0  501    0  0.00000000000E+00  0.00000000000E+00  0.12920239380E+04  0.12920239380E+04  0.00000000000E+00 0. -1.
         -1   -1    0    0    0  501 -0.00000000000E+00 -0.00000000000E+00 -0.26606831022E+03  0.26606831022E+03  0.00000000000E+00 0.  1.
         24    2    1    2    0    0  0.82911974622E+02 -0.16467121446E+03  0.39733456803E+03  0.44558982420E+03  0.81758963239E+02 0.  0.
        254    2    1    2    0    0 -0.82911974622E+02  0.16467121446E+03  0.62862105975E+03  0.11125024240E+04  0.89916972942E+03 0.  0.
         23    2    4    4    0    0 -0.45991494973E+03 -0.53532641713E+02  0.32863559481E+03  0.57537849155E+03  0.93121155755E+02 0.  0.
         23    2    4    4    0    0  0.37700297510E+03  0.21820385617E+03  0.29998546494E+03  0.53712393249E+03  0.93630516329E+02 0.  0.
          4    1    3    3  502    0  0.90673960976E+02 -0.15535685626E+03  0.31814498370E+03  0.36547742835E+03  0.00000000000E+00 0. -1.
         -3    1    3    3    0  502 -0.77619863538E+01 -0.93143582021E+01  0.79189584336E+02  0.80112395846E+02  0.00000000000E+00 0.  1.
         13    1    5    5    0    0 -0.83508668483E+02 -0.14456088185E+02  0.20070762625E+02  0.87094843187E+02  0.00000000000E+00 0.  1.
        -13    1    5    5    0    0 -0.37640628124E+03 -0.39076553527E+02  0.30856483219E+03  0.48828364836E+03  0.00000000000E+00 0. -1.
          1    1    6    6  503    0  0.33369247989E+03  0.15905388149E+03  0.22765679951E+03  0.43413871828E+03  0.00000000000E+00 0. -1.
         -1    1    6    6    0  503  0.43310495213E+02  0.59149974685E+02  0.72328665432E+02  0.10298521420E+03  0.00000000000E+00 0.  1.
<mgrwt>
<rscale>  0 0.11726323E+04</rscale>
<asrwt>0</asrwt>
<pdfrwt beam="1">  1        2 0.19877291E+00 0.11726323E+04</pdfrwt>
<pdfrwt beam="2">  1       -1 0.40933587E-01 0.11726323E+04</pdfrwt>
<totfact> 0.10983838E+02</totfact>
</mgrwt>
</event>
<event>
12    7  0.1660832E-007  0.1505786E+04  0.7818608E-02  0.8880614E-01
         -1   -1    0    0    0  501 -0.00000000000E+00  0.00000000000E+00  0.35160725630E+03  0.35160725630E+03  0.00000000000E+00 0.  1.
          2   -1    0    0  501    0  0.00000000000E+00 -0.00000000000E+00 -0.16121619032E+04  0.16121619032E+04  0.00000000000E+00 0. -1.
         24    2    1    2    0    0  0.41960375788E+03 -0.11959829381E+03 -0.16044192182E+03  0.47145377633E+03  0.78460100835E+02 0.  0.
        254    2    1    2    0    0 -0.41960375788E+03  0.11959829381E+03 -0.11001127251E+04  0.14923153832E+04  0.90905782516E+03 0.  0.
         23    2    4    4    0    0 -0.56469935038E+02  0.45816872136E+03 -0.72274368058E+03  0.86176539030E+03  0.84697870788E+02 0.  0.
         23    2    4    4    0    0 -0.36313382284E+03 -0.33857042754E+03 -0.37736904454E+03  0.63054999291E+03  0.93219043553E+02 0.  0.
          4    1    3    3  502    0  0.22491572739E+03 -0.95292746549E+02 -0.11536723897E+03  0.27014328013E+03  0.00000000000E+00 0. -1.
         -3    1    3    3    0  502  0.19468803049E+03 -0.24305547266E+02 -0.45074682854E+02  0.20131049620E+03  0.00000000000E+00 0.  1.
         13    1    5    5    0    0 -0.41651693165E+02  0.36853226461E+03 -0.51146848761E+03  0.63178390880E+03  0.00000000000E+00 0. -1.
        -13    1    5    5    0    0 -0.14818241873E+02  0.89636456750E+02 -0.21127519297E+03  0.22998148151E+03  0.00000000000E+00 0.  1.
          1    1    6    6  503    0 -0.34416479686E+03 -0.34237951882E+03 -0.35814226734E+03  0.60327359130E+03  0.00000000000E+00 0. -1.
         -1    1    6    6    0  503 -0.18969025982E+02  0.38090912795E+01 -0.19226777202E+02  0.27276401607E+02  0.00000000000E+00 0.  1.
<mgrwt>
<rscale>  0 0.15057859E+04</rscale>
<asrwt>0</asrwt>
<pdfrwt beam="1">  1        2 0.24802490E+00 0.15057859E+04</pdfrwt>
<pdfrwt beam="2">  1       -1 0.54093425E-01 0.15057859E+04</pdfrwt>
<totfact> 0.41680447E+01</totfact>
</mgrwt>
</event>
<event>
12    7  0.1660832E-007  0.1512686E+04  0.7818608E-02  0.8876060E-01
          2   -1    0    0  501    0  0.00000000000E+00  0.00000000000E+00  0.13232166645E+04  0.13232166645E+04  0.00000000000E+00 0. -1.
         -1   -1    0    0    0  501 -0.00000000000E+00 -0.00000000000E+00 -0.43232144017E+03  0.43232144017E+03  0.00000000000E+00 0.  1.
         24    2    1    2    0    0  0.25004238373E+03 -0.37295213376E+02  0.72130880982E+03  0.76837889143E+03  0.78788292682E+02 0.  0.
        254    2    1    2    0    0 -0.25004238373E+03  0.37295213376E+02  0.16958641455E+03  0.98715921327E+03  0.93904825954E+03 0.  0.
         23    2    4    4    0    0 -0.42037846574E+03 -0.12182367924E+03  0.43495700661E+03  0.62223842800E+03  0.80212220985E+02 0.  0.
         23    2    4    4    0    0  0.17033608201E+03  0.15911889261E+03 -0.26537059207E+03  0.36492078528E+03  0.91719275903E+02 0.  0.
          4    1    3    3  502    0  0.20105332028E+03 -0.58993385663E+02  0.60674654642E+03  0.64190655764E+03  0.00000000000E+00 0. -1.
         -3    1    3    3    0  502  0.48989063449E+02  0.21698172287E+02  0.11456226340E+03  0.12647233379E+03  0.00000000000E+00 0.  1.
         13    1    5    5    0    0 -0.31541711979E+03 -0.11454193589E+03  0.36540718235E+03  0.49611513124E+03  0.00000000000E+00 0. -1.
        -13    1    5    5    0    0 -0.10496134595E+03 -0.72817433453E+01  0.69549824261E+02  0.12612329675E+03  0.00000000000E+00 0.  1.
          4    1    6    6  503    0  0.42750357212E+02  0.98330183527E+02 -0.92293334858E+02  0.14147253335E+03  0.00000000000E+00 0. -1.
         -4    1    6    6    0  503  0.12758572480E+03  0.60788709085E+02 -0.17307725721E+03  0.22344825192E+03  0.00000000000E+00 0.  1.
<mgrwt>
<rscale>  0 0.15126863E+04</rscale>
<asrwt>0</asrwt>
<pdfrwt beam="1">  1        2 0.20357179E+00 0.15126863E+04</pdfrwt>
<pdfrwt beam="2">  1       -1 0.66510991E-01 0.15126863E+04</pdfrwt>
<totfact> 0.40387630E+01</totfact>
</mgrwt>
</event>
<event>
12    7  0.1660832E-007  0.2082797E+04  0.7818608E-02  0.8568859E-01
          2   -1    0    0  501    0  0.00000000000E+00  0.00000000000E+00  0.21472306667E+04  0.21472306667E+04  0.00000000000E+00 0. -1.
         -1   -1    0    0    0  501 -0.00000000000E+00 -0.00000000000E+00 -0.50507430042E+03  0.50507430042E+03  0.00000000000E+00 0.  1.
         24    2    1    2    0    0  0.14477939592E+03 -0.82985623022E+03  0.57631542631E+03  0.10237657177E+04  0.79588553517E+02 0.  0.
        254    2    1    2    0    0 -0.14477939592E+03  0.82985623022E+03  0.10658409400E+04  0.16285392494E+04  0.89805386322E+03 0.  0.
         23    2    4    4    0    0 -0.63745198869E+02 -0.15702057401E+03  0.36255616143E+02  0.19721470553E+03  0.94128950579E+02 0.  0.
         23    2    4    4    0    0 -0.81034197047E+02  0.98687680422E+03  0.10295853238E+04  0.14313245439E+04  0.90286450048E+02 0.  0.
          4    1    3    3  502    0  0.19210352178E+01 -0.45366539658E+02  0.53921050107E+02  0.70493212024E+02  0.00000000000E+00 0. -1.
         -3    1    3    3    0  502  0.14285836070E+03 -0.78448969056E+03  0.52239437620E+03  0.95327250569E+03  0.00000000000E+00 0.  1.
         13    1    5    5    0    0 -0.38896238025E+02 -0.16180020328E+03  0.21160351196E+02  0.16774976476E+03  0.00000000000E+00 0.  1.
        -13    1    5    5    0    0 -0.24848960843E+02  0.47796292752E+01  0.15095264947E+02  0.29464940774E+02  0.00000000000E+00 0. -1.
          2    1    6    6  503    0 -0.40421984791E+02  0.34528822239E+03  0.42211099728E+03  0.54684146460E+03  0.00000000000E+00 0. -1.
         -2    1    6    6    0  503 -0.40612212256E+02  0.64158858184E+03  0.60747432654E+03  0.88448307928E+03  0.00000000000E+00 0.  1.
<mgrwt>
<rscale>  0 0.20827972E+04</rscale>
<asrwt>0</asrwt>
<pdfrwt beam="1">  1        2 0.33034317E+00 0.20827972E+04</pdfrwt>
<pdfrwt beam="2">  1       -1 0.77703740E-01 0.20827972E+04</pdfrwt>
<totfact> 0.96374237E+00</totfact>
</mgrwt>
</event>
<event>
12    7  0.1660832E-007  0.1722071E+04  0.7818608E-02  0.8748876E-01
          2   -1    0    0  501    0  0.00000000000E+00  0.00000000000E+00  0.26694715385E+04  0.26694715385E+04  0.00000000000E+00 0. -1.
         -1   -1    0    0    0  501 -0.00000000000E+00 -0.00000000000E+00 -0.27772611302E+03  0.27772611302E+03  0.00000000000E+00 0.  1.
         24    2    1    2    0    0 -0.37129848244E+03  0.20013371705E+03  0.10556936871E+03  0.44252861278E+03  0.82283739303E+02 0.  0.
        254    2    1    2    0    0  0.37129848244E+03 -0.20013371705E+03  0.22861760568E+04  0.25046690388E+04  0.93212121711E+03 0.  0.
         23    2    4    4    0    0  0.24458788687E+03 -0.37329595138E+03  0.40514896871E+03  0.60928938607E+03  0.88964978549E+02 0.  0.
         23    2    4    4    0    0  0.12671059557E+03  0.17316223433E+03  0.18810270881E+04  0.18953796527E+04  0.90334862441E+02 0.  0.
          4    1    3    3  502    0 -0.13331396015E+03  0.83903655462E+02  0.28923738774E+00  0.15751990042E+03  0.00000000000E+00 0. -1.
         -3    1    3    3    0  502 -0.23798452230E+03  0.11623006159E+03  0.10528013133E+03  0.28500871236E+03  0.00000000000E+00 0.  1.
         13    1    5    5    0    0  0.10029424578E+03 -0.23290894654E+03  0.21767908556E+03  0.33420008588E+03  0.00000000000E+00 0. -1.
        -13    1    5    5    0    0  0.14429364110E+03 -0.14038700484E+03  0.18746988315E+03  0.27508930019E+03  0.00000000000E+00 0.  1.
          3    1    6    6  503    0  0.11661541652E+03  0.10220235703E+03  0.10678015242E+04  0.10790016553E+04  0.00000000000E+00 0. -1.
         -3    1    6    6    0  503  0.10095179045E+02  0.70959877301E+02  0.81322556390E+03  0.81637799738E+03  0.00000000000E+00 0.  1.
<mgrwt>
<rscale>  0 0.17220708E+04</rscale>
<asrwt>0</asrwt>
<pdfrwt beam="1">  1        2 0.41068791E+00 0.17220708E+04</pdfrwt>
<pdfrwt beam="2">  1       -1 0.42727096E-01 0.17220708E+04</pdfrwt>
<totfact> 0.16191571E+01</totfact>
</mgrwt>
</event>
<event>
12    7  0.2242913E-007  0.1994112E+04  0.7818608E-02  0.8609378E-01
          2   -1    0    0  501    0  0.00000000000E+00  0.00000000000E+00  0.21118697614E+04  0.21118697614E+04  0.00000000000E+00 0. -1.
         -1   -1    0    0    0  501 -0.00000000000E+00 -0.00000000000E+00 -0.47073018506E+03  0.47073018506E+03  0.00000000000E+00 0.  1.
         24    2    1    2    0    0 -0.32789547996E+03 -0.29852263582E+03 -0.20209280675E+03  0.49390001562E+03  0.80402195334E+02 0.  0.
        254    2    1    2    0    0  0.32789547996E+03  0.29852263582E+03  0.18432323831E+04  0.20886999308E+04  0.87665875525E+03 0.  0.
         23    2    4    4    0    0  0.60603546722E+03  0.29730196635E+03  0.13829723398E+04  0.15416233448E+04  0.91228274309E+02 0.  0.
         23    2    4    4    0    0 -0.27813998726E+03  0.12206694620E+01  0.46026004329E+03  0.54707658598E+03  0.10044969356E+03 0.  0.
          4    1    3    3  502    0 -0.57851608952E+02 -0.88894028532E+02 -0.71673014246E+02  0.12800772609E+03  0.00000000000E+00 0. -1.
         -3    1    3    3    0  502 -0.27004387101E+03 -0.20962860728E+03 -0.13041979251E+03  0.36589228953E+03  0.00000000000E+00 0.  1.
         13    1    5    5    0    0  0.55455553951E+02  0.44139328376E+02  0.98207745882E+02  0.12111300560E+03  0.00000000000E+00 0. -1.
        -13    1    5    5    0    0  0.55057991327E+03  0.25316263798E+03  0.12847645939E+04  0.14205103392E+04  0.00000000000E+00 0.  1.
          1    1    6    6  503    0  0.95140461334E-02 -0.15315493920E+02  0.40036451841E+02  0.42865859615E+02  0.00000000000E+00 0. -1.
         -1    1    6    6    0  503 -0.27814950131E+03  0.16536163382E+02  0.42022359145E+03  0.50421072637E+03  0.00000000000E+00 0.  1.
<mgrwt>
<rscale>  0 0.19941122E+04</rscale>
<asrwt>0</asrwt>
<pdfrwt beam="1">  1        2 0.32490304E+00 0.19941122E+04</pdfrwt>
<pdfrwt beam="2">  1       -1 0.72420029E-01 0.19941122E+04</pdfrwt>
<totfact> 0.11777533E+01</totfact>
</mgrwt>
</event>
<event>
12    7  0.1660832E-007  0.1791217E+04  0.7818608E-02  0.8710984E-01
         -3   -1    0    0    0  501 -0.00000000000E+00  0.00000000000E+00  0.10871632726E+04  0.10871632726E+04  0.00000000000E+00 0.  1.
          4   -1    0    0  501    0  0.00000000000E+00 -0.00000000000E+00 -0.73780488421E+03  0.73780488421E+03  0.00000000000E+00 0. -1.
         24    2    1    2    0    0 -0.34970065842E+03  0.17286339266E+03 -0.41787004264E+03  0.57690351218E+03  0.77652989745E+02 0.  0.
        254    2    1    2    0    0  0.34970065842E+03 -0.17286339266E+03  0.76722843100E+03  0.12480646446E+04  0.90379952906E+03 0.  0.
         23    2    4    4    0    0 -0.15189866058E+02 -0.40992626081E+03  0.77420794691E+02  0.42741536186E+03  0.91758600552E+02 0.  0.
         23    2    4    4    0    0  0.36489052448E+03  0.23706286815E+03  0.68980763631E+03  0.82064928273E+03  0.91031707801E+02 0.  0.
          4    1    3    3  502    0 -0.35278818085E+03  0.16533716718E+03 -0.40908365729E+03  0.56492948060E+03  0.00000000000E+00 0. -1.
         -3    1    3    3    0  502  0.30875224293E+01  0.75262254816E+01 -0.87863853541E+01  0.11974031583E+02  0.00000000000E+00 0.  1.
         13    1    5    5    0    0 -0.51184904367E+02 -0.24737457334E+03  0.62681106428E+02  0.26027484525E+03  0.00000000000E+00 0. -1.
        -13    1    5    5    0    0  0.35995038308E+02 -0.16255168747E+03  0.14739688263E+02  0.16714051661E+03  0.00000000000E+00 0.  1.
          2    1    6    6  503    0  0.11146611386E+03  0.59129145092E+02  0.13166202626E+03  0.18236183674E+03  0.00000000000E+00 0. -1.
         -2    1    6    6    0  503  0.25342441062E+03  0.17793372305E+03  0.55814561005E+03  0.63828744600E+03  0.00000000000E+00 0.  1.
<mgrwt>
<rscale>  0 0.17912168E+04</rscale>
<asrwt>0</asrwt>
<pdfrwt beam="1">  1        4 0.11350844E+00 0.17912168E+04</pdfrwt>
<pdfrwt beam="2">  1       -3 0.16725589E+00 0.17912168E+04</pdfrwt>
<totfact> 0.31732810E-01</totfact>
</mgrwt>
</event>
<event>
12    7  0.1660832E-007  0.2146440E+04  0.7818608E-02  0.8541058E-01
         -1   -1    0    0    0  501 -0.00000000000E+00  0.00000000000E+00  0.44418733992E+03  0.44418733992E+03  0.00000000000E+00 0.  1.
          2   -1    0    0  501    0  0.00000000000E+00 -0.00000000000E+00 -0.25930516593E+04  0.25930516593E+04  0.00000000000E+00 0. -1.
         24    2    1    2    0    0  0.36861507207E+03  0.43956972288E+03 -0.18468787502E+04  0.19355361270E+04  0.78996003991E+02 0.  0.
        254    2    1    2    0    0 -0.36861507207E+03 -0.43956972288E+03 -0.30198556920E+03  0.11017028722E+04  0.89076109136E+03 0.  0.
         23    2    4    4    0    0  0.78666715247E+02 -0.26053433681E+03 -0.49726918633E+03  0.57412292448E+03  0.90960958658E+02 0.  0.
         23    2    4    4    0    0 -0.44728178732E+03 -0.17903538607E+03  0.19528361713E+03  0.52757994768E+03  0.89945779988E+02 0.  0.
          2    1    3    3  502    0  0.21389926519E+03  0.19989405427E+03 -0.99351754526E+03  0.10357546241E+04  0.00000000000E+00 0. -1.
         -1    1    3    3    0  502  0.15471580688E+03  0.23967566861E+03 -0.85336120491E+03  0.89978150296E+03  0.00000000000E+00 0.  1.
         13    1    5    5    0    0  0.28428854775E+02 -0.80991646213E+01 -0.52227489093E+02  0.60012555922E+02  0.00000000000E+00 0.  1.
        -13    1    5    5    0    0  0.50237860472E+02 -0.25243517219E+03 -0.44504169724E+03  0.51411036856E+03  0.00000000000E+00 0. -1.
          3    1    6    6  503    0 -0.38775107291E+03 -0.12580017021E+03  0.18276366806E+03  0.44674280714E+03  0.00000000000E+00 0. -1.
         -3    1    6    6    0  503 -0.59530714409E+02 -0.53235215856E+02  0.12519949070E+02  0.80837140536E+02  0.00000000000E+00 0.  1.
<mgrwt>
<rscale>  0 0.21464396E+04</rscale>
<asrwt>0</asrwt>
<pdfrwt beam="1">  1        2 0.39893102E+00 0.21464396E+04</pdfrwt>
<pdfrwt beam="2">  1       -1 0.68336515E-01 0.21464396E+04</pdfrwt>
<totfact> 0.69595437E+00</totfact>
</mgrwt>
</event>
<event>
12    7  0.1996908E-007  0.1475166E+04  0.7818608E-02  0.8901137E-01
         -1   -1    0    0    0  501 -0.00000000000E+00  0.00000000000E+00  0.28813364728E+03  0.28813364728E+03  0.00000000000E+00 0.  1.
          2   -1    0    0  501    0  0.00000000000E+00 -0.00000000000E+00 -0.18881127132E+04  0.18881127132E+04  0.00000000000E+00 0. -1.
         24    2    1    2    0    0 -0.21739665764E+03  0.19603790037E+03  0.19415324083E+02  0.30432773125E+03  0.80908887436E+02 0.  0.
        254    2    1    2    0    0  0.21739665764E+03 -0.19603790037E+03 -0.16193943900E+04  0.18719186292E+04  0.89215973846E+03 0.  0.
         23    2    4    4    0    0 -0.21549560528E+03 -0.36302186366E+02 -0.12540341264E+04  0.12761827900E+04  0.91020431050E+02 0.  0.
         23    2    4    4    0    0  0.43289226292E+03 -0.15973571401E+03 -0.36536026366E+03  0.59573583921E+03  0.92205521688E+02 0.  0.
          2    1    3    3  502    0 -0.28886934621E+00 -0.55883780246E+01  0.52880193332E+01  0.76991274125E+01  0.00000000000E+00 0. -1.
         -1    1    3    3    0  502 -0.21710778829E+03  0.20162627840E+03  0.14127304750E+02  0.29662860384E+03  0.00000000000E+00 0.  1.
         13    1    5    5    0    0 -0.12167450532E+03 -0.35134222674E+02 -0.93810062433E+03  0.94661073320E+03  0.00000000000E+00 0. -1.
        -13    1    5    5    0    0 -0.93821099964E+02 -0.11679636927E+01 -0.31593350203E+03  0.32957205683E+03  0.00000000000E+00 0.  1.
          3    1    6    6  503    0  0.37145541551E+03 -0.14403377584E+03 -0.27021170933E+03  0.48139300178E+03  0.00000000000E+00 0. -1.
         -3    1    6    6    0  503  0.61436847403E+02 -0.15701938165E+02 -0.95148554328E+02  0.11434283743E+03  0.00000000000E+00 0.  1.
<mgrwt>
<rscale>  0 0.14751662E+04</rscale>
<asrwt>0</asrwt>
<pdfrwt beam="1">  1        2 0.29047888E+00 0.14751662E+04</pdfrwt>
<pdfrwt beam="2">  1       -1 0.44328254E-01 0.14751662E+04</pdfrwt>
<totfact> 0.42828168E+01</totfact>
</mgrwt>
</event>
<event>
12    7  0.1660832E-007  0.2136705E+04  0.7818608E-02  0.8545245E-01
          2   -1    0    0  501    0  0.00000000000E+00  0.00000000000E+00  0.17791265208E+04  0.17791265208E+04  0.00000000000E+00 0. -1.
         -1   -1    0    0    0  501 -0.00000000000E+00 -0.00000000000E+00 -0.64153762532E+03  0.64153762532E+03  0.00000000000E+00 0.  1.
         24    2    1    2    0    0 -0.10936636194E+03 -0.25337876808E+03  0.14138281851E+04  0.14431359842E+04  0.87003049222E+02 0.  0.
        254    2    1    2    0    0  0.10936636194E+03  0.25337876808E+03 -0.27623928962E+03  0.97752816196E+03  0.89615364813E+03 0.  0.
         23    2    4    4    0    0  0.37768670500E+03  0.21307426885E+03 -0.45874325631E+03  0.63790440164E+03  0.91808274350E+02 0.  0.
         23    2    4    4    0    0 -0.26832034306E+03  0.40304499222E+02  0.18250396670E+03  0.33962376032E+03  0.91740621080E+02 0.  0.
          4    1    3    3  502    0 -0.10730226694E+03 -0.25235103101E+03  0.12690057777E+04  0.12982952219E+04  0.00000000000E+00 0. -1.
         -3    1    3    3    0  502 -0.20640950028E+01 -0.10277370669E+01  0.14482240745E+03  0.14484076232E+03  0.00000000000E+00 0.  1.
         13    1    5    5    0    0  0.38140914555E+03  0.20210674061E+03 -0.44784834169E+03  0.62200338268E+03  0.00000000000E+00 0.  1.
        -13    1    5    5    0    0 -0.37224405503E+01  0.10967528241E+02 -0.10894914626E+02  0.15901018964E+02  0.00000000000E+00 0. -1.
          1    1    6    6  503    0 -0.76697221823E+02  0.51609946527E+02  0.78645648923E+02  0.12137210763E+03  0.00000000000E+00 0. -1.
         -1    1    6    6    0  503 -0.19162312123E+03 -0.11305447305E+02  0.10385831777E+03  0.21825165269E+03  0.00000000000E+00 0.  1.
<mgrwt>
<rscale>  0 0.21367046E+04</rscale>
<asrwt>0</asrwt>
<pdfrwt beam="1">  1        2 0.27371177E+00 0.21367046E+04</pdfrwt>
<pdfrwt beam="2">  1       -1 0.98698097E-01 0.21367046E+04</pdfrwt>
<totfact> 0.91051737E+00</totfact>
</mgrwt>
</event>
<event>
12    7  0.1660832E-007  0.2068274E+04  0.7818608E-02  0.8575349E-01
         -1   -1    0    0    0  501 -0.00000000000E+00  0.00000000000E+00  0.82075459459E+03  0.82075459459E+03  0.00000000000E+00 0.  1.
          2   -1    0    0  501    0  0.00000000000E+00 -0.00000000000E+00 -0.13029951673E+04  0.13029951673E+04  0.00000000000E+00 0. -1.
         24    2    1    2    0    0  0.26993537634E+03  0.76805553875E+03 -0.38621469311E+03  0.90475483707E+03  0.81517532047E+02 0.  0.
        254    2    1    2    0    0 -0.26993537634E+03 -0.76805553875E+03 -0.96025879621E+02  0.12189949248E+04  0.90219357083E+03 0.  0.
         23    2    4    4    0    0 -0.83570384456E+02 -0.91375308922E+03  0.54507654139E+02  0.92349380497E+03  0.89112323688E+02 0.  0.
         23    2    4    4    0    0 -0.18636499189E+03  0.14569755047E+03 -0.15053353376E+03  0.29550111988E+03  0.93278511190E+02 0.  0.
          2    1    3    3  502    0  0.10735149059E+03  0.31772150379E+03 -0.11527976278E+03  0.35462757960E+03  0.00000000000E+00 0. -1.
         -1    1    3    3    0  502  0.16258388575E+03  0.45033403495E+03 -0.27093493033E+03  0.55012725747E+03  0.00000000000E+00 0.  1.
         13    1    5    5    0    0 -0.71566567619E+02 -0.69290669551E+03  0.38921193253E+01  0.69660362536E+03  0.00000000000E+00 0. -1.
        -13    1    5    5    0    0 -0.12003816837E+02 -0.22084639371E+03  0.50615534813E+02  0.22689017960E+03  0.00000000000E+00 0.  1.
          2    1    6    6  503    0 -0.13579463182E+03  0.48721839574E+02 -0.95984640697E+02  0.17328315248E+03  0.00000000000E+00 0.  1.
         -2    1    6    6    0  503 -0.50570360064E+02  0.96975710900E+02 -0.54548893062E+02  0.12221796740E+03  0.00000000000E+00 0. -1.
<mgrwt>
<rscale>  0 0.20682739E+04</rscale>
<asrwt>0</asrwt>
<pdfrwt beam="1">  1        2 0.20046079E+00 0.20682739E+04</pdfrwt>
<pdfrwt beam="2">  1       -1 0.12626994E+00 0.20682739E+04</pdfrwt>
<totfact> 0.94626134E+00</totfact>
</mgrwt>
</event>
<event>
12    7  0.1660832E-007  0.1442644E+04  0.7818608E-02  0.8923516E-01
          2   -1    0    0  501    0  0.00000000000E+00  0.00000000000E+00  0.36376268486E+04  0.36376268486E+04  0.00000000000E+00 0. -1.
         -1   -1    0    0    0  501 -0.00000000000E+00 -0.00000000000E+00 -0.14303425947E+03  0.14303425947E+03  0.00000000000E+00 0.  1.
         24    2    1    2    0    0 -0.18729879106E+03  0.36408520289E+03  0.14737793392E+04  0.15316969689E+04  0.80194710498E+02 0.  0.
        254    2    1    2    0    0  0.18729879106E+03 -0.36408520289E+03  0.20208132499E+04  0.22489641392E+04  0.89806159946E+03 0.  0.
         23    2    4    4    0    0 -0.15636004831E+03 -0.41428123232E+03  0.17265119775E+04  0.17847113023E+04  0.90958341503E+02 0.  0.
         23    2    4    4    0    0  0.34365883937E+03  0.50196029431E+02  0.29430127241E+03  0.46425283694E+03  0.91084677185E+02 0.  0.
          4    1    3    3  502    0 -0.12417943323E+03  0.29167795795E+03  0.12146446260E+04  0.12553318805E+04  0.00000000000E+00 0. -1.
         -3    1    3    3    0  502 -0.63119357826E+02  0.72407244933E+02  0.25913471323E+03  0.27636508834E+03  0.00000000000E+00 0.  1.
         13    1    5    5    0    0 -0.14224535037E+03 -0.28111609151E+03  0.13021715170E+04  0.13397427575E+04  0.00000000000E+00 0.  1.
        -13    1    5    5    0    0 -0.14114697944E+02 -0.13316514080E+03  0.42434046058E+03  0.44496854485E+03  0.00000000000E+00 0. -1.
          4    1    6    6  503    0  0.41169670592E+02  0.46618959251E+01  0.25149326923E+01  0.41509034399E+02  0.00000000000E+00 0. -1.
         -4    1    6    6    0  503  0.30248916878E+03  0.45534133506E+02  0.29178633972E+03  0.42274380254E+03  0.00000000000E+00 0.  1.
<mgrwt>
<rscale>  0 0.14426438E+04</rscale>
<asrwt>0</asrwt>
<pdfrwt beam="1">  1        2 0.55963483E+00 0.14426438E+04</pdfrwt>
<pdfrwt beam="2">  1       -1 0.22005273E-01 0.14426438E+04</pdfrwt>
<totfact> 0.12709103E+01</totfact>
</mgrwt>
</event>
<event>
12    7  0.1660832E-007  0.1572558E+04  0.7818608E-02  0.8837587E-01
         -1   -1    0    0    0  501 -0.00000000000E+00  0.00000000000E+00  0.61068601841E+03  0.61068601841E+03  0.00000000000E+00 0.  1.
          2   -1    0    0  501    0  0.00000000000E+00 -0.00000000000E+00 -0.10123603129E+04  0.10123603129E+04  0.00000000000E+00 0. -1.
         24    2    1    2    0    0  0.19505385766E+03  0.42752123183E+03 -0.34472808828E+03  0.58835181147E+03  0.80622504051E+02 0.  0.
        254    2    1    2    0    0 -0.19505385766E+03 -0.42752123183E+03 -0.56946206240E+02  0.10346945199E+04  0.92007036035E+03 0.  0.
         23    2    4    4    0    0 -0.11322844967E+03 -0.69577641260E+03 -0.14816162841E+03  0.72639335936E+03  0.93647991119E+02 0.  0.
         23    2    4    4    0    0 -0.81825407986E+02  0.26825518077E+03  0.91215422171E+02  0.30830116052E+03  0.89850503238E+02 0.  0.
          4    1    3    3  502    0  0.99429588813E+02  0.24247890154E+03 -0.23934591896E+03  0.35492073727E+03  0.00000000000E+00 0. -1.
         -3    1    3    3    0  502  0.95624268845E+02  0.18504233029E+03 -0.10538216933E+03  0.23343107420E+03  0.00000000000E+00 0.  1.
         13    1    5    5    0    0  0.20612880113E+01  0.11074720268E+01  0.32370948071E+01  0.39942690628E+01  0.00000000000E+00 0.  1.
        -13    1    5    5    0    0 -0.11528973768E+03 -0.69688388463E+03 -0.15139872322E+03  0.72239909029E+03  0.00000000000E+00 0. -1.
          4    1    6    6  503    0  0.17709925748E+02  0.49350553056E+02  0.28975123238E+02  0.59905561708E+02  0.00000000000E+00 0. -1.
         -4    1    6    6    0  503 -0.99535333734E+02  0.21890462772E+03  0.62240298932E+02  0.24839559881E+03  0.00000000000E+00 0.  1.
<mgrwt>
<rscale>  0 0.15725575E+04</rscale>
<asrwt>0</asrwt>
<pdfrwt beam="1">  1        2 0.15574774E+00 0.15725575E+04</pdfrwt>
<pdfrwt beam="2">  1       -1 0.93951696E-01 0.15725575E+04</pdfrwt>
<totfact> 0.29772389E+01</totfact>
</mgrwt>
</event>
<event>
12    7  0.1660832E-007  0.1079160E+04  0.7818608E-02  0.9225746E-01
         -1   -1    0    0    0  501 -0.00000000000E+00  0.00000000000E+00  0.35324485670E+03  0.35324485670E+03  0.00000000000E+00 0.  1.
          2   -1    0    0  501    0  0.00000000000E+00 -0.00000000000E+00 -0.82420544190E+03  0.82420544190E+03  0.00000000000E+00 0. -1.
         24    2    1    2    0    0  0.10025779282E+03 -0.88147985554E+02 -0.28825162577E+01  0.15253743697E+03  0.73740547864E+02 0.  0.
        254    2    1    2    0    0 -0.10025779282E+03  0.88147985554E+02 -0.46807806894E+03  0.10249128616E+04  0.90195765030E+03 0.  0.
         23    2    4    4    0    0 -0.49475032929E+03  0.57022391890E+02 -0.25392684060E+03  0.56664260596E+03  0.92604324937E+02 0.  0.
         23    2    4    4    0    0  0.39449253647E+03  0.31125593664E+02 -0.21415122834E+03  0.45827025567E+03  0.86935117885E+02 0.  0.
          4    1    3    3  502    0  0.34309492850E+02 -0.28225833022E+02 -0.36299564566E+02  0.57371572552E+02  0.00000000000E+00 0. -1.
         -3    1    3    3    0  502  0.65948299972E+02 -0.59922152532E+02  0.33417048308E+02  0.95165864420E+02  0.00000000000E+00 0.  1.
         13    1    5    5    0    0 -0.72276422089E+02 -0.24440185889E+02 -0.37042688635E+02  0.84813705600E+02  0.00000000000E+00 0. -1.
        -13    1    5    5    0    0 -0.42247390721E+03  0.81462577779E+02 -0.21688415197E+03  0.48182890036E+03  0.00000000000E+00 0.  1.
          1    1    6    6  503    0  0.31440567951E+03  0.58314559323E+02 -0.15730763663E+03  0.35636668149E+03  0.00000000000E+00 0. -1.
         -1    1    6    6    0  503  0.80086856961E+02 -0.27188965659E+02 -0.56843591716E+02  0.10190357418E+03  0.00000000000E+00 0.  1.
<mgrwt>
<rscale>  0 0.10791595E+04</rscale>
<asrwt>0</asrwt>
<pdfrwt beam="1">  1        2 0.12680084E+00 0.10791595E+04</pdfrwt>
<pdfrwt beam="2">  1       -1 0.54345363E-01 0.10791595E+04</pdfrwt>
<totfact> 0.12838593E+02</totfact>
</mgrwt>
</event>
<event>
12    7  0.1660832E-007  0.2033658E+04  0.7818608E-02  0.8591044E-01
          2   -1    0    0  501    0  0.00000000000E+00  0.00000000000E+00  0.12665157063E+04  0.12665157063E+04  0.00000000000E+00 0. -1.
         -1   -1    0    0    0  501 -0.00000000000E+00 -0.00000000000E+00 -0.81636631657E+03  0.81636631657E+03  0.00000000000E+00 0.  1.
         24    2    1    2    0    0  0.52566350768E+03 -0.55781469674E+02  0.81755621516E+03  0.97731150132E+03  0.85474616133E+02 0.  0.
        254    2    1    2    0    0 -0.52566350768E+03  0.55781469674E+02 -0.36740682538E+03  0.11055705216E+04  0.89881294339E+03 0.  0.
         23    2    4    4    0    0 -0.15170073310E+03 -0.39144578576E+03 -0.41379982931E+02  0.43176902748E+03  0.92028661231E+02 0.  0.
         23    2    4    4    0    0 -0.37396277458E+03  0.44722725544E+03 -0.32602684245E+03  0.67380149411E+03  0.88626049733E+02 0.  0.
          2    1    3    3  502    0  0.17258966316E+03 -0.11939320120E+02  0.19859461682E+03  0.26338101873E+03  0.00000000000E+00 0. -1.
         -1    1    3    3    0  502  0.35307384452E+03 -0.43842149553E+02  0.61896159833E+03  0.71393048259E+03  0.00000000000E+00 0.  1.
         13    1    5    5    0    0 -0.78000071061E+02 -0.27546186288E+03 -0.61672342565E+02  0.29285956843E+03  0.00000000000E+00 0. -1.
        -13    1    5    5    0    0 -0.73700662039E+02 -0.11598392289E+03  0.20292359634E+02  0.13890945905E+03  0.00000000000E+00 0.  1.
          4    1    6    6  503    0 -0.22310475814E+03  0.21038317657E+03 -0.19925191194E+03  0.36570225389E+03  0.00000000000E+00 0.  1.
         -4    1    6    6    0  503 -0.15085801644E+03  0.23684407887E+03 -0.12677493051E+03  0.30809924022E+03  0.00000000000E+00 0. -1.
<mgrwt>
<rscale>  0 0.20336576E+04</rscale>
<asrwt>0</asrwt>
<pdfrwt beam="1">  1        2 0.19484857E+00 0.20336576E+04</pdfrwt>
<pdfrwt beam="2">  1       -1 0.12559482E+00 0.20336576E+04</pdfrwt>
<totfact> 0.10103545E+01</totfact>
</mgrwt>
</event>
<event>
12    7  0.1660832E-007  0.1527860E+04  0.7818608E-02  0.8866135E-01
          2   -1    0    0  501    0  0.00000000000E+00  0.00000000000E+00  0.46773859865E+04  0.46773859865E+04  0.00000000000E+00 0. -1.
         -1   -1    0    0    0  501 -0.00000000000E+00 -0.00000000000E+00 -0.12476815651E+03  0.12476815651E+03  0.00000000000E+00 0.  1.
         24    2    1    2    0    0  0.31576656695E+03  0.32042428948E+03  0.21433094968E+04  0.21914745700E+04  0.80030881919E+02 0.  0.
        254    2    1    2    0    0 -0.31576656695E+03 -0.32042428948E+03  0.24093083332E+04  0.26106795729E+04  0.89916680215E+03 0.  0.
         23    2    4    4    0    0 -0.50149325404E+02 -0.59582879263E+03  0.13053823080E+04  0.14387594129E+04  0.92080253840E+02 0.  0.
         23    2    4    4    0    0 -0.26561724155E+03  0.27540450315E+03  0.11039260251E+04  0.11719201600E+04  0.91345679155E+02 0.  0.
          4    1    3    3  502    0  0.21422869251E+03  0.17894244966E+03  0.14504739534E+04  0.14770880212E+04  0.00000000000E+00 0. -1.
         -3    1    3    3    0  502  0.10153787444E+03  0.14148183982E+03  0.69283554335E+03  0.71438654878E+03  0.00000000000E+00 0.  1.
         13    1    5    5    0    0 -0.18782160665E+02 -0.28534463171E+02  0.11079975171E+03  0.11594641058E+03  0.00000000000E+00 0. -1.
        -13    1    5    5    0    0 -0.31367164739E+02 -0.56729432946E+03  0.11945825563E+04  0.13228130023E+04  0.00000000000E+00 0.  1.
          1    1    6    6  503    0 -0.26881628675E+03  0.27860818895E+03  0.10738885257E+04  0.11415433783E+04  0.00000000000E+00 0.  1.
         -1    1    6    6    0  503  0.31990451950E+01 -0.32036858063E+01  0.30037499470E+02  0.30376781714E+02  0.00000000000E+00 0. -1.
<mgrwt>
<rscale>  0 0.15278597E+04</rscale>
<asrwt>0</asrwt>
<pdfrwt beam="1">  1        2 0.71959771E+00 0.15278597E+04</pdfrwt>
<pdfrwt beam="2">  1       -1 0.19195105E-01 0.15278597E+04</pdfrwt>
<totfact> 0.20295019E+00</totfact>
</mgrwt>
</event>
<event>
12    7  0.1660832E-007  0.1889286E+04  0.7818608E-02  0.8660208E-01
          2   -1    0    0  501    0  0.00000000000E+00  0.00000000000E+00  0.16408509597E+04  0.16408509597E+04  0.00000000000E+00 0. -1.
         -1   -1    0    0    0  501 -0.00000000000E+00 -0.00000000000E+00 -0.54383378647E+03  0.54383378647E+03  0.00000000000E+00 0.  1.
         24    2    1    2    0    0 -0.27668839338E+03 -0.61688762378E+03  0.70228670591E+03  0.97806561580E+03  0.79365761628E+02 0.  0.
        254    2    1    2    0    0  0.27668839338E+03  0.61688762378E+03  0.39473046736E+03  0.12066191304E+04  0.91815618312E+03 0.  0.
         23    2    4    4    0    0 -0.27774062950E+03  0.17748107921E+03 -0.77707842753E+02  0.35074933700E+03  0.91363000322E+02 0.  0.
         23    2    4    4    0    0  0.55442902289E+03  0.43940654457E+03  0.47243831011E+03  0.85586979340E+03  0.94050484154E+02 0.  0.
          2    1    3    3  502    0 -0.92953158549E+02 -0.18790957697E+03  0.16787042313E+03  0.26857173671E+03  0.00000000000E+00 0. -1.
         -1    1    3    3    0  502 -0.18373523484E+03 -0.42897804681E+03  0.53441628278E+03  0.70949387909E+03  0.00000000000E+00 0.  1.
         13    1    5    5    0    0  0.45445389384E+01  0.26461488493E+01  0.63376894099E+01  0.82353655020E+01  0.00000000000E+00 0.  1.
        -13    1    5    5    0    0 -0.28228516844E+03  0.17483493036E+03 -0.84045532163E+02  0.34251397150E+03  0.00000000000E+00 0. -1.
          3    1    6    6  503    0  0.30703805233E+03  0.29092150826E+03  0.24793055278E+03  0.49028282506E+03  0.00000000000E+00 0. -1.
         -3    1    6    6    0  503  0.24739097056E+03  0.14848503631E+03  0.22450775733E+03  0.36558696835E+03  0.00000000000E+00 0.  1.
<mgrwt>
<rscale>  0 0.18892858E+04</rscale>
<asrwt>0</asrwt>
<pdfrwt beam="1">  1        2 0.25243861E+00 0.18892858E+04</pdfrwt>
<pdfrwt beam="2">  1       -1 0.83666737E-01 0.18892858E+04</pdfrwt>
<totfact> 0.16006224E+01</totfact>
</mgrwt>
</event>
<event>
12    7  0.1660832E-007  0.1338175E+04  0.7818608E-02  0.8999828E-01
          2   -1    0    0  501    0  0.00000000000E+00  0.00000000000E+00  0.47036627631E+03  0.47036627631E+03  0.00000000000E+00 0. -1.
         -1   -1    0    0    0  501 -0.00000000000E+00 -0.00000000000E+00 -0.95176520111E+03  0.95176520111E+03  0.00000000000E+00 0.  1.
         24    2    1    2    0    0 -0.16988684908E+03  0.29578600493E+03 -0.19441120627E+03  0.40084815390E+03  0.80824644521E+02 0.  0.
        254    2    1    2    0    0  0.16988684908E+03 -0.29578600493E+03 -0.28698771853E+03  0.10212833235E+04  0.91886167300E+03 0.  0.
         23    2    4    4    0    0 -0.95809993268E+02 -0.43853906614E+03  0.15041695036E+03  0.48220219598E+03  0.91638591820E+02 0.  0.
         23    2    4    4    0    0  0.26569684235E+03  0.14275306121E+03 -0.43740466889E+03  0.53908112754E+03  0.91172195225E+02 0.  0.
          2    1    3    3  502    0 -0.10965206563E+03  0.19492298441E+03 -0.81873422523E+02  0.23816339489E+03  0.00000000000E+00 0. -1.
         -1    1    3    3    0  502 -0.60234783453E+02  0.10086302051E+03 -0.11253778375E+03  0.16268475901E+03  0.00000000000E+00 0.  1.
         13    1    5    5    0    0  0.97506566972E+01 -0.41977263579E+02 -0.50066062849E+01  0.43384698571E+02  0.00000000000E+00 0. -1.
        -13    1    5    5    0    0 -0.10556064997E+03 -0.39656180256E+03  0.15542355665E+03  0.43881749741E+03  0.00000000000E+00 0.  1.
          4    1    6    6  503    0  0.12580196198E+03  0.86339916147E+02 -0.29255530669E+03  0.32995351526E+03  0.00000000000E+00 0.  1.
         -4    1    6    6    0  503  0.13989488036E+03  0.56413145066E+02 -0.14484936220E+03  0.20912761228E+03  0.00000000000E+00 0. -1.
<mgrwt>
<rscale>  0 0.13381753E+04</rscale>
<asrwt>0</asrwt>
<pdfrwt beam="1">  1        2 0.72364043E-01 0.13381753E+04</pdfrwt>
<pdfrwt beam="2">  1       -1 0.14642542E+00 0.13381753E+04</pdfrwt>
<totfact> 0.27513670E+01</totfact>
</mgrwt>
</event>
<event>
12    7  0.1660832E-007  0.1439040E+04  0.7818608E-02  0.8926034E-01
         -1   -1    0    0    0  501 -0.00000000000E+00  0.00000000000E+00  0.85361375012E+03  0.85361375012E+03  0.00000000000E+00 0.  1.
          2   -1    0    0  501    0  0.00000000000E+00 -0.00000000000E+00 -0.60649134938E+03  0.60649134938E+03  0.00000000000E+00 0. -1.
         24    2    1    2    0    0  0.26817645929E+03  0.95435896212E+02 -0.24521846470E+03  0.38438511768E+03  0.81198520045E+02 0.  0.
        254    2    1    2    0    0 -0.26817645929E+03 -0.95435896212E+02  0.49234086545E+03  0.10757199818E+04  0.91309765518E+03 0.  0.
         23    2    4    4    0    0 -0.47303853219E+03 -0.32769440212E+03  0.47056805219E+03  0.74906937049E+03  0.92312274113E+02 0.  0.
         23    2    4    4    0    0  0.20486207290E+03  0.23225850590E+03  0.21772813265E+02  0.32665061133E+03  0.10155827888E+03 0.  0.
          2    1    3    3  502    0  0.23754419930E+03  0.52526264466E+02 -0.20215247632E+03  0.31630978291E+03  0.00000000000E+00 0. -1.
         -1    1    3    3    0  502  0.30632259987E+02  0.42909631747E+02 -0.43065988386E+02  0.68075334771E+02  0.00000000000E+00 0.  1.
         13    1    5    5    0    0 -0.13442369080E+02 -0.14657297413E+02 -0.10701665950E+01  0.19916799705E+02  0.00000000000E+00 0. -1.
        -13    1    5    5    0    0 -0.45959616311E+03 -0.31303710470E+03  0.47163821878E+03  0.72915257078E+03  0.00000000000E+00 0.  1.
          3    1    6    6  503    0  0.79107448130E+02  0.82725812773E+02  0.57397676277E+02  0.12804702921E+03  0.00000000000E+00 0. -1.
         -3    1    6    6    0  503  0.12575462477E+03  0.14953269313E+03 -0.35624863012E+02  0.19860358212E+03  0.00000000000E+00 0.  1.
<mgrwt>
<rscale>  0 0.14390405E+04</rscale>
<asrwt>0</asrwt>
<pdfrwt beam="1">  1        2 0.93306361E-01 0.14390405E+04</pdfrwt>
<pdfrwt beam="2">  1       -1 0.13132519E+00 0.14390405E+04</pdfrwt>
<totfact> 0.26841424E+01</totfact>
</mgrwt>
</event>
<event>
12    7  0.1660832E-007  0.1602065E+04  0.7818608E-02  0.8819280E-01
          2   -1    0    0  501    0  0.00000000000E+00  0.00000000000E+00  0.60983316554E+03  0.60983316554E+03  0.00000000000E+00 0. -1.
         -1   -1    0    0    0  501 -0.00000000000E+00 -0.00000000000E+00 -0.10521784531E+04  0.10521784531E+04  0.00000000000E+00 0.  1.
         24    2    1    2    0    0 -0.18468035908E+03  0.14473735913E+03  0.35711416038E+03  0.43470107476E+03  0.79867156565E+02 0.  0.
        254    2    1    2    0    0  0.18468035908E+03 -0.14473735913E+03 -0.79945944790E+03  0.12273105438E+04  0.90116592481E+03 0.  0.
         23    2    4    4    0    0  0.13758201822E+03  0.31782271198E+03 -0.62633363320E+03  0.72137597182E+03  0.90273942319E+02 0.  0.
         23    2    4    4    0    0  0.47098340864E+02 -0.46256007111E+03 -0.17312581470E+03  0.50593457202E+03  0.99081634806E+02 0.  0.
          4    1    3    3  502    0 -0.18988385198E+03  0.14202708605E+03  0.35730709005E+03  0.42883088393E+03  0.00000000000E+00 0. -1.
         -3    1    3    3    0  502  0.52034928988E+01  0.27102730809E+01 -0.19292967057E+00  0.58701908298E+01  0.00000000000E+00 0.  1.
         13    1    5    5    0    0  0.11588617393E+03  0.31541095885E+03 -0.58547947537E+03  0.67505547501E+03  0.00000000000E+00 0. -1.
        -13    1    5    5    0    0  0.21695844287E+02  0.24117531286E+01 -0.40854157834E+02  0.46320496811E+02  0.00000000000E+00 0.  1.
          1    1    6    6  503    0 -0.99155933094E+01 -0.33850990534E+03 -0.11651908687E+03  0.35813959933E+03  0.00000000000E+00 0. -1.
         -1    1    6    6    0  503  0.57013934174E+02 -0.12405016577E+03 -0.56606727829E+02  0.14779497269E+03  0.00000000000E+00 0.  1.
<mgrwt>
<rscale>  0 0.16020653E+04</rscale>
<asrwt>0</asrwt>
<pdfrwt beam="1">  1        2 0.93820487E-01 0.16020653E+04</pdfrwt>
<pdfrwt beam="2">  1       -1 0.16187361E+00 0.16020653E+04</pdfrwt>
<totfact> 0.15066506E+01</totfact>
</mgrwt>
</event>
<event>
12    7  0.1660832E-007  0.1482705E+04  0.7818608E-02  0.8896036E-01
         -1   -1    0    0    0  501 -0.00000000000E+00  0.00000000000E+00  0.11016073208E+04  0.11016073208E+04  0.00000000000E+00 0.  1.
          2   -1    0    0  501    0  0.00000000000E+00 -0.00000000000E+00 -0.49891046506E+03  0.49891046506E+03  0.00000000000E+00 0. -1.
         24    2    1    2    0    0 -0.39718305494E+03 -0.15344189940E+03  0.38746425601E+03  0.58119421814E+03  0.79745682546E+02 0.  0.
        254    2    1    2    0    0  0.39718305494E+03  0.15344189940E+03  0.21523259971E+03  0.10193235677E+04  0.90077559253E+03 0.  0.
         23    2    4    4    0    0  0.14077374080E+03  0.22693210231E+03 -0.31276807048E+03  0.42104161962E+03  0.90203959934E+02 0.  0.
         23    2    4    4    0    0  0.25640931414E+03 -0.73490202907E+02  0.52800067019E+03  0.59828194809E+03  0.89498801034E+02 0.  0.
          2    1    3    3  502    0 -0.56682366147E+02 -0.61608731178E+01  0.24099725580E+02  0.61900272718E+02  0.00000000000E+00 0. -1.
         -1    1    3    3    0  502 -0.34050068880E+03 -0.14728102628E+03  0.36336453043E+03  0.51929394542E+03  0.00000000000E+00 0.  1.
         13    1    5    5    0    0  0.13512936592E+03  0.21431569365E+03 -0.24699797055E+03  0.35383493261E+03  0.00000000000E+00 0. -1.
        -13    1    5    5    0    0  0.56443748827E+01  0.12616408659E+02 -0.65770099924E+02  0.67206687013E+02  0.00000000000E+00 0.  1.
          1    1    6    6  503    0  0.21278525417E+03 -0.92289745664E+02  0.40962613723E+03  0.47073191293E+03  0.00000000000E+00 0. -1.
         -1    1    6    6    0  503  0.43624059974E+02  0.18799542756E+02  0.11837453296E+03  0.12755003516E+03  0.00000000000E+00 0.  1.
<mgrwt>
<rscale>  0 0.14827049E+04</rscale>
<asrwt>0</asrwt>
<pdfrwt beam="1">  1        2 0.76755457E-01 0.14827049E+04</pdfrwt>
<pdfrwt beam="2">  1       -1 0.16947805E+00 0.14827049E+04</pdfrwt>
<totfact> 0.16950673E+01</totfact>
</mgrwt>
</event>
<event>
12    7  0.1660832E-007  0.2835002E+04  0.7818608E-02  0.8292483E-01
          2   -1    0    0  501    0  0.00000000000E+00  0.00000000000E+00  0.24542703976E+04  0.24542703976E+04  0.00000000000E+00 0. -1.
         -1   -1    0    0    0  501 -0.00000000000E+00 -0.00000000000E+00 -0.81869892183E+03  0.81869892183E+03  0.00000000000E+00 0.  1.
         24    2    1    2    0    0 -0.10908584509E+04 -0.42320050849E+03  0.13207781046E+04  0.17662915499E+04  0.79121472689E+02 0.  0.
        254    2    1    2    0    0  0.10908584509E+04  0.42320050849E+03  0.31479337113E+03  0.15066777695E+04  0.89549550778E+03 0.  0.
         23    2    4    4    0    0  0.11074707088E+04  0.24514415932E+03  0.52638269688E+01  0.11375874262E+04  0.86547181097E+02 0.  0.
         23    2    4    4    0    0 -0.16612257982E+02  0.17805634917E+03  0.30952954417E+03  0.36909034333E+03  0.91864640824E+02 0.  0.
          4    1    3    3  502    0 -0.50958853810E+03 -0.21541006937E+03  0.57034614866E+03  0.79459216297E+03  0.00000000000E+00 0. -1.
         -3    1    3    3    0  502 -0.58126991275E+03 -0.20779043912E+03  0.75043195594E+03  0.97169938692E+03  0.00000000000E+00 0.  1.
         13    1    5    5    0    0  0.10916253746E+04  0.23669734896E+03 -0.48016968669E+01  0.11170025290E+04  0.00000000000E+00 0.  1.
        -13    1    5    5    0    0  0.15845334231E+02  0.84468103633E+01  0.10065523836E+02  0.20584897189E+02  0.00000000000E+00 0. -1.
          4    1    6    6  503    0  0.21233263683E+02  0.20766107631E+02  0.15521008125E+02  0.33510959491E+02  0.00000000000E+00 0. -1.
         -4    1    6    6    0  503 -0.37845521665E+02  0.15729024154E+03  0.29400853604E+03  0.33557938384E+03  0.00000000000E+00 0.  1.
<mgrwt>
<rscale>  0 0.28350016E+04</rscale>
<asrwt>0</asrwt>
<pdfrwt beam="1">  1        2 0.37758006E+00 0.28350016E+04</pdfrwt>
<pdfrwt beam="2">  1       -1 0.12595368E+00 0.28350016E+04</pdfrwt>
<totfact> 0.20035577E+00</totfact>
</mgrwt>
</event>
<event>
12    7  0.1660832E-007  0.1547406E+04  0.7818608E-02  0.8853527E-01
         -1   -1    0    0    0  501 -0.00000000000E+00  0.00000000000E+00  0.23428223903E+03  0.23428223903E+03  0.00000000000E+00 0.  1.
          2   -1    0    0  501    0  0.00000000000E+00 -0.00000000000E+00 -0.25551065626E+04  0.25551065626E+04  0.00000000000E+00 0. -1.
         24    2    1    2    0    0  0.15087204523E+02 -0.43608348206E+03 -0.31531378618E+03  0.54643203825E+03  0.93641665962E+02 0.  0.
        254    2    1    2    0    0 -0.15087204523E+02  0.43608348206E+03 -0.20055105374E+04  0.22429567634E+04  0.90464694758E+03 0.  0.
         23    2    4    4    0    0 -0.38447361713E+03  0.13110603053E+03 -0.14257543935E+04  0.14852952588E+04  0.91201215378E+02 0.  0.
         23    2    4    4    0    0  0.36938641260E+03  0.30497745153E+03 -0.57975614390E+03  0.75766150461E+03  0.92066288156E+02 0.  0.
          2    1    3    3  502    0  0.52943308807E+02 -0.20966455480E+03 -0.16551114782E+03  0.27231628585E+03  0.00000000000E+00 0. -1.
         -1    1    3    3    0  502 -0.37856104284E+02 -0.22641892726E+03 -0.14980263836E+03  0.27411575240E+03  0.00000000000E+00 0.  1.
         13    1    5    5    0    0 -0.35083276813E+03  0.14188203653E+03 -0.12501645565E+04  0.13061874145E+04  0.00000000000E+00 0.  1.
        -13    1    5    5    0    0 -0.33640848997E+02 -0.10776005996E+02 -0.17558983695E+03  0.17910784424E+03  0.00000000000E+00 0. -1.
          4    1    6    6  503    0  0.35309182438E+02  0.23473244499E+02 -0.10101464843E+03  0.10955222850E+03  0.00000000000E+00 0.  1.
         -4    1    6    6    0  503  0.33407723017E+03  0.28150420703E+03 -0.47874149547E+03  0.64810927611E+03  0.00000000000E+00 0. -1.
<mgrwt>
<rscale>  0 0.15474057E+04</rscale>
<asrwt>0</asrwt>
<pdfrwt beam="1">  1        2 0.39309328E+00 0.15474057E+04</pdfrwt>
<pdfrwt beam="2">  1       -1 0.36043425E-01 0.15474057E+04</pdfrwt>
<totfact> 0.26165654E+01</totfact>
</mgrwt>
</event>
<event>
12    7  0.1660832E-007  0.1483044E+04  0.7818608E-02  0.8895808E-01
          2   -1    0    0  501    0  0.00000000000E+00  0.00000000000E+00  0.56682257384E+03  0.56682257384E+03  0.00000000000E+00 0. -1.
         -1   -1    0    0    0  501 -0.00000000000E+00 -0.00000000000E+00 -0.97006467792E+03  0.97006467792E+03  0.00000000000E+00 0.  1.
         24    2    1    2    0    0  0.78671955744E+02  0.39506725242E+03 -0.35125967087E+03  0.54335812779E+03  0.97914698064E+02 0.  0.
        254    2    1    2    0    0 -0.78671955744E+02 -0.39506725242E+03 -0.51982433212E+02  0.99352912397E+03  0.90671414252E+03 0.  0.
         23    2    4    4    0    0  0.30312715216E+03 -0.43197917151E+03 -0.20146868731E+03  0.57237362492E+03  0.92357238740E+02 0.  0.
         23    2    4    4    0    0 -0.38179910790E+03  0.36911919083E+02  0.14948625410E+03  0.42115549904E+03  0.88841238427E+02 0.  0.
          2    1    3    3  502    0 -0.21810522397E+02  0.48736146907E+02 -0.36282692027E+02  0.64554973808E+02  0.00000000000E+00 0. -1.
         -1    1    3    3    0  502  0.10048247814E+03  0.34633110552E+03 -0.31497697884E+03  0.47880315398E+03  0.00000000000E+00 0.  1.
         13    1    5    5    0    0  0.13732062560E+03 -0.20847153778E+03 -0.14406121141E+03  0.28822034785E+03  0.00000000000E+00 0. -1.
        -13    1    5    5    0    0  0.16580652655E+03 -0.22350763372E+03 -0.57407475900E+02  0.28415327707E+03  0.00000000000E+00 0.  1.
          4    1    6    6  503    0 -0.20778020907E+03  0.36500454074E+02  0.12555749224E+03  0.24549864009E+03  0.00000000000E+00 0. -1.
         -4    1    6    6    0  503 -0.17401889883E+03  0.41146500862E+00  0.23928761865E+02  0.17565685895E+03  0.00000000000E+00 0.  1.
<mgrwt>
<rscale>  0 0.14830436E+04</rscale>
<asrwt>0</asrwt>
<pdfrwt beam="1">  1        2 0.87203473E-01 0.14830436E+04</pdfrwt>
<pdfrwt beam="2">  1       -1 0.14924072E+00 0.14830436E+04</pdfrwt>
<totfact> 0.20772021E+01</totfact>
</mgrwt>
</event>
<event>
12    7  0.1660832E-007  0.2194987E+04  0.7818608E-02  0.8520517E-01
         -1   -1    0    0    0  501 -0.00000000000E+00  0.00000000000E+00  0.14718817992E+04  0.14718817992E+04  0.00000000000E+00 0.  1.
          2   -1    0    0  501    0  0.00000000000E+00 -0.00000000000E+00 -0.81833506735E+03  0.81833506735E+03  0.00000000000E+00 0. -1.
         24    2    1    2    0    0  0.25051254456E+03 -0.18216139221E+01 -0.64495871913E+03  0.69627481001E+03  0.77891003437E+02 0.  0.
        254    2    1    2    0    0 -0.25051254456E+03  0.18216139221E+01  0.12985054509E+04  0.15939420565E+04  0.88981740830E+03 0.  0.
         23    2    4    4    0    0 -0.21375754613E+03 -0.34731497465E+03  0.25557662183E+03  0.48960858259E+03  0.89873101541E+02 0.  0.
         23    2    4    4    0    0 -0.36754998430E+02  0.34913658857E+03  0.10429288291E+04  0.11043334739E+04  0.92760938064E+02 0.  0.
          2    1    3    3  502    0  0.13205821434E+03  0.15640210910E+01 -0.44141020290E+03  0.46074373069E+03  0.00000000000E+00 0. -1.
         -1    1    3    3    0  502  0.11845433021E+03 -0.33856350131E+01 -0.20354851622E+03  0.23553107932E+03  0.00000000000E+00 0.  1.
         13    1    5    5    0    0 -0.27184963124E+02 -0.17363180647E+02  0.46880531426E+02  0.56905944233E+02  0.00000000000E+00 0. -1.
        -13    1    5    5    0    0 -0.18657258300E+03 -0.32995179400E+03  0.20869609040E+03  0.43270263836E+03  0.00000000000E+00 0.  1.
          4    1    6    6  503    0 -0.14361849486E+02  0.10150865317E+03  0.18988850463E+03  0.21579599992E+03  0.00000000000E+00 0. -1.
         -4    1    6    6    0  503 -0.22393148944E+02  0.24762793540E+03  0.85304032447E+03  0.88853747399E+03  0.00000000000E+00 0.  1.
<mgrwt>
<rscale>  0 0.21949875E+04</rscale>
<asrwt>0</asrwt>
<pdfrwt beam="1">  1        2 0.12589770E+00 0.21949875E+04</pdfrwt>
<pdfrwt beam="2">  1       -1 0.22644335E+00 0.21949875E+04</pdfrwt>
<totfact> 0.34744520E+00</totfact>
</mgrwt>
</event>
<event>
12    7  0.1660832E-007  0.2285474E+04  0.7818608E-02  0.8483671E-01
         -1   -1    0    0    0  501 -0.00000000000E+00  0.00000000000E+00  0.51454289865E+03  0.51454289865E+03  0.00000000000E+00 0.  1.
          2   -1    0    0  501    0  0.00000000000E+00 -0.00000000000E+00 -0.25378796054E+04  0.25378796054E+04  0.00000000000E+00 0. -1.
         24    2    1    2    0    0 -0.59523126876E+03  0.61186174629E+03 -0.25953778036E+03  0.89573619145E+03  0.79425470490E+02 0.  0.
        254    2    1    2    0    0  0.59523126876E+03 -0.61186174629E+03 -0.17637989264E+04  0.21566863126E+04  0.90090739718E+03 0.  0.
         23    2    4    4    0    0 -0.21206535529E+03 -0.14431095691E+03 -0.62512486908E+03  0.68174182455E+03  0.90517656806E+02 0.  0.
         23    2    4    4    0    0  0.80729662405E+03 -0.46755078938E+03 -0.11386740573E+04  0.14749444881E+04  0.92471910170E+02 0.  0.
          2    1    3    3  502    0 -0.81786756149E+02  0.12726514289E+03 -0.43723624228E+02  0.15747141135E+03  0.00000000000E+00 0. -1.
         -1    1    3    3    0  502 -0.51344451261E+03  0.48459660340E+03 -0.21581415613E+03  0.73826478010E+03  0.00000000000E+00 0.  1.
         13    1    5    5    0    0 -0.46093406980E+01 -0.38274034100E+02 -0.10365150514E+03  0.11058834579E+03  0.00000000000E+00 0.  1.
        -13    1    5    5    0    0 -0.20745601459E+03 -0.10603692281E+03 -0.52147336394E+03  0.57115347875E+03  0.00000000000E+00 0. -1.
          2    1    6    6  503    0  0.73814237747E+03 -0.44996324870E+03 -0.10734997345E+04  0.13783043113E+04  0.00000000000E+00 0. -1.
         -2    1    6    6    0  503  0.69154246582E+02 -0.17587540684E+02 -0.65174322867E+02  0.96640176783E+02  0.00000000000E+00 0.  1.
<mgrwt>
<rscale>  0 0.22854741E+04</rscale>
<asrwt>0</asrwt>
<pdfrwt beam="1">  1        2 0.39044302E+00 0.22854741E+04</pdfrwt>
<pdfrwt beam="2">  1       -1 0.79160445E-01 0.22854741E+04</pdfrwt>
<totfact> 0.54519907E+00</totfact>
</mgrwt>
</event>
<event>
12    7  0.1660832E-007  0.1671416E+04  0.7818608E-02  0.8777837E-01
          2   -1    0    0  501    0  0.00000000000E+00  0.00000000000E+00  0.61907041052E+03  0.61907041052E+03  0.00000000000E+00 0. -1.
         -1   -1    0    0    0  501 -0.00000000000E+00 -0.00000000000E+00 -0.11281564304E+04  0.11281564304E+04  0.00000000000E+00 0.  1.
         24    2    1    2    0    0  0.10813807667E+03 -0.52643995146E+03 -0.43800242739E+03  0.69805028229E+03  0.81210861856E+02 0.  0.
        254    2    1    2    0    0 -0.10813807667E+03  0.52643995146E+03 -0.71083592477E+02  0.10491765586E+04  0.89826817150E+03 0.  0.
         23    2    4    4    0    0 -0.61734503407E+02 -0.12571174237E+03 -0.30596284121E+03  0.34851030068E+03  0.90728046357E+02 0.  0.
         23    2    4    4    0    0 -0.46403573261E+02  0.65215169383E+03  0.23487924873E+03  0.70066625794E+03  0.91158214937E+02 0.  0.
          4    1    3    3  502    0  0.57036055147E+02 -0.27543922308E+03 -0.28110396477E+03  0.39766734366E+03  0.00000000000E+00 0. -1.
         -3    1    3    3    0  502  0.51102021521E+02 -0.25100072838E+03 -0.15689846262E+03  0.30038293863E+03  0.00000000000E+00 0.  1.
         13    1    5    5    0    0 -0.15810401828E+02  0.10804122395E+02 -0.65191586769E+02  0.67945867072E+02  0.00000000000E+00 0. -1.
        -13    1    5    5    0    0 -0.45924101579E+02 -0.13651586477E+03 -0.24077125444E+03  0.28056443361E+03  0.00000000000E+00 0.  1.
          1    1    6    6  503    0  0.20474124998E+02  0.10283242432E+03  0.57356353670E+02  0.11951338248E+03  0.00000000000E+00 0. -1.
         -1    1    6    6    0  503 -0.66877698259E+02  0.54931926951E+03  0.17752289506E+03  0.58115287546E+03  0.00000000000E+00 0.  1.
<mgrwt>
<rscale>  0 0.16714165E+04</rscale>
<asrwt>0</asrwt>
<pdfrwt beam="1">  1        2 0.95241602E-01 0.16714165E+04</pdfrwt>
<pdfrwt beam="2">  1       -1 0.17356253E+00 0.16714165E+04</pdfrwt>
<totfact> 0.12051152E+01</totfact>
</mgrwt>
</event>
<event>
12    7  0.1660832E-007  0.1906296E+04  0.7818608E-02  0.8651729E-01
         -1   -1    0    0    0  501 -0.00000000000E+00  0.00000000000E+00  0.19442902691E+03  0.19442902691E+03  0.00000000000E+00 0.  1.
          2   -1    0    0  501    0  0.00000000000E+00 -0.00000000000E+00 -0.46726099064E+04  0.46726099064E+04  0.00000000000E+00 0. -1.
         24    2    1    2    0    0 -0.41050781666E+03 -0.39706388784E+03 -0.54659656387E+03  0.79446500985E+03  0.78933197538E+02 0.  0.
        254    2    1    2    0    0  0.41050781666E+03  0.39706388784E+03 -0.39315843156E+04  0.40725739235E+04  0.89572692976E+03 0.  0.
         23    2    4    4    0    0  0.50536275912E+03 -0.98911438461E+02 -0.24221969364E+04  0.24780843871E+04  0.93216092834E+02 0.  0.
         23    2    4    4    0    0 -0.94854942457E+02  0.49597532630E+03 -0.15093873792E+04  0.15944895364E+04  0.95695541172E+02 0.  0.
          2    1    3    3  502    0 -0.38897157334E+02 -0.75118309771E+02 -0.71634641604E+02  0.11084796430E+03  0.00000000000E+00 0. -1.
         -1    1    3    3    0  502 -0.37161065933E+03 -0.32194557807E+03 -0.47496192227E+03  0.68361704555E+03  0.00000000000E+00 0.  1.
         13    1    5    5    0    0  0.32696080289E+03 -0.28508973451E+02 -0.16594725019E+04  0.16916161246E+04  0.00000000000E+00 0. -1.
        -13    1    5    5    0    0  0.17840195623E+03 -0.70402465010E+02 -0.76272443446E+03  0.78646826255E+03  0.00000000000E+00 0.  1.
          4    1    6    6  503    0  0.80757174222E+01  0.47719271051E+02 -0.22754008634E+03  0.23263025799E+03  0.00000000000E+00 0.  1.
         -4    1    6    6    0  503 -0.10293065988E+03  0.44825605525E+03 -0.12818472929E+04  0.13618592784E+04  0.00000000000E+00 0. -1.
<mgrwt>
<rscale>  0 0.19062959E+04</rscale>
<asrwt>0</asrwt>
<pdfrwt beam="1">  1        2 0.71886301E+00 0.19062959E+04</pdfrwt>
<pdfrwt beam="2">  1       -1 0.29912160E-01 0.19062959E+04</pdfrwt>
<totfact> 0.91731617E-01</totfact>
</mgrwt>
</event>
<event>
12    7  0.1660832E-007  0.1181105E+04  0.7818608E-02  0.9129558E-01
         -1   -1    0    0    0  501 -0.00000000000E+00  0.00000000000E+00  0.41448625646E+03  0.41448625646E+03  0.00000000000E+00 0.  1.
          2   -1    0    0  501    0  0.00000000000E+00 -0.00000000000E+00 -0.84140907110E+03  0.84140907110E+03  0.00000000000E+00 0. -1.
         24    2    1    2    0    0 -0.16437269238E+03  0.94495640691E+02  0.49422317169E+02  0.21137632331E+03  0.79306850356E+02 0.  0.
        254    2    1    2    0    0  0.16437269238E+03 -0.94495640691E+02 -0.47634513181E+03  0.10445190043E+04  0.91003706383E+03 0.  0.
         23    2    4    4    0    0  0.37910882883E+03 -0.38904814837E+03 -0.24629844153E+03  0.60385660329E+03  0.94328729388E+02 0.  0.
         23    2    4    4    0    0 -0.21473613645E+03  0.29455250768E+03 -0.23004669028E+03  0.44066240096E+03  0.91591941990E+02 0.  0.
          4    1    3    3  502    0 -0.13143268142E+03  0.59486929552E+02  0.26284581016E+01  0.14429190318E+03  0.00000000000E+00 0. -1.
         -3    1    3    3    0  502 -0.32940010961E+02  0.35008711140E+02  0.46793859068E+02  0.67084420130E+02  0.00000000000E+00 0.  1.
         13    1    5    5    0    0  0.14286887081E+02 -0.85398487318E+00  0.45685565657E+01  0.15023852426E+02  0.00000000000E+00 0.  1.
        -13    1    5    5    0    0  0.36482194175E+03 -0.38819416350E+03 -0.25086699810E+03  0.58883275087E+03  0.00000000000E+00 0. -1.
          3    1    6    6  503    0 -0.20391297487E+03  0.26664757997E+03 -0.23574874675E+03  0.41019374059E+03  0.00000000000E+00 0. -1.
         -3    1    6    6    0  503 -0.10823161583E+02  0.27904927707E+02  0.57020564727E+01  0.30468660374E+02  0.00000000000E+00 0.  1.
<mgrwt>
<rscale>  0 0.11811054E+04</rscale>
<asrwt>0</asrwt>
<pdfrwt beam="1">  1        2 0.12944755E+00 0.11811054E+04</pdfrwt>
<pdfrwt beam="2">  1       -1 0.63767117E-01 0.11811054E+04</pdfrwt>
<totfact> 0.90523581E+01</totfact>
</mgrwt>
</event>
<event>
12    7  0.1660832E-007  0.1806373E+04  0.7818608E-02  0.8702918E-01
         -1   -1    0    0    0  501 -0.00000000000E+00  0.00000000000E+00  0.36286260243E+03  0.36286260243E+03  0.00000000000E+00 0.  1.
          2   -1    0    0  501    0  0.00000000000E+00 -0.00000000000E+00 -0.22480842440E+04  0.22480842440E+04  0.00000000000E+00 0. -1.
         24    2    1    2    0    0  0.14296841493E+02 -0.40594677926E+03  0.68783286958E+02  0.41982660676E+03  0.80783982994E+02 0.  0.
        254    2    1    2    0    0 -0.14296841493E+02  0.40594677926E+03 -0.19540049285E+04  0.21911202396E+04  0.90436467021E+03 0.  0.
         23    2    4    4    0    0 -0.38332969687E+03 -0.45359779693E+02 -0.89844311984E+03  0.98197994853E+03  0.89918927934E+02 0.  0.
         23    2    4    4    0    0  0.36903285537E+03  0.45130655896E+03 -0.10555618086E+04  0.12091402911E+04  0.89144002689E+02 0.  0.
          2    1    3    3  502    0  0.17792199066E+01 -0.12819486370E+00 -0.66342861001E+01  0.68699206296E+01  0.00000000000E+00 0. -1.
         -1    1    3    3    0  502  0.12517621587E+02 -0.40581858440E+03  0.75417573058E+02  0.41295668613E+03  0.00000000000E+00 0.  1.
         13    1    5    5    0    0 -0.28920461445E+03 -0.69909971535E+02 -0.71252570605E+03  0.77215257231E+03  0.00000000000E+00 0.  1.
        -13    1    5    5    0    0 -0.94125082413E+02  0.24550191842E+02 -0.18591741379E+03  0.20982737622E+03  0.00000000000E+00 0. -1.
          4    1    6    6  503    0  0.10633645577E+03  0.16636864462E+03 -0.43151029108E+03  0.47453882775E+03  0.00000000000E+00 0. -1.
         -4    1    6    6    0  503  0.26269639960E+03  0.28493791434E+03 -0.62405151756E+03  0.73460146335E+03  0.00000000000E+00 0.  1.
<mgrwt>
<rscale>  0 0.18063728E+04</rscale>
<asrwt>0</asrwt>
<pdfrwt beam="1">  1        2 0.34585912E+00 0.18063728E+04</pdfrwt>
<pdfrwt beam="2">  1       -1 0.55825015E-01 0.18063728E+04</pdfrwt>
<totfact> 0.16924172E+01</totfact>
</mgrwt>
</event>
<event>
12    7  0.1660832E-007  0.1259837E+04  0.7818608E-02  0.9062035E-01
          4   -1    0    0  501    0  0.00000000000E+00  0.00000000000E+00  0.87040674243E+03  0.87040674243E+03  0.00000000000E+00 0. -1.
         -3   -1    0    0    0  501 -0.00000000000E+00 -0.00000000000E+00 -0.45587596231E+03  0.45587596231E+03  0.00000000000E+00 0.  1.
         24    2    1    2    0    0  0.27558755604E+02  0.17774265158E+03 -0.15069478285E+03  0.24466457385E+03  0.69281317223E+02 0.  0.
        254    2    1    2    0    0 -0.27558755604E+02 -0.17774265158E+03  0.56522556297E+03  0.10816181309E+04  0.90446996016E+03 0.  0.
         23    2    4    4    0    0  0.37950600526E+03 -0.15390716109E+03  0.57487471823E+02  0.42408045883E+03  0.93953200477E+02 0.  0.
         23    2    4    4    0    0 -0.40706476086E+03 -0.23835490488E+02  0.50773809115E+03  0.65753767207E+03  0.91038293256E+02 0.  0.
          4    1    3    3  502    0  0.35317968329E+01  0.40714483803E+02 -0.18233149343E+01  0.40908034145E+02  0.00000000000E+00 0. -1.
         -3    1    3    3    0  502  0.24026958771E+02  0.13702816778E+03 -0.14887146791E+03  0.20375653970E+03  0.00000000000E+00 0.  1.
         13    1    5    5    0    0  0.32320417950E+03 -0.14945083069E+03  0.20716347183E+02  0.35668706099E+03  0.00000000000E+00 0. -1.
        -13    1    5    5    0    0  0.56301825761E+02 -0.44563304056E+01  0.36771124639E+02  0.67393397836E+02  0.00000000000E+00 0.  1.
          2    1    6    6  503    0 -0.39549754199E+03 -0.48084303878E+01  0.47980383047E+03  0.62181439550E+03  0.00000000000E+00 0. -1.
         -2    1    6    6    0  503 -0.11567218869E+02 -0.19027060100E+02  0.27934260686E+02  0.35723276565E+02  0.00000000000E+00 0.  1.
<mgrwt>
<rscale>  0 0.12598373E+04</rscale>
<asrwt>0</asrwt>
<pdfrwt beam="1">  1        4 0.13390873E+00 0.12598373E+04</pdfrwt>
<pdfrwt beam="2">  1       -3 0.70134764E-01 0.12598373E+04</pdfrwt>
<totfact> 0.17501035E+00</totfact>
</mgrwt>
</event>
<event>
12    7  0.1660832E-007  0.1660986E+04  0.7818608E-02  0.8783933E-01
          2   -1    0    0  501    0  0.00000000000E+00  0.00000000000E+00  0.12672218659E+04  0.12672218659E+04  0.00000000000E+00 0. -1.
         -1   -1    0    0    0  501 -0.00000000000E+00 -0.00000000000E+00 -0.54427638179E+03  0.54427638179E+03  0.00000000000E+00 0.  1.
         24    2    1    2    0    0 -0.49430953209E+03  0.29113380517E+03  0.36663199719E+03  0.68543530864E+03  0.79383467680E+02 0.  0.
        254    2    1    2    0    0  0.49430953209E+03 -0.29113380517E+03  0.35631348692E+03  0.11260629390E+04  0.90108691905E+03 0.  0.
         23    2    4    4    0    0 -0.17846600394E+03 -0.32509207729E+03  0.18915410752E+03  0.42592206854E+03  0.89974211867E+02 0.  0.
         23    2    4    4    0    0  0.67277553603E+03  0.33958272120E+02  0.16715937940E+03  0.70014087049E+03  0.92059189019E+02 0.  0.
          2    1    3    3  502    0 -0.56736625665E+02  0.40395231538E+02  0.16761717225E+02  0.71636405459E+02  0.00000000000E+00 0. -1.
         -1    1    3    3    0  502 -0.43757290643E+03  0.25073857364E+03  0.34987027996E+03  0.61379890318E+03  0.00000000000E+00 0.  1.
         13    1    5    5    0    0 -0.17576332391E+03 -0.27037580090E+03  0.18301321545E+03  0.37079597729E+03  0.00000000000E+00 0.  1.
        -13    1    5    5    0    0 -0.27026800278E+01 -0.54716276389E+02  0.61408920662E+01  0.55126091251E+02  0.00000000000E+00 0. -1.
          1    1    6    6  503    0  0.13952324740E+03 -0.27621461733E+02  0.49523284640E+02  0.15060623306E+03  0.00000000000E+00 0. -1.
         -1    1    6    6    0  503  0.53325228863E+03  0.61579733853E+02  0.11763609476E+03  0.54953463744E+03  0.00000000000E+00 0.  1.
<mgrwt>
<rscale>  0 0.16609864E+04</rscale>
<asrwt>0</asrwt>
<pdfrwt beam="1">  1        2 0.19495721E+00 0.16609864E+04</pdfrwt>
<pdfrwt beam="2">  1       -1 0.83734828E-01 0.16609864E+04</pdfrwt>
<totfact> 0.26594303E+01</totfact>
</mgrwt>
</event>
<event>
12    7  0.1660832E-007  0.1954587E+04  0.7818608E-02  0.8628152E-01
         -1   -1    0    0    0  501 -0.00000000000E+00  0.00000000000E+00  0.13779997643E+04  0.13779997643E+04  0.00000000000E+00 0.  1.
          2   -1    0    0  501    0  0.00000000000E+00 -0.00000000000E+00 -0.69310776851E+03  0.69310776851E+03  0.00000000000E+00 0. -1.
         24    2    1    2    0    0  0.71003501176E+03 -0.34716327404E+03  0.41176604336E+03  0.89467674393E+03  0.78886912152E+02 0.  0.
        254    2    1    2    0    0 -0.71003501176E+03  0.34716327404E+03  0.27312595242E+03  0.11764307889E+04  0.82747782951E+03 0.  0.
         23    2    4    4    0    0  0.15439450420E+03  0.18614443429E+03  0.88000596580E+02  0.27321607278E+03  0.91736056615E+02 0.  0.
         23    2    4    4    0    0 -0.86442951595E+03  0.16101883975E+03  0.18512535584E+03  0.90321471608E+03  0.91432877905E+02 0.  0.
          4    1    3    3  502    0  0.95671301428E+02 -0.30879481220E+02  0.28442673920E+02  0.10447739457E+03  0.00000000000E+00 0. -1.
         -3    1    3    3    0  502  0.61436371033E+03 -0.31628379282E+03  0.38332336944E+03  0.79019934936E+03  0.00000000000E+00 0.  1.
         13    1    5    5    0    0  0.15606991849E+03  0.18967291880E+03  0.70873975955E+02  0.25564967446E+03  0.00000000000E+00 0.  1.
        -13    1    5    5    0    0 -0.16754142944E+01 -0.35284845064E+01  0.17126620625E+02  0.17566398322E+02  0.00000000000E+00 0. -1.
          3    1    6    6  503    0 -0.42809084594E+03  0.11746064517E+03  0.12044466034E+03  0.45996270690E+03  0.00000000000E+00 0. -1.
         -3    1    6    6    0  503 -0.43633867002E+03  0.43558194577E+02  0.64680695500E+02  0.44325200918E+03  0.00000000000E+00 0.  1.
<mgrwt>
<rscale>  0 0.19545868E+04</rscale>
<asrwt>0</asrwt>
<pdfrwt beam="1">  1        2 0.10663196E+00 0.19545868E+04</pdfrwt>
<pdfrwt beam="2">  1       -1 0.21199996E+00 0.19545868E+04</pdfrwt>
<totfact> 0.55027598E+00</totfact>
</mgrwt>
</event>
<event>
12    7  0.1660832E-007  0.1638055E+04  0.7818608E-02  0.8797504E-01
          2   -1    0    0  501    0  0.00000000000E+00  0.00000000000E+00  0.14595645234E+04  0.14595645234E+04  0.00000000000E+00 0. -1.
         -1   -1    0    0    0  501 -0.00000000000E+00 -0.00000000000E+00 -0.45959328668E+03  0.45959328668E+03  0.00000000000E+00 0.  1.
         24    2    1    2    0    0  0.36666706459E+02  0.19950278909E+03  0.97628447447E+03  0.10004768124E+04  0.81710873824E+02 0.  0.
        254    2    1    2    0    0 -0.36666706459E+02 -0.19950278909E+03  0.23686762259E+02  0.91868099766E+03  0.89569408982E+03 0.  0.
         23    2    4    4    0    0  0.22462493785E+03 -0.43249122686E+03  0.17530072911E+03  0.52628371176E+03  0.93483558002E+02 0.  0.
         23    2    4    4    0    0 -0.26129164430E+03  0.23298843778E+03 -0.15161396685E+03  0.39239728591E+03  0.91825375145E+02 0.  0.
          4    1    3    3  502    0  0.62522728530E+02  0.15540116473E+03  0.73844381381E+03  0.75720398820E+03  0.00000000000E+00 0. -1.
         -3    1    3    3    0  502 -0.25856022071E+02  0.44101624359E+02  0.23784066066E+03  0.24327282423E+03  0.00000000000E+00 0.  1.
         13    1    5    5    0    0  0.18875149299E+03 -0.26756477603E+03  0.11449825799E+03  0.34688310216E+03  0.00000000000E+00 0.  1.
        -13    1    5    5    0    0  0.35873444851E+02 -0.16492645083E+03  0.60802471121E+02  0.17940060960E+03  0.00000000000E+00 0. -1.
          2    1    6    6  503    0 -0.13178531177E+03  0.17570377235E+03 -0.80384682612E+02  0.23388219516E+03  0.00000000000E+00 0. -1.
         -2    1    6    6    0  503 -0.12950633254E+03  0.57284665431E+02 -0.71229284243E+02  0.15851509075E+03  0.00000000000E+00 0.  1.
<mgrwt>
<rscale>  0 0.16380550E+04</rscale>
<asrwt>0</asrwt>
<pdfrwt beam="1">  1        2 0.22454839E+00 0.16380550E+04</pdfrwt>
<pdfrwt beam="2">  1       -1 0.70706660E-01 0.16380550E+04</pdfrwt>
<totfact> 0.29466934E+01</totfact>
</mgrwt>
</event>
<event>
12    7  0.1660832E-007  0.1874301E+04  0.7818608E-02  0.8667755E-01
         -1   -1    0    0    0  501 -0.00000000000E+00  0.00000000000E+00  0.36853276929E+03  0.36853276929E+03  0.00000000000E+00 0.  1.
          2   -1    0    0  501    0  0.00000000000E+00 -0.00000000000E+00 -0.23831008753E+04  0.23831008753E+04  0.00000000000E+00 0. -1.
         24    2    1    2    0    0 -0.48265606412E+03 -0.15995874759E+03 -0.13849831630E+04  0.14774545995E+04  0.78422285187E+02 0.  0.
        254    2    1    2    0    0  0.48265606412E+03  0.15995874759E+03 -0.62958494303E+03  0.12741790450E+04  0.98418055314E+03 0.  0.
         23    2    4    4    0    0 -0.23676890949E+03  0.24487116829E+03 -0.84225528707E+02  0.36212565767E+03  0.89552480130E+02 0.  0.
         23    2    4    4    0    0  0.71942497360E+03 -0.84912420706E+02 -0.54535941432E+03  0.91205338737E+03  0.98194087378E+02 0.  0.
          4    1    3    3  502    0 -0.38567840818E+03 -0.14285850998E+03 -0.11889639499E+04  0.12580904827E+04  0.00000000000E+00 0. -1.
         -3    1    3    3    0  502 -0.96977655940E+02 -0.17100237603E+02 -0.19601921309E+03  0.21936411689E+03  0.00000000000E+00 0.  1.
         13    1    5    5    0    0 -0.17252734786E+03  0.12461078473E+03 -0.28051133146E+02  0.21466345637E+03  0.00000000000E+00 0. -1.
        -13    1    5    5    0    0 -0.64241561623E+02  0.12026038357E+03 -0.56174395561E+02  0.14746220130E+03  0.00000000000E+00 0.  1.
          2    1    6    6  503    0  0.40077387439E+03  0.13520533732E+01 -0.30809828784E+03  0.50551565892E+03  0.00000000000E+00 0. -1.
         -2    1    6    6    0  503  0.31865109921E+03 -0.86264474080E+02 -0.23726112648E+03  0.40653772846E+03  0.00000000000E+00 0.  1.
<mgrwt>
<rscale>  0 0.18743007E+04</rscale>
<asrwt>0</asrwt>
<pdfrwt beam="1">  1        2 0.36663091E+00 0.18743007E+04</pdfrwt>
<pdfrwt beam="2">  1       -1 0.56697348E-01 0.18743007E+04</pdfrwt>
<totfact> 0.13685074E+01</totfact>
</mgrwt>
</event>
<event>
12    7  0.1660832E-007  0.1248880E+04  0.7818608E-02  0.9071116E-01
          2   -1    0    0  501    0  0.00000000000E+00  0.00000000000E+00  0.16216930335E+04  0.16216930335E+04  0.00000000000E+00 0. -1.
         -1   -1    0    0    0  501 -0.00000000000E+00 -0.00000000000E+00 -0.24044349057E+03  0.24044349057E+03  0.00000000000E+00 0.  1.
         24    2    1    2    0    0  0.42301691826E+02  0.90565492424E+02 -0.73062401234E+02  0.14836617633E+03  0.81748799723E+02 0.  0.
        254    2    1    2    0    0 -0.42301691826E+02 -0.90565492424E+02  0.14543119441E+04  0.17137703477E+04  0.90110711476E+03 0.  0.
         23    2    4    4    0    0 -0.67361516240E+02 -0.27553041905E+02 -0.10066467661E+03  0.15492803318E+03  0.92588197737E+02 0.  0.
         23    2    4    4    0    0  0.25059824414E+02 -0.63012450519E+02  0.15549766207E+04  0.15588423145E+04  0.86246778256E+02 0.  0.
          2    1    3    3  502    0  0.11428663948E+02  0.53400591921E+02  0.67943392190E+01  0.55030906068E+02  0.00000000000E+00 0. -1.
         -1    1    3    3    0  502  0.30873027877E+02  0.37164900503E+02 -0.79856740453E+02  0.93335270266E+02  0.00000000000E+00 0.  1.
         13    1    5    5    0    0 -0.68685699116E+01  0.29822204718E+02 -0.11075970781E+02  0.32545633742E+02  0.00000000000E+00 0. -1.
        -13    1    5    5    0    0 -0.60492946328E+02 -0.57375246624E+02 -0.89588705832E+02  0.12238239944E+03  0.00000000000E+00 0.  1.
          3    1    6    6  503    0 -0.11347905433E+02 -0.67693315479E+02  0.78643684129E+03  0.78942641535E+03  0.00000000000E+00 0. -1.
         -3    1    6    6    0  503  0.36407729847E+02  0.46808649598E+01  0.76853977944E+03  0.76941589915E+03  0.00000000000E+00 0.  1.
<mgrwt>
<rscale>  0 0.12488804E+04</rscale>
<asrwt>0</asrwt>
<pdfrwt beam="1">  1        2 0.24949123E+00 0.12488804E+04</pdfrwt>
<pdfrwt beam="2">  1       -1 0.36991307E-01 0.12488804E+04</pdfrwt>
<totfact> 0.85325948E+01</totfact>
</mgrwt>
</event>
<event>
12    7  0.1660832E-007  0.2501155E+04  0.7818608E-02  0.8402574E-01
         -1   -1    0    0    0  501 -0.00000000000E+00  0.00000000000E+00  0.77777398553E+03  0.77777398553E+03  0.00000000000E+00 0.  1.
          2   -1    0    0  501    0  0.00000000000E+00 -0.00000000000E+00 -0.20107954248E+04  0.20107954248E+04  0.00000000000E+00 0. -1.
         24    2    1    2    0    0 -0.72808277040E+03 -0.58634068762E+03  0.79464282454E+02  0.94137360575E+03  0.77264292549E+02 0.  0.
        254    2    1    2    0    0  0.72808277040E+03  0.58634068762E+03 -0.13124857217E+04  0.18471958046E+04  0.90311330862E+03 0.  0.
         23    2    4    4    0    0  0.68915924814E+03  0.47274919730E+03 -0.14295746408E+04  0.16584150919E+04  0.90690080154E+02 0.  0.
         23    2    4    4    0    0  0.38923522254E+02  0.11359149032E+03  0.11708891904E+03  0.18878071269E+03  0.86661844349E+02 0.  0.
          4    1    3    3  502    0 -0.61141306573E+03 -0.46473244700E+03  0.44592156500E+02  0.76927930211E+03  0.00000000000E+00 0. -1.
         -3    1    3    3    0  502 -0.11666970466E+03 -0.12160824063E+03  0.34872125954E+02  0.17209430363E+03  0.00000000000E+00 0.  1.
         13    1    5    5    0    0  0.65597198919E+02  0.20914150519E+02 -0.14904653197E+03  0.16418058013E+03  0.00000000000E+00 0.  1.
        -13    1    5    5    0    0  0.62356204922E+03  0.45183504678E+03 -0.12805281088E+04  0.14942345118E+04  0.00000000000E+00 0. -1.
          2    1    6    6  503    0 -0.13649341348E+01  0.43909413638E+02 -0.31987281413E+01  0.44046923989E+02  0.00000000000E+00 0.  1.
         -2    1    6    6    0  503  0.40288456389E+02  0.69682076685E+02  0.12028764718E+03  0.14473378871E+03  0.00000000000E+00 0. -1.
<mgrwt>
<rscale>  0 0.25011552E+04</rscale>
<asrwt>0</asrwt>
<pdfrwt beam="1">  1        2 0.30935314E+00 0.25011552E+04</pdfrwt>
<pdfrwt beam="2">  1       -1 0.11965754E+00 0.25011552E+04</pdfrwt>
<totfact> 0.41684083E+00</totfact>
</mgrwt>
</event>
<event>
12    7  0.1660832E-007  0.2435921E+04  0.7818608E-02  0.8426176E-01
          4   -1    0    0  501    0  0.00000000000E+00  0.00000000000E+00  0.53121998335E+03  0.53121998335E+03  0.00000000000E+00 0. -1.
         -3   -1    0    0    0  501 -0.00000000000E+00 -0.00000000000E+00 -0.27924932506E+04  0.27924932506E+04  0.00000000000E+00 0.  1.
         24    2    1    2    0    0  0.47909743692E+03 -0.71781558838E+02  0.29438063216E+03  0.57233162418E+03  0.78845324469E+02 0.  0.
        254    2    1    2    0    0 -0.47909743692E+03  0.71781558838E+02 -0.25556538994E+04  0.27513816098E+04  0.89668665808E+03 0.  0.
         23    2    4    4    0    0 -0.31927354899E+03  0.45577203632E+03 -0.17690867780E+04  0.18568789593E+04  0.93100448079E+02 0.  0.
         23    2    4    4    0    0 -0.15982388793E+03 -0.38399047748E+03 -0.78656712141E+03  0.89450265042E+03  0.91949949296E+02 0.  0.
          4    1    3    3  502    0  0.45467484141E+03 -0.80456469069E+02  0.26212589879E+03  0.53095427453E+03  0.00000000000E+00 0. -1.
         -3    1    3    3    0  502  0.24422595509E+02  0.86749102312E+01  0.32254733371E+02  0.41377349646E+02  0.00000000000E+00 0.  1.
         13    1    5    5    0    0 -0.11708286484E+02  0.43724406565E+02 -0.22257255872E+03  0.22712871152E+03  0.00000000000E+00 0. -1.
        -13    1    5    5    0    0 -0.30756526251E+03  0.41204762975E+03 -0.15465142193E+04  0.16297502478E+04  0.00000000000E+00 0.  1.
          1    1    6    6  503    0 -0.73318465965E+02 -0.78110698862E+02 -0.17307571998E+03  0.20354872530E+03  0.00000000000E+00 0. -1.
         -1    1    6    6    0  503 -0.86505421961E+02 -0.30587977862E+03 -0.61349140144E+03  0.69095392512E+03  0.00000000000E+00 0.  1.
<mgrwt>
<rscale>  0 0.24359214E+04</rscale>
<asrwt>0</asrwt>
<pdfrwt beam="1">  1        4 0.81726150E-01 0.24359214E+04</pdfrwt>
<pdfrwt beam="2">  1       -3 0.42961435E+00 0.24359214E+04</pdfrwt>
<totfact> 0.19731636E-02</totfact>
</mgrwt>
</event>
<event>
12    7  0.1660832E-007  0.4762035E+04  0.7818608E-02  0.7866302E-01
         -1   -1    0    0    0  501 -0.00000000000E+00  0.00000000000E+00  0.18161851169E+04  0.18161851169E+04  0.00000000000E+00 0.  1.
          2   -1    0    0  501    0  0.00000000000E+00 -0.00000000000E+00 -0.31215123569E+04  0.31215123569E+04  0.00000000000E+00 0. -1.
         24    2    1    2    0    0  0.62533382917E+03 -0.47352294843E+03  0.16094396189E+04  0.17922582781E+04  0.81409261634E+02 0.  0.
        254    2    1    2    0    0 -0.62533382917E+03  0.47352294843E+03 -0.29147668590E+04  0.31454391957E+04  0.88467819638E+03 0.  0.
         23    2    4    4    0    0 -0.98155318471E+02  0.53666711714E+03 -0.20758959637E+04  0.21485684970E+04  0.96728865080E+02 0.  0.
         23    2    4    4    0    0 -0.52717851069E+03 -0.63144168711E+02 -0.83887089532E+03  0.99687069868E+03  0.90235484680E+02 0.  0.
          2    1    3    3  502    0  0.91341508279E+02 -0.67670738457E+02  0.17389959057E+03  0.20775867630E+03  0.00000000000E+00 0. -1.
         -1    1    3    3    0  502  0.53399232089E+03 -0.40585220998E+03  0.14355400283E+04  0.15844996018E+04  0.00000000000E+00 0.  1.
         13    1    5    5    0    0 -0.27275313959E+02  0.39001531672E+03 -0.14369797015E+04  0.14892167581E+04  0.00000000000E+00 0. -1.
        -13    1    5    5    0    0 -0.70880004512E+02  0.14665180042E+03 -0.63891626215E+03  0.65935173894E+03  0.00000000000E+00 0.  1.
          2    1    6    6  503    0 -0.40568599391E+03 -0.56935380970E+02 -0.70958388700E+03  0.81934855584E+03  0.00000000000E+00 0. -1.
         -2    1    6    6    0  503 -0.12149251679E+03 -0.62087877407E+01 -0.12928700831E+03  0.17752214284E+03  0.00000000000E+00 0.  1.
<mgrwt>
<rscale>  0 0.47620350E+04</rscale>
<asrwt>0</asrwt>
<pdfrwt beam="1">  1        2 0.48023267E+00 0.47620350E+04</pdfrwt>
<pdfrwt beam="2">  1       -1 0.27941310E+00 0.47620350E+04</pdfrwt>
<totfact> 0.55127061E-02</totfact>
</mgrwt>
</event>
<event>
12    7  0.1660832E-007  0.1695866E+04  0.7818608E-02  0.8763725E-01
          2   -1    0    0  501    0  0.00000000000E+00  0.00000000000E+00  0.68743548637E+03  0.68743548637E+03  0.00000000000E+00 0. -1.
         -1   -1    0    0    0  501 -0.00000000000E+00 -0.00000000000E+00 -0.10459026887E+04  0.10459026887E+04  0.00000000000E+00 0.  1.
         24    2    1    2    0    0 -0.34658147784E+03 -0.17998457639E+03  0.35504273967E+03  0.53412635042E+03  0.81990503718E+02 0.  0.
        254    2    1    2    0    0  0.34658147784E+03  0.17998457639E+03 -0.71350994195E+03  0.11992118246E+04  0.88119203044E+03 0.  0.
         23    2    4    4    0    0 -0.27234144261E+03 -0.32394204167E+02 -0.13001561469E+03  0.31757589176E+03  0.93440575446E+02 0.  0.
         23    2    4    4    0    0  0.61892292045E+03  0.21237878056E+03 -0.58349432727E+03  0.88163593285E+03  0.92983655803E+02 0.  0.
          4    1    3    3  502    0 -0.29803583524E+03 -0.17871896631E+03  0.33105932425E+03  0.47996469055E+03  0.00000000000E+00 0. -1.
         -3    1    3    3    0  502 -0.48545642598E+02 -0.12656100838E+01  0.23983415420E+02  0.54161659865E+02  0.00000000000E+00 0.  1.
         13    1    5    5    0    0 -0.25789412295E+03 -0.35008767855E+02 -0.14387967023E+03  0.29738250114E+03  0.00000000000E+00 0.  1.
        -13    1    5    5    0    0 -0.14447319666E+02  0.26145636880E+01  0.13864055546E+02  0.20193390626E+02  0.00000000000E+00 0. -1.
          3    1    6    6  503    0  0.90415646208E+02  0.18742678023E+02 -0.12648216963E+03  0.15660145687E+03  0.00000000000E+00 0. -1.
         -3    1    6    6    0  503  0.52850727425E+03  0.19363610254E+03 -0.45701215763E+03  0.72503447598E+03  0.00000000000E+00 0.  1.
<mgrwt>
<rscale>  0 0.16958663E+04</rscale>
<asrwt>0</asrwt>
<pdfrwt beam="1">  1        2 0.10575931E+00 0.16958663E+04</pdfrwt>
<pdfrwt beam="2">  1       -1 0.16090811E+00 0.16958663E+04</pdfrwt>
<totfact> 0.13108687E+01</totfact>
</mgrwt>
</event>
<event>
12    7  0.1660832E-007  0.1862019E+04  0.7818608E-02  0.8673996E-01
          2   -1    0    0  501    0  0.00000000000E+00  0.00000000000E+00  0.14628271712E+04  0.14628271712E+04  0.00000000000E+00 0. -1.
         -1   -1    0    0    0  501 -0.00000000000E+00 -0.00000000000E+00 -0.59253675241E+03  0.59253675241E+03  0.00000000000E+00 0.  1.
         24    2    1    2    0    0  0.18881707128E+03  0.23055815752E+03 -0.38040016236E+03  0.48978906818E+03  0.79875511787E+02 0.  0.
        254    2    1    2    0    0 -0.18881707128E+03 -0.23055815752E+03  0.12506905812E+04  0.15655748554E+04  0.89330215927E+03 0.  0.
         23    2    4    4    0    0  0.21759083379E+03 -0.41516290774E+03  0.53793214446E+03  0.71929160046E+03  0.91123013186E+02 0.  0.
         23    2    4    4    0    0 -0.40640790508E+03  0.18460475022E+03  0.71275843671E+03  0.84628325498E+03  0.94469357194E+02 0.  0.
          2    1    3    3  502    0  0.53370846468E+02  0.17829341567E+02 -0.73424046622E+02  0.92506341922E+02  0.00000000000E+00 0. -1.
         -1    1    3    3    0  502  0.13544622481E+03  0.21272881595E+03 -0.30697611573E+03  0.39728272626E+03  0.00000000000E+00 0.  1.
         13    1    5    5    0    0  0.20706233641E+03 -0.39587155132E+03  0.47249286646E+03  0.65026041334E+03  0.00000000000E+00 0. -1.
        -13    1    5    5    0    0  0.10528497383E+02 -0.19291356427E+02  0.65439278004E+02  0.69031187124E+02  0.00000000000E+00 0.  1.
          1    1    6    6  503    0 -0.24948270612E+03  0.69060748996E+02  0.45004412777E+03  0.51918274686E+03  0.00000000000E+00 0. -1.
         -1    1    6    6    0  503 -0.15692519895E+03  0.11554400123E+03  0.26271430895E+03  0.32710050812E+03  0.00000000000E+00 0.  1.
<mgrwt>
<rscale>  0 0.18620192E+04</rscale>
<asrwt>0</asrwt>
<pdfrwt beam="1">  1        2 0.22505033E+00 0.18620192E+04</pdfrwt>
<pdfrwt beam="2">  1       -1 0.91159501E-01 0.18620192E+04</pdfrwt>
<totfact> 0.16748317E+01</totfact>
</mgrwt>
</event>
<event>
12    7  0.1660832E-007  0.2250864E+04  0.7818608E-02  0.8497551E-01
         -1   -1    0    0    0  501 -0.00000000000E+00  0.00000000000E+00  0.26293335740E+03  0.26293335740E+03  0.00000000000E+00 0.  1.
          2   -1    0    0  501    0  0.00000000000E+00 -0.00000000000E+00 -0.48171796736E+04  0.48171796736E+04  0.00000000000E+00 0. -1.
         24    2    1    2    0    0 -0.12786481765E+03 -0.86136067869E+03 -0.27402527993E+04  0.28764900622E+04  0.83174777225E+02 0.  0.
        254    2    1    2    0    0  0.12786481765E+03  0.86136067869E+03 -0.18139935169E+04  0.22036229688E+04  0.89838192257E+03 0.  0.
         23    2    4    4    0    0  0.70633117488E+02  0.14284057070E+03 -0.13013501127E+04  0.13142798553E+04  0.91798454675E+02 0.  0.
         23    2    4    4    0    0  0.57231700162E+02  0.71852010799E+03 -0.51264340424E+03  0.88934311353E+03  0.92635309551E+02 0.  0.
          2    1    3    3  502    0 -0.13310586585E+03 -0.85782952886E+03 -0.27124078885E+04  0.28479370123E+04  0.00000000000E+00 0. -1.
         -1    1    3    3    0  502  0.52410481958E+01 -0.35311498290E+01 -0.27844910754E+02  0.28553049929E+02  0.00000000000E+00 0.  1.
         13    1    5    5    0    0  0.51648221749E+02  0.53922520688E+02 -0.31414843670E+03  0.32290001134E+03  0.00000000000E+00 0.  1.
        -13    1    5    5    0    0  0.18984895739E+02  0.88918050017E+02 -0.98720167600E+03  0.99137984395E+03  0.00000000000E+00 0. -1.
          4    1    6    6  503    0  0.82325984445E+02  0.49626267092E+03 -0.35275292246E+03  0.61440119675E+03  0.00000000000E+00 0. -1.
         -4    1    6    6    0  503 -0.25094284283E+02  0.22225743707E+03 -0.15989048178E+03  0.27494191678E+03  0.00000000000E+00 0.  1.
<mgrwt>
<rscale>  0 0.22508640E+04</rscale>
<asrwt>0</asrwt>
<pdfrwt beam="1">  1        2 0.74110449E+00 0.22508640E+04</pdfrwt>
<pdfrwt beam="2">  1       -1 0.40451290E-01 0.22508640E+04</pdfrwt>
<totfact> 0.35666455E-01</totfact>
</mgrwt>
</event>
<event>
12    7  0.1660832E-007  0.2023929E+04  0.7818608E-02  0.8595514E-01
         -1   -1    0    0    0  501 -0.00000000000E+00  0.00000000000E+00  0.26850278828E+03  0.26850278828E+03  0.00000000000E+00 0.  1.
          2   -1    0    0  501    0  0.00000000000E+00 -0.00000000000E+00 -0.38140110439E+04  0.38140110439E+04  0.00000000000E+00 0. -1.
         24    2    1    2    0    0  0.52526676005E+03 -0.34561780647E+02 -0.18334343189E+03  0.56301918017E+03  0.79221823568E+02 0.  0.
        254    2    1    2    0    0 -0.52526676005E+03  0.34561780647E+02 -0.33621648238E+04  0.35194946520E+04  0.89754700025E+03 0.  0.
         23    2    4    4    0    0 -0.12800735618E+03  0.26602685934E+03 -0.26444018366E+04  0.26623665738E+04  0.90435206860E+02 0.  0.
         23    2    4    4    0    0 -0.39725940386E+03 -0.23146507869E+03 -0.71776298715E+03  0.85712807824E+03  0.89965105328E+02 0.  0.
          2    1    3    3  502    0  0.43433423729E+02  0.85785623755E+01 -0.36741997289E+02  0.57532846219E+02  0.00000000000E+00 0. -1.
         -1    1    3    3    0  502  0.48183333632E+03 -0.43140343022E+02 -0.14660143460E+03  0.50548633395E+03  0.00000000000E+00 0.  1.
         13    1    5    5    0    0 -0.43007825820E+00  0.68415954180E+02 -0.82317742263E+03  0.82601573647E+03  0.00000000000E+00 0. -1.
        -13    1    5    5    0    0 -0.12757727793E+03  0.19761090516E+03 -0.18212244140E+04  0.18363508373E+04  0.00000000000E+00 0.  1.
          1    1    6    6  503    0 -0.20992133618E+03 -0.92386270565E+02 -0.42321826340E+03  0.48136876597E+03  0.00000000000E+00 0. -1.
         -1    1    6    6    0  503 -0.18733806768E+03 -0.13907880813E+03 -0.29454472375E+03  0.37575931227E+03  0.00000000000E+00 0.  1.
<mgrwt>
<rscale>  0 0.20239294E+04</rscale>
<asrwt>0</asrwt>
<pdfrwt beam="1">  1        2 0.58677092E+00 0.20239294E+04</pdfrwt>
<pdfrwt beam="2">  1       -1 0.41308122E-01 0.20239294E+04</pdfrwt>
<totfact> 0.29271188E+00</totfact>
</mgrwt>
</event>
<event>
12    7  0.1660832E-007  0.2366047E+04  0.7818608E-02  0.8452325E-01
          2   -1    0    0  501    0  0.00000000000E+00  0.00000000000E+00  0.14671598265E+04  0.14671598265E+04  0.00000000000E+00 0. -1.
         -1   -1    0    0    0  501 -0.00000000000E+00 -0.00000000000E+00 -0.95391453514E+03  0.95391453514E+03  0.00000000000E+00 0.  1.
         24    2    1    2    0    0 -0.13332938313E+03  0.39098952325E+03  0.11629462610E+04  0.12367763279E+04  0.80759814385E+02 0.  0.
        254    2    1    2    0    0  0.13332938313E+03 -0.39098952325E+03 -0.64970096964E+03  0.11842980337E+04  0.89988941046E+03 0.  0.
         23    2    4    4    0    0  0.48377399874E+03 -0.24752645802E+03 -0.55944451545E+03  0.78522458229E+03  0.91065083739E+02 0.  0.
         23    2    4    4    0    0 -0.35044461561E+03 -0.14346306523E+03 -0.90256454183E+02  0.39907345145E+03  0.87865308458E+02 0.  0.
          2    1    3    3  502    0 -0.72253215181E+02  0.22673550045E+03  0.78301487156E+03  0.81837754328E+03  0.00000000000E+00 0. -1.
         -1    1    3    3    0  502 -0.61076167948E+02  0.16425402280E+03  0.37993138940E+03  0.41839878460E+03  0.00000000000E+00 0.  1.
         13    1    5    5    0    0  0.18020927975E+03 -0.64933591204E+02 -0.14649549253E+03  0.24114867842E+03  0.00000000000E+00 0.  1.
        -13    1    5    5    0    0  0.30356471899E+03 -0.18259286682E+03 -0.41294902293E+03  0.54407590386E+03  0.00000000000E+00 0. -1.
          3    1    6    6  503    0 -0.30286893163E+03 -0.15073937199E+03 -0.93027856637E+02  0.35086483170E+03  0.00000000000E+00 0. -1.
         -3    1    6    6    0  503 -0.47575683978E+02  0.72763067541E+01  0.27714024539E+01  0.48208619743E+02  0.00000000000E+00 0.  1.
<mgrwt>
<rscale>  0 0.23660474E+04</rscale>
<asrwt>0</asrwt>
<pdfrwt beam="1">  1        2 0.22571690E+00 0.23660474E+04</pdfrwt>
<pdfrwt beam="2">  1       -1 0.14675608E+00 0.23660474E+04</pdfrwt>
<totfact> 0.50361166E+00</totfact>
</mgrwt>
</event>
<event>
12    7  0.1660832E-007  0.2243999E+04  0.7818608E-02  0.8500335E-01
          2   -1    0    0  501    0  0.00000000000E+00  0.00000000000E+00  0.11496463243E+04  0.11496463243E+04  0.00000000000E+00 0. -1.
         -1   -1    0    0    0  501 -0.00000000000E+00 -0.00000000000E+00 -0.10950177813E+04  0.10950177813E+04  0.00000000000E+00 0.  1.
         24    2    1    2    0    0  0.54281025267E+00  0.71060552699E+03 -0.59375285150E+03  0.92952356170E+03  0.80691346805E+02 0.  0.
        254    2    1    2    0    0 -0.54281025267E+00 -0.71060552699E+03  0.64838139446E+03  0.13151405440E+04  0.89679189785E+03 0.  0.
         23    2    4    4    0    0 -0.28992065734E+03 -0.99698234268E+02 -0.66643756480E+02  0.32679488063E+03  0.91431823018E+02 0.  0.
         23    2    4    4    0    0  0.28937784709E+03 -0.61090729272E+03  0.71502515094E+03  0.98834566332E+03  0.92838165880E+02 0.  0.
          2    1    3    3  502    0  0.13973120817E+02  0.12274500318E+03 -0.14055934608E+03  0.18713234269E+03  0.00000000000E+00 0. -1.
         -1    1    3    3    0  502 -0.13430310565E+02  0.58786052381E+03 -0.45319350542E+03  0.74239121900E+03  0.00000000000E+00 0.  1.
         13    1    5    5    0    0 -0.28337610664E+03 -0.99407611546E+02 -0.80979650089E+02  0.31103310881E+03  0.00000000000E+00 0.  1.
        -13    1    5    5    0    0 -0.65445507037E+01 -0.29062272224E+00  0.14335893609E+02  0.15761771824E+02  0.00000000000E+00 0. -1.
          1    1    6    6  503    0  0.86252218746E+01  0.80467165343E+00  0.14409267035E+02  0.16812760788E+02  0.00000000000E+00 0. -1.
         -1    1    6    6    0  503  0.28075262521E+03 -0.61171196438E+03  0.70061588391E+03  0.97153290254E+03  0.00000000000E+00 0.  1.
<mgrwt>
<rscale>  0 0.22439993E+04</rscale>
<asrwt>0</asrwt>
<pdfrwt beam="1">  1        2 0.17686867E+00 0.22439993E+04</pdfrwt>
<pdfrwt beam="2">  1       -1 0.16846427E+00 0.22439993E+04</pdfrwt>
<totfact> 0.53270283E+00</totfact>
</mgrwt>
</event>
<event>
12    7  0.1660832E-007  0.1692250E+04  0.7818608E-02  0.8765797E-01
         -1   -1    0    0    0  501 -0.00000000000E+00  0.00000000000E+00  0.56656856625E+03  0.56656856625E+03  0.00000000000E+00 0.  1.
          2   -1    0    0  501    0  0.00000000000E+00 -0.00000000000E+00 -0.12636203453E+04  0.12636203453E+04  0.00000000000E+00 0. -1.
         24    2    1    2    0    0  0.35568857476E+03  0.30758612784E+03 -0.64011453081E+03  0.79795235745E+03  0.76536030425E+02 0.  0.
        254    2    1    2    0    0 -0.35568857476E+03 -0.30758612784E+03 -0.56937248272E+02  0.10322365541E+04  0.91714059184E+03 0.  0.
         23    2    4    4    0    0 -0.30597482436E+03 -0.57817767859E+03 -0.22440150217E+03  0.69755534091E+03  0.91199771279E+02 0.  0.
         23    2    4    4    0    0 -0.49713750394E+02  0.27059155076E+03  0.16746425390E+03  0.33468121323E+03  0.90972489422E+02 0.  0.
          4    1    3    3  502    0  0.30953592532E+03  0.29627452096E+03 -0.56555077417E+03  0.70953418451E+03  0.00000000000E+00 0. -1.
         -3    1    3    3    0  502  0.46152649442E+02  0.11311606877E+02 -0.74563756645E+02  0.88418172938E+02  0.00000000000E+00 0.  1.
         13    1    5    5    0    0 -0.30284324964E+03 -0.57788946550E+03 -0.22945203496E+03  0.69160574357E+03  0.00000000000E+00 0. -1.
        -13    1    5    5    0    0 -0.31315747260E+01 -0.28821309425E+00  0.50505327889E+01  0.59495973397E+01  0.00000000000E+00 0.  1.
          2    1    6    6  503    0 -0.76493953453E+02  0.21099056226E+03  0.12933407222E+03  0.25902826973E+03  0.00000000000E+00 0. -1.
         -2    1    6    6    0  503  0.26780203059E+02  0.59600988492E+02  0.38130181680E+02  0.75652943499E+02  0.00000000000E+00 0.  1.
<mgrwt>
<rscale>  0 0.16922501E+04</rscale>
<asrwt>0</asrwt>
<pdfrwt beam="1">  1        2 0.19440313E+00 0.16922501E+04</pdfrwt>
<pdfrwt beam="2">  1       -1 0.87164396E-01 0.16922501E+04</pdfrwt>
<totfact> 0.24430781E+01</totfact>
</mgrwt>
</event>
<event>
12    7  0.1660832E-007  0.2040725E+04  0.7818608E-02  0.8587813E-01
          2   -1    0    0  501    0  0.00000000000E+00  0.00000000000E+00  0.49184216083E+03  0.49184216083E+03  0.00000000000E+00 0. -1.
         -1   -1    0    0    0  501 -0.00000000000E+00 -0.00000000000E+00 -0.21168175658E+04  0.21168175658E+04  0.00000000000E+00 0.  1.
         24    2    1    2    0    0 -0.64129880551E+03  0.50119290543E+03 -0.68489265081E+03  0.10667411004E+04  0.80000911509E+02 0.  0.
        254    2    1    2    0    0  0.64129880551E+03 -0.50119290543E+03 -0.94008275411E+03  0.15419186261E+04  0.91175598636E+03 0.  0.
         23    2    4    4    0    0 -0.11259472067E+03  0.15739365734E+03 -0.13276161131E+03  0.25238314866E+03  0.92850814727E+02 0.  0.
         23    2    4    4    0    0  0.75389352618E+03 -0.65858656276E+03 -0.80732114280E+03  0.12895354775E+04  0.95092642299E+02 0.  0.
          2    1    3    3  502    0 -0.24723529067E+03  0.17649585786E+03 -0.30366776046E+03  0.42952320722E+03  0.00000000000E+00 0. -1.
         -1    1    3    3    0  502 -0.39406351485E+03  0.32469704756E+03 -0.38122489035E+03  0.63721789323E+03  0.00000000000E+00 0.  1.
         13    1    5    5    0    0 -0.10367397749E+03  0.15249804565E+03 -0.14634128737E+03  0.23541393316E+03  0.00000000000E+00 0. -1.
        -13    1    5    5    0    0 -0.89207431806E+01  0.48956116847E+01  0.13579676061E+02  0.16969215497E+02  0.00000000000E+00 0.  1.
          3    1    6    6  503    0  0.62362540026E+03 -0.49525650457E+03 -0.62716881325E+03  0.10136707382E+04  0.00000000000E+00 0. -1.
         -3    1    6    6    0  503  0.13026812592E+03 -0.16333005819E+03 -0.18015232955E+03  0.27586473929E+03  0.00000000000E+00 0.  1.
<mgrwt>
<rscale>  0 0.20407255E+04</rscale>
<asrwt>0</asrwt>
<pdfrwt beam="1">  1        2 0.75668024E-01 0.20407255E+04</pdfrwt>
<pdfrwt beam="2">  1       -1 0.32566424E+00 0.20407255E+04</pdfrwt>
<totfact> 0.14938300E+00</totfact>
</mgrwt>
</event>
<event>
12    7  0.1660832E-007  0.1340929E+04  0.7818608E-02  0.8997723E-01
          2   -1    0    0  501    0  0.00000000000E+00  0.00000000000E+00  0.40172050779E+03  0.40172050779E+03  0.00000000000E+00 0. -1.
         -1   -1    0    0    0  501 -0.00000000000E+00 -0.00000000000E+00 -0.11189934081E+04  0.11189934081E+04  0.00000000000E+00 0.  1.
         24    2    1    2    0    0 -0.27759126222E+03  0.20570432932E+03 -0.30728840601E+03  0.46923570466E+03  0.79904956691E+02 0.  0.
        254    2    1    2    0    0  0.27759126222E+03 -0.20570432932E+03 -0.40998449431E+03  0.10514782112E+04  0.90451531949E+03 0.  0.
         23    2    4    4    0    0  0.48742651260E+03 -0.41460813498E+03 -0.34523068666E+03  0.73300857819E+03  0.92913066460E+02 0.  0.
         23    2    4    4    0    0 -0.20983525038E+03  0.20890380566E+03 -0.64753807656E+02  0.31846963305E+03  0.97766145716E+02 0.  0.
          4    1    3    3  502    0 -0.25715358501E+03  0.19200445261E+03 -0.30773298651E+03  0.44462711016E+03  0.00000000000E+00 0. -1.
         -3    1    3    3    0  502 -0.20437677203E+02  0.13699876710E+02  0.44458050265E+00  0.24608594498E+02  0.00000000000E+00 0.  1.
         13    1    5    5    0    0  0.43058728283E+03 -0.39236336592E+03 -0.33216815812E+03  0.67058937086E+03  0.00000000000E+00 0. -1.
        -13    1    5    5    0    0  0.56839229773E+02 -0.22244769058E+02 -0.13062528536E+02  0.62419207327E+02  0.00000000000E+00 0.  1.
          1    1    6    6  503    0 -0.30736538405E+02  0.29836633756E+02  0.25209981589E+02  0.49704151524E+02  0.00000000000E+00 0. -1.
         -1    1    6    6    0  503 -0.17909871198E+03  0.17906717190E+03 -0.89963789245E+02  0.26876548153E+03  0.00000000000E+00 0.  1.
<mgrwt>
<rscale>  0 0.13409289E+04</rscale>
<asrwt>0</asrwt>
<pdfrwt beam="1">  1        2 0.61803155E-01 0.13409289E+04</pdfrwt>
<pdfrwt beam="2">  1       -1 0.17215283E+00 0.13409289E+04</pdfrwt>
<totfact> 0.20999223E+01</totfact>
</mgrwt>
</event>
<event>
12    7  0.1660832E-007  0.2310686E+04  0.7818608E-02  0.8473720E-01
          2   -1    0    0  501    0  0.00000000000E+00  0.00000000000E+00  0.11405574929E+04  0.11405574929E+04  0.00000000000E+00 0. -1.
         -1   -1    0    0    0  501 -0.00000000000E+00 -0.00000000000E+00 -0.11703204679E+04  0.11703204679E+04  0.00000000000E+00 0.  1.
         24    2    1    2    0    0  0.70618587315E+03 -0.99535397085E+02  0.65599421479E+03  0.97223860818E+03  0.79458912028E+02 0.  0.
        254    2    1    2    0    0 -0.70618587315E+03  0.99535397085E+02 -0.68575718976E+03  0.13386393526E+04  0.90171315300E+03 0.  0.
         23    2    4    4    0    0 -0.48704137519E+03 -0.77468081599E+02  0.88585578059E+02  0.50956914640E+03  0.92750770893E+02 0.  0.
         23    2    4    4    0    0 -0.21914449795E+03  0.17700347868E+03 -0.77434276782E+03  0.82907020619E+03  0.91630465902E+02 0.  0.
          2    1    3    3  502    0  0.48178533224E+03 -0.30385270114E+02  0.43767111699E+03  0.65161060277E+03  0.00000000000E+00 0. -1.
         -1    1    3    3    0  502  0.22440054090E+03 -0.69150126972E+02  0.21832309780E+03  0.32062800541E+03  0.00000000000E+00 0.  1.
         13    1    5    5    0    0 -0.23794617161E+03 -0.78155517236E+02  0.68570713265E+02  0.25967019116E+03  0.00000000000E+00 0. -1.
        -13    1    5    5    0    0 -0.24909520359E+03  0.68743563779E+00  0.20014864795E+02  0.24989895524E+03  0.00000000000E+00 0.  1.
          4    1    6    6  503    0 -0.80044193969E+02  0.37664749106E+02 -0.14708314166E+03  0.17163670026E+03  0.00000000000E+00 0. -1.
         -4    1    6    6    0  503 -0.13910030398E+03  0.13933872958E+03 -0.62725962615E+03  0.65743350594E+03  0.00000000000E+00 0.  1.
<mgrwt>
<rscale>  0 0.23106863E+04</rscale>
<asrwt>0</asrwt>
<pdfrwt beam="1">  1        2 0.17547038E+00 0.23106863E+04</pdfrwt>
<pdfrwt beam="2">  1       -1 0.18004930E+00 0.23106863E+04</pdfrwt>
<totfact> 0.44176931E+00</totfact>
</mgrwt>
</event>
<event>
12    7  0.1660832E-007  0.1680570E+04  0.7818608E-02  0.8772524E-01
          2   -1    0    0  501    0  0.00000000000E+00  0.00000000000E+00  0.23509141132E+04  0.23509141132E+04  0.00000000000E+00 0. -1.
         -1   -1    0    0    0  501 -0.00000000000E+00 -0.00000000000E+00 -0.30034242640E+03  0.30034242640E+03  0.00000000000E+00 0.  1.
         24    2    1    2    0    0  0.16958746722E+02 -0.52049658978E+03  0.12120684552E+04  0.13215840451E+04  0.79184273488E+02 0.  0.
        254    2    1    2    0    0 -0.16958746722E+02  0.52049658978E+03  0.83850323164E+03  0.13296724945E+04  0.89091917374E+03 0.  0.
         23    2    4    4    0    0 -0.10076071042E+03  0.74671681073E+03  0.52163001507E+03  0.92098246293E+03  0.91499225246E+02 0.  0.
         23    2    4    4    0    0  0.83801963696E+02 -0.22622022094E+03  0.31687321657E+03  0.40869003158E+03  0.91763549701E+02 0.  0.
          2    1    3    3  502    0 -0.51546329121E+01 -0.38123299487E+03  0.95665084189E+03  0.10298281410E+04  0.00000000000E+00 0. -1.
         -1    1    3    3    0  502  0.22113379634E+02 -0.13926359491E+03  0.25541761331E+03  0.29175590416E+03  0.00000000000E+00 0.  1.
         13    1    5    5    0    0 -0.11098241447E+03  0.54913352738E+03  0.36509976666E+03  0.66870215106E+03  0.00000000000E+00 0. -1.
        -13    1    5    5    0    0  0.10221704053E+02  0.19758328334E+03  0.15653024841E+03  0.25228031187E+03  0.00000000000E+00 0.  1.
          4    1    6    6  503    0  0.58711703009E+02 -0.19563714354E+03  0.30556528718E+03  0.36754741291E+03  0.00000000000E+00 0. -1.
         -4    1    6    6    0  503  0.25090260687E+02 -0.30583077399E+02  0.11307929388E+02  0.41142618677E+02  0.00000000000E+00 0.  1.
<mgrwt>
<rscale>  0 0.16805704E+04</rscale>
<asrwt>0</asrwt>
<pdfrwt beam="1">  1        2 0.36167908E+00 0.16805704E+04</pdfrwt>
<pdfrwt beam="2">  1       -1 0.46206529E-01 0.16805704E+04</pdfrwt>
<totfact> 0.21472853E+01</totfact>
</mgrwt>
</event>
<event>
12    7  0.1660832E-007  0.2692990E+04  0.7818608E-02  0.8337283E-01
          2   -1    0    0  501    0  0.00000000000E+00  0.00000000000E+00  0.11161383068E+04  0.11161383068E+04  0.00000000000E+00 0. -1.
         -1   -1    0    0    0  501 -0.00000000000E+00 -0.00000000000E+00 -0.16243939816E+04  0.16243939816E+04  0.00000000000E+00 0.  1.
         24    2    1    2    0    0  0.71767593254E+02 -0.41816121353E+02  0.98773732014E+03  0.99434051889E+03  0.78669425179E+02 0.  0.
        254    2    1    2    0    0 -0.71767593254E+02  0.41816121353E+02 -0.14959929949E+04  0.17461917695E+04  0.89682299222E+03 0.  0.
         23    2    4    4    0    0 -0.17785902282E+03  0.32667763634E+03 -0.13393130329E+04  0.13928741935E+04  0.89370067300E+02 0.  0.
         23    2    4    4    0    0  0.10609142956E+03 -0.28486151499E+03 -0.15667996206E+03  0.35331757591E+03  0.88787526096E+02 0.  0.
          2    1    3    3  502    0  0.40744134865E+02  0.22112489542E+01  0.72458380119E+03  0.72573180934E+03  0.00000000000E+00 0. -1.
         -1    1    3    3    0  502  0.31023458389E+02 -0.44027370308E+02  0.26315351896E+03  0.26860870955E+03  0.00000000000E+00 0.  1.
         13    1    5    5    0    0 -0.10007981077E+03  0.18054517248E+03 -0.57758038017E+03  0.61336092424E+03  0.00000000000E+00 0.  1.
        -13    1    5    5    0    0 -0.77779212044E+02  0.14613246386E+03 -0.76173265271E+03  0.77951326931E+03  0.00000000000E+00 0. -1.
          3    1    6    6  503    0  0.10193773476E+02 -0.12348216752E+02  0.10869044689E+02  0.19352715755E+02  0.00000000000E+00 0. -1.
         -3    1    6    6    0  503  0.95897656085E+02 -0.27251329823E+03 -0.16754900675E+03  0.33396486016E+03  0.00000000000E+00 0.  1.
<mgrwt>
<rscale>  0 0.26929897E+04</rscale>
<asrwt>0</asrwt>
<pdfrwt beam="1">  1        2 0.17171359E+00 0.26929897E+04</pdfrwt>
<pdfrwt beam="2">  1       -1 0.24990677E+00 0.26929897E+04</pdfrwt>
<totfact> 0.14871408E+00</totfact>
</mgrwt>
</event>
<event>
12    7  0.1660832E-007  0.2805670E+04  0.7818608E-02  0.8301510E-01
         -3   -1    0    0    0  501 -0.00000000000E+00  0.00000000000E+00  0.88607606395E+03  0.88607606395E+03  0.00000000000E+00 0.  1.
          2   -1    0    0  501    0  0.00000000000E+00 -0.00000000000E+00 -0.22209677971E+04  0.22209677971E+04  0.00000000000E+00 0. -1.
         24    2    1    2    0    0 -0.35934099617E+03  0.33960725920E+03 -0.18812660356E+04  0.19472678283E+04  0.90725169575E+02 0.  0.
        254    2    1    2    0    0  0.35934099617E+03 -0.33960725920E+03  0.54637430251E+03  0.11597760327E+04  0.89559841755E+03 0.  0.
         23    2    4    4    0    0  0.27132209423E+03 -0.59499178308E+03  0.15924027651E+03  0.67925776496E+03  0.91666487050E+02 0.  0.
         23    2    4    4    0    0  0.88018901939E+02  0.25538452388E+03  0.38713402601E+03  0.48051826773E+03  0.89757837502E+02 0.  0.
          2    1    3    3  502    0 -0.72963418513E+02  0.10807361072E+03 -0.39084089285E+03  0.41201962246E+03  0.00000000000E+00 0. -1.
         -1    1    3    3    0  502 -0.28637757765E+03  0.23153364849E+03 -0.14904251428E+04  0.15352482059E+04  0.00000000000E+00 0.  1.
         13    1    5    5    0    0  0.44603245551E+02 -0.39668041242E+02  0.48637292454E+01  0.59888720740E+02  0.00000000000E+00 0.  1.
        -13    1    5    5    0    0  0.22671884868E+03 -0.55532374184E+03  0.15437654726E+03  0.61936904422E+03  0.00000000000E+00 0. -1.
          4    1    6    6  503    0  0.64497219795E+02  0.18144675554E+03  0.19854278465E+03  0.27659004645E+03  0.00000000000E+00 0. -1.
         -4    1    6    6    0  503  0.23521682143E+02  0.73937768334E+02  0.18859124136E+03  0.20392822128E+03  0.00000000000E+00 0.  1.
<mgrwt>
<rscale>  0 0.28056703E+04</rscale>
<asrwt>0</asrwt>
<pdfrwt beam="1">  1        2 0.34168735E+00 0.28056703E+04</pdfrwt>
<pdfrwt beam="2">  1       -3 0.13631940E+00 0.28056703E+04</pdfrwt>
<totfact> 0.11458051E+00</totfact>
</mgrwt>
</event>
<event>
12    7  0.1718196E-007  0.2956073E+04  0.7818608E-02  0.8256387E-01
          2   -1    0    0  501    0  0.00000000000E+00  0.00000000000E+00  0.20441202622E+04  0.20441202622E+04  0.00000000000E+00 0. -1.
         -1   -1    0    0    0  501 -0.00000000000E+00 -0.00000000000E+00 -0.10687195564E+04  0.10687195564E+04  0.00000000000E+00 0.  1.
         24    2    1    2    0    0  0.22375187859E+03 -0.47522469919E+03 -0.86094829416E+03  0.10118188736E+04  0.81498772057E+02 0.  0.
        254    2    1    2    0    0 -0.22375187859E+03  0.47522469919E+03  0.18363489999E+04  0.21010209451E+04  0.87533304753E+03 0.  0.
         23    2    4    4    0    0  0.18281214958E+03  0.42837991525E+03  0.45489412095E+03  0.65731567425E+03  0.90584769785E+02 0.  0.
         23    2    4    4    0    0 -0.40656402817E+03  0.46844783946E+02  0.13814548790E+04  0.14437052708E+04  0.91534602696E+02 0.  0.
          2    1    3    3  502    0  0.11860681221E+03 -0.22153157242E+03 -0.48525105419E+03  0.54645438883E+03  0.00000000000E+00 0. -1.
         -1    1    3    3    0  502  0.10514506637E+03 -0.25369312677E+03 -0.37569723997E+03  0.46536448476E+03  0.00000000000E+00 0.  1.
         13    1    5    5    0    0  0.16663904717E+03  0.37872297391E+03  0.43774991504E+03  0.60234927669E+03  0.00000000000E+00 0. -1.
        -13    1    5    5    0    0  0.16173102409E+02  0.49656941336E+02  0.17144205909E+02  0.54966397559E+02  0.00000000000E+00 0.  1.
          1    1    6    6  503    0 -0.13101656541E+03 -0.34044754353E+01  0.31718865788E+03  0.34319903198E+03  0.00000000000E+00 0. -1.
         -1    1    6    6    0  503 -0.27554746275E+03  0.50249259382E+02  0.10642662211E+04  0.11005062388E+04  0.00000000000E+00 0.  1.
<mgrwt>
<rscale>  0 0.29560726E+04</rscale>
<asrwt>0</asrwt>
<pdfrwt beam="1">  1        2 0.31448004E+00 0.29560726E+04</pdfrwt>
<pdfrwt beam="2">  1       -1 0.16441839E+00 0.29560726E+04</pdfrwt>
<totfact> 0.16699748E+00</totfact>
</mgrwt>
</event>
<event>
12    7  0.1660832E-007  0.2158984E+04  0.7818608E-02  0.8535696E-01
          2   -1    0    0  501    0  0.00000000000E+00  0.00000000000E+00  0.27141038897E+04  0.27141038897E+04  0.00000000000E+00 0. -1.
         -1   -1    0    0    0  501 -0.00000000000E+00 -0.00000000000E+00 -0.42935097406E+03  0.42935097406E+03  0.00000000000E+00 0.  1.
         24    2    1    2    0    0  0.51557953294E+03 -0.66676133519E+03  0.13412868299E+04  0.15861073688E+04  0.79330274104E+02 0.  0.
        254    2    1    2    0    0 -0.51557953294E+03  0.66676133519E+03  0.94346608567E+03  0.15573474949E+04  0.90819052635E+03 0.  0.
         23    2    4    4    0    0 -0.22888319719E+02  0.63037718519E+03  0.82248423374E+03  0.10405976198E+04  0.91999026442E+02 0.  0.
         23    2    4    4    0    0 -0.49269121322E+03  0.36384149993E+02  0.12098185193E+03  0.51674987506E+03  0.91243558240E+02 0.  0.
          2    1    3    3  502    0  0.45986855489E+02 -0.35870332910E+02  0.68822473276E+02  0.90210888969E+02  0.00000000000E+00 0. -1.
         -1    1    3    3    0  502  0.46959267745E+03 -0.63089100228E+03  0.12724643567E+04  0.14958964798E+04  0.00000000000E+00 0.  1.
         13    1    5    5    0    0 -0.54724427976E+02  0.30659037622E+03  0.37822296713E+03  0.48994390972E+03  0.00000000000E+00 0. -1.
        -13    1    5    5    0    0  0.31836108257E+02  0.32378680897E+03  0.44426126660E+03  0.55065371011E+03  0.00000000000E+00 0.  1.
          1    1    6    6  503    0 -0.15085258344E+03 -0.13859062224E+02  0.72194091579E+02  0.16781109139E+03  0.00000000000E+00 0. -1.
         -1    1    6    6    0  503 -0.34183862978E+03  0.50243212217E+02  0.48787760355E+02  0.34893878367E+03  0.00000000000E+00 0.  1.
<mgrwt>
<rscale>  0 0.21589842E+04</rscale>
<asrwt>0</asrwt>
<pdfrwt beam="1">  1        2 0.41755443E+00 0.21589842E+04</pdfrwt>
<pdfrwt beam="2">  1       -1 0.66053998E-01 0.21589842E+04</pdfrwt>
<totfact> 0.63178436E+00</totfact>
</mgrwt>
</event>
<event>
12    7  0.1660832E-007  0.1352094E+04  0.7818608E-02  0.8989244E-01
         -1   -1    0    0    0  501 -0.00000000000E+00  0.00000000000E+00  0.52476351284E+03  0.52476351284E+03  0.00000000000E+00 0.  1.
          2   -1    0    0  501    0  0.00000000000E+00 -0.00000000000E+00 -0.87094447651E+03  0.87094447651E+03  0.00000000000E+00 0. -1.
         24    2    1    2    0    0 -0.81759493712E+02  0.14172879300E+03  0.24032053154E+03  0.30345385833E+03  0.86940328267E+02 0.  0.
        254    2    1    2    0    0  0.81759493712E+02 -0.14172879300E+03 -0.58650149521E+03  0.10922541310E+04  0.90678741570E+03 0.  0.
         23    2    4    4    0    0  0.34512192470E+03 -0.15386957613E+03  0.55316778063E+02  0.39263622561E+03  0.91204552301E+02 0.  0.
         23    2    4    4    0    0 -0.26336243098E+03  0.12140783132E+02 -0.64181827327E+03  0.69961790541E+03  0.89595474230E+02 0.  0.
          4    1    3    3  502    0  0.17295059155E+02  0.11103691580E+02  0.18672401332E+02  0.27768140186E+02  0.00000000000E+00 0. -1.
         -3    1    3    3    0  502 -0.99054552867E+02  0.13062510142E+03  0.22164813021E+03  0.27568571815E+03  0.00000000000E+00 0.  1.
         13    1    5    5    0    0  0.10086699785E+03 -0.21372218789E+02 -0.19339530768E+02  0.10490443481E+03  0.00000000000E+00 0.  1.
        -13    1    5    5    0    0  0.24425492684E+03 -0.13249735734E+03  0.74656308831E+02  0.28773179080E+03  0.00000000000E+00 0. -1.
          1    1    6    6  503    0 -0.13902451708E+03 -0.16809891338E+02 -0.43077980832E+03  0.45296979155E+03  0.00000000000E+00 0. -1.
         -1    1    6    6    0  503 -0.12433791390E+03  0.28950674470E+02 -0.21103846495E+03  0.24664811386E+03  0.00000000000E+00 0.  1.
<mgrwt>
<rscale>  0 0.13520945E+04</rscale>
<asrwt>0</asrwt>
<pdfrwt beam="1">  1        2 0.13399146E+00 0.13520945E+04</pdfrwt>
<pdfrwt beam="2">  1       -1 0.80732849E-01 0.13520945E+04</pdfrwt>
<totfact> 0.52360610E+01</totfact>
</mgrwt>
</event>
<event>
12    7  0.1660832E-007  0.1175752E+04  0.7818608E-02  0.9134350E-01
          2   -1    0    0  501    0  0.00000000000E+00  0.00000000000E+00  0.76538357726E+03  0.76538357726E+03  0.00000000000E+00 0. -1.
         -1   -1    0    0    0  501 -0.00000000000E+00 -0.00000000000E+00 -0.45153593270E+03  0.45153593270E+03  0.00000000000E+00 0.  1.
         24    2    1    2    0    0 -0.77448615253E+02 -0.87457827008E+02 -0.11535666725E+03  0.18234029318E+03  0.79332605718E+02 0.  0.
        254    2    1    2    0    0  0.77448615253E+02  0.87457827008E+02  0.42920431180E+03  0.10345792168E+04  0.93407208234E+03 0.  0.
         23    2    4    4    0    0  0.39704117678E+03  0.31504310299E+03  0.35362625054E+03  0.62456661776E+03  0.90211319438E+02 0.  0.
         23    2    4    4    0    0 -0.31959256153E+03 -0.22758527598E+03  0.75578061264E+02  0.41001259901E+03  0.91999047707E+02 0.  0.
          4    1    3    3  502    0 -0.67611303499E+01 -0.53531648668E+02 -0.79601578016E+02  0.96165282277E+02  0.00000000000E+00 0. -1.
         -3    1    3    3    0  502 -0.70687484903E+02 -0.33926178341E+02 -0.35755089230E+02  0.86175010905E+02  0.00000000000E+00 0.  1.
         13    1    5    5    0    0  0.21047481243E+03  0.16579520296E+03  0.24124663264E+03  0.36053797824E+03  0.00000000000E+00 0.  1.
        -13    1    5    5    0    0  0.18656636435E+03  0.14924790003E+03  0.11237961789E+03  0.26402863953E+03  0.00000000000E+00 0. -1.
          1    1    6    6  503    0 -0.28898123038E+03 -0.18136068467E+03  0.89757719645E+02  0.35278647606E+03  0.00000000000E+00 0. -1.
         -1    1    6    6    0  503 -0.30611331149E+02 -0.46224591310E+02 -0.14179658382E+02  0.57226122954E+02  0.00000000000E+00 0.  1.
<mgrwt>
<rscale>  0 0.11757520E+04</rscale>
<asrwt>0</asrwt>
<pdfrwt beam="1">  1        2 0.11775132E+00 0.11757520E+04</pdfrwt>
<pdfrwt beam="2">  1       -1 0.69467066E-01 0.11757520E+04</pdfrwt>
<totfact> 0.86397404E+01</totfact>
</mgrwt>
</event>
<event>
12    7  0.1660832E-007  0.1603570E+04  0.7818608E-02  0.8818358E-01
          2   -1    0    0  501    0  0.00000000000E+00  0.00000000000E+00  0.94487562720E+03  0.94487562720E+03  0.00000000000E+00 0. -1.
         -1   -1    0    0    0  501 -0.00000000000E+00 -0.00000000000E+00 -0.68036387710E+03  0.68036387710E+03  0.00000000000E+00 0.  1.
         24    2    1    2    0    0 -0.31395183373E+03 -0.36149436451E+03  0.40101625788E+03  0.62949552200E+03  0.78782254744E+02 0.  0.
        254    2    1    2    0    0  0.31395183373E+03  0.36149436451E+03 -0.13650450777E+03  0.99574398230E+03  0.86233906798E+03 0.  0.
         23    2    4    4    0    0 -0.28345663098E+03  0.20611425305E+03 -0.46423523531E+02  0.36532986598E+03  0.92087026704E+02 0.  0.
         23    2    4    4    0    0  0.59740846470E+03  0.15538011147E+03 -0.90080984241E+02  0.63041411632E+03  0.90925912658E+02 0.  0.
          4    1    3    3  502    0 -0.20186960953E+03 -0.18714570252E+03  0.26123780385E+03  0.37949972777E+03  0.00000000000E+00 0. -1.
         -3    1    3    3    0  502 -0.11208222420E+03 -0.17434866199E+03  0.13977845403E+03  0.24999579423E+03  0.00000000000E+00 0.  1.
         13    1    5    5    0    0 -0.27064434182E+03  0.16005573984E+03 -0.36958540979E+02  0.31659458834E+03  0.00000000000E+00 0.  1.
        -13    1    5    5    0    0 -0.12812289159E+02  0.46058513205E+02 -0.94649825524E+01  0.48735277642E+02  0.00000000000E+00 0. -1.
          2    1    6    6  503    0 -0.33491464041E+01  0.64557096271E+00 -0.16131534019E+01  0.37730368938E+01  0.00000000000E+00 0. -1.
         -2    1    6    6    0  503  0.60075761111E+03  0.15473454050E+03 -0.88467830839E+02  0.62664107942E+03  0.00000000000E+00 0.  1.
<mgrwt>
<rscale>  0 0.16035701E+04</rscale>
<asrwt>0</asrwt>
<pdfrwt beam="1">  1        2 0.14536548E+00 0.16035701E+04</pdfrwt>
<pdfrwt beam="2">  1       -1 0.10467137E+00 0.16035701E+04</pdfrwt>
<totfact> 0.25677183E+01</totfact>
</mgrwt>
</event>
<event>
12    7  0.1660832E-007  0.2298420E+04  0.7818608E-02  0.8478544E-01
          2   -1    0    0  501    0  0.00000000000E+00  0.00000000000E+00  0.18026739066E+04  0.18026739066E+04  0.00000000000E+00 0. -1.
         -1   -1    0    0    0  501 -0.00000000000E+00 -0.00000000000E+00 -0.73262470672E+03  0.73262470672E+03  0.00000000000E+00 0.  1.
         24    2    1    2    0    0 -0.49361917147E+03 -0.32610877455E+03  0.12963184094E+04  0.14271235369E+04  0.78951578492E+02 0.  0.
        254    2    1    2    0    0  0.49361917147E+03  0.32610877455E+03 -0.22626920956E+03  0.11081750764E+04  0.90931151178E+03 0.  0.
         23    2    4    4    0    0  0.42826824546E+03  0.41677030461E+03  0.21701595404E+03  0.64194636320E+03  0.88814593623E+02 0.  0.
         23    2    4    4    0    0  0.65350926006E+02 -0.90661530057E+02 -0.44328516360E+03  0.46622871319E+03  0.91527155367E+02 0.  0.
          2    1    3    3  502    0 -0.25593406024E+03 -0.19388762889E+03  0.62113920907E+03  0.69921997460E+03  0.00000000000E+00 0. -1.
         -1    1    3    3    0  502 -0.23768511122E+03 -0.13222114566E+03  0.67517920037E+03  0.72790356234E+03  0.00000000000E+00 0.  1.
         13    1    5    5    0    0  0.12098326910E+03  0.68249932424E+02  0.37968833076E+02  0.14400221166E+03  0.00000000000E+00 0. -1.
        -13    1    5    5    0    0  0.30728497636E+03  0.34852037218E+03  0.17904712096E+03  0.49794415154E+03  0.00000000000E+00 0.  1.
          3    1    6    6  503    0  0.85178599747E+02 -0.56222357344E+02 -0.35564996878E+03  0.37000438864E+03  0.00000000000E+00 0.  1.
         -3    1    6    6    0  503 -0.19827673742E+02 -0.34439172713E+02 -0.87635194821E+02  0.96224324547E+02  0.00000000000E+00 0. -1.
<mgrwt>
<rscale>  0 0.22984198E+04</rscale>
<asrwt>0</asrwt>
<pdfrwt beam="1">  1        2 0.27733445E+00 0.22984198E+04</pdfrwt>
<pdfrwt beam="2">  1       -1 0.11271149E+00 0.22984198E+04</pdfrwt>
<totfact> 0.63934090E+00</totfact>
</mgrwt>
</event>
<event>
12    7  0.1660832E-007  0.2462272E+04  0.7818608E-02  0.8416551E-01
          2   -1    0    0  501    0  0.00000000000E+00  0.00000000000E+00  0.21604941902E+04  0.21604941902E+04  0.00000000000E+00 0. -1.
         -1   -1    0    0    0  501 -0.00000000000E+00 -0.00000000000E+00 -0.70155053908E+03  0.70155053908E+03  0.00000000000E+00 0.  1.
         24    2    1    2    0    0  0.20517901927E+03  0.21277850512E+03 -0.55791100931E+03  0.63675305986E+03  0.82562962248E+02 0.  0.
        254    2    1    2    0    0 -0.20517901927E+03 -0.21277850512E+03  0.20168546604E+04  0.22252916694E+04  0.89266296582E+03 0.  0.
         23    2    4    4    0    0  0.43874263999E+02  0.19527193513E+03  0.89744039100E+02  0.23769611396E+03  0.91593506024E+02 0.  0.
         23    2    4    4    0    0 -0.24905328327E+03 -0.40805044025E+03  0.19271106213E+04  0.19875955555E+04  0.90818751268E+02 0.  0.
          2    1    3    3  502    0  0.33827930103E+02  0.13987840121E+02 -0.30484607849E+02  0.47637168703E+02  0.00000000000E+00 0. -1.
         -1    1    3    3    0  502  0.17135108917E+03  0.19879066500E+03 -0.52742640146E+03  0.58911589115E+03  0.00000000000E+00 0.  1.
         13    1    5    5    0    0 -0.92368878758E+01  0.14959636615E+03  0.56760989832E+02  0.16026915745E+03  0.00000000000E+00 0. -1.
        -13    1    5    5    0    0  0.53111151875E+02  0.45675568981E+02  0.32983049268E+02  0.77426956509E+02  0.00000000000E+00 0.  1.
          3    1    6    6  503    0 -0.24213536221E+02 -0.10097369112E+03  0.34079257951E+03  0.35626052810E+03  0.00000000000E+00 0. -1.
         -3    1    6    6    0  503 -0.22483974705E+03 -0.30707674913E+03  0.15863180418E+04  0.16313350274E+04  0.00000000000E+00 0.  1.
<mgrwt>
<rscale>  0 0.24622720E+04</rscale>
<asrwt>0</asrwt>
<pdfrwt beam="1">  1        2 0.33238372E+00 0.24622720E+04</pdfrwt>
<pdfrwt beam="2">  1       -1 0.10793085E+00 0.24622720E+04</pdfrwt>
<totfact> 0.44147216E+00</totfact>
</mgrwt>
</event>
<event>
12    7  0.1660832E-007  0.1435935E+04  0.7818608E-02  0.8928210E-01
          2   -1    0    0  501    0  0.00000000000E+00  0.00000000000E+00  0.21383520512E+04  0.21383520512E+04  0.00000000000E+00 0. -1.
         -1   -1    0    0    0  501 -0.00000000000E+00 -0.00000000000E+00 -0.24106301383E+03  0.24106301383E+03  0.00000000000E+00 0.  1.
         24    2    1    2    0    0 -0.25938262417E+03 -0.91352229219E+02  0.32623539477E+02  0.28821701496E+03  0.79876009429E+02 0.  0.
        254    2    1    2    0    0  0.25938262417E+03  0.91352229219E+02  0.18646654979E+04  0.20911980501E+04  0.90581857460E+03 0.  0.
         23    2    4    4    0    0  0.44331751828E+02 -0.38311427630E+03  0.10246556486E+04  0.10986651836E+04  0.91674067335E+02 0.  0.
         23    2    4    4    0    0  0.21505087234E+03  0.47446650552E+03  0.84000984936E+03  0.99253286648E+03  0.90219739948E+02 0.  0.
          4    1    3    3  502    0 -0.20745590252E+03 -0.86942944995E+02  0.54902129506E+02  0.23154107843E+03  0.00000000000E+00 0. -1.
         -3    1    3    3    0  502 -0.51926721648E+02 -0.44092842237E+01 -0.22278590029E+02  0.56675936535E+02  0.00000000000E+00 0.  1.
         13    1    5    5    0    0  0.24882539528E+02 -0.29139209407E+03  0.86965607715E+03  0.91751304393E+03  0.00000000000E+00 0. -1.
        -13    1    5    5    0    0  0.19449212300E+02 -0.91722182237E+02  0.15499957142E+03  0.18115213969E+03  0.00000000000E+00 0.  1.
          3    1    6    6  503    0  0.17780191319E+03  0.35038221753E+03  0.56098692624E+03  0.68489966426E+03  0.00000000000E+00 0. -1.
         -3    1    6    6    0  503  0.37248959155E+02  0.12408428799E+03  0.27902292311E+03  0.30763320222E+03  0.00000000000E+00 0.  1.
<mgrwt>
<rscale>  0 0.14359354E+04</rscale>
<asrwt>0</asrwt>
<pdfrwt beam="1">  1        2 0.32897723E+00 0.14359354E+04</pdfrwt>
<pdfrwt beam="2">  1       -1 0.37086619E-01 0.14359354E+04</pdfrwt>
<totfact> 0.43274093E+01</totfact>
</mgrwt>
</event>
<event>
12    7  0.1660832E-007  0.1173487E+04  0.7818608E-02  0.9136385E-01
          2   -1    0    0  501    0  0.00000000000E+00  0.00000000000E+00  0.11187294877E+04  0.11187294877E+04  0.00000000000E+00 0. -1.
         -1   -1    0    0    0  501 -0.00000000000E+00 -0.00000000000E+00 -0.30773104341E+03  0.30773104341E+03  0.00000000000E+00 0.  1.
         24    2    1    2    0    0  0.22568759968E+03  0.77449233042E+02  0.17743620977E+03  0.30800789496E+03  0.80324208516E+02 0.  0.
        254    2    1    2    0    0 -0.22568759968E+03 -0.77449233042E+02  0.63356223452E+03  0.11184526361E+04  0.89028193172E+03 0.  0.
         23    2    4    4    0    0 -0.43598830889E+02  0.27490767142E+03  0.64803320423E+03  0.71102608517E+03  0.90199634965E+02 0.  0.
         23    2    4    4    0    0 -0.18208876879E+03 -0.35235690447E+03 -0.14470969712E+02  0.40742655097E+03  0.92061271064E+02 0.  0.
          4    1    3    3  502    0  0.21054702569E+03  0.73951271673E+02  0.18578270803E+03  0.29036882617E+03  0.00000000000E+00 0. -1.
         -3    1    3    3    0  502  0.15140573985E+02  0.34979613696E+01 -0.83464982647E+01  0.17639068785E+02  0.00000000000E+00 0.  1.
         13    1    5    5    0    0  0.16610032619E+02  0.17611102666E+03  0.39353350388E+03  0.43146217166E+03  0.00000000000E+00 0.  1.
        -13    1    5    5    0    0 -0.60208863508E+02  0.98796644760E+02  0.25449970034E+03  0.27956391351E+03  0.00000000000E+00 0. -1.
          3    1    6    6  503    0 -0.49490221061E+02 -0.12628308714E+03 -0.46503839622E+02  0.14338517070E+03  0.00000000000E+00 0. -1.
         -3    1    6    6    0  503 -0.13259854773E+03 -0.22607381733E+03  0.32032869910E+02  0.26404138027E+03  0.00000000000E+00 0.  1.
<mgrwt>
<rscale>  0 0.11734868E+04</rscale>
<asrwt>0</asrwt>
<pdfrwt beam="1">  1        2 0.17211223E+00 0.11734868E+04</pdfrwt>
<pdfrwt beam="2">  1       -1 0.47343238E-01 0.11734868E+04</pdfrwt>
<totfact> 0.10639888E+02</totfact>
</mgrwt>
</event>
<event>
12    7  0.1660832E-007  0.2010568E+04  0.7818608E-02  0.8601696E-01
         -1   -1    0    0    0  501 -0.00000000000E+00  0.00000000000E+00  0.60668425305E+03  0.60668425305E+03  0.00000000000E+00 0.  1.
          2   -1    0    0  501    0  0.00000000000E+00 -0.00000000000E+00 -0.16657685345E+04  0.16657685345E+04  0.00000000000E+00 0. -1.
         24    2    1    2    0    0 -0.14215631179E+03 -0.38959274441E+03  0.33974094795E+03  0.54116055860E+03  0.73755779401E+02 0.  0.
        254    2    1    2    0    0  0.14215631179E+03  0.38959274441E+03 -0.13988252294E+04  0.17312922290E+04  0.93202458987E+03 0.  0.
         23    2    4    4    0    0 -0.47550594716E+02  0.23475895728E+03  0.48369521068E+02  0.26078877238E+03  0.91095258682E+02 0.  0.
         23    2    4    4    0    0  0.18970690651E+03  0.15483378714E+03 -0.14471947505E+04  0.14705034566E+04  0.89697034265E+02 0.  0.
          2    1    3    3  502    0 -0.31244889730E+02 -0.31240777324E+02  0.52974809372E+02  0.68982314618E+02  0.00000000000E+00 0. -1.
         -1    1    3    3    0  502 -0.11091142206E+03 -0.35835196709E+03  0.28676613858E+03  0.47217824399E+03  0.00000000000E+00 0.  1.
         13    1    5    5    0    0 -0.46313021208E+02  0.13357588506E+03  0.69312530994E+02  0.15745361208E+03  0.00000000000E+00 0.  1.
        -13    1    5    5    0    0 -0.12375735079E+01  0.10118307221E+03 -0.20943009926E+02  0.10333516031E+03  0.00000000000E+00 0. -1.
          3    1    6    6  503    0 -0.34684809459E+01 -0.12991013260E+01 -0.21818440669E+01  0.42986588443E+01  0.00000000000E+00 0. -1.
         -3    1    6    6    0  503  0.19317538745E+03  0.15613288846E+03 -0.14450129064E+04  0.14662047977E+04  0.00000000000E+00 0.  1.
<mgrwt>
<rscale>  0 0.20105676E+04</rscale>
<asrwt>0</asrwt>
<pdfrwt beam="1">  1        2 0.25627208E+00 0.20105676E+04</pdfrwt>
<pdfrwt beam="2">  1       -1 0.93336038E-01 0.20105676E+04</pdfrwt>
<totfact> 0.12069693E+01</totfact>
</mgrwt>
</event>
<event>
12    7  0.1660832E-007  0.1554550E+04  0.7818608E-02  0.8848967E-01
          2   -1    0    0  501    0  0.00000000000E+00  0.00000000000E+00  0.97095904697E+03  0.97095904697E+03  0.00000000000E+00 0. -1.
         -1   -1    0    0    0  501 -0.00000000000E+00 -0.00000000000E+00 -0.62222618138E+03  0.62222618138E+03  0.00000000000E+00 0.  1.
         24    2    1    2    0    0 -0.10912595410E+03  0.48209878063E+03  0.24726679295E+03  0.55854678655E+03  0.80659393318E+02 0.  0.
        254    2    1    2    0    0  0.10912595410E+03 -0.48209878063E+03  0.10146607265E+03  0.10346384418E+04  0.90324616423E+03 0.  0.
         23    2    4    4    0    0  0.27120569888E+03 -0.66024821069E+03 -0.73351378887E+02  0.72337906858E+03  0.91742145455E+02 0.  0.
         23    2    4    4    0    0 -0.16207974478E+03  0.17814943006E+03  0.17481745153E+03  0.31125937322E+03  0.91182196482E+02 0.  0.
          2    1    3    3  502    0 -0.47831527541E+02  0.34917800227E+03  0.19714331680E+03  0.40382993903E+03  0.00000000000E+00 0. -1.
         -1    1    3    3    0  502 -0.61294426562E+02  0.13292077835E+03  0.50123476155E+02  0.15471684752E+03  0.00000000000E+00 0.  1.
         13    1    5    5    0    0  0.27220805844E+03 -0.65241162170E+03 -0.82004245446E+02  0.71166203178E+03  0.00000000000E+00 0. -1.
        -13    1    5    5    0    0 -0.10023595598E+01 -0.78365889926E+01  0.86528665591E+01  0.11717036802E+02  0.00000000000E+00 0.  1.
          3    1    6    6  503    0 -0.87578344142E+02  0.46800179813E+02  0.10620705216E+03  0.14539656503E+03  0.00000000000E+00 0. -1.
         -3    1    6    6    0  503 -0.74501400634E+02  0.13134925025E+03  0.68610399372E+02  0.16586280819E+03  0.00000000000E+00 0.  1.
<mgrwt>
<rscale>  0 0.15545496E+04</rscale>
<asrwt>0</asrwt>
<pdfrwt beam="1">  1        2 0.14937831E+00 0.15545496E+04</pdfrwt>
<pdfrwt beam="2">  1       -1 0.95727106E-01 0.15545496E+04</pdfrwt>
<totfact> 0.30405167E+01</totfact>
</mgrwt>
</event>
<event>
12    7  0.1660832E-007  0.2951889E+04  0.7818608E-02  0.8257604E-01
         -1   -1    0    0    0  501 -0.00000000000E+00  0.00000000000E+00  0.97216410345E+03  0.97216410345E+03  0.00000000000E+00 0.  1.
          2   -1    0    0  501    0  0.00000000000E+00 -0.00000000000E+00 -0.22407870422E+04  0.22407870422E+04  0.00000000000E+00 0. -1.
         24    2    1    2    0    0  0.30873397456E+03 -0.79039635856E+03  0.54171293436E+03  0.10102778299E+04  0.84648211300E+02 0.  0.
        254    2    1    2    0    0 -0.30873397456E+03  0.79039635856E+03 -0.18103358731E+04  0.22026733157E+04  0.92434338413E+03 0.  0.
         23    2    4    4    0    0 -0.31616507528E+03  0.43121129038E+02 -0.11645244851E+04  0.12109002590E+04  0.91336597990E+02 0.  0.
         23    2    4    4    0    0  0.74311007155E+01  0.74727522952E+03 -0.64581138799E+03  0.99177305678E+03  0.89810675281E+02 0.  0.
          2    1    3    3  502    0  0.52274844072E+01 -0.57361750458E+02  0.21140136056E+02  0.61356355509E+02  0.00000000000E+00 0. -1.
         -3    1    3    3    0  502  0.30350649016E+03 -0.73303460810E+03  0.52057279830E+03  0.94892147439E+03  0.00000000000E+00 0.  1.
         13    1    5    5    0    0 -0.26623356255E+03  0.69721895332E+02 -0.97792313704E+03  0.10159109776E+04  0.00000000000E+00 0.  1.
        -13    1    5    5    0    0 -0.49931512724E+02 -0.26600766294E+02 -0.18660134807E+03  0.19498928132E+03  0.00000000000E+00 0. -1.
          3    1    6    6  503    0  0.62850688703E+01  0.50374444579E+02 -0.76895869025E+02  0.92141529347E+02  0.00000000000E+00 0. -1.
         -3    1    6    6    0  503  0.11460318452E+01  0.69690078494E+03 -0.56891551897E+03  0.89963152744E+03  0.00000000000E+00 0.  1.
<mgrwt>
<rscale>  0 0.29518894E+04</rscale>
<asrwt>0</asrwt>
<pdfrwt beam="1">  1        2 0.34473646E+00 0.29518894E+04</pdfrwt>
<pdfrwt beam="2">  1       -1 0.14956371E+00 0.29518894E+04</pdfrwt>
<totfact> 0.16827839E+00</totfact>
</mgrwt>
</event>
<event>
12    7  0.1660832E-007  0.1338592E+04  0.7818608E-02  0.8999509E-01
          2   -1    0    0  501    0  0.00000000000E+00  0.00000000000E+00  0.18355466905E+04  0.18355466905E+04  0.00000000000E+00 0. -1.
         -1   -1    0    0    0  501 -0.00000000000E+00 -0.00000000000E+00 -0.24404562933E+03  0.24404562933E+03  0.00000000000E+00 0.  1.
         24    2    1    2    0    0  0.13317027978E+03 -0.19958399434E+03  0.22740431491E+02  0.25308948841E+03  0.77259741825E+02 0.  0.
        254    2    1    2    0    0 -0.13317027978E+03  0.19958399434E+03  0.15687606297E+04  0.18265028315E+04  0.90417619176E+03 0.  0.
         23    2    4    4    0    0 -0.49158809158E+02 -0.35169540004E+03  0.53269007184E+03  0.64634100844E+03  0.88835486308E+02 0.  0.
         23    2    4    4    0    0 -0.84011470620E+02  0.55127939438E+03  0.10360705579E+04  0.11801618230E+04  0.91503167889E+02 0.  0.
          2    1    3    3  502    0  0.47074028741E+02 -0.16788576849E+02  0.29198550277E+01  0.50063420258E+02  0.00000000000E+00 0. -1.
         -1    1    3    3    0  502  0.86096251037E+02 -0.18279541749E+03  0.19820576463E+02  0.20302606815E+03  0.00000000000E+00 0.  1.
         13    1    5    5    0    0 -0.33204667755E+02 -0.33795735579E+03  0.52197743632E+03  0.62271836999E+03  0.00000000000E+00 0. -1.
        -13    1    5    5    0    0 -0.15954141402E+02 -0.13738044248E+02  0.10712635522E+02  0.23622638453E+02  0.00000000000E+00 0.  1.
          1    1    6    6  503    0 -0.83293332482E+02  0.49146488319E+03  0.85773205901E+03  0.99205836305E+03  0.00000000000E+00 0. -1.
         -1    1    6    6    0  503 -0.71813813806E+00  0.59814511187E+02  0.17833849887E+03  0.18810345997E+03  0.00000000000E+00 0.  1.
<mgrwt>
<rscale>  0 0.13385920E+04</rscale>
<asrwt>0</asrwt>
<pdfrwt beam="1">  1        2 0.28239179E+00 0.13385920E+04</pdfrwt>
<pdfrwt beam="2">  1       -1 0.37545483E-01 0.13385920E+04</pdfrwt>
<totfact> 0.62787753E+01</totfact>
</mgrwt>
</event>
<event>
12    7  0.1660832E-007  0.2194255E+04  0.7818608E-02  0.8520823E-01
          2   -1    0    0  501    0  0.00000000000E+00  0.00000000000E+00  0.17087290281E+04  0.17087290281E+04  0.00000000000E+00 0. -1.
         -1   -1    0    0    0  501 -0.00000000000E+00 -0.00000000000E+00 -0.70443492734E+03  0.70443492734E+03  0.00000000000E+00 0.  1.
         24    2    1    2    0    0 -0.34538065830E+03  0.22020094536E+03  0.13185861965E+04  0.13830181508E+04  0.79330904557E+02 0.  0.
        254    2    1    2    0    0  0.34538065830E+03 -0.22020094536E+03 -0.31429209570E+03  0.10301458047E+04  0.89142840541E+03 0.  0.
         23    2    4    4    0    0 -0.93876920889E+02 -0.27916718684E+03 -0.46105223044E+03  0.55454828728E+03  0.90594973668E+02 0.  0.
         23    2    4    4    0    0  0.43925757919E+03  0.58966241485E+02  0.14676013474E+03  0.47559751737E+03  0.90720575808E+02 0.  0.
          4    1    3    3  502    0 -0.26551639040E+03  0.19864277556E+03  0.98457754737E+03  0.10389181164E+04  0.00000000000E+00 0. -1.
         -1    1    3    3    0  502 -0.79864267894E+02  0.21558169793E+02  0.33400864911E+03  0.34410003436E+03  0.00000000000E+00 0.  1.
         13    1    5    5    0    0 -0.77052280259E+02 -0.16218908323E+03 -0.20488560410E+03  0.27243432856E+03  0.00000000000E+00 0. -1.
        -13    1    5    5    0    0 -0.16824640631E+02 -0.11697810361E+03 -0.25616662633E+03  0.28211395872E+03  0.00000000000E+00 0.  1.
          2    1    6    6  503    0  0.37681318800E+03  0.78639360649E+02  0.10921243110E+03  0.40012458410E+03  0.00000000000E+00 0. -1.
         -2    1    6    6    0  503  0.62444391183E+02 -0.19673119164E+02  0.37547703637E+02  0.75472933270E+02  0.00000000000E+00 0.  1.
<mgrwt>
<rscale>  0 0.21942547E+04</rscale>
<asrwt>0</asrwt>
<pdfrwt beam="1">  1        2 0.26288139E+00 0.21942547E+04</pdfrwt>
<pdfrwt beam="2">  1       -1 0.10837460E+00 0.21942547E+04</pdfrwt>
<totfact> 0.79829227E+00</totfact>
</mgrwt>
</event>
<event>
12    7  0.1660832E-007  0.1481393E+04  0.7818608E-02  0.8896922E-01
          2   -1    0    0  501    0  0.00000000000E+00  0.00000000000E+00  0.24035838393E+04  0.24035838393E+04  0.00000000000E+00 0. -1.
         -1   -1    0    0    0  501 -0.00000000000E+00 -0.00000000000E+00 -0.22825545443E+03  0.22825545443E+03  0.00000000000E+00 0.  1.
         24    2    1    2    0    0  0.50018492125E+02  0.98081411645E+02  0.14959405083E+04  0.15026179466E+04  0.88886871939E+02 0.  0.
        254    2    1    2    0    0 -0.50018492125E+02 -0.98081411645E+02  0.67938787655E+03  0.11292213472E+04  0.89523804166E+03 0.  0.
         23    2    4    4    0    0  0.27660109860E+03 -0.65944404896E+02 -0.71136489925E+02  0.30516245541E+03  0.84893413822E+02 0.  0.
         23    2    4    4    0    0 -0.32661959072E+03 -0.32137006749E+02  0.75052436647E+03  0.82405889175E+03  0.89850365420E+02 0.  0.
          2    1    3    3  502    0  0.72388770878E+02  0.84016850749E+02  0.10359699276E+04  0.10418889846E+04  0.00000000000E+00 0. -1.
         -1    1    3    3    0  502 -0.22370278753E+02  0.14064560896E+02  0.45997058077E+03  0.46072896199E+03  0.00000000000E+00 0.  1.
         13    1    5    5    0    0  0.25041226142E+03 -0.31407807215E+02 -0.51484198696E+02  0.25757207484E+03  0.00000000000E+00 0.  1.
        -13    1    5    5    0    0  0.26188837182E+02 -0.34536597681E+02 -0.19652291229E+02  0.47590380571E+02  0.00000000000E+00 0. -1.
          4    1    6    6  503    0 -0.15009686584E+03 -0.44797457524E+02  0.43423818036E+03  0.46162612428E+03  0.00000000000E+00 0. -1.
         -4    1    6    6    0  503 -0.17652272489E+03  0.12660450775E+02  0.31628618611E+03  0.36243276747E+03  0.00000000000E+00 0.  1.
<mgrwt>
<rscale>  0 0.14813928E+04</rscale>
<asrwt>0</asrwt>
<pdfrwt beam="1">  1        2 0.36978211E+00 0.14813928E+04</pdfrwt>
<pdfrwt beam="2">  1       -1 0.35116225E-01 0.14813928E+04</pdfrwt>
<totfact> 0.33708989E+01</totfact>
</mgrwt>
</event>
<event>
12    7  0.1660832E-007  0.1494685E+04  0.7818608E-02  0.8887995E-01
         -1   -1    0    0    0  501 -0.00000000000E+00  0.00000000000E+00  0.46325578216E+03  0.46325578216E+03  0.00000000000E+00 0.  1.
          2   -1    0    0  501    0  0.00000000000E+00 -0.00000000000E+00 -0.12056419511E+04  0.12056419511E+04  0.00000000000E+00 0. -1.
         24    2    1    2    0    0 -0.27396740888E+03 -0.29455634210E+03 -0.51980020119E+03  0.66207277107E+03  0.79539457022E+02 0.  0.
        254    2    1    2    0    0  0.27396740888E+03  0.29455634210E+03 -0.22258596772E+03  0.10068249622E+04  0.89572898334E+03 0.  0.
         23    2    4    4    0    0 -0.11974605092E+03  0.28335243381E+03 -0.44058125129E+03  0.54589994060E+03  0.96266233453E+02 0.  0.
         23    2    4    4    0    0  0.39371345980E+03  0.11203908287E+02  0.21799528357E+03  0.46092502156E+03  0.98965225465E+02 0.  0.
          2    1    3    3  502    0 -0.12455322581E+03 -0.16658615447E+03 -0.21376364732E+03  0.29826054019E+03  0.00000000000E+00 0. -1.
         -1    1    3    3    0  502 -0.14941418308E+03 -0.12797018763E+03 -0.30603655388E+03  0.36381223088E+03  0.00000000000E+00 0.  1.
         13    1    5    5    0    0 -0.77123512119E+02  0.10287112949E+03 -0.12180808134E+03  0.17710932806E+03  0.00000000000E+00 0.  1.
        -13    1    5    5    0    0 -0.42622538798E+02  0.18048130432E+03 -0.31877316994E+03  0.36879061254E+03  0.00000000000E+00 0. -1.
          3    1    6    6  503    0  0.36482108947E+03  0.67253805361E+01  0.22772126141E+03  0.43011234691E+03  0.00000000000E+00 0. -1.
         -3    1    6    6    0  503  0.28892370335E+02  0.44785277510E+01 -0.97259778395E+01  0.30812674654E+02  0.00000000000E+00 0.  1.
<mgrwt>
<rscale>  0 0.14946847E+04</rscale>
<asrwt>0</asrwt>
<pdfrwt beam="1">  1        2 0.18548337E+00 0.14946847E+04</pdfrwt>
<pdfrwt beam="2">  1       -1 0.71270123E-01 0.14946847E+04</pdfrwt>
<totfact> 0.41184328E+01</totfact>
</mgrwt>
</event>
<event>
12    7  0.1660832E-007  0.1296791E+04  0.7818608E-02  0.9032114E-01
          2   -1    0    0  501    0  0.00000000000E+00  0.00000000000E+00  0.10613648769E+04  0.10613648769E+04  0.00000000000E+00 0. -1.
         -1   -1    0    0    0  501 -0.00000000000E+00 -0.00000000000E+00 -0.39610961811E+03  0.39610961811E+03  0.00000000000E+00 0.  1.
         24    2    1    2    0    0  0.31286964884E+03  0.11382933462E+03  0.26677995153E+03  0.43415491095E+03  0.80463715912E+02 0.  0.
        254    2    1    2    0    0 -0.31286964884E+03 -0.11382933462E+03  0.39847530730E+03  0.10233195841E+04  0.88179128261E+03 0.  0.
         23    2    4    4    0    0 -0.20458587148E+03  0.65743083110E+02  0.64619243292E+03  0.68680476787E+03  0.89210969139E+02 0.  0.
         23    2    4    4    0    0 -0.10828377736E+03 -0.17957241773E+03 -0.24771712562E+03  0.33651481624E+03  0.88920287745E+02 0.  0.
          4    1    3    3  502    0  0.81881862088E+02  0.13200897670E+01  0.38625776173E+02  0.90544644021E+02  0.00000000000E+00 0. -1.
         -3    1    3    3    0  502  0.23098778675E+03  0.11250924485E+03  0.22815417536E+03  0.34361026693E+03  0.00000000000E+00 0.  1.
         13    1    5    5    0    0 -0.15261144014E+03  0.86873745160E+02  0.46160713800E+03  0.49388100704E+03  0.00000000000E+00 0.  1.
        -13    1    5    5    0    0 -0.51974431346E+02 -0.21130662050E+02  0.18458529492E+03  0.19292376083E+03  0.00000000000E+00 0. -1.
          2    1    6    6  503    0 -0.96297401543E+02 -0.89155254352E+02 -0.18073172077E+03  0.22335130135E+03  0.00000000000E+00 0. -1.
         -2    1    6    6    0  503 -0.11986375817E+02 -0.90417163379E+02 -0.66985404853E+02  0.11316351489E+03  0.00000000000E+00 0.  1.
<mgrwt>
<rscale>  0 0.12967912E+04</rscale>
<asrwt>0</asrwt>
<pdfrwt beam="1">  1        2 0.16328690E+00 0.12967912E+04</pdfrwt>
<pdfrwt beam="2">  1       -1 0.60939942E-01 0.12967912E+04</pdfrwt>
<totfact> 0.70317744E+01</totfact>
</mgrwt>
</event>
<event>
12    7  0.1660832E-007  0.3460401E+04  0.7818608E-02  0.8123239E-01
          2   -1    0    0  501    0  0.00000000000E+00  0.00000000000E+00  0.16764838458E+04  0.16764838458E+04  0.00000000000E+00 0. -1.
         -1   -1    0    0    0  501 -0.00000000000E+00 -0.00000000000E+00 -0.17856383599E+04  0.17856383599E+04  0.00000000000E+00 0.  1.
         24    2    1    2    0    0  0.85549073368E+03 -0.24890229833E+03  0.12964994115E+04  0.15754243226E+04  0.85054821362E+02 0.  0.
        254    2    1    2    0    0 -0.85549073368E+03  0.24890229833E+03 -0.14056539256E+04  0.18866978831E+04  0.88879086068E+03 0.  0.
         23    2    4    4    0    0 -0.35026587948E+03  0.25412233360E+03 -0.12838575073E+04  0.13582116503E+04  0.95835490308E+02 0.  0.
         23    2    4    4    0    0 -0.50522485420E+03 -0.52200352759E+01 -0.12179641837E+03  0.52848623285E+03  0.95832816515E+02 0.  0.
          4    1    3    3  502    0  0.73852499656E+03 -0.18950008304E+03  0.11357550894E+04  0.13679433742E+04  0.00000000000E+00 0. -1.
         -3    1    3    3    0  502  0.11696573712E+03 -0.59402215286E+02  0.16074432217E+03  0.20748094841E+03  0.00000000000E+00 0.  1.
         13    1    5    5    0    0 -0.11625087806E+03  0.50088582155E+02 -0.48205782340E+03  0.49840031883E+03  0.00000000000E+00 0.  1.
        -13    1    5    5    0    0 -0.23401500142E+03  0.20403375145E+03 -0.80179968387E+03  0.85981133144E+03  0.00000000000E+00 0. -1.
          1    1    6    6  503    0 -0.45295227578E+03 -0.34580258796E+02 -0.10959476202E+03  0.46730350983E+03  0.00000000000E+00 0. -1.
         -1    1    6    6    0  503 -0.52272578419E+02  0.29360223520E+02 -0.12201656344E+02  0.61182723029E+02  0.00000000000E+00 0.  1.
<mgrwt>
<rscale>  0 0.34604011E+04</rscale>
<asrwt>0</asrwt>
<pdfrwt beam="1">  1        2 0.25792059E+00 0.34604011E+04</pdfrwt>
<pdfrwt beam="2">  1       -1 0.27471360E+00 0.34604011E+04</pdfrwt>
<totfact> 0.45667625E-01</totfact>
</mgrwt>
</event>
<event>
12    7  0.1660832E-007  0.1172360E+04  0.7818608E-02  0.9137400E-01
         -1   -1    0    0    0  501 -0.00000000000E+00  0.00000000000E+00  0.26777588596E+03  0.26777588596E+03  0.00000000000E+00 0.  1.
          2   -1    0    0  501    0  0.00000000000E+00 -0.00000000000E+00 -0.12831885463E+04  0.12831885463E+04  0.00000000000E+00 0. -1.
         24    2    1    2    0    0  0.14807575004E+03 -0.18153471392E+03 -0.25991150373E+03  0.35922173931E+03  0.81271077982E+02 0.  0.
        254    2    1    2    0    0 -0.14807575004E+03  0.18153471392E+03 -0.75550115659E+03  0.11917426929E+04  0.89139630268E+03 0.  0.
         23    2    4    4    0    0  0.18273035166E+03  0.44056036864E+03 -0.32723392328E+03  0.58478397789E+03  0.86060678714E+02 0.  0.
         23    2    4    4    0    0 -0.33080610170E+03 -0.25902565472E+03 -0.42826723331E+03  0.60695871503E+03  0.91973321710E+02 0.  0.
          2    1    3    3  502    0  0.10315613777E+03 -0.10573002769E+03 -0.21353463134E+03  0.25964796609E+03  0.00000000000E+00 0. -1.
         -1    1    3    3    0  502  0.44919612269E+02 -0.75804686228E+02 -0.46376872392E+02  0.99573773220E+02  0.00000000000E+00 0.  1.
         13    1    5    5    0    0  0.99771099502E+01  0.18281151421E+02  0.36995683618E+01  0.21152541840E+02  0.00000000000E+00 0.  1.
        -13    1    5    5    0    0  0.17275324171E+03  0.42227921722E+03 -0.33093349164E+03  0.56363143605E+03  0.00000000000E+00 0. -1.
          3    1    6    6  503    0 -0.29228616610E+03 -0.25999114054E+03 -0.39687270037E+03  0.55725625735E+03  0.00000000000E+00 0. -1.
         -3    1    6    6    0  503 -0.38519935603E+02  0.96548582665E+00 -0.31394532939E+02  0.49702457687E+02  0.00000000000E+00 0.  1.
<mgrwt>
<rscale>  0 0.11723599E+04</rscale>
<asrwt>0</asrwt>
<pdfrwt beam="1">  1        2 0.19741362E+00 0.11723599E+04</pdfrwt>
<pdfrwt beam="2">  1       -1 0.41196290E-01 0.11723599E+04</pdfrwt>
<totfact> 0.10985702E+02</totfact>
</mgrwt>
</event>
<event>
12    7  0.1660832E-007  0.3174559E+04  0.7818608E-02  0.8195569E-01
          2   -1    0    0  501    0  0.00000000000E+00  0.00000000000E+00  0.35052857257E+04  0.35052857257E+04  0.00000000000E+00 0. -1.
         -1   -1    0    0    0  501 -0.00000000000E+00 -0.00000000000E+00 -0.71875902390E+03  0.71875902390E+03  0.00000000000E+00 0.  1.
         24    2    1    2    0    0 -0.14745313812E+03 -0.23257086579E+03  0.31906336760E+04  0.32034910626E+04  0.79875518355E+02 0.  0.
        254    2    1    2    0    0  0.14745313812E+03  0.23257086579E+03 -0.40410697418E+03  0.10205536870E+04  0.89576545249E+03 0.  0.
         23    2    4    4    0    0  0.19398723450E+03 -0.20744514433E+03 -0.47801594158E+03  0.56281681927E+03  0.87172223727E+02 0.  0.
         23    2    4    4    0    0 -0.46534096386E+02  0.44001601012E+03  0.73908967400E+02  0.45773686772E+03  0.90999963253E+02 0.  0.
          4    1    3    3  502    0 -0.16212134666E+02 -0.26521574646E+01  0.39746083652E+03  0.39780018077E+03  0.00000000000E+00 0. -1.
         -3    1    3    3    0  502 -0.13124100345E+03 -0.22991870833E+03  0.27931728394E+04  0.28056908818E+04  0.00000000000E+00 0.  1.
         13    1    5    5    0    0  0.19520322750E+03 -0.18878992685E+03 -0.40625328779E+03  0.48865905327E+03  0.00000000000E+00 0.  1.
        -13    1    5    5    0    0 -0.12159929939E+01 -0.18655217479E+02 -0.71762653796E+02  0.74157766000E+02  0.00000000000E+00 0. -1.
          3    1    6    6  503    0  0.17321645416E+02  0.22658795434E+03  0.17450286412E+02  0.22791808385E+03  0.00000000000E+00 0. -1.
         -3    1    6    6    0  503 -0.63855741801E+02  0.21342805579E+03  0.56458680987E+02  0.22981878386E+03  0.00000000000E+00 0.  1.
<mgrwt>
<rscale>  0 0.31745587E+04</rscale>
<asrwt>0</asrwt>
<pdfrwt beam="1">  1        2 0.53927472E+00 0.31745587E+04</pdfrwt>
<pdfrwt beam="2">  1       -1 0.11057831E+00 0.31745587E+04</pdfrwt>
<totfact> 0.58152493E-01</totfact>
</mgrwt>
</event>
<event>
12    7  0.1660832E-007  0.1508664E+04  0.7818608E-02  0.8878712E-01
          2   -1    0    0  501    0  0.00000000000E+00  0.00000000000E+00  0.14111893178E+04  0.14111893178E+04  0.00000000000E+00 0. -1.
         -1   -1    0    0    0  501 -0.00000000000E+00 -0.00000000000E+00 -0.40321797089E+03  0.40321797089E+03  0.00000000000E+00 0.  1.
         24    2    1    2    0    0  0.13483805933E+02  0.34924179290E+03  0.72512647855E+03  0.80885486424E+03  0.79285172524E+02 0.  0.
        254    2    1    2    0    0 -0.13483805933E+02 -0.34924179290E+03  0.28284486833E+03  0.10055524244E+04  0.89943472013E+03 0.  0.
         23    2    4    4    0    0 -0.11093177469E+03 -0.42276192246E+03 -0.20718452976E+03  0.49225204783E+03  0.91395555164E+02 0.  0.
         23    2    4    4    0    0  0.97447968755E+02  0.73520129566E+02  0.49002939809E+03  0.51330037658E+03  0.91908375795E+02 0.  0.
          4    1    3    3  502    0  0.26009735770E+02  0.18194007618E+03  0.45691983714E+03  0.49249815761E+03  0.00000000000E+00 0. -1.
         -1    1    3    3    0  502 -0.12525929837E+02  0.16730171672E+03  0.26820664141E+03  0.31635670663E+03  0.00000000000E+00 0.  1.
         13    1    5    5    0    0  0.13915858683E+02 -0.18273401567E+02 -0.71843734121E+01  0.24066232548E+02  0.00000000000E+00 0. -1.
        -13    1    5    5    0    0 -0.12484763337E+03 -0.40448852089E+03 -0.20000015635E+03  0.46818581528E+03  0.00000000000E+00 0.  1.
          2    1    6    6  503    0  0.11227449302E+02  0.32877769064E+02  0.28600885458E+03  0.28811120807E+03  0.00000000000E+00 0. -1.
         -2    1    6    6    0  503  0.86220519454E+02  0.40642360502E+02  0.20402054351E+03  0.22518916852E+03  0.00000000000E+00 0.  1.
<mgrwt>
<rscale>  0 0.15086642E+04</rscale>
<asrwt>0</asrwt>
<pdfrwt beam="1">  1        2 0.21710605E+00 0.15086642E+04</pdfrwt>
<pdfrwt beam="2">  1       -1 0.62033535E-01 0.15086642E+04</pdfrwt>
<totfact> 0.41356095E+01</totfact>
</mgrwt>
</event>
<event>
12    7  0.1660832E-007  0.1357162E+04  0.7818608E-02  0.8985424E-01
          2   -1    0    0  501    0  0.00000000000E+00  0.00000000000E+00  0.96046659597E+03  0.96046659597E+03  0.00000000000E+00 0. -1.
         -1   -1    0    0    0  501 -0.00000000000E+00 -0.00000000000E+00 -0.47942540391E+03  0.47942540391E+03  0.00000000000E+00 0.  1.
         24    2    1    2    0    0 -0.31219767052E+03  0.20150469605E+03  0.15275517167E+03  0.40989875634E+03  0.81310023777E+02 0.  0.
        254    2    1    2    0    0  0.31219767052E+03 -0.20150469605E+03  0.32828602039E+03  0.10299932435E+04  0.90279723224E+03 0.  0.
         23    2    4    4    0    0 -0.61832198871E+01 -0.15165375377E+03  0.58300991435E+03  0.60907732120E+03  0.89652271150E+02 0.  0.
         23    2    4    4    0    0  0.31838089040E+03 -0.49850942282E+02 -0.25472389397E+03  0.42091592234E+03  0.91839227464E+02 0.  0.
          2    1    3    3  502    0 -0.14364068763E+03  0.74158618602E+02  0.10666784405E+03  0.19367544194E+03  0.00000000000E+00 0. -1.
         -1    1    3    3    0  502 -0.16855698289E+03  0.12734607745E+03  0.46087327622E+02  0.21622331440E+03  0.00000000000E+00 0.  1.
         13    1    5    5    0    0 -0.12438334033E+02 -0.15898315498E+03  0.48388292202E+03  0.50948310860E+03  0.00000000000E+00 0.  1.
        -13    1    5    5    0    0  0.62551141460E+01  0.73294012086E+01  0.99126992329E+02  0.99594212599E+02  0.00000000000E+00 0. -1.
          1    1    6    6  503    0  0.12562997239E+03 -0.19435507709E+01 -0.15232482490E+03  0.19745764010E+03  0.00000000000E+00 0. -1.
         -1    1    6    6    0  503  0.19275091801E+03 -0.47907391511E+02 -0.10239906906E+03  0.22345828224E+03  0.00000000000E+00 0.  1.
<mgrwt>
<rscale>  0 0.13571619E+04</rscale>
<asrwt>0</asrwt>
<pdfrwt beam="1">  1        2 0.14776409E+00 0.13571619E+04</pdfrwt>
<pdfrwt beam="2">  1       -1 0.73757755E-01 0.13571619E+04</pdfrwt>
<totfact> 0.55126856E+01</totfact>
</mgrwt>
</event>
<event>
12    7  0.1660832E-007  0.1276564E+04  0.7818608E-02  0.9048359E-01
          2   -1    0    0  501    0  0.00000000000E+00  0.00000000000E+00  0.51128384217E+03  0.51128384217E+03  0.00000000000E+00 0. -1.
         -1   -1    0    0    0  501 -0.00000000000E+00 -0.00000000000E+00 -0.79682518319E+03  0.79682518319E+03  0.00000000000E+00 0.  1.
         24    2    1    2    0    0 -0.30785170864E+03  0.30133887874E+02 -0.12615114035E+03  0.34392643298E+03  0.81795815146E+02 0.  0.
        254    2    1    2    0    0  0.30785170864E+03 -0.30133887874E+02 -0.15939020067E+03  0.96418259238E+03  0.89920081721E+03 0.  0.
         23    2    4    4    0    0  0.56700353153E+03  0.12872175932E+03  0.37083577684E+02  0.58968864647E+03  0.91078054196E+02 0.  0.
         23    2    4    4    0    0 -0.25915182288E+03 -0.15885564719E+03 -0.19647377835E+03  0.37449394591E+03  0.96171648601E+02 0.  0.
          4    1    3    3  502    0 -0.59925417985E+00 -0.13866142411E+01  0.73069566388E+01  0.74614623196E+01  0.00000000000E+00 0. -1.
         -3    1    3    3    0  502 -0.30725245446E+03  0.31520502115E+02 -0.13345809698E+03  0.33646497066E+03  0.00000000000E+00 0.  1.
         13    1    5    5    0    0  0.57028087458E+03  0.12645344346E+03  0.34972788552E+02  0.58517847296E+03  0.00000000000E+00 0. -1.
        -13    1    5    5    0    0 -0.32773430547E+01  0.22683158601E+01  0.21107891318E+01  0.45101735109E+01  0.00000000000E+00 0.  1.
          4    1    6    6  503    0 -0.17126959808E+03 -0.15032370076E+03 -0.11927985434E+03  0.25721231286E+03  0.00000000000E+00 0. -1.
         -4    1    6    6    0  503 -0.87882224801E+02 -0.85319464377E+01 -0.77193924019E+02  0.11728163305E+03  0.00000000000E+00 0.  1.
<mgrwt>
<rscale>  0 0.12765639E+04</rscale>
<asrwt>0</asrwt>
<pdfrwt beam="1">  1        2 0.78659053E-01 0.12765639E+04</pdfrwt>
<pdfrwt beam="2">  1       -1 0.12258849E+00 0.12765639E+04</pdfrwt>
<totfact> 0.39574014E+01</totfact>
</mgrwt>
</event>
<event>
12    7  0.1660832E-007  0.1377566E+04  0.7818608E-02  0.8970219E-01
          4   -1    0    0  501    0  0.00000000000E+00  0.00000000000E+00  0.97370836223E+03  0.97370836223E+03  0.00000000000E+00 0. -1.
         -3   -1    0    0    0  501 -0.00000000000E+00 -0.00000000000E+00 -0.48723213182E+03  0.48723213182E+03  0.00000000000E+00 0.  1.
         24    2    1    2    0    0 -0.32335081829E+03 -0.17301015044E+03  0.25823822471E+03  0.45570199773E+03  0.80554740362E+02 0.  0.
        254    2    1    2    0    0  0.32335081829E+03  0.17301015044E+03  0.22823800571E+03  0.10052384963E+04  0.90770236498E+03 0.  0.
         23    2    4    4    0    0  0.23197228840E+03  0.11566654501E+03 -0.33026285118E+03  0.42917377586E+03  0.89031942557E+02 0.  0.
         23    2    4    4    0    0  0.91378529891E+02  0.57343605431E+02  0.55850085689E+03  0.57606472046E+03  0.91044111319E+02 0.  0.
          2    1    3    3  502    0 -0.23915537442E+03 -0.13091273179E+03  0.14619612082E+03  0.30936506300E+03  0.00000000000E+00 0. -1.
         -1    1    3    3    0  502 -0.84195443864E+02 -0.42097418651E+02  0.11204210388E+03  0.14633693473E+03  0.00000000000E+00 0.  1.
         13    1    5    5    0    0  0.16180361016E+03  0.65537365194E+02 -0.15334560983E+03  0.23235840969E+03  0.00000000000E+00 0.  1.
        -13    1    5    5    0    0  0.70168678235E+02  0.50129179818E+02 -0.17691724135E+03  0.19681536617E+03  0.00000000000E+00 0. -1.
          3    1    6    6  503    0  0.88236123263E+02  0.59635923594E+01  0.31479536300E+03  0.32698210723E+03  0.00000000000E+00 0. -1.
         -3    1    6    6    0  503  0.31424066287E+01  0.51380013072E+02  0.24370549389E+03  0.24908261323E+03  0.00000000000E+00 0.  1.
<mgrwt>
<rscale>  0 0.13775660E+04</rscale>
<asrwt>0</asrwt>
<pdfrwt beam="1">  1        4 0.14980129E+00 0.13775660E+04</pdfrwt>
<pdfrwt beam="2">  1       -3 0.74958790E-01 0.13775660E+04</pdfrwt>
<totfact> 0.11189234E+00</totfact>
</mgrwt>
</event>
<event>
12    7  0.1660832E-007  0.3480055E+04  0.7818608E-02  0.8118533E-01
          2   -1    0    0  501    0  0.00000000000E+00  0.00000000000E+00  0.21703081631E+04  0.21703081631E+04  0.00000000000E+00 0. -1.
         -1   -1    0    0    0  501 -0.00000000000E+00 -0.00000000000E+00 -0.13950530199E+04  0.13950530199E+04  0.00000000000E+00 0.  1.
         24    2    1    2    0    0 -0.14365630882E+04  0.38981089393E+03  0.10326704724E+04  0.18135201949E+04  0.82347759064E+02 0.  0.
        254    2    1    2    0    0  0.14365630882E+04 -0.38981089393E+03 -0.25741532918E+03  0.17518409881E+04  0.88714043780E+03 0.  0.
         23    2    4    4    0    0  0.70538975810E+03  0.13705116554E+03 -0.41148940999E+03  0.83299176428E+03  0.90520782185E+02 0.  0.
         23    2    4    4    0    0  0.73117333011E+03 -0.52686205947E+03  0.15407408081E+03  0.91884922380E+03  0.91361946885E+02 0.  0.
          2    1    3    3  502    0 -0.13209105590E+04  0.33530543233E+03  0.93729829705E+03  0.16540140675E+04  0.00000000000E+00 0. -1.
         -1    1    3    3    0  502 -0.11565252917E+03  0.54505461604E+02  0.95372175333E+02  0.15950612739E+03  0.00000000000E+00 0.  1.
         13    1    5    5    0    0  0.19980786765E+03  0.17575389028E+02 -0.75582787346E+02  0.21434746561E+03  0.00000000000E+00 0. -1.
        -13    1    5    5    0    0  0.50558189046E+03  0.11947577651E+03 -0.33590662264E+03  0.61864429866E+03  0.00000000000E+00 0.  1.
          4    1    6    6  503    0  0.23024874813E+03 -0.11712288653E+03  0.55630348065E+02  0.26424797481E+03  0.00000000000E+00 0. -1.
         -4    1    6    6    0  503  0.50092458198E+03 -0.40973917293E+03  0.98443732749E+02  0.65460124899E+03  0.00000000000E+00 0.  1.
<mgrwt>
<rscale>  0 0.34800546E+04</rscale>
<asrwt>0</asrwt>
<pdfrwt beam="1">  1        2 0.33389356E+00 0.34800546E+04</pdfrwt>
<pdfrwt beam="2">  1       -1 0.21462354E+00 0.34800546E+04</pdfrwt>
<totfact> 0.60071197E-01</totfact>
</mgrwt>
</event>
<event>
12    7  0.1660832E-007  0.1241165E+04  0.7818608E-02  0.9077569E-01
         -1   -1    0    0    0  501 -0.00000000000E+00  0.00000000000E+00  0.21308711320E+03  0.21308711320E+03  0.00000000000E+00 0.  1.
          2   -1    0    0  501    0  0.00000000000E+00 -0.00000000000E+00 -0.18073469021E+04  0.18073469021E+04  0.00000000000E+00 0. -1.
         24    2    1    2    0    0  0.35059601104E+02 -0.15307296751E+03 -0.75267704873E+03  0.77308349024E+03  0.80466354409E+02 0.  0.
        254    2    1    2    0    0 -0.35059601104E+02  0.15307296751E+03 -0.84158274022E+03  0.12473505251E+04  0.90717215281E+03 0.  0.
         23    2    4    4    0    0  0.25662714476E+03  0.42126081226E+03 -0.56127633327E+03  0.75303420012E+03  0.93333921482E+02 0.  0.
         23    2    4    4    0    0 -0.29168674587E+03 -0.26818784475E+03 -0.28030640696E+03  0.49431632498E+03  0.93653988584E+02 0.  0.
          2    1    3    3  502    0  0.42788389292E+02 -0.11405226409E+03 -0.39911422094E+03  0.41728997898E+03  0.00000000000E+00 0. -1.
         -1    1    3    3    0  502 -0.77287881879E+01 -0.39020703424E+02 -0.35356282779E+03  0.35579351126E+03  0.00000000000E+00 0.  1.
         13    1    5    5    0    0  0.20396008315E+03  0.24889547237E+03 -0.35845372931E+03  0.48170296630E+03  0.00000000000E+00 0. -1.
        -13    1    5    5    0    0  0.52667061610E+02  0.17236533989E+03 -0.20282260396E+03  0.27133123383E+03  0.00000000000E+00 0.  1.
          3    1    6    6  503    0 -0.19442569435E+03 -0.16904491804E+03 -0.23364099257E+03  0.34780116209E+03  0.00000000000E+00 0. -1.
         -3    1    6    6    0  503 -0.97261051511E+02 -0.99142926710E+02 -0.46665414382E+02  0.14651516289E+03  0.00000000000E+00 0.  1.
<mgrwt>
<rscale>  0 0.12411645E+04</rscale>
<asrwt>0</asrwt>
<pdfrwt beam="1">  1        2 0.27805338E+00 0.12411645E+04</pdfrwt>
<pdfrwt beam="2">  1       -1 0.32782631E-01 0.12411645E+04</pdfrwt>
<totfact> 0.83607296E+01</totfact>
</mgrwt>
</event>
<event>
12    7  0.1660832E-007  0.1645362E+04  0.7818608E-02  0.8793155E-01
          2   -1    0    0  501    0  0.00000000000E+00  0.00000000000E+00  0.19741656280E+04  0.19741656280E+04  0.00000000000E+00 0. -1.
         -1   -1    0    0    0  501 -0.00000000000E+00 -0.00000000000E+00 -0.34283046521E+03  0.34283046521E+03  0.00000000000E+00 0.  1.
         24    2    1    2    0    0 -0.47897780895E+03 -0.27203562120E+03  0.35062846364E+03  0.65795820135E+03  0.80904601429E+02 0.  0.
        254    2    1    2    0    0  0.47897780895E+03  0.27203562120E+03  0.12807066991E+04  0.16590378918E+04  0.89931860687E+03 0.  0.
         23    2    4    4    0    0 -0.51977517947E+02 -0.10024993959E+03  0.87946023599E+03  0.89135359948E+03  0.91154922284E+02 0.  0.
         23    2    4    4    0    0  0.53095532690E+03  0.37228556079E+03  0.40124646312E+03  0.76768429233E+03  0.88489268279E+02 0.  0.
          4    1    3    3  502    0 -0.20477239743E+03 -0.95139804820E+02  0.18561163779E+03  0.29229265693E+03  0.00000000000E+00 0. -1.
         -3    1    3    3    0  502 -0.27420541152E+03 -0.17689581638E+03  0.16501682585E+03  0.36566554442E+03  0.00000000000E+00 0.  1.
         13    1    5    5    0    0 -0.11351895310E+02  0.49290313209E+01  0.14447937448E+02  0.19023768644E+02  0.00000000000E+00 0.  1.
        -13    1    5    5    0    0 -0.40625622637E+02 -0.10517897091E+03  0.86501229854E+03  0.87232983083E+03  0.00000000000E+00 0. -1.
          3    1    6    6  503    0  0.39701105425E+03  0.22894926195E+03  0.28171805356E+03  0.53795966712E+03  0.00000000000E+00 0. -1.
         -3    1    6    6    0  503  0.13394427265E+03  0.14333629884E+03  0.11952840955E+03  0.22972462521E+03  0.00000000000E+00 0.  1.
<mgrwt>
<rscale>  0 0.16453621E+04</rscale>
<asrwt>0</asrwt>
<pdfrwt beam="1">  1        2 0.30371778E+00 0.16453621E+04</pdfrwt>
<pdfrwt beam="2">  1       -1 0.52743150E-01 0.16453621E+04</pdfrwt>
<totfact> 0.27239074E+01</totfact>
</mgrwt>
</event>
<event>
12    7  0.1660832E-007  0.2059270E+04  0.7818608E-02  0.8579400E-01
          2   -1    0    0  501    0  0.00000000000E+00  0.00000000000E+00  0.25416465373E+04  0.25416465373E+04  0.00000000000E+00 0. -1.
         -1   -1    0    0    0  501 -0.00000000000E+00 -0.00000000000E+00 -0.41711095795E+03  0.41711095795E+03  0.00000000000E+00 0.  1.
         24    2    1    2    0    0  0.69539338361E+03  0.32175075733E+03  0.40023556447E+03  0.86796760127E+03  0.77998345970E+02 0.  0.
        254    2    1    2    0    0 -0.69539338361E+03 -0.32175075733E+03  0.17243000149E+04  0.20907898940E+04  0.90060886719E+03 0.  0.
         23    2    4    4    0    0 -0.88400468171E+03 -0.29178342176E+03  0.11714519524E+04  0.14990868531E+04  0.91432346413E+02 0.  0.
         23    2    4    4    0    0  0.18861129810E+03 -0.29967335572E+02  0.55284806251E+03  0.59170304087E+03  0.89438500517E+02 0.  0.
          4    1    3    3  502    0  0.22036565490E+03  0.11677755174E+03  0.92487929693E+02  0.26599254799E+03  0.00000000000E+00 0. -1.
         -3    1    3    3    0  502  0.47502772872E+03  0.20497320559E+03  0.30774763477E+03  0.60197505328E+03  0.00000000000E+00 0.  1.
         13    1    5    5    0    0 -0.87109812795E+03 -0.29676568941E+03  0.11427818937E+04  0.14672533113E+04  0.00000000000E+00 0.  1.
        -13    1    5    5    0    0 -0.12906553760E+02  0.49822676559E+01  0.28670058644E+02  0.31833541801E+02  0.00000000000E+00 0. -1.
          1    1    6    6  503    0  0.24879196564E+02  0.27672665488E+02  0.91196863866E+02  0.98496795967E+02  0.00000000000E+00 0. -1.
         -1    1    6    6    0  503  0.16373210154E+03 -0.57640001060E+02  0.46165119864E+03  0.49320624490E+03  0.00000000000E+00 0.  1.
<mgrwt>
<rscale>  0 0.20592704E+04</rscale>
<asrwt>0</asrwt>
<pdfrwt beam="1">  1        2 0.39102253E+00 0.20592704E+04</pdfrwt>
<pdfrwt beam="2">  1       -1 0.64170918E-01 0.20592704E+04</pdfrwt>
<totfact> 0.85367117E+00</totfact>
</mgrwt>
</event>
<event>
12    7  0.1660832E-007  0.2457231E+04  0.7818608E-02  0.8418382E-01
         -1   -1    0    0    0  501 -0.00000000000E+00  0.00000000000E+00  0.97919504333E+03  0.97919504333E+03  0.00000000000E+00 0.  1.
          2   -1    0    0  501    0  0.00000000000E+00 -0.00000000000E+00 -0.15415687143E+04  0.15415687143E+04  0.00000000000E+00 0. -1.
         24    2    1    2    0    0  0.42696253806E+03  0.35167583109E+03 -0.11656064269E+04  0.12925229643E+04  0.77487881957E+02 0.  0.
        254    2    1    2    0    0 -0.42696253806E+03 -0.35167583109E+03  0.60323275585E+03  0.12282407934E+04  0.91581263894E+03 0.  0.
         23    2    4    4    0    0 -0.60026950777E+03 -0.24478283886E+02  0.58931901388E+03  0.84621291958E+03  0.88638235627E+02 0.  0.
         23    2    4    4    0    0  0.17330696970E+03 -0.32719754720E+03  0.13913741970E+02  0.38202787377E+03  0.93049252956E+02 0.  0.
          4    1    3    3  502    0  0.41304299776E+03  0.35265942521E+03 -0.11485303714E+04  0.12704704649E+04  0.00000000000E+00 0. -1.
         -3    1    3    3    0  502  0.13919540303E+02 -0.98359411980E+00 -0.17076055467E+02  0.22052499404E+02  0.00000000000E+00 0.  1.
         13    1    5    5    0    0 -0.30207257423E+03  0.13478843167E+01  0.35473914225E+03  0.46592865971E+03  0.00000000000E+00 0. -1.
        -13    1    5    5    0    0 -0.29819693354E+03 -0.25826168203E+02  0.23457987163E+03  0.38028425987E+03  0.00000000000E+00 0.  1.
          2    1    6    6  503    0  0.69822240425E+02 -0.11753931493E+03 -0.39283071163E+02  0.14224554648E+03  0.00000000000E+00 0. -1.
         -2    1    6    6    0  503  0.10348472928E+03 -0.20965823227E+03  0.53196813133E+02  0.23978232729E+03  0.00000000000E+00 0.  1.
<mgrwt>
<rscale>  0 0.24572313E+04</rscale>
<asrwt>0</asrwt>
<pdfrwt beam="1">  1        2 0.23716442E+00 0.24572313E+04</pdfrwt>
<pdfrwt beam="2">  1       -1 0.15064539E+00 0.24572313E+04</pdfrwt>
<totfact> 0.42282055E+00</totfact>
</mgrwt>
</event>
<event>
12    7  0.1660832E-007  0.1687415E+04  0.7818608E-02  0.8768575E-01
          2   -1    0    0  501    0  0.00000000000E+00  0.00000000000E+00  0.30568554303E+03  0.30568554303E+03  0.00000000000E+00 0. -1.
         -1   -1    0    0    0  501 -0.00000000000E+00 -0.00000000000E+00 -0.23286746480E+04  0.23286746480E+04  0.00000000000E+00 0.  1.
         24    2    1    2    0    0 -0.34541462275E+03 -0.12846879817E+03 -0.14192353226E+04  0.14684973364E+04  0.80249812088E+02 0.  0.
        254    2    1    2    0    0  0.34541462275E+03  0.12846879817E+03 -0.60375378233E+03  0.11658628546E+04  0.92676969758E+03 0.  0.
         23    2    4    4    0    0  0.54006927171E+03  0.23375516217E+03 -0.69040823171E+03  0.91149099857E+03  0.88521296760E+02 0.  0.
         23    2    4    4    0    0 -0.19465464896E+03 -0.10528636400E+03  0.86654449380E+02  0.25437185603E+03  0.90666403576E+02 0.  0.
          4    1    3    3  502    0 -0.42521688435E+02 -0.46336605040E+02 -0.26471785717E+03  0.27208586671E+03  0.00000000000E+00 0. -1.
         -3    1    3    3    0  502 -0.30289293431E+03 -0.82132193127E+02 -0.11545174654E+04  0.11964114697E+04  0.00000000000E+00 0.  1.
         13    1    5    5    0    0  0.51167962619E+03  0.24119002267E+03 -0.65293984721E+03  0.86389762760E+03  0.00000000000E+00 0.  1.
        -13    1    5    5    0    0  0.28389645515E+02 -0.74348605094E+01 -0.37468384504E+02  0.47593370973E+02  0.00000000000E+00 0. -1.
          3    1    6    6  503    0 -0.44169115271E+01 -0.11503200978E+02  0.33528934828E+02  0.35721453090E+02  0.00000000000E+00 0. -1.
         -3    1    6    6    0  503 -0.19023773743E+03 -0.93783163021E+02  0.53125514552E+02  0.21865040294E+03  0.00000000000E+00 0.  1.
<mgrwt>
<rscale>  0 0.16874148E+04</rscale>
<asrwt>0</asrwt>
<pdfrwt beam="1">  1        2 0.47028543E-01 0.16874148E+04</pdfrwt>
<pdfrwt beam="2">  1       -1 0.35825765E+00 0.16874148E+04</pdfrwt>
<totfact> 0.16104308E+00</totfact>
</mgrwt>
</event>
<event>
12    7  0.1660832E-007  0.4129212E+04  0.7818608E-02  0.7978976E-01
         -1   -1    0    0    0  501 -0.00000000000E+00  0.00000000000E+00  0.18585027565E+04  0.18585027565E+04  0.00000000000E+00 0.  1.
          2   -1    0    0  501    0  0.00000000000E+00 -0.00000000000E+00 -0.22935658091E+04  0.22935658091E+04  0.00000000000E+00 0. -1.
         24    2    1    2    0    0 -0.15753421056E+04 -0.11634508537E+04 -0.23146747356E+03  0.19735966356E+04  0.78650173356E+02 0.  0.
        254    2    1    2    0    0  0.15753421056E+04  0.11634508537E+04 -0.20359557907E+03  0.21784719300E+04  0.93218461230E+03 0.  0.
         23    2    4    4    0    0  0.16840524647E+04  0.10716680272E+04 -0.16160772510E+03  0.20047289594E+04  0.91192541986E+02 0.  0.
         23    2    4    4    0    0 -0.10871035902E+03  0.91782826536E+02 -0.41987853971E+02  0.17374297063E+03  0.90452255674E+02 0.  0.
          4    1    3    3  502    0 -0.25054228142E+03 -0.21194831679E+03 -0.58808174046E+02  0.33339454870E+03  0.00000000000E+00 0. -1.
         -1    1    3    3    0  502 -0.13247998242E+04 -0.95150253690E+03 -0.17265929951E+03  0.16402020868E+04  0.00000000000E+00 0.  1.
         13    1    5    5    0    0  0.12538228294E+04  0.77273208653E+03 -0.84984795612E+02  0.14752657322E+04  0.00000000000E+00 0. -1.
        -13    1    5    5    0    0  0.43022963524E+03  0.29893594062E+03 -0.76622929491E+02  0.52946322720E+03  0.00000000000E+00 0.  1.
          2    1    6    6  503    0 -0.12144854337E+03  0.96271598001E+02 -0.40304627286E+02  0.16013254588E+03  0.00000000000E+00 0. -1.
         -2    1    6    6    0  503  0.12738184351E+02 -0.44887714648E+01 -0.16832266849E+01  0.13610424751E+02  0.00000000000E+00 0.  1.
<mgrwt>
<rscale>  0 0.41292122E+04</rscale>
<asrwt>0</asrwt>
<pdfrwt beam="1">  1        2 0.35285628E+00 0.41292122E+04</pdfrwt>
<pdfrwt beam="2">  1       -1 0.28592350E+00 0.41292122E+04</pdfrwt>
<totfact> 0.16538491E-01</totfact>
</mgrwt>
</event>
<event>
12    7  0.1660832E-007  0.1148586E+04  0.7818608E-02  0.9159089E-01
         -1   -1    0    0    0  501 -0.00000000000E+00  0.00000000000E+00  0.42732467402E+03  0.42732467402E+03  0.00000000000E+00 0.  1.
          2   -1    0    0  501    0  0.00000000000E+00 -0.00000000000E+00 -0.77180824111E+03  0.77180824111E+03  0.00000000000E+00 0. -1.
         24    2    1    2    0    0  0.11903948798E+03  0.15178229336E+03  0.29734501174E+02  0.21075826231E+03  0.79540180396E+02 0.  0.
        254    2    1    2    0    0 -0.11903948798E+03 -0.15178229336E+03 -0.37421806827E+03  0.98837465281E+03  0.89422426014E+03 0.  0.
         23    2    4    4    0    0 -0.43285199914E+03 -0.10747642505E+03  0.40839111066E+02  0.45729434245E+03  0.92402638184E+02 0.  0.
         23    2    4    4    0    0  0.31381251117E+03 -0.44305868314E+02 -0.41505717933E+03  0.53108031036E+03  0.96605029897E+02 0.  0.
          2    1    3    3  502    0  0.23973578478E+02  0.57315700695E+02 -0.23677757917E+02  0.66486526689E+02  0.00000000000E+00 0. -1.
         -1    1    3    3    0  502  0.95065909498E+02  0.94466592669E+02  0.53412259091E+02  0.14427173563E+03  0.00000000000E+00 0.  1.
         13    1    5    5    0    0 -0.10829197423E+03  0.10088171191E+02 -0.60438416869E+01  0.10892865052E+03  0.00000000000E+00 0. -1.
        -13    1    5    5    0    0 -0.32456002491E+03 -0.11756459624E+03  0.46882952752E+02  0.34836569193E+03  0.00000000000E+00 0.  1.
          1    1    6    6  503    0  0.14852084151E+03  0.88096551242E-01 -0.12421715962E+03  0.19361908704E+03  0.00000000000E+00 0. -1.
         -1    1    6    6    0  503  0.16529166966E+03 -0.44393964865E+02 -0.29084001971E+03  0.33746122331E+03  0.00000000000E+00 0.  1.
<mgrwt>
<rscale>  0 0.11485864E+04</rscale>
<asrwt>0</asrwt>
<pdfrwt beam="1">  1        2 0.11873973E+00 0.11485864E+04</pdfrwt>
<pdfrwt beam="2">  1       -1 0.65742258E-01 0.11485864E+04</pdfrwt>
<totfact> 0.95769574E+01</totfact>
</mgrwt>
</event>
<event>
12    7  0.1660832E-007  0.1914936E+04  0.7818608E-02  0.8647457E-01
          2   -1    0    0  501    0  0.00000000000E+00  0.00000000000E+00  0.14809062323E+04  0.14809062323E+04  0.00000000000E+00 0. -1.
         -1   -1    0    0    0  501 -0.00000000000E+00 -0.00000000000E+00 -0.61904354796E+03  0.61904354796E+03  0.00000000000E+00 0.  1.
         24    2    1    2    0    0 -0.17248417112E+03 -0.70017392151E+03  0.14387557765E+03  0.73960535375E+03  0.79508413442E+02 0.  0.
        254    2    1    2    0    0  0.17248417112E+03  0.70017392151E+03  0.71798710673E+03  0.13603444265E+04  0.90279408712E+03 0.  0.
         23    2    4    4    0    0  0.40262838231E+03  0.84045312826E+01  0.18541416426E+03  0.45286937912E+03  0.92368890022E+02 0.  0.
         23    2    4    4    0    0 -0.23014421119E+03  0.69176939022E+03  0.53257294248E+03  0.90747504743E+03  0.91464613082E+02 0.  0.
          4    1    3    3  502    0 -0.10830361935E+03 -0.44041919786E+03  0.12944149420E+03  0.47165012904E+03  0.00000000000E+00 0. -1.
         -3    1    3    3    0  502 -0.64180551770E+02 -0.25975472365E+03  0.14434083451E+02  0.26795522470E+03  0.00000000000E+00 0.  1.
         13    1    5    5    0    0  0.27634548207E+03 -0.37304150832E+02  0.12726884577E+03  0.30652207789E+03  0.00000000000E+00 0.  1.
        -13    1    5    5    0    0  0.12628290024E+03  0.45708682115E+02  0.58145318483E+02  0.14634730123E+03  0.00000000000E+00 0. -1.
          1    1    6    6  503    0  0.60137313082E+00  0.69465873848E+02  0.33851870185E+02  0.77277541331E+02  0.00000000000E+00 0. -1.
         -1    1    6    6    0  503 -0.23074558433E+03  0.62230351638E+03  0.49872107229E+03  0.83019750610E+03  0.00000000000E+00 0.  1.
<mgrwt>
<rscale>  0 0.19149365E+04</rscale>
<asrwt>0</asrwt>
<pdfrwt beam="1">  1        2 0.22783173E+00 0.19149365E+04</pdfrwt>
<pdfrwt beam="2">  1       -1 0.95237470E-01 0.19149365E+04</pdfrwt>
<totfact> 0.14769819E+01</totfact>
</mgrwt>
</event>
<event>
12    7  0.1660832E-007  0.1556477E+04  0.7818608E-02  0.8847741E-01
          2   -1    0    0  501    0  0.00000000000E+00  0.00000000000E+00  0.16659427977E+04  0.16659427977E+04  0.00000000000E+00 0. -1.
         -1   -1    0    0    0  501 -0.00000000000E+00 -0.00000000000E+00 -0.36355091695E+03  0.36355091695E+03  0.00000000000E+00 0.  1.
         24    2    1    2    0    0 -0.25002567845E+03 -0.43171247989E+03  0.60533487754E+03  0.78846920510E+03  0.79780124431E+02 0.  0.
        254    2    1    2    0    0  0.25002567845E+03  0.43171247989E+03  0.69705700325E+03  0.12410245096E+04  0.89742122910E+03 0.  0.
         23    2    4    4    0    0 -0.27932312244E+03  0.21655377976E+03  0.42906484290E+02  0.36768325763E+03  0.91831722666E+02 0.  0.
         23    2    4    4    0    0  0.52934880089E+03  0.21515870013E+03  0.65415051896E+03  0.87334125196E+03  0.91151641111E+02 0.  0.
          2    1    3    3  502    0 -0.18482984307E+03 -0.29089988808E+03  0.46826152308E+03  0.58142382973E+03  0.00000000000E+00 0. -1.
         -1    1    3    3    0  502 -0.65195835380E+02 -0.14081259181E+03  0.13707335445E+03  0.20704537537E+03  0.00000000000E+00 0.  1.
         13    1    5    5    0    0 -0.80626482648E+02  0.44240567023E+02 -0.26433737805E+02  0.95690124720E+02  0.00000000000E+00 0. -1.
        -13    1    5    5    0    0 -0.19869663979E+03  0.17231321274E+03  0.69340222095E+02  0.27199313291E+03  0.00000000000E+00 0.  1.
          4    1    6    6  503    0  0.18370811106E+03  0.39890985601E+02  0.17250146659E+03  0.25514058238E+03  0.00000000000E+00 0.  1.
         -4    1    6    6    0  503  0.34564068983E+03  0.17526771453E+03  0.48164905237E+03  0.61820066958E+03  0.00000000000E+00 0. -1.
<mgrwt>
<rscale>  0 0.15564768E+04</rscale>
<asrwt>0</asrwt>
<pdfrwt beam="1">  1        2 0.25629889E+00 0.15564768E+04</pdfrwt>
<pdfrwt beam="2">  1       -1 0.55930911E-01 0.15564768E+04</pdfrwt>
<totfact> 0.36310093E+01</totfact>
</mgrwt>
</event>
<event>
12    7  0.1660832E-007  0.1855503E+04  0.7818608E-02  0.8677328E-01
          2   -1    0    0  501    0  0.00000000000E+00  0.00000000000E+00  0.51426264448E+03  0.51426264448E+03  0.00000000000E+00 0. -1.
         -1   -1    0    0    0  501 -0.00000000000E+00 -0.00000000000E+00 -0.16737037221E+04  0.16737037221E+04  0.00000000000E+00 0.  1.
         24    2    1    2    0    0 -0.44549377143E+03 -0.52007236786E+03 -0.22980311447E+03  0.72668588607E+03  0.79516900041E+02 0.  0.
        254    2    1    2    0    0  0.44549377143E+03  0.52007236786E+03 -0.92963796311E+03  0.14612804805E+04  0.89564163145E+03 0.  0.
         23    2    4    4    0    0 -0.23962780533E+03  0.28854665463E+03 -0.42756313811E+03  0.57618845504E+03  0.92207600894E+02 0.  0.
         23    2    4    4    0    0  0.68512157675E+03  0.23152571323E+03 -0.50207482500E+03  0.88509202545E+03  0.91175834472E+02 0.  0.
          4    1    3    3  502    0 -0.65810767511E+02 -0.72309946370E+02 -0.63246546244E+02  0.11644703120E+03  0.00000000000E+00 0. -1.
         -3    1    3    3    0  502 -0.37968300391E+03 -0.44776242149E+03 -0.16655656823E+03  0.61023885486E+03  0.00000000000E+00 0.  1.
         13    1    5    5    0    0 -0.18604698930E+03  0.17487083870E+03 -0.32912963305E+03  0.41655684823E+03  0.00000000000E+00 0. -1.
        -13    1    5    5    0    0 -0.53580816028E+02  0.11367581593E+03 -0.98433505062E+02  0.15963160681E+03  0.00000000000E+00 0.  1.
          1    1    6    6  503    0  0.66200331050E+03  0.20375201197E+03 -0.48064306465E+03  0.84307830068E+03  0.00000000000E+00 0. -1.
         -1    1    6    6    0  503  0.23118266255E+02  0.27773701267E+02 -0.21431760350E+02  0.42013724762E+02  0.00000000000E+00 0.  1.
<mgrwt>
<rscale>  0 0.18555035E+04</rscale>
<asrwt>0</asrwt>
<pdfrwt beam="1">  1        2 0.79117329E-01 0.18555035E+04</pdfrwt>
<pdfrwt beam="2">  1       -1 0.25749288E+00 0.18555035E+04</pdfrwt>
<totfact> 0.39873378E+00</totfact>
</mgrwt>
</event>
<event>
12    7  0.1660832E-007  0.1253629E+04  0.7818608E-02  0.9067168E-01
         -1   -1    0    0    0  501 -0.00000000000E+00  0.00000000000E+00  0.20985488534E+03  0.20985488534E+03  0.00000000000E+00 0.  1.
          2   -1    0    0  501    0  0.00000000000E+00 -0.00000000000E+00 -0.18722291524E+04  0.18722291524E+04  0.00000000000E+00 0. -1.
         24    2    1    2    0    0  0.29578960322E+03 -0.21121495855E+02 -0.41110269961E+03  0.51325274988E+03  0.80531662486E+02 0.  0.
        254    2    1    2    0    0 -0.29578960322E+03  0.21121495855E+02 -0.12512715675E+04  0.15688312879E+04  0.89867317048E+03 0.  0.
         23    2    4    4    0    0 -0.36021476696E+02  0.43505036294E+03 -0.65752465295E+03  0.79454503545E+03  0.91633940437E+02 0.  0.
         23    2    4    4    0    0 -0.25976812653E+03 -0.41392886709E+03 -0.59374691455E+03  0.77428625246E+03  0.90372648758E+02 0.  0.
          2    1    3    3  502    0  0.14526184508E+01  0.10105073403E+02 -0.71393941657E+01  0.12457670645E+02  0.00000000000E+00 0. -1.
         -1    1    3    3    0  502  0.29433698477E+03 -0.31226569259E+02 -0.40396330545E+03  0.50079507923E+03  0.00000000000E+00 0.  1.
         13    1    5    5    0    0 -0.10653298029E+02  0.15056410208E+02 -0.68402888530E+01  0.19671751291E+02  0.00000000000E+00 0.  1.
        -13    1    5    5    0    0 -0.25368178667E+02  0.41999395274E+03 -0.65068436410E+03  0.77487328416E+03  0.00000000000E+00 0. -1.
          4    1    6    6  503    0 -0.29812897931E+02 -0.42492724710E+02 -0.26396682476E+02  0.58234228612E+02  0.00000000000E+00 0.  1.
         -4    1    6    6    0  503 -0.22995522860E+03 -0.37143614238E+03 -0.56735023207E+03  0.71605202385E+03  0.00000000000E+00 0. -1.
<mgrwt>
<rscale>  0 0.12536290E+04</rscale>
<asrwt>0</asrwt>
<pdfrwt beam="1">  1        2 0.28803526E+00 0.12536290E+04</pdfrwt>
<pdfrwt beam="2">  1       -1 0.32285367E-01 0.12536290E+04</pdfrwt>
<totfact> 0.79022502E+01</totfact>
</mgrwt>
</event>
<event>
12    7  0.1660832E-007  0.1925797E+04  0.7818608E-02  0.8642121E-01
          2   -1    0    0  501    0  0.00000000000E+00  0.00000000000E+00  0.73211519004E+03  0.73211519004E+03  0.00000000000E+00 0. -1.
         -1   -1    0    0    0  501 -0.00000000000E+00 -0.00000000000E+00 -0.12664312373E+04  0.12664312373E+04  0.00000000000E+00 0.  1.
         24    2    1    2    0    0 -0.21318671910E+03  0.55902017966E+03 -0.67655489685E+03  0.90664705033E+03  0.79562597640E+02 0.  0.
        254    2    1    2    0    0  0.21318671910E+03 -0.55902017966E+03  0.14223884959E+03  0.10918993770E+04  0.90225285852E+03 0.  0.
         23    2    4    4    0    0 -0.12443148860E+03 -0.13048607920E+03 -0.31508635156E+03  0.37393143872E+03  0.89640948806E+02 0.  0.
         23    2    4    4    0    0  0.33761820770E+03 -0.42853410046E+03  0.45732520115E+03  0.71796793829E+03  0.93295720038E+02 0.  0.
          2    1    3    3  502    0 -0.16225415166E+01  0.46345707869E+02 -0.77186521639E+02  0.90046190378E+02  0.00000000000E+00 0. -1.
         -1    1    3    3    0  502 -0.21156417759E+03  0.51267447180E+03 -0.59936837521E+03  0.81660085995E+03  0.00000000000E+00 0.  1.
         13    1    5    5    0    0 -0.30654581215E+02 -0.29228133902E+02 -0.17364778928E+02  0.45776879624E+02  0.00000000000E+00 0. -1.
        -13    1    5    5    0    0 -0.93776907382E+02 -0.10125794530E+03 -0.29772157263E+03  0.32815455909E+03  0.00000000000E+00 0.  1.
          3    1    6    6  503    0 -0.39774710761E+01 -0.22525085744E+02  0.18367365499E+02  0.29335300907E+02  0.00000000000E+00 0. -1.
         -3    1    6    6    0  503  0.34159567877E+03 -0.40600901472E+03  0.43895783565E+03  0.68863263738E+03  0.00000000000E+00 0.  1.
<mgrwt>
<rscale>  0 0.19257970E+04</rscale>
<asrwt>0</asrwt>
<pdfrwt beam="1">  1        2 0.11263311E+00 0.19257970E+04</pdfrwt>
<pdfrwt beam="2">  1       -1 0.19483557E+00 0.19257970E+04</pdfrwt>
<totfact> 0.67462943E+00</totfact>
</mgrwt>
</event>
<event>
12    7  0.1660832E-007  0.1520118E+04  0.7818608E-02  0.8871184E-01
         -1   -1    0    0    0  501 -0.00000000000E+00  0.00000000000E+00  0.27968600980E+03  0.27968600980E+03  0.00000000000E+00 0.  1.
          2   -1    0    0  501    0  0.00000000000E+00 -0.00000000000E+00 -0.20654942387E+04  0.20654942387E+04  0.00000000000E+00 0. -1.
         24    2    1    2    0    0 -0.46588056972E+03  0.63888248475E+02 -0.33404838229E+03  0.58235053224E+03  0.80108720835E+02 0.  0.
        254    2    1    2    0    0  0.46588056972E+03 -0.63888248475E+02 -0.14517598466E+04  0.17628297163E+04  0.88251659633E+03 0.  0.
         23    2    4    4    0    0 -0.15312157511E+03 -0.10189898274E+03 -0.91488167878E+03  0.93747860968E+03  0.89599319072E+02 0.  0.
         23    2    4    4    0    0  0.61900214483E+03  0.38010734269E+02 -0.53687816785E+03  0.82535110661E+03  0.91421063446E+02 0.  0.
          2    1    3    3  502    0 -0.21624820335E+03  0.35624559503E+01 -0.19006289317E+03  0.28792339242E+03  0.00000000000E+00 0. -1.
         -1    1    3    3    0  502 -0.24963236637E+03  0.60325792524E+02 -0.14398548912E+03  0.29442713982E+03  0.00000000000E+00 0.  1.
         13    1    5    5    0    0 -0.74831932712E+02 -0.76695846641E+02 -0.68492438089E+03  0.69325570938E+03  0.00000000000E+00 0. -1.
        -13    1    5    5    0    0 -0.78289642400E+02 -0.25203136103E+02 -0.22995729789E+03  0.24422290030E+03  0.00000000000E+00 0.  1.
          2    1    6    6  503    0  0.23973573380E+03  0.57831614495E+02 -0.19578054824E+03  0.31487734241E+03  0.00000000000E+00 0. -1.
         -2    1    6    6    0  503  0.37926641103E+03 -0.19820880225E+02 -0.34109761960E+03  0.51047376419E+03  0.00000000000E+00 0.  1.
<mgrwt>
<rscale>  0 0.15201182E+04</rscale>
<asrwt>0</asrwt>
<pdfrwt beam="1">  1        2 0.31776834E+00 0.15201182E+04</pdfrwt>
<pdfrwt beam="2">  1       -1 0.43028617E-01 0.15201182E+04</pdfrwt>
<totfact> 0.35953159E+01</totfact>
</mgrwt>
</event>
<event>
12    7  0.1660832E-007  0.1345577E+04  0.7818608E-02  0.8994183E-01
          4   -1    0    0  501    0  0.00000000000E+00  0.00000000000E+00  0.20387800136E+04  0.20387800136E+04  0.00000000000E+00 0. -1.
         -3   -1    0    0    0  501 -0.00000000000E+00 -0.00000000000E+00 -0.22201715372E+03  0.22201715372E+03  0.00000000000E+00 0.  1.
         24    2    1    2    0    0  0.17479907189E+03 -0.26041654463E+03  0.88088966275E+03  0.93865338359E+03  0.82049279848E+02 0.  0.
        254    2    1    2    0    0 -0.17479907189E+03  0.26041654463E+03  0.93587319710E+03  0.13221437837E+04  0.87967837957E+03 0.  0.
         23    2    4    4    0    0  0.66223978480E+02  0.37482665725E+02 -0.14724220021E+03  0.18642983569E+03  0.85353690959E+02 0.  0.
         23    2    4    4    0    0 -0.24102305037E+03  0.22293387891E+03  0.10831153973E+04  0.11357139480E+04  0.94422363065E+02 0.  0.
          2    1    3    3  502    0  0.15242799889E+03 -0.24018002398E+03  0.84592647396E+03  0.89247539916E+03  0.00000000000E+00 0. -1.
         -1    1    3    3    0  502  0.22371072993E+02 -0.20236520650E+02  0.34963188798E+02  0.46177984427E+02  0.00000000000E+00 0.  1.
         13    1    5    5    0    0  0.14814502955E+02  0.46609036916E+02 -0.28234075245E+02  0.56471539956E+02  0.00000000000E+00 0.  1.
        -13    1    5    5    0    0  0.51409475524E+02 -0.91263711910E+01 -0.11900812496E+03  0.12995829574E+03  0.00000000000E+00 0. -1.
          3    1    6    6  503    0 -0.19079167058E+03  0.15793101021E+03  0.92431588007E+03  0.95692398428E+03  0.00000000000E+00 0. -1.
         -3    1    6    6    0  503 -0.50231379785E+02  0.65002868697E+02  0.15879951723E+03  0.17878996372E+03  0.00000000000E+00 0.  1.
<mgrwt>
<rscale>  0 0.13455767E+04</rscale>
<asrwt>0</asrwt>
<pdfrwt beam="1">  1        4 0.31365845E+00 0.13455767E+04</pdfrwt>
<pdfrwt beam="2">  1       -3 0.34156487E-01 0.13455767E+04</pdfrwt>
<totfact> 0.48412887E-01</totfact>
</mgrwt>
</event>
<event>
12    7  0.1660832E-007  0.2275653E+04  0.7818608E-02  0.8487583E-01
          2   -1    0    0  501    0  0.00000000000E+00  0.00000000000E+00  0.72267351858E+03  0.72267351858E+03  0.00000000000E+00 0. -1.
         -1   -1    0    0    0  501 -0.00000000000E+00 -0.00000000000E+00 -0.17914720008E+04  0.17914720008E+04  0.00000000000E+00 0.  1.
         24    2    1    2    0    0 -0.28369890393E+03 -0.73804517154E+03 -0.10552462135E+04  0.13210420559E+04  0.80073709750E+02 0.  0.
        254    2    1    2    0    0  0.28369890393E+03  0.73804517154E+03 -0.13552268708E+02  0.11931034635E+04  0.89337364369E+03 0.  0.
         23    2    4    4    0    0 -0.26612613274E+02  0.25533269214E+03 -0.40823468259E+03  0.49046775362E+03  0.89442978539E+02 0.  0.
         23    2    4    4    0    0  0.31031151721E+03  0.48271247941E+03  0.39468241388E+03  0.70263570985E+03  0.92834031722E+02 0.  0.
          2    1    3    3  502    0  0.22657782496E+01 -0.22845754525E+00 -0.88436144002E+01  0.91321114528E+01  0.00000000000E+00 0. -1.
         -1    1    3    3    0  502 -0.28596468218E+03 -0.73781671400E+03 -0.10464025991E+04  0.13119099444E+04  0.00000000000E+00 0.  1.
         13    1    5    5    0    0  0.18349011285E+02  0.14198628920E+03 -0.27378755016E+03  0.30896021614E+03  0.00000000000E+00 0. -1.
        -13    1    5    5    0    0 -0.44961624558E+02  0.11334640294E+03 -0.13444713243E+03  0.18150753748E+03  0.00000000000E+00 0.  1.
          3    1    6    6  503    0  0.70401595206E+02  0.19122491972E+03  0.14098814687E+03  0.24779227609E+03  0.00000000000E+00 0. -1.
         -3    1    6    6    0  503  0.23990992200E+03  0.29148755969E+03  0.25369426701E+03  0.45484343377E+03  0.00000000000E+00 0.  1.
<mgrwt>
<rscale>  0 0.22756532E+04</rscale>
<asrwt>0</asrwt>
<pdfrwt beam="1">  1        2 0.11118054E+00 0.22756532E+04</pdfrwt>
<pdfrwt beam="2">  1       -1 0.27561108E+00 0.22756532E+04</pdfrwt>
<totfact> 0.19378656E+00</totfact>
</mgrwt>
</event>
<event>
12    7  0.1660832E-007  0.3045642E+04  0.7818608E-02  0.8230816E-01
         -1   -1    0    0    0  501 -0.00000000000E+00  0.00000000000E+00  0.21736414334E+04  0.21736414334E+04  0.00000000000E+00 0.  1.
          2   -1    0    0  501    0  0.00000000000E+00 -0.00000000000E+00 -0.10668657906E+04  0.10668657906E+04  0.00000000000E+00 0. -1.
         24    2    1    2    0    0  0.71584978324E+03 -0.66243552761E+03  0.15594846836E+04  0.18411646852E+04  0.81444331854E+02 0.  0.
        254    2    1    2    0    0 -0.71584978324E+03  0.66243552761E+03 -0.45270904080E+03  0.13993425389E+04  0.89551790888E+03 0.  0.
         23    2    4    4    0    0  0.67708525730E+02  0.13846635571E+03  0.18480169236E+03  0.25767667164E+03  0.92131566192E+02 0.  0.
         23    2    4    4    0    0 -0.78355830897E+03  0.52396917190E+03 -0.63751073316E+03  0.11416658672E+04  0.92052707119E+02 0.  0.
          4    1    3    3  502    0  0.93350804908E+01 -0.79587248127E+01  0.43001430155E+02  0.44716976908E+02  0.00000000000E+00 0. -1.
         -3    1    3    3    0  502  0.70651470275E+03 -0.65447680279E+03  0.15164832534E+04  0.17964477083E+04  0.00000000000E+00 0.  1.
         13    1    5    5    0    0 -0.19693512741E+01  0.28966061640E+01  0.61560185078E+02  0.61659752339E+02  0.00000000000E+00 0. -1.
        -13    1    5    5    0    0  0.69677877004E+02  0.13556974954E+03  0.12324150728E+03  0.19601691930E+03  0.00000000000E+00 0.  1.
          1    1    6    6  503    0 -0.20096977400E+03  0.16552935094E+03 -0.21512675048E+03  0.33774004035E+03  0.00000000000E+00 0. -1.
         -1    1    6    6    0  503 -0.58258853497E+03  0.35843982096E+03 -0.42238398268E+03  0.80392582690E+03  0.00000000000E+00 0.  1.
<mgrwt>
<rscale>  0 0.30456419E+04</rscale>
<asrwt>0</asrwt>
<pdfrwt beam="1">  1        2 0.16413320E+00 0.30456419E+04</pdfrwt>
<pdfrwt beam="2">  1       -1 0.33440637E+00 0.30456419E+04</pdfrwt>
<totfact> 0.43711926E-01</totfact>
</mgrwt>
</event>
<event>
12    7  0.1660832E-007  0.1762719E+04  0.7818608E-02  0.8726380E-01
          2   -1    0    0  501    0  0.00000000000E+00  0.00000000000E+00  0.30211708505E+04  0.30211708505E+04  0.00000000000E+00 0. -1.
         -1   -1    0    0    0  501 -0.00000000000E+00 -0.00000000000E+00 -0.25711710139E+03  0.25711710139E+03  0.00000000000E+00 0.  1.
         24    2    1    2    0    0  0.42889197734E+03  0.21616921863E+03  0.18165231253E+03  0.52009304534E+03  0.82593909247E+02 0.  0.
        254    2    1    2    0    0 -0.42889197734E+03 -0.21616921863E+03  0.25824014366E+04  0.27581949066E+04  0.84152510569E+03 0.  0.
         23    2    4    4    0    0  0.10522860902E+03  0.19878648186E+03  0.36312769915E+03  0.43632502316E+03  0.89043104283E+02 0.  0.
         23    2    4    4    0    0 -0.53412058636E+03 -0.41495570049E+03  0.22192737374E+04  0.23218698834E+04  0.91819385520E+02 0.  0.
          4    1    3    3  502    0  0.81401272261E+02  0.88173022393E+01  0.41982754560E+02  0.92013388292E+02  0.00000000000E+00 0. -1.
         -1    1    3    3    0  502  0.34749070508E+03  0.20735191639E+03  0.13966955797E+03  0.42807965704E+03  0.00000000000E+00 0.  1.
         13    1    5    5    0    0  0.86548663068E+02  0.12108371998E+03  0.29849528422E+03  0.33354365985E+03  0.00000000000E+00 0.  1.
        -13    1    5    5    0    0  0.18679945952E+02  0.77702761883E+02  0.64632414928E+02  0.10278136331E+03  0.00000000000E+00 0. -1.
          2    1    6    6  503    0 -0.20933646877E+03 -0.16578673889E+03  0.10328698030E+04  0.10668303660E+04  0.00000000000E+00 0. -1.
         -2    1    6    6    0  503 -0.32478411760E+03 -0.24916896160E+03  0.11864039345E+04  0.12550395174E+04  0.00000000000E+00 0.  1.
<mgrwt>
<rscale>  0 0.17627191E+04</rscale>
<asrwt>0</asrwt>
<pdfrwt beam="1">  1        2 0.46479549E+00 0.17627191E+04</pdfrwt>
<pdfrwt beam="2">  1       -1 0.39556479E-01 0.17627191E+04</pdfrwt>
<totfact> 0.11366194E+01</totfact>
</mgrwt>
</event>
<event>
12    7  0.1660832E-007  0.1361530E+04  0.7818608E-02  0.8982146E-01
          2   -1    0    0  501    0  0.00000000000E+00  0.00000000000E+00  0.80669676268E+03  0.80669676268E+03  0.00000000000E+00 0. -1.
         -1   -1    0    0    0  501 -0.00000000000E+00 -0.00000000000E+00 -0.57449190768E+03  0.57449190768E+03  0.00000000000E+00 0.  1.
         24    2    1    2    0    0  0.73394059131E+02 -0.22049221713E+03 -0.23622914206E+03  0.34085534928E+03  0.79841441901E+02 0.  0.
        254    2    1    2    0    0 -0.73394059131E+02  0.22049221713E+03  0.46843399706E+03  0.10403333211E+04  0.89936616771E+03 0.  0.
         23    2    4    4    0    0 -0.58607524949E+02  0.51895108227E+03  0.70588665420E+02  0.53445830241E+03  0.88982299164E+02 0.  0.
         23    2    4    4    0    0 -0.14786534182E+02 -0.29845886514E+03  0.39784533164E+03  0.50587501867E+03  0.91281382735E+02 0.  0.
          4    1    3    3  502    0 -0.22875063641E+01 -0.10649658314E+03 -0.80264076576E+02  0.13337569829E+03  0.00000000000E+00 0. -1.
         -3    1    3    3    0  502  0.75681565495E+02 -0.11399563400E+03 -0.15596506548E+03  0.20747965100E+03  0.00000000000E+00 0.  1.
         13    1    5    5    0    0 -0.23233960740E+02  0.24842844075E+02  0.96133854856E+01  0.35346867102E+02  0.00000000000E+00 0. -1.
        -13    1    5    5    0    0 -0.35373564209E+02  0.49410823819E+03  0.60975279935E+02  0.49911143531E+03  0.00000000000E+00 0.  1.
          3    1    6    6  503    0  0.38160633447E+02 -0.14742213969E+03  0.18679010778E+03  0.24099806136E+03  0.00000000000E+00 0. -1.
         -3    1    6    6    0  503 -0.52947167629E+02 -0.15103672544E+03  0.21105522386E+03  0.26487695731E+03  0.00000000000E+00 0.  1.
<mgrwt>
<rscale>  0 0.13615297E+04</rscale>
<asrwt>0</asrwt>
<pdfrwt beam="1">  1        2 0.12410719E+00 0.13615297E+04</pdfrwt>
<pdfrwt beam="2">  1       -1 0.88383370E-01 0.13615297E+04</pdfrwt>
<totfact> 0.47739044E+01</totfact>
</mgrwt>
</event>
<event>
12    7  0.1660832E-007  0.1166817E+04  0.7818608E-02  0.9142407E-01
         -1   -1    0    0    0  501 -0.00000000000E+00  0.00000000000E+00  0.37886386563E+03  0.37886386563E+03  0.00000000000E+00 0.  1.
          2   -1    0    0  501    0  0.00000000000E+00 -0.00000000000E+00 -0.89838538801E+03  0.89838538801E+03  0.00000000000E+00 0. -1.
         24    2    1    2    0    0 -0.15966699158E+03  0.15392475993E+03 -0.55923454662E+02  0.24212195836E+03  0.79430661714E+02 0.  0.
        254    2    1    2    0    0  0.15966699158E+03 -0.15392475993E+03 -0.46359806772E+03  0.10351272953E+04  0.89854269189E+03 0.  0.
         23    2    4    4    0    0  0.89062236874E+02  0.17749316857E+03  0.19239665318E+03  0.29110553668E+03  0.91049735908E+02 0.  0.
         23    2    4    4    0    0  0.70604754702E+02 -0.33141792849E+03 -0.65599472089E+03  0.74402175860E+03  0.91741096169E+02 0.  0.
          4    1    3    3  502    0 -0.14860474288E+03  0.16348890974E+03 -0.53154572169E+02  0.22723864495E+03  0.00000000000E+00 0. -1.
         -3    1    3    3    0  502 -0.11062248695E+02 -0.95641498133E+01 -0.27688824924E+01  0.14883313411E+02  0.00000000000E+00 0.  1.
         13    1    5    5    0    0  0.94232597652E+02  0.18587350457E+03  0.18081469691E+03  0.27590341930E+03  0.00000000000E+00 0.  1.
        -13    1    5    5    0    0 -0.51703607781E+01 -0.83803360013E+01  0.11581956264E+02  0.15202117385E+02  0.00000000000E+00 0. -1.
          1    1    6    6  503    0  0.84211730584E+02 -0.17856413280E+03 -0.38057432651E+03  0.42873486340E+03  0.00000000000E+00 0. -1.
         -1    1    6    6    0  503 -0.13606975882E+02 -0.15285379569E+03 -0.27542039438E+03  0.31528689521E+03  0.00000000000E+00 0.  1.
<mgrwt>
<rscale>  0 0.11668175E+04</rscale>
<asrwt>0</asrwt>
<pdfrwt beam="1">  1        2 0.13821313E+00 0.11668175E+04</pdfrwt>
<pdfrwt beam="2">  1       -1 0.58286750E-01 0.11668175E+04</pdfrwt>
<totfact> 0.98923011E+01</totfact>
</mgrwt>
</event>
<event>
12    7  0.1660832E-007  0.1716335E+04  0.7818608E-02  0.8752103E-01
         -1   -1    0    0    0  501 -0.00000000000E+00  0.00000000000E+00  0.35447561361E+03  0.35447561361E+03  0.00000000000E+00 0.  1.
          2   -1    0    0  501    0  0.00000000000E+00 -0.00000000000E+00 -0.20775790382E+04  0.20775790382E+04  0.00000000000E+00 0. -1.
         24    2    1    2    0    0 -0.39671208171E+01 -0.27236732979E+03  0.16226565666E+03  0.32643511230E+03  0.77653324625E+02 0.  0.
        254    2    1    2    0    0  0.39671208171E+01  0.27236732979E+03 -0.18853690812E+04  0.21056195395E+04  0.89711614200E+03 0.  0.
         23    2    4    4    0    0 -0.20454421427E+03 -0.23015633527E+03 -0.35580511957E+03  0.47957256742E+03  0.92640650106E+02 0.  0.
         23    2    4    4    0    0  0.20851133509E+03  0.50252366506E+03 -0.15295639616E+04  0.16260469720E+04  0.91955596737E+02 0.  0.
          4    1    3    3  502    0  0.23307775941E+02 -0.43127190506E+02  0.10423972877E+02  0.50118521435E+02  0.00000000000E+00 0. -1.
         -3    1    3    3    0  502 -0.27274896758E+02 -0.22924013928E+03  0.15184168379E+03  0.27631659086E+03  0.00000000000E+00 0.  1.
         13    1    5    5    0    0 -0.54019831149E+02 -0.36385784718E+02 -0.13322021139E+03  0.14828921812E+03  0.00000000000E+00 0. -1.
        -13    1    5    5    0    0 -0.15052438312E+03 -0.19377055055E+03 -0.22258490818E+03  0.33128334931E+03  0.00000000000E+00 0.  1.
          2    1    6    6  503    0  0.17705732691E+03  0.44230275082E+03 -0.14126511253E+04  0.14908266909E+04  0.00000000000E+00 0.  1.
         -2    1    6    6    0  503  0.31454008181E+02  0.60220914232E+02 -0.11691283632E+03  0.13522028116E+03  0.00000000000E+00 0. -1.
<mgrwt>
<rscale>  0 0.17163346E+04</rscale>
<asrwt>0</asrwt>
<pdfrwt beam="1">  1        2 0.31962755E+00 0.17163346E+04</pdfrwt>
<pdfrwt beam="2">  1       -1 0.54534709E-01 0.17163346E+04</pdfrwt>
<totfact> 0.22238401E+01</totfact>
</mgrwt>
</event>
<event>
12    7  0.1660832E-007  0.1528237E+04  0.7818608E-02  0.8865890E-01
          2   -1    0    0  501    0  0.00000000000E+00  0.00000000000E+00  0.15006060584E+04  0.15006060584E+04  0.00000000000E+00 0. -1.
         -1   -1    0    0    0  501 -0.00000000000E+00 -0.00000000000E+00 -0.38909403232E+03  0.38909403232E+03  0.00000000000E+00 0.  1.
         24    2    1    2    0    0 -0.28306414526E+03  0.32346446124E+03  0.49793771589E+02  0.44003536314E+03  0.79982079918E+02 0.  0.
        254    2    1    2    0    0  0.28306414526E+03 -0.32346446124E+03  0.10617182545E+04  0.14496647276E+04  0.88855365762E+03 0.  0.
         23    2    4    4    0    0 -0.97969504438E+02 -0.47849023905E+03  0.83387816970E+03  0.97064383155E+03  0.90805909198E+02 0.  0.
         23    2    4    4    0    0  0.38103364970E+03  0.15502577782E+03  0.22784008478E+03  0.47902089603E+03  0.91270370942E+02 0.  0.
          2    1    3    3  502    0 -0.25677750015E+02  0.26431330735E+02  0.28209228762E+02  0.46408217780E+02  0.00000000000E+00 0. -1.
         -1    1    3    3    0  502 -0.25738639524E+03  0.29703313050E+03  0.21584542827E+02  0.39362714536E+03  0.00000000000E+00 0.  1.
         13    1    5    5    0    0 -0.66387264222E+02 -0.38194610282E+03  0.58456612243E+03  0.70143256683E+03  0.00000000000E+00 0. -1.
        -13    1    5    5    0    0 -0.31582240216E+02 -0.96544136234E+02  0.24931204727E+03  0.26921126472E+03  0.00000000000E+00 0.  1.
          4    1    6    6  503    0  0.36729820144E+03  0.13415810287E+03  0.23047502698E+03  0.45389988258E+03  0.00000000000E+00 0. -1.
         -4    1    6    6    0  503  0.13735448255E+02  0.20867674944E+02 -0.26349421933E+01  0.25121013448E+02  0.00000000000E+00 0.  1.
<mgrwt>
<rscale>  0 0.15282367E+04</rscale>
<asrwt>0</asrwt>
<pdfrwt beam="1">  1        2 0.23086247E+00 0.15282367E+04</pdfrwt>
<pdfrwt beam="2">  1       -1 0.59860621E-01 0.15282367E+04</pdfrwt>
<totfact> 0.39427729E+01</totfact>
</mgrwt>
</event>
<event>
12    7  0.1660832E-007  0.3434106E+04  0.7818608E-02  0.8129586E-01
         -1   -1    0    0    0  501 -0.00000000000E+00  0.00000000000E+00  0.14700199529E+04  0.14700199529E+04  0.00000000000E+00 0.  1.
          2   -1    0    0  501    0  0.00000000000E+00 -0.00000000000E+00 -0.20055991535E+04  0.20055991535E+04  0.00000000000E+00 0. -1.
         24    2    1    2    0    0 -0.66056096383E+03  0.13096018320E+04  0.37511622794E+03  0.15160737854E+04  0.79810982805E+02 0.  0.
        254    2    1    2    0    0  0.66056096383E+03 -0.13096018320E+04 -0.91069542856E+03  0.19595453210E+04  0.92685163640E+03 0.  0.
         23    2    4    4    0    0  0.80030489478E+03 -0.59632521844E+03 -0.53826204645E+03  0.11375603356E+04  0.90696172763E+02 0.  0.
         23    2    4    4    0    0 -0.13974393095E+03 -0.71327661359E+03 -0.37243338211E+03  0.82198498535E+03  0.93063410083E+02 0.  0.
          2    1    3    3  502    0 -0.56493943771E+02  0.16501972965E+03  0.54650125894E+02  0.18278324080E+03  0.00000000000E+00 0. -1.
         -1    1    3    3    0  502 -0.60406702006E+03  0.11445821024E+04  0.32046610205E+03  0.13332905446E+04  0.00000000000E+00 0.  1.
         13    1    5    5    0    0  0.17701287378E+03 -0.87187781254E+02 -0.10946356380E+03  0.22564914909E+03  0.00000000000E+00 0. -1.
        -13    1    5    5    0    0  0.62329202100E+03 -0.50913743719E+03 -0.42879848265E+03  0.91191118652E+03  0.00000000000E+00 0.  1.
          3    1    6    6  503    0 -0.23124415970E+02 -0.35357698467E+03 -0.19204167454E+03  0.40302782467E+03  0.00000000000E+00 0. -1.
         -3    1    6    6    0  503 -0.11661951498E+03 -0.35969962892E+03 -0.18039170757E+03  0.41895716067E+03  0.00000000000E+00 0.  1.
<mgrwt>
<rscale>  0 0.34341059E+04</rscale>
<asrwt>0</asrwt>
<pdfrwt beam="1">  1        2 0.30855371E+00 0.34341059E+04</pdfrwt>
<pdfrwt beam="2">  1       -1 0.22615692E+00 0.34341059E+04</pdfrwt>
<totfact> 0.62402916E-01</totfact>
</mgrwt>
</event>
<event>
12    7  0.1660832E-007  0.2057446E+04  0.7818608E-02  0.8580224E-01
          2   -1    0    0  501    0  0.00000000000E+00  0.00000000000E+00  0.23328279021E+04  0.23328279021E+04  0.00000000000E+00 0. -1.
         -1   -1    0    0    0  501 -0.00000000000E+00 -0.00000000000E+00 -0.45364304091E+03  0.45364304091E+03  0.00000000000E+00 0.  1.
         24    2    1    2    0    0 -0.20685472746E+03  0.76424898302E+03  0.10833561990E+04  0.13442682011E+04  0.80814333045E+02 0.  0.
        254    2    1    2    0    0  0.20685472746E+03 -0.76424898302E+03  0.79582866221E+03  0.14422027419E+04  0.90539499819E+03 0.  0.
         23    2    4    4    0    0 -0.23151490017E+03  0.21074430718E+02  0.36111723149E+03  0.43913732937E+03  0.91611454199E+02 0.  0.
         23    2    4    4    0    0  0.43836962763E+03 -0.78532341373E+03  0.43471143072E+03  0.10030654125E+04  0.90914240697E+02 0.  0.
          4    1    3    3  502    0 -0.21081900458E+03  0.69945805061E+03  0.98263255796E+03  0.12244398561E+04  0.00000000000E+00 0. -1.
         -3    1    3    3    0  502  0.39642771125E+01  0.64790932406E+02  0.10072364099E+03  0.11982834502E+03  0.00000000000E+00 0.  1.
         13    1    5    5    0    0 -0.47464928738E+01  0.21647479261E+02  0.44192711183E+02  0.49438226856E+02  0.00000000000E+00 0.  1.
        -13    1    5    5    0    0 -0.22676840729E+03 -0.57304854301E+00  0.31692452031E+03  0.38969910251E+03  0.00000000000E+00 0. -1.
          3    1    6    6  503    0  0.35962569350E+03 -0.56409091019E+03  0.33019855232E+03  0.74602967658E+03  0.00000000000E+00 0. -1.
         -3    1    6    6    0  503  0.78743934128E+02 -0.22123250354E+03  0.10451287840E+03  0.25703573591E+03  0.00000000000E+00 0.  1.
<mgrwt>
<rscale>  0 0.20574461E+04</rscale>
<asrwt>0</asrwt>
<pdfrwt beam="1">  1        2 0.35889659E+00 0.20574461E+04</pdfrwt>
<pdfrwt beam="2">  1       -1 0.69791239E-01 0.20574461E+04</pdfrwt>
<totfact> 0.94912158E+00</totfact>
</mgrwt>
</event>
<event>
12    7  0.1660832E-007  0.1650602E+04  0.7818608E-02  0.8790051E-01
         -1   -1    0    0    0  501 -0.00000000000E+00  0.00000000000E+00  0.65796434961E+03  0.65796434961E+03  0.00000000000E+00 0.  1.
          2   -1    0    0  501    0  0.00000000000E+00 -0.00000000000E+00 -0.10351950700E+04  0.10351950700E+04  0.00000000000E+00 0. -1.
         24    2    1    2    0    0  0.29352526297E+03  0.43056903094E+03  0.12384713797E+03  0.54232865919E+03  0.85061686967E+02 0.  0.
        254    2    1    2    0    0 -0.29352526297E+03 -0.43056903094E+03 -0.50107785836E+03  0.11508307604E+04  0.89542484251E+03 0.  0.
         23    2    4    4    0    0  0.24585233184E+03 -0.22241575366E+03 -0.44295794674E+03  0.56133406586E+03  0.94720928904E+02 0.  0.
         23    2    4    4    0    0 -0.53937759481E+03 -0.20815327729E+03 -0.58119911613E+02  0.58949669455E+03  0.99360214034E+02 0.  0.
          2    1    3    3  502    0  0.57764743965E+02  0.67264407440E+02  0.53502714463E+02  0.10355581398E+03  0.00000000000E+00 0. -1.
         -1    1    3    3    0  502  0.23576051901E+03  0.36330462350E+03  0.70344423509E+02  0.43877284522E+03  0.00000000000E+00 0.  1.
         13    1    5    5    0    0  0.16444343834E+03 -0.10634745110E+03 -0.19917402906E+03  0.27932368074E+03  0.00000000000E+00 0.  1.
        -13    1    5    5    0    0  0.81408893500E+02 -0.11606830256E+03 -0.24378391768E+03  0.28201038513E+03  0.00000000000E+00 0. -1.
          1    1    6    6  503    0 -0.95658742451E+02 -0.25265629732E+02 -0.46755850405E+02  0.10943060175E+03  0.00000000000E+00 0. -1.
         -1    1    6    6    0  503 -0.44371885236E+03 -0.18288764755E+03 -0.11364061208E+02  0.48006609280E+03  0.00000000000E+00 0.  1.
<mgrwt>
<rscale>  0 0.16506016E+04</rscale>
<asrwt>0</asrwt>
<pdfrwt beam="1">  1        2 0.15926078E+00 0.16506016E+04</pdfrwt>
<pdfrwt beam="2">  1       -1 0.10122528E+00 0.16506016E+04</pdfrwt>
<totfact> 0.24160448E+01</totfact>
</mgrwt>
</event>
<event>
12    7  0.1660832E-007  0.3612840E+04  0.7818608E-02  0.8087557E-01
          2   -1    0    0  501    0  0.00000000000E+00  0.00000000000E+00  0.17579079779E+04  0.17579079779E+04  0.00000000000E+00 0. -1.
         -1   -1    0    0    0  501 -0.00000000000E+00 -0.00000000000E+00 -0.18562707494E+04  0.18562707494E+04  0.00000000000E+00 0.  1.
         24    2    1    2    0    0  0.16770155892E+04  0.16091966106E+03  0.10322002517E+03  0.16897068554E+04  0.78603179967E+02 0.  0.
        254    2    1    2    0    0 -0.16770155892E+04 -0.16091966106E+03 -0.20158279662E+03  0.19244718719E+04  0.90811890075E+03 0.  0.
         23    2    4    4    0    0 -0.41887833667E+03 -0.41720923826E+03  0.89267535141E+02  0.60491314447E+03  0.91807462128E+02 0.  0.
         23    2    4    4    0    0 -0.12581372526E+04  0.25628957720E+03 -0.29085033176E+03  0.13195587274E+04  0.89708561063E+02 0.  0.
          4    1    3    3  502    0  0.10393221143E+04  0.12005262635E+03  0.96452456253E+02  0.10506693898E+04  0.00000000000E+00 0. -1.
         -3    1    3    3    0  502  0.63769347491E+03  0.40867034709E+02  0.67675689143E+01  0.63903746561E+03  0.00000000000E+00 0.  1.
         13    1    5    5    0    0 -0.37825236972E+03 -0.39468217910E+03  0.59870751116E+02  0.54993943715E+03  0.00000000000E+00 0. -1.
        -13    1    5    5    0    0 -0.40625966949E+02 -0.22527059156E+02  0.29396784025E+02  0.54973707313E+02  0.00000000000E+00 0.  1.
          1    1    6    6  503    0 -0.12101087222E+04  0.26343426858E+03 -0.27675555961E+03  0.12689973889E+04  0.00000000000E+00 0. -1.
         -1    1    6    6    0  503 -0.48028530390E+02 -0.71446913866E+01 -0.14094772157E+02  0.50561338477E+02  0.00000000000E+00 0.  1.
<mgrwt>
<rscale>  0 0.36128400E+04</rscale>
<asrwt>0</asrwt>
<pdfrwt beam="1">  1        2 0.27044738E+00 0.36128400E+04</pdfrwt>
<pdfrwt beam="2">  1       -1 0.28558011E+00 0.36128400E+04</pdfrwt>
<totfact> 0.34552276E-01</totfact>
</mgrwt>
</event>
<event>
12    7  0.1660832E-007  0.2488678E+04  0.7818608E-02  0.8407030E-01
          2   -1    0    0  501    0  0.00000000000E+00  0.00000000000E+00  0.17482601682E+04  0.17482601682E+04  0.00000000000E+00 0. -1.
         -1   -1    0    0    0  501 -0.00000000000E+00 -0.00000000000E+00 -0.88566859349E+03  0.88566859349E+03  0.00000000000E+00 0.  1.
         24    2    1    2    0    0  0.10106525026E+04 -0.39415115447E+03  0.45447767028E+03  0.11791145987E+04  0.83592287934E+02 0.  0.
        254    2    1    2    0    0 -0.10106525026E+04  0.39415115447E+03  0.40811390447E+03  0.14548141630E+04  0.87929157641E+03 0.  0.
         23    2    4    4    0    0 -0.67718204242E+03  0.63905751000E+03  0.12201717345E+03  0.94392753700E+03  0.95608497575E+02 0.  0.
         23    2    4    4    0    0 -0.33347046015E+03 -0.24490635553E+03  0.28609673102E+03  0.51088662601E+03  0.89286809598E+02 0.  0.
          2    1    3    3  502    0  0.65839736062E+03 -0.28624804836E+03  0.33100925169E+03  0.79056445302E+03  0.00000000000E+00 0. -1.
         -1    1    3    3    0  502  0.35225514194E+03 -0.10790310611E+03  0.12346841859E+03  0.38855014570E+03  0.00000000000E+00 0.  1.
         13    1    5    5    0    0 -0.67685004824E+03  0.62528666028E+03  0.11547664770E+03  0.92867876658E+03  0.00000000000E+00 0. -1.
        -13    1    5    5    0    0 -0.33199418554E+00  0.13770849721E+02  0.65405257505E+01  0.15248770418E+02  0.00000000000E+00 0.  1.
          4    1    6    6  503    0 -0.74537216795E+02 -0.10486425745E+03  0.79286562640E+02  0.15112467765E+03  0.00000000000E+00 0. -1.
         -4    1    6    6    0  503 -0.25893324335E+03 -0.14004209808E+03  0.20681016838E+03  0.35976194837E+03  0.00000000000E+00 0.  1.
<mgrwt>
<rscale>  0 0.24886777E+04</rscale>
<asrwt>0</asrwt>
<pdfrwt beam="1">  1        2 0.26896310E+00 0.24886777E+04</pdfrwt>
<pdfrwt beam="2">  1       -1 0.13625671E+00 0.24886777E+04</pdfrwt>
<totfact> 0.42142051E+00</totfact>
</mgrwt>
</event>
<event>
12    7  0.1660832E-007  0.1416637E+04  0.7818608E-02  0.8941863E-01
         -1   -1    0    0    0  501 -0.00000000000E+00  0.00000000000E+00  0.52334263972E+03  0.52334263972E+03  0.00000000000E+00 0.  1.
          2   -1    0    0  501    0  0.00000000000E+00 -0.00000000000E+00 -0.95867411784E+03  0.95867411784E+03  0.00000000000E+00 0. -1.
         24    2    1    2    0    0  0.40695493545E+03  0.16589893105E+02 -0.20992138425E+03  0.46502823104E+03  0.79351900171E+02 0.  0.
        254    2    1    2    0    0 -0.40695493545E+03 -0.16589893105E+02 -0.22541009387E+03  0.10169885265E+04  0.90419489526E+03 0.  0.
         23    2    4    4    0    0  0.10818765899E+03  0.32897802468E+03 -0.13625619230E+03  0.38348222837E+03  0.92529774989E+02 0.  0.
         23    2    4    4    0    0 -0.51514259444E+03 -0.34556791778E+03 -0.89153901575E+02  0.63350629815E+03  0.92696996835E+02 0.  0.
          4    1    3    3  502    0  0.32855969680E+03  0.44861249656E+02 -0.16679610659E+03  0.37119394830E+03  0.00000000000E+00 0. -1.
         -3    1    3    3    0  502  0.78395238644E+02 -0.28271356551E+02 -0.43125277659E+02  0.93834282735E+02  0.00000000000E+00 0.  1.
         13    1    5    5    0    0  0.40396787457E+02  0.21139134599E+03 -0.12099951974E+03  0.24689893757E+03  0.00000000000E+00 0.  1.
        -13    1    5    5    0    0  0.67790871537E+02  0.11758667869E+03 -0.15256672553E+02  0.13658329080E+03  0.00000000000E+00 0. -1.
          1    1    6    6  503    0 -0.21870205071E+03 -0.19680556341E+03 -0.21477639425E+02  0.29499882334E+03  0.00000000000E+00 0. -1.
         -1    1    6    6    0  503 -0.29644054373E+03 -0.14876235437E+03 -0.67676262150E+02  0.33850747481E+03  0.00000000000E+00 0.  1.
<mgrwt>
<rscale>  0 0.14166369E+04</rscale>
<asrwt>0</asrwt>
<pdfrwt beam="1">  1        2 0.14748832E+00 0.14166369E+04</pdfrwt>
<pdfrwt beam="2">  1       -1 0.80514253E-01 0.14166369E+04</pdfrwt>
<totfact> 0.45747770E+01</totfact>
</mgrwt>
</event>
<event>
12    7  0.1660832E-007  0.1722652E+04  0.7818608E-02  0.8748549E-01
         -1   -1    0    0    0  501 -0.00000000000E+00  0.00000000000E+00  0.77930149581E+03  0.77930149581E+03  0.00000000000E+00 0.  1.
          2   -1    0    0  501    0  0.00000000000E+00 -0.00000000000E+00 -0.95198416776E+03  0.95198416776E+03  0.00000000000E+00 0. -1.
         24    2    1    2    0    0 -0.24593940619E+03  0.49542538869E+03  0.23061690531E+03  0.60515450531E+03  0.84233669125E+02 0.  0.
        254    2    1    2    0    0  0.24593940619E+03 -0.49542538869E+03 -0.40329957726E+03  0.11261311583E+04  0.89419703048E+03 0.  0.
         23    2    4    4    0    0  0.10467223153E+03 -0.68871142170E+03 -0.68738109040E+02  0.70638682894E+03  0.94750862983E+02 0.  0.
         23    2    4    4    0    0  0.14126717466E+03  0.19328603301E+03 -0.33456146822E+03  0.41974432932E+03  0.83294782491E+02 0.  0.
          2    1    3    3  502    0 -0.19404569915E+02  0.82254456912E+02  0.61521507885E+02  0.10453338676E+03  0.00000000000E+00 0. -1.
         -1    1    3    3    0  502 -0.22653483627E+03  0.41317093177E+03  0.16909539742E+03  0.50062111855E+03  0.00000000000E+00 0.  1.
         13    1    5    5    0    0  0.52680330862E+02 -0.44415038794E+03 -0.68455222451E+00  0.44726418701E+03  0.00000000000E+00 0.  1.
        -13    1    5    5    0    0  0.51991900668E+02 -0.24456103376E+03 -0.68053556815E+02  0.25912264194E+03  0.00000000000E+00 0. -1.
          1    1    6    6  503    0  0.11585789200E+03  0.92565096597E+02 -0.21743912681E+03  0.26319407690E+03  0.00000000000E+00 0. -1.
         -1    1    6    6    0  503  0.25409282659E+02  0.10072093641E+03 -0.11712234140E+03  0.15655025242E+03  0.00000000000E+00 0.  1.
<mgrwt>
<rscale>  0 0.17226522E+04</rscale>
<asrwt>0</asrwt>
<pdfrwt beam="1">  1        2 0.14645910E+00 0.17226522E+04</pdfrwt>
<pdfrwt beam="2">  1       -1 0.11989254E+00 0.17226522E+04</pdfrwt>
<totfact> 0.18205637E+01</totfact>
</mgrwt>
</event>
<event>
12    7  0.1660832E-007  0.2039601E+04  0.7818608E-02  0.8588327E-01
         -1   -1    0    0    0  501 -0.00000000000E+00  0.00000000000E+00  0.52777538121E+03  0.52777538121E+03  0.00000000000E+00 0.  1.
          2   -1    0    0  501    0  0.00000000000E+00 -0.00000000000E+00 -0.19705216323E+04  0.19705216323E+04  0.00000000000E+00 0. -1.
         24    2    1    2    0    0  0.39891074803E+03 -0.23627708350E+02 -0.14552289846E+04  0.15112195856E+04  0.80032398438E+02 0.  0.
        254    2    1    2    0    0 -0.39891074803E+03  0.23627708350E+02  0.12482733510E+02  0.98707742791E+03  0.90248433591E+03 0.  0.
         23    2    4    4    0    0  0.26883786844E+03  0.86502613904E+02  0.79426489147E+02  0.30696227718E+03  0.90336984187E+02 0.  0.
         23    2    4    4    0    0 -0.66774861647E+03 -0.62874905554E+02 -0.66943755637E+02  0.68011515073E+03  0.90739645616E+02 0.  0.
          4    1    3    3  502    0  0.21349347987E+03 -0.36783604788E+02 -0.66391930000E+03  0.69837048652E+03  0.00000000000E+00 0. -1.
         -3    1    3    3    0  502  0.18541726816E+03  0.13155896438E+02 -0.79130968460E+03  0.81284909909E+03  0.00000000000E+00 0.  1.
         13    1    5    5    0    0  0.21785620100E+03  0.58328518797E+02  0.24422993233E+02  0.22684801744E+03  0.00000000000E+00 0.  1.
        -13    1    5    5    0    0  0.50981667441E+02  0.28174095108E+02  0.55003495914E+02  0.80114259736E+02  0.00000000000E+00 0. -1.
          2    1    6    6  503    0 -0.30247277693E+03 -0.30879576466E+02 -0.75734513907E+02  0.31333535648E+03  0.00000000000E+00 0. -1.
         -2    1    6    6    0  503 -0.36527583955E+03 -0.31995329088E+02  0.87907582702E+01  0.36677979425E+03  0.00000000000E+00 0.  1.
<mgrwt>
<rscale>  0 0.20396008E+04</rscale>
<asrwt>0</asrwt>
<pdfrwt beam="1">  1        2 0.30315718E+00 0.20396008E+04</pdfrwt>
<pdfrwt beam="2">  1       -1 0.81196210E-01 0.20396008E+04</pdfrwt>
<totfact> 0.11054609E+01</totfact>
</mgrwt>
</event>
<event>
12    7  0.1660832E-007  0.1891484E+04  0.7818608E-02  0.8659107E-01
         -1   -1    0    0    0  501 -0.00000000000E+00  0.00000000000E+00  0.59360509460E+03  0.59360509460E+03  0.00000000000E+00 0.  1.
          2   -1    0    0  501    0  0.00000000000E+00 -0.00000000000E+00 -0.15067730312E+04  0.15067730312E+04  0.00000000000E+00 0. -1.
         24    2    1    2    0    0 -0.59313339756E+03 -0.42025153464E+03 -0.31881377014E+03  0.79765670250E+03  0.78710960783E+02 0.  0.
        254    2    1    2    0    0  0.59313339756E+03  0.42025153464E+03 -0.59435416650E+03  0.13027214233E+04  0.90299925356E+03 0.  0.
         23    2    4    4    0    0 -0.99002722157E+02  0.19795315906E+03 -0.51279225812E+03  0.56568457796E+03  0.89756055894E+02 0.  0.
         23    2    4    4    0    0  0.69213611972E+03  0.22229837558E+03 -0.81561908373E+02  0.73703684539E+03  0.90011057955E+02 0.  0.
          2    1    3    3  502    0 -0.43526040927E+03 -0.26414909226E+03 -0.22415370853E+03  0.55630140380E+03  0.00000000000E+00 0. -1.
         -1    1    3    3    0  502 -0.15787298829E+03 -0.15610244238E+03 -0.94660061607E+02  0.24135529870E+03  0.00000000000E+00 0.  1.
         13    1    5    5    0    0 -0.89381170831E+02  0.94944202560E+02 -0.22760710400E+03  0.26231353204E+03  0.00000000000E+00 0. -1.
        -13    1    5    5    0    0 -0.96215513261E+01  0.10300895650E+03 -0.28518515412E+03  0.30337104592E+03  0.00000000000E+00 0.  1.
          2    1    6    6  503    0  0.53266639421E+03  0.19213731778E+03 -0.31254240055E+02  0.56712173642E+03  0.00000000000E+00 0. -1.
         -2    1    6    6    0  503  0.15946972552E+03  0.30161057798E+02 -0.50307668318E+02  0.16991510897E+03  0.00000000000E+00 0.  1.
<mgrwt>
<rscale>  0 0.18914842E+04</rscale>
<asrwt>0</asrwt>
<pdfrwt beam="1">  1        2 0.23181123E+00 0.18914842E+04</pdfrwt>
<pdfrwt beam="2">  1       -1 0.91323861E-01 0.18914842E+04</pdfrwt>
<totfact> 0.15713698E+01</totfact>
</mgrwt>
</event>
<event>
12    7  0.1660832E-007  0.2204193E+04  0.7818608E-02  0.8516685E-01
          2   -1    0    0  501    0  0.00000000000E+00  0.00000000000E+00  0.10486976577E+04  0.10486976577E+04  0.00000000000E+00 0. -1.
         -1   -1    0    0    0  501 -0.00000000000E+00 -0.00000000000E+00 -0.11582143173E+04  0.11582143173E+04  0.00000000000E+00 0.  1.
         24    2    1    2    0    0  0.77705847337E+03  0.47243522680E+03  0.73736229546E+02  0.91588827872E+03  0.79996206117E+02 0.  0.
        254    2    1    2    0    0 -0.77705847337E+03 -0.47243522680E+03 -0.18325288916E+03  0.12910236963E+04  0.89785614011E+03 0.  0.
         23    2    4    4    0    0 -0.15907010831E+03 -0.58686488441E+03 -0.22469659584E+03  0.65465543149E+03  0.91495802570E+02 0.  0.
         23    2    4    4    0    0 -0.61798836506E+03  0.11442965761E+03  0.41443706687E+02  0.63636826476E+03  0.90792189519E+02 0.  0.
          2    1    3    3  502    0  0.49285576158E+03  0.28937272789E+03  0.84042897121E+02  0.57767342498E+03  0.00000000000E+00 0. -1.
         -1    1    3    3    0  502  0.28420271178E+03  0.18306249891E+03 -0.10306667576E+02  0.33821485374E+03  0.00000000000E+00 0.  1.
         13    1    5    5    0    0 -0.53611175630E+02 -0.33573021366E+03 -0.15409685697E+03  0.37327573702E+03  0.00000000000E+00 0. -1.
        -13    1    5    5    0    0 -0.10545893268E+03 -0.25113467075E+03 -0.70599738870E+02  0.28137969448E+03  0.00000000000E+00 0.  1.
          1    1    6    6  503    0 -0.36621053124E+03  0.65254773021E+02 -0.20213233184E+02  0.37252773506E+03  0.00000000000E+00 0. -1.
         -1    1    6    6    0  503 -0.25177783382E+03  0.49174884586E+02  0.61656939871E+02  0.26384052970E+03  0.00000000000E+00 0.  1.
<mgrwt>
<rscale>  0 0.22041930E+04</rscale>
<asrwt>0</asrwt>
<pdfrwt beam="1">  1        2 0.16133810E+00 0.22041930E+04</pdfrwt>
<pdfrwt beam="2">  1       -1 0.17818682E+00 0.22041930E+04</pdfrwt>
<totfact> 0.52409224E+00</totfact>
</mgrwt>
</event>
<event>
12    7  0.1660832E-007  0.2006133E+04  0.7818608E-02  0.8603759E-01
         -1   -1    0    0    0  501 -0.00000000000E+00  0.00000000000E+00  0.60003223527E+03  0.60003223527E+03  0.00000000000E+00 0.  1.
          2   -1    0    0  501    0  0.00000000000E+00 -0.00000000000E+00 -0.16768138436E+04  0.16768138436E+04  0.00000000000E+00 0. -1.
         24    2    1    2    0    0 -0.43550649669E+03  0.66672933705E+03 -0.80105589143E+03  0.11323205679E+04  0.79154341898E+02 0.  0.
        254    2    1    2    0    0  0.43550649669E+03 -0.66672933705E+03 -0.27572571694E+03  0.11445255110E+04  0.77441594557E+03 0.  0.
         23    2    4    4    0    0 -0.14179401540E+03 -0.36009572499E+03 -0.27694804361E+03  0.48451033621E+03  0.90970176888E+02 0.  0.
         23    2    4    4    0    0  0.57730051209E+03 -0.30663361206E+03  0.12223266675E+01  0.66001517476E+03  0.91205720971E+02 0.  0.
          4    1    3    3  502    0 -0.26151163042E+03  0.40607486486E+03 -0.53954378904E+03  0.72414959021E+03  0.00000000000E+00 0. -1.
         -3    1    3    3    0  502 -0.17399486626E+03  0.26065447219E+03 -0.26151210239E+03  0.40817097772E+03  0.00000000000E+00 0.  1.
         13    1    5    5    0    0  0.69123955562E+01 -0.43318536507E+01 -0.18769019173E+02  0.20465147180E+02  0.00000000000E+00 0.  1.
        -13    1    5    5    0    0 -0.14870641095E+03 -0.35576387133E+03 -0.25817902443E+03  0.46404518903E+03  0.00000000000E+00 0. -1.
          3    1    6    6  503    0  0.49033695020E+03 -0.22105642537E+03  0.63245129652E+01  0.53789986744E+03  0.00000000000E+00 0. -1.
         -3    1    6    6    0  503  0.86963561888E+02 -0.85577186694E+02 -0.51021862977E+01  0.12211530733E+03  0.00000000000E+00 0.  1.
<mgrwt>
<rscale>  0 0.20061330E+04</rscale>
<asrwt>0</asrwt>
<pdfrwt beam="1">  1        2 0.25797136E+00 0.20061330E+04</pdfrwt>
<pdfrwt beam="2">  1       -1 0.92312652E-01 0.20061330E+04</pdfrwt>
<totfact> 0.12200440E+01</totfact>
</mgrwt>
</event>
<event>
12    7  0.1660832E-007  0.2368803E+04  0.7818608E-02  0.8451277E-01
         -1   -1    0    0    0  501 -0.00000000000E+00  0.00000000000E+00  0.83694182422E+03  0.83694182422E+03  0.00000000000E+00 0.  1.
          2   -1    0    0  501    0  0.00000000000E+00 -0.00000000000E+00 -0.16761099173E+04  0.16761099173E+04  0.00000000000E+00 0. -1.
         24    2    1    2    0    0  0.99812275439E+03 -0.11095426289E+03 -0.42768190978E+03  0.10954367122E+04  0.92249082866E+02 0.  0.
        254    2    1    2    0    0 -0.99812275439E+03  0.11095426289E+03 -0.41148618328E+03  0.14176150293E+04  0.91200417261E+03 0.  0.
         23    2    4    4    0    0 -0.93967331817E+03  0.41601062720E+03 -0.31872610590E+03  0.10796171681E+04  0.89084859259E+02 0.  0.
         23    2    4    4    0    0 -0.58449436223E+02 -0.30505636432E+03 -0.92760077383E+02  0.33799786120E+03  0.95720427370E+02 0.  0.
          2    1    3    3  502    0  0.49149249170E+03 -0.10879265111E+02 -0.22523166372E+03  0.54075181937E+03  0.00000000000E+00 0. -1.
         -1    1    3    3    0  502  0.50663026269E+03 -0.10007499778E+03 -0.20245024606E+03  0.55468489287E+03  0.00000000000E+00 0.  1.
         13    1    5    5    0    0 -0.82058248365E+03  0.34702522351E+03 -0.30316531087E+03  0.94111174891E+03  0.00000000000E+00 0.  1.
        -13    1    5    5    0    0 -0.11909083451E+03  0.68985403698E+02 -0.15560795025E+02  0.13850541914E+03  0.00000000000E+00 0. -1.
          3    1    6    6  503    0 -0.40862734454E+02 -0.11037116066E+03 -0.79587758833E+02  0.14207662555E+03  0.00000000000E+00 0. -1.
         -3    1    6    6    0  503 -0.17586701770E+02 -0.19468520366E+03 -0.13172318550E+02  0.19592123565E+03  0.00000000000E+00 0.  1.
<mgrwt>
<rscale>  0 0.23688026E+04</rscale>
<asrwt>0</asrwt>
<pdfrwt beam="1">  1        2 0.25786306E+00 0.23688026E+04</pdfrwt>
<pdfrwt beam="2">  1       -1 0.12876028E+00 0.23688026E+04</pdfrwt>
<totfact> 0.53933909E+00</totfact>
</mgrwt>
</event>
<event>
12    7  0.1660832E-007  0.2257089E+04  0.7818608E-02  0.8495035E-01
          2   -1    0    0  501    0  0.00000000000E+00  0.00000000000E+00  0.68394553770E+03  0.68394553770E+03  0.00000000000E+00 0. -1.
         -1   -1    0    0    0  501 -0.00000000000E+00 -0.00000000000E+00 -0.18621545050E+04  0.18621545050E+04  0.00000000000E+00 0.  1.
         24    2    1    2    0    0  0.72379918920E+03 -0.22318687687E+03 -0.11442838005E+04  0.13745621335E+04  0.79611521951E+02 0.  0.
        254    2    1    2    0    0 -0.72379918920E+03  0.22318687687E+03 -0.33925166724E+02  0.11715379091E+04  0.89311393860E+03 0.  0.
         23    2    4    4    0    0 -0.15469588483E+03 -0.31590419088E+03 -0.10723477248E+03  0.37903696659E+03  0.91888252871E+02 0.  0.
         23    2    4    4    0    0 -0.56910330437E+03  0.53909106775E+03  0.73309605758E+02  0.79250094255E+03  0.90474832222E+02 0.  0.
          2    1    3    3  502    0  0.22204592707E+03 -0.92974719436E+02 -0.31242031503E+03  0.39440479894E+03  0.00000000000E+00 0. -1.
         -1    1    3    3    0  502  0.50175326213E+03 -0.13021215743E+03 -0.83186348552E+03  0.98015733458E+03  0.00000000000E+00 0.  1.
         13    1    5    5    0    0  0.98518155203E+01 -0.35380716891E+01 -0.38782294914E+01  0.11163193285E+02  0.00000000000E+00 0. -1.
        -13    1    5    5    0    0 -0.16454770035E+03 -0.31236611919E+03 -0.10335654299E+03  0.36787377331E+03  0.00000000000E+00 0.  1.
          3    1    6    6  503    0 -0.26129949643E+02  0.37856992880E+01  0.58654377026E+01  0.27046425770E+02  0.00000000000E+00 0. -1.
         -3    1    6    6    0  503 -0.54297335473E+03  0.53530536846E+03  0.67444168055E+02  0.76545451678E+03  0.00000000000E+00 0.  1.
<mgrwt>
<rscale>  0 0.22570886E+04</rscale>
<asrwt>0</asrwt>
<pdfrwt beam="1">  1        2 0.10522239E+00 0.22570886E+04</pdfrwt>
<pdfrwt beam="2">  1       -1 0.28648531E+00 0.22570886E+04</pdfrwt>
<totfact> 0.17702900E+00</totfact>
</mgrwt>
</event>
<event>
12    7  0.1932672E-007  0.2476017E+04  0.7818608E-02  0.8411580E-01
         -1   -1    0    0    0  501 -0.00000000000E+00  0.00000000000E+00  0.82862712893E+03  0.82862712893E+03  0.00000000000E+00 0.  1.
          2   -1    0    0  501    0  0.00000000000E+00 -0.00000000000E+00 -0.18496441617E+04  0.18496441617E+04  0.00000000000E+00 0. -1.
         24    2    1    2    0    0 -0.28936720103E+03  0.69467695388E+03  0.37947042714E+03  0.84669890535E+03  0.81189802110E+02 0.  0.
        254    2    1    2    0    0  0.28936720103E+03 -0.69467695388E+03 -0.14004874599E+04  0.18315723853E+04  0.90938596309E+03 0.  0.
         23    2    4    4    0    0  0.22820233535E+03 -0.43119987260E+03 -0.14576026268E+04  0.15398886588E+04  0.92962508518E+02 0.  0.
         23    2    4    4    0    0  0.61164865687E+02 -0.26347708128E+03  0.57115166878E+02  0.29168372645E+03  0.93037308841E+02 0.  0.
          4    1    3    3  502    0 -0.45927221800E+02  0.12367167804E+03  0.33707125786E+02  0.13616227077E+03  0.00000000000E+00 0. -1.
         -3    1    3    3    0  502 -0.24343997923E+03  0.57100527584E+03  0.34576330136E+03  0.71053663458E+03  0.00000000000E+00 0.  1.
         13    1    5    5    0    0 -0.10939804114E+01 -0.31132311673E+02 -0.52387526884E+02  0.60949738279E+02  0.00000000000E+00 0. -1.
        -13    1    5    5    0    0  0.22929631576E+03 -0.40006756093E+03 -0.14052150999E+04  0.14789389205E+04  0.00000000000E+00 0.  1.
          1    1    6    6  503    0 -0.10551719609E+02  0.86766459480E+00 -0.35103457562E+01  0.11154109372E+02  0.00000000000E+00 0. -1.
         -1    1    6    6    0  503  0.71716585296E+02 -0.26434474587E+03  0.60625512634E+02  0.28052961708E+03  0.00000000000E+00 0.  1.
<mgrwt>
<rscale>  0 0.24760172E+04</rscale>
<asrwt>0</asrwt>
<pdfrwt beam="1">  1        2 0.28456064E+00 0.24760172E+04</pdfrwt>
<pdfrwt beam="2">  1       -1 0.12748110E+00 0.24760172E+04</pdfrwt>
<totfact> 0.43884643E+00</totfact>
</mgrwt>
</event>
<event>
12    7  0.1660832E-007  0.1140846E+04  0.7818608E-02  0.9166270E-01
          2   -1    0    0  501    0  0.00000000000E+00  0.00000000000E+00  0.20787236126E+04  0.20787236126E+04  0.00000000000E+00 0. -1.
         -1   -1    0    0    0  501 -0.00000000000E+00 -0.00000000000E+00 -0.15652997050E+03  0.15652997050E+03  0.00000000000E+00 0.  1.
         24    2    1    2    0    0 -0.47200969680E+02  0.14721727773E+02  0.74272631327E+03  0.74861271062E+03  0.79586137400E+02 0.  0.
        254    2    1    2    0    0  0.47200969680E+02 -0.14721727773E+02  0.11794673289E+04  0.14866408725E+04  0.90361122347E+03 0.  0.
         23    2    4    4    0    0  0.13009347206E+03  0.42074106920E+03  0.53401243775E+03  0.69825993229E+03  0.91925462083E+02 0.  0.
         23    2    4    4    0    0 -0.82892502383E+02 -0.43546279697E+03  0.64545489112E+03  0.78838094023E+03  0.91833958651E+02 0.  0.
          2    1    3    3  502    0 -0.50946902899E+02  0.41494084185E+02  0.57162898108E+03  0.57539294221E+03  0.00000000000E+00 0. -1.
         -1    1    3    3    0  502  0.37459332197E+01 -0.26772356412E+02  0.17109733219E+03  0.17321976840E+03  0.00000000000E+00 0.  1.
         13    1    5    5    0    0  0.60311128590E+02  0.70597227143E+02  0.11154506984E+03  0.14513339835E+03  0.00000000000E+00 0.  1.
        -13    1    5    5    0    0  0.69782343473E+02  0.35014384206E+03  0.42246736791E+03  0.55312653393E+03  0.00000000000E+00 0. -1.
          1    1    6    6  503    0 -0.10068448843E+03 -0.32677579926E+03  0.46995515649E+03  0.58118640582E+03  0.00000000000E+00 0. -1.
         -1    1    6    6    0  503  0.17791986051E+02 -0.10868699771E+03  0.17549973462E+03  0.20719453441E+03  0.00000000000E+00 0.  1.
<mgrwt>
<rscale>  0 0.11408463E+04</rscale>
<asrwt>0</asrwt>
<pdfrwt beam="1">  1        2 0.31980361E+00 0.11408463E+04</pdfrwt>
<pdfrwt beam="2">  1       -1 0.24081535E-01 0.11408463E+04</pdfrwt>
<totfact> 0.10201486E+02</totfact>
</mgrwt>
</event>
<event>
12    7  0.1660832E-007  0.2160554E+04  0.7818608E-02  0.8535028E-01
         -1   -1    0    0    0  501 -0.00000000000E+00  0.00000000000E+00  0.68382799475E+03  0.68382799475E+03  0.00000000000E+00 0.  1.
          2   -1    0    0  501    0  0.00000000000E+00 -0.00000000000E+00 -0.17065678503E+04  0.17065678503E+04  0.00000000000E+00 0. -1.
         24    2    1    2    0    0  0.23469397968E+03 -0.36899073757E+03  0.43474537805E+03  0.62180849308E+03  0.80042674973E+02 0.  0.
        254    2    1    2    0    0 -0.23469397968E+03  0.36899073757E+03 -0.14574852336E+04  0.17685873520E+04  0.90133378218E+03 0.  0.
         23    2    4    4    0    0 -0.17926113217E+03  0.36383047644E+03 -0.15627481018E+04  0.16171284753E+04  0.91737161355E+02 0.  0.
         23    2    4    4    0    0 -0.55432847505E+02  0.51602611282E+01  0.10526286816E+03  0.15145887674E+03  0.93595358064E+02 0.  0.
          4    1    3    3  502    0  0.31282282177E+02 -0.37352895407E+02  0.18665544625E+02  0.52174922421E+02  0.00000000000E+00 0. -1.
         -3    1    3    3    0  502  0.20341169750E+03 -0.33163784216E+03  0.41607983343E+03  0.56963357066E+03  0.00000000000E+00 0.  1.
         13    1    5    5    0    0 -0.17250166796E+03  0.33897235902E+03 -0.13411535118E+04  0.13940415445E+04  0.00000000000E+00 0. -1.
        -13    1    5    5    0    0 -0.67594642143E+01  0.24858117417E+02 -0.22159458995E+03  0.22308693071E+03  0.00000000000E+00 0.  1.
          1    1    6    6  503    0 -0.77819244613E+02  0.16790234173E+02  0.95690819571E+02  0.12447682413E+03  0.00000000000E+00 0. -1.
         -1    1    6    6    0  503  0.22386397108E+02 -0.11629973045E+02  0.95720485900E+01  0.26982052604E+02  0.00000000000E+00 0.  1.
<mgrwt>
<rscale>  0 0.21605544E+04</rscale>
<asrwt>0</asrwt>
<pdfrwt beam="1">  1        2 0.26254890E+00 0.21605544E+04</pdfrwt>
<pdfrwt beam="2">  1       -1 0.10520431E+00 0.21605544E+04</pdfrwt>
<totfact> 0.86064006E+00</totfact>
</mgrwt>
</event>
<event>
12    7  0.1660832E-007  0.1767668E+04  0.7818608E-02  0.8723685E-01
          2   -1    0    0  501    0  0.00000000000E+00  0.00000000000E+00  0.29247527875E+04  0.29247527875E+04  0.00000000000E+00 0. -1.
         -1   -1    0    0    0  501 -0.00000000000E+00 -0.00000000000E+00 -0.26708664045E+03  0.26708664045E+03  0.00000000000E+00 0.  1.
         24    2    1    2    0    0 -0.19116072563E+03 -0.19759580441E+03 -0.11180475525E+03  0.30762739787E+03  0.80918401356E+02 0.  0.
        254    2    1    2    0    0  0.19116072563E+03  0.19759580441E+03  0.27694709023E+04  0.28842120300E+04  0.75704916013E+03 0.  0.
         23    2    4    4    0    0 -0.20874008783E+02 -0.19487914645E+03  0.17999835969E+04  0.18130513223E+04  0.93811204996E+02 0.  0.
         23    2    4    4    0    0  0.21203473441E+03  0.39247495085E+03  0.96948730534E+03  0.10711607077E+04  0.92110319386E+02 0.  0.
          4    1    3    3  502    0 -0.38498071850E+02 -0.33028966755E+02  0.10788472814E+02  0.51859476730E+02  0.00000000000E+00 0. -1.
         -3    1    3    3    0  502 -0.15266265378E+03 -0.16456683765E+03 -0.12259322807E+03  0.25576792114E+03  0.00000000000E+00 0.  1.
         13    1    5    5    0    0 -0.22700402047E+02 -0.20533390386E+03  0.17000756125E+04  0.17125812123E+04  0.00000000000E+00 0. -1.
        -13    1    5    5    0    0  0.18263932640E+01  0.10454757411E+02  0.99907984407E+02  0.10047011005E+03  0.00000000000E+00 0.  1.
          3    1    6    6  503    0  0.21501816232E+03  0.39367813506E+03  0.94050536143E+03  0.10420007769E+04  0.00000000000E+00 0. -1.
         -3    1    6    6    0  503 -0.29834279076E+01 -0.12031842092E+01  0.28981943913E+02  0.29159930852E+02  0.00000000000E+00 0.  1.
<mgrwt>
<rscale>  0 0.17676678E+04</rscale>
<asrwt>0</asrwt>
<pdfrwt beam="1">  1        2 0.44996195E+00 0.17676678E+04</pdfrwt>
<pdfrwt beam="2">  1       -1 0.41090254E-01 0.17676678E+04</pdfrwt>
<totfact> 0.12161281E+01</totfact>
</mgrwt>
</event>
<event>
12    7  0.1660832E-007  0.1508149E+04  0.7818608E-02  0.8879052E-01
         -1   -1    0    0    0  501 -0.00000000000E+00  0.00000000000E+00  0.26488606699E+03  0.26488606699E+03  0.00000000000E+00 0.  1.
          2   -1    0    0  501    0  0.00000000000E+00 -0.00000000000E+00 -0.21466905244E+04  0.21466905244E+04  0.00000000000E+00 0. -1.
         24    2    1    2    0    0 -0.36863046093E+02  0.45927178981E+03 -0.85634539943E+03  0.97573760016E+03  0.80292964537E+02 0.  0.
        254    2    1    2    0    0  0.36863046093E+02 -0.45927178981E+03 -0.10254590580E+04  0.14358389913E+04  0.89318411770E+03 0.  0.
         23    2    4    4    0    0 -0.35143151038E+03 -0.35642114188E+03 -0.84311627269E+03  0.98465003557E+03  0.90280155123E+02 0.  0.
         23    2    4    4    0    0  0.38829455647E+03 -0.10285064793E+03 -0.18234278530E+03  0.45118895568E+03  0.94718868299E+02 0.  0.
          2    1    3    3  502    0 -0.14123145417E+02  0.36070230776E+03 -0.72555194420E+03  0.81038956175E+03  0.00000000000E+00 0. -1.
         -1    1    3    3    0  502 -0.22739900676E+02  0.98569482051E+02 -0.13079345523E+03  0.16534803841E+03  0.00000000000E+00 0.  1.
         13    1    5    5    0    0 -0.31827063292E+03 -0.35083222990E+03 -0.80300417020E+03  0.93230635880E+03  0.00000000000E+00 0. -1.
        -13    1    5    5    0    0 -0.33160877464E+02 -0.55889119880E+01 -0.40112102494E+02  0.52343676771E+02  0.00000000000E+00 0.  1.
          2    1    6    6  503    0  0.38970083534E+03 -0.10673079882E+03 -0.17032934994E+03  0.43848636459E+03  0.00000000000E+00 0. -1.
         -2    1    6    6    0  503 -0.14062788670E+01  0.38801508948E+01 -0.12013435361E+02  0.12702591090E+02  0.00000000000E+00 0.  1.
<mgrwt>
<rscale>  0 0.15081491E+04</rscale>
<asrwt>0</asrwt>
<pdfrwt beam="1">  1        2 0.33026006E+00 0.15081491E+04</pdfrwt>
<pdfrwt beam="2">  1       -1 0.40751705E-01 0.15081491E+04</pdfrwt>
<totfact> 0.35846380E+01</totfact>
</mgrwt>
</event>
<event>
12    7  0.1660832E-007  0.1209604E+04  0.7818608E-02  0.9104492E-01
         -1   -1    0    0    0  501 -0.00000000000E+00  0.00000000000E+00  0.20831747927E+04  0.20831747927E+04  0.00000000000E+00 0.  1.
          2   -1    0    0  501    0  0.00000000000E+00 -0.00000000000E+00 -0.17559030378E+03  0.17559030378E+03  0.00000000000E+00 0. -1.
         24    2    1    2    0    0 -0.34063484955E+02  0.19944475670E+03  0.74915317005E+03  0.78002442345E+03  0.79177629401E+02 0.  0.
        254    2    1    2    0    0  0.34063484955E+02 -0.19944475670E+03  0.11584313188E+04  0.14787406730E+04  0.89653350498E+03 0.  0.
         23    2    4    4    0    0 -0.41167823405E+03 -0.48526975816E+02  0.68607611285E+03  0.80579915730E+03  0.82328691831E+02 0.  0.
         23    2    4    4    0    0  0.44574171900E+03 -0.15091778088E+03  0.47235520597E+03  0.67294151569E+03  0.90933966660E+02 0.  0.
          4    1    3    3  502    0 -0.13438372124E+02 -0.23880949335E+00  0.89449935128E+02  0.90454064418E+02  0.00000000000E+00 0. -1.
         -3    1    3    3    0  502 -0.20625112831E+02  0.19968356619E+03  0.65970323493E+03  0.68957035903E+03  0.00000000000E+00 0.  1.
         13    1    5    5    0    0 -0.53201258176E+02  0.14403317336E+02  0.58890111266E+02  0.80659002143E+02  0.00000000000E+00 0.  1.
        -13    1    5    5    0    0 -0.35847697587E+03 -0.62930293152E+02  0.62718600159E+03  0.72514015515E+03  0.00000000000E+00 0. -1.
          3    1    6    6  503    0  0.34907517354E+03 -0.81636583391E+02  0.32798435344E+03  0.48589272955E+03  0.00000000000E+00 0. -1.
         -3    1    6    6    0  503  0.96666545464E+02 -0.69281197490E+02  0.14437085253E+03  0.18704878614E+03  0.00000000000E+00 0.  1.
<mgrwt>
<rscale>  0 0.12096037E+04</rscale>
<asrwt>0</asrwt>
<pdfrwt beam="1">  1        2 0.27013894E-01 0.12096037E+04</pdfrwt>
<pdfrwt beam="2">  1       -1 0.32048841E+00 0.12096037E+04</pdfrwt>
<totfact> 0.55649324E+00</totfact>
</mgrwt>
</event>
<event>
12    7  0.1660832E-007  0.1758765E+04  0.7818608E-02  0.8728541E-01
          2   -1    0    0  501    0  0.00000000000E+00  0.00000000000E+00  0.19611096511E+04  0.19611096511E+04  0.00000000000E+00 0. -1.
         -1   -1    0    0    0  501 -0.00000000000E+00 -0.00000000000E+00 -0.39432441906E+03  0.39432441906E+03  0.00000000000E+00 0.  1.
         24    2    1    2    0    0  0.24274961766E+03 -0.45291491941E+03  0.11381051046E+04  0.12513275988E+04  0.80487446925E+02 0.  0.
        254    2    1    2    0    0 -0.24274961766E+03  0.45291491941E+03  0.42868012737E+03  0.11041064714E+04  0.87819425380E+03 0.  0.
         23    2    4    4    0    0 -0.53271018131E+03  0.29357473225E+03  0.44761603989E+03  0.76078716279E+03  0.92036553700E+02 0.  0.
         23    2    4    4    0    0  0.28996056365E+03  0.15934018716E+03 -0.18935912529E+02  0.34331930857E+03  0.89683639174E+02 0.  0.
          4    1    3    3  502    0  0.76227212096E+02 -0.22712526742E+03  0.52233510175E+03  0.57465679626E+03  0.00000000000E+00 0. -1.
         -3    1    3    3    0  502  0.16652240556E+03 -0.22578965199E+03  0.61577000289E+03  0.67667080250E+03  0.00000000000E+00 0.  1.
         13    1    5    5    0    0 -0.37782940740E+03  0.19704992037E+03  0.26066846448E+03  0.49953156115E+03  0.00000000000E+00 0. -1.
        -13    1    5    5    0    0 -0.15488077391E+03  0.96524811872E+02  0.18694757542E+03  0.26125560164E+03  0.00000000000E+00 0.  1.
          1    1    6    6  503    0  0.29670788543E+03  0.15523637639E+03 -0.19238554076E+02  0.33541619489E+03  0.00000000000E+00 0. -1.
         -1    1    6    6    0  503 -0.67473217751E+01  0.41038107682E+01  0.30264154716E+00  0.79031136816E+01  0.00000000000E+00 0.  1.
<mgrwt>
<rscale>  0 0.17587648E+04</rscale>
<asrwt>0</asrwt>
<pdfrwt beam="1">  1        2 0.30170917E+00 0.17587648E+04</pdfrwt>
<pdfrwt beam="2">  1       -1 0.60665296E-01 0.17587648E+04</pdfrwt>
<totfact> 0.20874599E+01</totfact>
</mgrwt>
</event>
<event>
12    7  0.1660832E-007  0.1118552E+04  0.7818608E-02  0.9187297E-01
         -1   -1    0    0    0  501 -0.00000000000E+00  0.00000000000E+00  0.38139982322E+03  0.38139982322E+03  0.00000000000E+00 0.  1.
          2   -1    0    0  501    0  0.00000000000E+00 -0.00000000000E+00 -0.82010886963E+03  0.82010886963E+03  0.00000000000E+00 0. -1.
         24    2    1    2    0    0 -0.13614489392E+03 -0.28324304992E+01 -0.23271633848E+03  0.27710563302E+03  0.63931078933E+02 0.  0.
        254    2    1    2    0    0  0.13614489392E+03  0.28324304992E+01 -0.20599270792E+03  0.92440305983E+03  0.89081118454E+03 0.  0.
         23    2    4    4    0    0 -0.37590542900E+02 -0.16515348695E+03 -0.49844036779E+03  0.53423225186E+03  0.90953699870E+02 0.  0.
         23    2    4    4    0    0  0.17373543682E+03  0.16798591745E+03  0.29244765986E+03  0.39017080797E+03  0.91128234748E+02 0.  0.
          4    1    3    3  502    0 -0.13432237095E+03 -0.87340665915E+01 -0.23474927395E+03  0.27060303930E+03  0.00000000000E+00 0. -1.
         -3    1    3    3    0  502 -0.18225229639E+01  0.59016360923E+01  0.20329354670E+01  0.65025937235E+01  0.00000000000E+00 0.  1.
         13    1    5    5    0    0 -0.22683027749E+02 -0.60670156368E+02 -0.32350190106E+03  0.32992251758E+03  0.00000000000E+00 0. -1.
        -13    1    5    5    0    0 -0.14907515152E+02 -0.10448333059E+03 -0.17493846673E+03  0.20430973428E+03  0.00000000000E+00 0.  1.
          3    1    6    6  503    0  0.15543303649E+03  0.95660892602E+02  0.22383317638E+03  0.28881088285E+03  0.00000000000E+00 0. -1.
         -3    1    6    6    0  503  0.18302400330E+02  0.72325024851E+02  0.68614483483E+02  0.10135992512E+03  0.00000000000E+00 0.  1.
<mgrwt>
<rscale>  0 0.11185515E+04</rscale>
<asrwt>0</asrwt>
<pdfrwt beam="1">  1        2 0.12617059E+00 0.11185515E+04</pdfrwt>
<pdfrwt beam="2">  1       -1 0.58676896E-01 0.11185515E+04</pdfrwt>
<totfact> 0.11102580E+02</totfact>
</mgrwt>
</event>
<event>
12    7  0.1660832E-007  0.2903686E+04  0.7818608E-02  0.8271782E-01
          2   -1    0    0  501    0  0.00000000000E+00  0.00000000000E+00  0.14618015623E+04  0.14618015623E+04  0.00000000000E+00 0. -1.
         -1   -1    0    0    0  501 -0.00000000000E+00 -0.00000000000E+00 -0.14419518638E+04  0.14419518638E+04  0.00000000000E+00 0.  1.
         24    2    1    2    0    0  0.29302297100E+03  0.66999596805E+03  0.10853236200E+04  0.13111097188E+04  0.79525315509E+02 0.  0.
        254    2    1    2    0    0 -0.29302297100E+03 -0.66999596805E+03 -0.10654739215E+04  0.15926437073E+04  0.93087176462E+03 0.  0.
         23    2    4    4    0    0 -0.42975916398E+03 -0.74054128907E+03 -0.11134352698E+04  0.14074591169E+04  0.90048463501E+02 0.  0.
         23    2    4    4    0    0  0.13673619297E+03  0.70545321022E+02  0.47961348259E+02  0.18518459043E+03  0.91211911613E+02 0.  0.
          4    1    3    3  502    0  0.21658198678E+03  0.45192139588E+03  0.79918836538E+03  0.94331476635E+03  0.00000000000E+00 0. -1.
         -3    1    3    3    0  502  0.76440984225E+02  0.21807457217E+03  0.28613525460E+03  0.36779495241E+03  0.00000000000E+00 0.  1.
         13    1    5    5    0    0 -0.35116626480E+02 -0.44499536196E+02 -0.43632841053E+02  0.71534683863E+02  0.00000000000E+00 0. -1.
        -13    1    5    5    0    0 -0.39464253750E+03 -0.69604175287E+03 -0.10698024287E+04  0.13359244330E+04  0.00000000000E+00 0.  1.
          2    1    6    6  503    0  0.14982403837E+02 -0.18073510816E+02  0.22385892225E+02  0.32438439985E+02  0.00000000000E+00 0. -1.
         -2    1    6    6    0  503  0.12175378914E+03  0.88618831837E+02  0.25575456033E+02  0.15274615045E+03  0.00000000000E+00 0.  1.
<mgrwt>
<rscale>  0 0.29036856E+04</rscale>
<asrwt>0</asrwt>
<pdfrwt beam="1">  1        2 0.22489255E+00 0.29036856E+04</pdfrwt>
<pdfrwt beam="2">  1       -1 0.22183875E+00 0.29036856E+04</pdfrwt>
<totfact> 0.14024038E+00</totfact>
</mgrwt>
</event>
<event>
12    7  0.1660832E-007  0.1404079E+04  0.7818608E-02  0.8950871E-01
          2   -1    0    0  501    0  0.00000000000E+00  0.00000000000E+00  0.11141467373E+04  0.11141467373E+04  0.00000000000E+00 0. -1.
         -1   -1    0    0    0  501 -0.00000000000E+00 -0.00000000000E+00 -0.44236474648E+03  0.44236474648E+03  0.00000000000E+00 0.  1.
         24    2    1    2    0    0  0.36602367460E+03  0.14180118814E+03  0.31419831536E+03  0.50826834940E+03  0.74399101547E+02 0.  0.
        254    2    1    2    0    0 -0.36602367460E+03 -0.14180118814E+03  0.35758367546E+03  0.10482431344E+04  0.90380676944E+03 0.  0.
         23    2    4    4    0    0 -0.33346040130E+03 -0.50353226259E+03  0.21648486231E+03  0.64826193492E+03  0.92936870762E+02 0.  0.
         23    2    4    4    0    0 -0.32563273295E+02  0.36173107445E+03  0.14109881315E+03  0.39998119946E+03  0.90367847484E+02 0.  0.
          2    1    3    3  502    0  0.23144624843E+03  0.73399498469E+02  0.23450616256E+03  0.33756183517E+03  0.00000000000E+00 0. -1.
         -1    1    3    3    0  502  0.13457742617E+03  0.68401689671E+02  0.79692152797E+02  0.17070651423E+03  0.00000000000E+00 0.  1.
         13    1    5    5    0    0 -0.24420891360E+03 -0.43139433490E+03  0.18657353406E+03  0.52966852774E+03  0.00000000000E+00 0.  1.
        -13    1    5    5    0    0 -0.89251487700E+02 -0.72137927688E+02  0.29911328250E+02  0.11859340718E+03  0.00000000000E+00 0. -1.
          1    1    6    6  503    0  0.11419139914E+02  0.93456269281E+01 -0.55608869285E+01  0.15768987364E+02  0.00000000000E+00 0. -1.
         -1    1    6    6    0  503 -0.43982413209E+02  0.35238544752E+03  0.14665970007E+03  0.38421221210E+03  0.00000000000E+00 0.  1.
<mgrwt>
<rscale>  0 0.14040787E+04</rscale>
<asrwt>0</asrwt>
<pdfrwt beam="1">  1        2 0.17140719E+00 0.14040787E+04</pdfrwt>
<pdfrwt beam="2">  1       -1 0.68056115E-01 0.14040787E+04</pdfrwt>
<totfact> 0.51800733E+01</totfact>
</mgrwt>
</event>
<event>
12    7  0.1660832E-007  0.4320770E+04  0.7818608E-02  0.7942789E-01
          2   -1    0    0  501    0  0.00000000000E+00  0.00000000000E+00  0.25545573521E+04  0.25545573521E+04  0.00000000000E+00 0. -1.
         -1   -1    0    0    0  501 -0.00000000000E+00 -0.00000000000E+00 -0.18270342527E+04  0.18270342527E+04  0.00000000000E+00 0.  1.
         24    2    1    2    0    0  0.16274961226E+04 -0.12791870412E+04  0.43742071217E+03  0.21172562537E+04  0.79837640667E+02 0.  0.
        254    2    1    2    0    0 -0.16274961226E+04  0.12791870412E+04  0.29010238724E+03  0.22643353511E+04  0.87062740104E+03 0.  0.
         23    2    4    4    0    0  0.42014089767E+02  0.26972803303E+03 -0.12474508352E+02  0.28794437401E+03  0.90763173299E+02 0.  0.
         23    2    4    4    0    0 -0.16695102124E+04  0.10094590082E+04  0.30257689559E+03  0.19763909771E+04  0.91086101814E+02 0.  0.
          2    1    3    3  502    0  0.18440108334E+03 -0.12734771810E+03  0.68577963197E+02  0.23435899359E+03  0.00000000000E+00 0. -1.
         -1    1    3    3    0  502  0.14430950393E+04 -0.11518393231E+04  0.36884274897E+03  0.18828972601E+04  0.00000000000E+00 0.  1.
         13    1    5    5    0    0  0.52986172556E+02  0.17454129325E+03 -0.42954777988E+02  0.18739613252E+03  0.00000000000E+00 0. -1.
        -13    1    5    5    0    0 -0.10972082789E+02  0.95186739772E+02  0.30480269636E+02  0.10054824149E+03  0.00000000000E+00 0.  1.
          4    1    6    6  503    0 -0.11356530388E+04  0.67469461556E+03  0.24658694103E+03  0.13437729601E+04  0.00000000000E+00 0. -1.
         -4    1    6    6    0  503 -0.53385717360E+03  0.33476439263E+03  0.55989954559E+02  0.63261801696E+03  0.00000000000E+00 0.  1.
<mgrwt>
<rscale>  0 0.43207702E+04</rscale>
<asrwt>0</asrwt>
<pdfrwt beam="1">  1        2 0.39300882E+00 0.43207702E+04</pdfrwt>
<pdfrwt beam="2">  1       -1 0.28108219E+00 0.43207702E+04</pdfrwt>
<totfact> 0.12383208E-01</totfact>
</mgrwt>
</event>
<event>
12    7  0.1660832E-007  0.2185701E+04  0.7818608E-02  0.8524403E-01
         -1   -1    0    0    0  501 -0.00000000000E+00  0.00000000000E+00  0.49509396579E+03  0.49509396579E+03  0.00000000000E+00 0.  1.
          2   -1    0    0  501    0  0.00000000000E+00 -0.00000000000E+00 -0.24123137403E+04  0.24123137403E+04  0.00000000000E+00 0. -1.
         24    2    1    2    0    0 -0.49723986793E+03  0.64008889902E+03 -0.13037426357E+04  0.15372330726E+04  0.79870985946E+02 0.  0.
        254    2    1    2    0    0  0.49723986793E+03 -0.64008889902E+03 -0.61347713883E+03  0.13701746335E+04  0.91872903601E+03 0.  0.
         23    2    4    4    0    0  0.40355239423E+03  0.12060038188E+03 -0.34614565761E+03  0.55285383691E+03  0.91823535718E+02 0.  0.
         23    2    4    4    0    0  0.93687473699E+02 -0.76068928090E+03 -0.26733148123E+03  0.81732079662E+03  0.95507271632E+02 0.  0.
          2    1    3    3  502    0 -0.43450774333E+03  0.54733440011E+03 -0.11698413929E+04  0.13626814775E+04  0.00000000000E+00 0. -1.
         -1    1    3    3    0  502 -0.62732124592E+02  0.92754498912E+02 -0.13390124277E+03  0.17455159507E+03  0.00000000000E+00 0.  1.
         13    1    5    5    0    0  0.34489772693E+01  0.16292381554E+02 -0.21273127761E+02  0.27016348859E+02  0.00000000000E+00 0.  1.
        -13    1    5    5    0    0  0.40010341696E+03  0.10430800032E+03 -0.32487252984E+03  0.52583748805E+03  0.00000000000E+00 0. -1.
          1    1    6    6  503    0  0.25636984880E+02 -0.47523695967E+03 -0.13024549317E+03  0.49342812173E+03  0.00000000000E+00 0. -1.
         -1    1    6    6    0  503  0.68050488819E+02 -0.28545232123E+03 -0.13708598805E+03  0.32389267489E+03  0.00000000000E+00 0.  1.
<mgrwt>
<rscale>  0 0.21857008E+04</rscale>
<asrwt>0</asrwt>
<pdfrwt beam="1">  1        2 0.37112519E+00 0.21857008E+04</pdfrwt>
<pdfrwt beam="2">  1       -1 0.76168303E-01 0.21857008E+04</pdfrwt>
<totfact> 0.70504068E+00</totfact>
</mgrwt>
</event>
<event>
12    7  0.1660832E-007  0.1867359E+04  0.7818608E-02  0.8671276E-01
          2   -1    0    0  501    0  0.00000000000E+00  0.00000000000E+00  0.13588900490E+04  0.13588900490E+04  0.00000000000E+00 0. -1.
         -1   -1    0    0    0  501 -0.00000000000E+00 -0.00000000000E+00 -0.64152192990E+03  0.64152192990E+03  0.00000000000E+00 0.  1.
         24    2    1    2    0    0  0.60325584620E+03 -0.43381227613E+02 -0.13230846958E+03  0.62346149295E+03  0.73478943824E+02 0.  0.
        254    2    1    2    0    0 -0.60325584620E+03  0.43381227613E+02  0.84967658868E+03  0.13769504859E+04  0.89902324137E+03 0.  0.
         23    2    4    4    0    0 -0.21358621842E+03 -0.39776143717E+03  0.52601180948E+03  0.69904866086E+03  0.90262799290E+02 0.  0.
         23    2    4    4    0    0 -0.38966962778E+03  0.44114266478E+03  0.32366477920E+03  0.67790182509E+03  0.91338522324E+02 0.  0.
          4    1    3    3  502    0  0.56375467691E+02  0.17059058407E+02 -0.87203656552E+01  0.59541998692E+02  0.00000000000E+00 0. -1.
         -3    1    3    3    0  502  0.54688037851E+03 -0.60440286020E+02 -0.12358810393E+03  0.56391949426E+03  0.00000000000E+00 0.  1.
         13    1    5    5    0    0 -0.44252073457E+02 -0.25818670423E+02  0.69360434402E+02  0.86230618739E+02  0.00000000000E+00 0. -1.
        -13    1    5    5    0    0 -0.16933414497E+03 -0.37194276675E+03  0.45665137508E+03  0.61281804212E+03  0.00000000000E+00 0.  1.
          1    1    6    6  503    0 -0.60801100805E+02  0.48559008679E+02  0.12940570996E+02  0.78880983517E+02  0.00000000000E+00 0. -1.
         -1    1    6    6    0  503 -0.32886852698E+03  0.39258365610E+03  0.31072420820E+03  0.59902084157E+03  0.00000000000E+00 0.  1.
<mgrwt>
<rscale>  0 0.18673594E+04</rscale>
<asrwt>0</asrwt>
<pdfrwt beam="1">  1        2 0.20906001E+00 0.18673594E+04</pdfrwt>
<pdfrwt beam="2">  1       -1 0.98695682E-01 0.18673594E+04</pdfrwt>
<totfact> 0.16062629E+01</totfact>
</mgrwt>
</event>
<event>
12    7  0.1660832E-007  0.1108265E+04  0.7818608E-02  0.9197173E-01
         -1   -1    0    0    0  501 -0.00000000000E+00  0.00000000000E+00  0.45368883782E+03  0.45368883782E+03  0.00000000000E+00 0.  1.
          2   -1    0    0  501    0  0.00000000000E+00 -0.00000000000E+00 -0.67681419976E+03  0.67681419976E+03  0.00000000000E+00 0. -1.
         24    2    1    2    0    0  0.18941145120E+02 -0.17416919477E+03  0.14025882256E+02  0.19275374152E+03  0.79142934699E+02 0.  0.
        254    2    1    2    0    0 -0.18941145120E+02  0.17416919477E+03 -0.23715124419E+03  0.93774929606E+03  0.89019062804E+03 0.  0.
         23    2    4    4    0    0  0.15808457041E+03 -0.28700987191E+03  0.73093457460E+02  0.34677816128E+03  0.86873710867E+02 0.  0.
         23    2    4    4    0    0 -0.17702571553E+03  0.46117906667E+03 -0.31024470165E+03  0.59097113478E+03  0.94714686015E+02 0.  0.
          2    1    3    3  502    0  0.30169935811E+01 -0.14719637653E+03 -0.17559361097E+02  0.14827072090E+03  0.00000000000E+00 0. -1.
         -1    1    3    3    0  502  0.15924151539E+02 -0.26972818235E+02  0.31585243353E+02  0.44483020620E+02  0.00000000000E+00 0.  1.
         13    1    5    5    0    0  0.15590811046E+03 -0.22770773121E+03  0.40056276535E+02  0.27885956152E+03  0.00000000000E+00 0. -1.
        -13    1    5    5    0    0  0.21764599454E+01 -0.59302140697E+02  0.33037180925E+02  0.67918599755E+02  0.00000000000E+00 0.  1.
          1    1    6    6  503    0 -0.13024168265E+03  0.20755600799E+03 -0.15526828185E+03  0.29008728290E+03  0.00000000000E+00 0. -1.
         -1    1    6    6    0  503 -0.46784032880E+02  0.25362305869E+03 -0.15497641980E+03  0.30088385188E+03  0.00000000000E+00 0.  1.
<mgrwt>
<rscale>  0 0.11082654E+04</rscale>
<asrwt>0</asrwt>
<pdfrwt beam="1">  1        2 0.10412526E+00 0.11082654E+04</pdfrwt>
<pdfrwt beam="2">  1       -1 0.69798283E-01 0.11082654E+04</pdfrwt>
<totfact> 0.10062090E+02</totfact>
</mgrwt>
</event>
<event>
12    7  0.1660832E-007  0.1261602E+04  0.7818608E-02  0.9060582E-01
          2   -1    0    0  501    0  0.00000000000E+00  0.00000000000E+00  0.25226897621E+04  0.25226897621E+04  0.00000000000E+00 0. -1.
         -1   -1    0    0    0  501 -0.00000000000E+00 -0.00000000000E+00 -0.15773231896E+03  0.15773231896E+03  0.00000000000E+00 0.  1.
         24    2    1    2    0    0  0.14298446668E+03  0.92481970568E+02  0.11023109750E+04  0.11183226785E+04  0.80985524667E+02 0.  0.
        254    2    1    2    0    0 -0.14298446668E+03 -0.92481970568E+02  0.12626464682E+04  0.15620994025E+04  0.90381467523E+03 0.  0.
         23    2    4    4    0    0 -0.40866987267E+03  0.47637203469E+02  0.11554419765E+04  0.12302749360E+04  0.96176344507E+02 0.  0.
         23    2    4    4    0    0  0.26568540598E+03 -0.14011917404E+03  0.10720449172E+03  0.33182446651E+03  0.91610892598E+02 0.  0.
          4    1    3    3  502    0  0.23797191150E+02  0.26490446075E+01  0.37997830879E+03  0.38073197777E+03  0.00000000000E+00 0. -1.
         -3    1    3    3    0  502  0.11918727553E+03  0.89832925961E+02  0.72233266618E+03  0.73759070078E+03  0.00000000000E+00 0.  1.
         13    1    5    5    0    0 -0.69810969928E+02 -0.38470969124E+01  0.31428862081E+03  0.32197159633E+03  0.00000000000E+00 0.  1.
        -13    1    5    5    0    0 -0.33885890274E+03  0.51484300381E+02  0.84115335565E+03  0.90830333968E+03  0.00000000000E+00 0. -1.
          1    1    6    6  503    0  0.17949043978E+03 -0.68219466497E+02  0.10650388182E+03  0.21957638859E+03  0.00000000000E+00 0. -1.
         -1    1    6    6    0  503  0.86194966198E+02 -0.71899707539E+02  0.70060990223E+00  0.11224807792E+03  0.00000000000E+00 0.  1.
<mgrwt>
<rscale>  0 0.12616017E+04</rscale>
<asrwt>0</asrwt>
<pdfrwt beam="1">  1        2 0.38810609E+00 0.12616017E+04</pdfrwt>
<pdfrwt beam="2">  1       -1 0.24266512E-01 0.12616017E+04</pdfrwt>
<totfact> 0.56032589E+01</totfact>
</mgrwt>
</event>
<event>
12    7  0.1660832E-007  0.1737064E+04  0.7818608E-02  0.8740503E-01
          2   -1    0    0  501    0  0.00000000000E+00  0.00000000000E+00  0.11020603436E+04  0.11020603436E+04  0.00000000000E+00 0. -1.
         -1   -1    0    0    0  501 -0.00000000000E+00 -0.00000000000E+00 -0.68448835665E+03  0.68448835665E+03  0.00000000000E+00 0.  1.
         24    2    1    2    0    0 -0.39367697348E+03 -0.49567658279E+03  0.80062896251E+02  0.64297406680E+03  0.79553435169E+02 0.  0.
        254    2    1    2    0    0  0.39367697348E+03  0.49567658279E+03  0.33750909068E+03  0.11435746334E+04  0.89060301020E+03 0.  0.
         23    2    4    4    0    0  0.41408305966E+03  0.72632331723E+03  0.28262819585E+03  0.88720902710E+03  0.90834020246E+02 0.  0.
         23    2    4    4    0    0 -0.20406086179E+02 -0.23064673443E+03  0.54880894823E+02  0.25636560634E+03  0.95378650847E+02 0.  0.
          2    1    3    3  502    0 -0.35793825607E+03 -0.41351608749E+03  0.83810732001E+02  0.55329882394E+03  0.00000000000E+00 0. -1.
         -1    1    3    3    0  502 -0.35738717414E+02 -0.82160495299E+02 -0.37478357500E+01  0.89675242865E+02  0.00000000000E+00 0.  1.
         13    1    5    5    0    0  0.36345808352E+03  0.64141009306E+03  0.27908147210E+03  0.78828621326E+03  0.00000000000E+00 0. -1.
        -13    1    5    5    0    0  0.50624976144E+02  0.84913224166E+02  0.35467237508E+01  0.98922813836E+02  0.00000000000E+00 0.  1.
          1    1    6    6  503    0 -0.13330464531E+02 -0.19840584477E+03  0.79792923031E+01  0.19901318959E+03  0.00000000000E+00 0. -1.
         -1    1    6    6    0  503 -0.70756216476E+01 -0.32240889661E+02  0.46901602519E+02  0.57352416747E+02  0.00000000000E+00 0.  1.
<mgrwt>
<rscale>  0 0.17370636E+04</rscale>
<asrwt>0</asrwt>
<pdfrwt beam="1">  1        2 0.16954775E+00 0.17370636E+04</pdfrwt>
<pdfrwt beam="2">  1       -1 0.10530590E+00 0.17370636E+04</pdfrwt>
<totfact> 0.19880521E+01</totfact>
</mgrwt>
</event>
<event>
12    7  0.1660832E-007  0.1380069E+04  0.7818608E-02  0.8968373E-01
          2   -1    0    0  501    0  0.00000000000E+00  0.00000000000E+00  0.38365705424E+03  0.38365705424E+03  0.00000000000E+00 0. -1.
         -1   -1    0    0    0  501 -0.00000000000E+00 -0.00000000000E+00 -0.12410758646E+04  0.12410758646E+04  0.00000000000E+00 0.  1.
         24    2    1    2    0    0  0.17627300975E+03  0.44833522974E+02  0.16192860448E+03  0.25643089251E+03  0.80334991958E+02 0.  0.
        254    2    1    2    0    0 -0.17627300975E+03 -0.44833522974E+02 -0.10193474148E+04  0.13683020263E+04  0.89448256794E+03 0.  0.
         23    2    4    4    0    0  0.58121011866E+02 -0.41366222239E+03 -0.30483587688E+03  0.52576342241E+03  0.94909315984E+02 0.  0.
         23    2    4    4    0    0 -0.23439402162E+03  0.36882869941E+03 -0.71451153795E+03  0.84253860391E+03  0.91484393921E+02 0.  0.
          4    1    3    3  502    0  0.56585693883E+02  0.53630592705E+02  0.75584098542E+02  0.10858700281E+03  0.00000000000E+00 0. -1.
         -3    1    3    3    0  502  0.11968731587E+03 -0.87970697304E+01  0.86344505942E+02  0.14784388970E+03  0.00000000000E+00 0.  1.
         13    1    5    5    0    0  0.49741903801E+02 -0.31145021523E+03 -0.27631764149E+03  0.41931722187E+03  0.00000000000E+00 0. -1.
        -13    1    5    5    0    0  0.83791080651E+01 -0.10221200716E+03 -0.28518235391E+02  0.10644620054E+03  0.00000000000E+00 0.  1.
          2    1    6    6  503    0 -0.22652405217E+03  0.37383740892E+03 -0.69793164607E+03  0.82351450328E+03  0.00000000000E+00 0. -1.
         -2    1    6    6    0  503 -0.78699694451E+01 -0.50087095109E+01 -0.16579891874E+02  0.19024100624E+02  0.00000000000E+00 0.  1.
<mgrwt>
<rscale>  0 0.13800689E+04</rscale>
<asrwt>0</asrwt>
<pdfrwt beam="1">  1        2 0.59024162E-01 0.13800689E+04</pdfrwt>
<pdfrwt beam="2">  1       -1 0.19093475E+00 0.13800689E+04</pdfrwt>
<totfact> 0.16180876E+01</totfact>
</mgrwt>
</event>
<event>
12    7  0.1660832E-007  0.1340749E+04  0.7818608E-02  0.8997860E-01
          2   -1    0    0  501    0  0.00000000000E+00  0.00000000000E+00  0.10583243456E+04  0.10583243456E+04  0.00000000000E+00 0. -1.
         -1   -1    0    0    0  501 -0.00000000000E+00 -0.00000000000E+00 -0.42463553425E+03  0.42463553425E+03  0.00000000000E+00 0.  1.
         24    2    1    2    0    0 -0.13814712613E+03 -0.29762370413E+03  0.15469373050E+02  0.33816144533E+03  0.80307931672E+02 0.  0.
        254    2    1    2    0    0  0.13814712613E+03  0.29762370413E+03  0.61821943828E+03  0.11447984345E+04  0.90592697501E+03 0.  0.
         23    2    4    4    0    0  0.18823395911E+03 -0.18999695201E+03  0.57964897632E+03  0.64464798286E+03  0.89706303659E+02 0.  0.
         23    2    4    4    0    0 -0.50086832987E+02  0.48762065614E+03  0.38570461954E+02  0.50015045164E+03  0.91543424684E+02 0.  0.
          2    1    3    3  502    0 -0.11699309081E+02 -0.67409608567E+02 -0.24110093756E+02  0.72541200576E+02  0.00000000000E+00 0. -1.
         -1    1    3    3    0  502 -0.12644781705E+03 -0.23021409556E+03  0.39579466806E+02  0.26562024476E+03  0.00000000000E+00 0.  1.
         13    1    5    5    0    0  0.12066649180E+03 -0.16732978293E+03  0.47682881415E+03  0.51954343081E+03  0.00000000000E+00 0.  1.
        -13    1    5    5    0    0  0.67567467312E+02 -0.22667169078E+02  0.10282016217E+03  0.12510455204E+03  0.00000000000E+00 0. -1.
          1    1    6    6  503    0 -0.53100871036E+02  0.12472606579E+03  0.42770823892E+01  0.13562664718E+03  0.00000000000E+00 0. -1.
         -1    1    6    6    0  503  0.30140380493E+01  0.36289459035E+03  0.34293379565E+02  0.36452380446E+03  0.00000000000E+00 0.  1.
<mgrwt>
<rscale>  0 0.13407492E+04</rscale>
<asrwt>0</asrwt>
<pdfrwt beam="1">  1        2 0.16281913E+00 0.13407492E+04</pdfrwt>
<pdfrwt beam="2">  1       -1 0.65328544E-01 0.13407492E+04</pdfrwt>
<totfact> 0.61252853E+01</totfact>
</mgrwt>
</event>
<event>
12    7  0.1660832E-007  0.1557408E+04  0.7818608E-02  0.8847150E-01
         -1   -1    0    0    0  501 -0.00000000000E+00  0.00000000000E+00  0.18305159202E+03  0.18305159202E+03  0.00000000000E+00 0.  1.
          2   -1    0    0  501    0  0.00000000000E+00 -0.00000000000E+00 -0.33126178587E+04  0.33126178587E+04  0.00000000000E+00 0. -1.
         24    2    1    2    0    0 -0.43599459509E+03 -0.26436264860E+03 -0.99838163182E+03  0.11238809583E+04  0.79772355350E+02 0.  0.
        254    2    1    2    0    0  0.43599459509E+03  0.26436264860E+03 -0.21311846349E+04  0.23717884925E+04  0.90744355643E+03 0.  0.
         23    2    4    4    0    0  0.59537273427E+02  0.31027450928E+03 -0.16527758016E+03  0.36761969093E+03  0.89513131002E+02 0.  0.
         23    2    4    4    0    0  0.37645732166E+03 -0.45911860672E+02 -0.19659070547E+04  0.20041688015E+04  0.89855568884E+02 0.  0.
          2    1    3    3  502    0 -0.35172378571E+03 -0.24551312592E+03 -0.80674038466E+03  0.91368285783E+03  0.00000000000E+00 0. -1.
         -1    1    3    3    0  502 -0.84270809373E+02 -0.18849522683E+02 -0.19164124715E+03  0.21019810044E+03  0.00000000000E+00 0.  1.
         13    1    5    5    0    0  0.27814603242E+02  0.29047746421E+02 -0.44312315871E+02  0.59841499509E+02  0.00000000000E+00 0. -1.
        -13    1    5    5    0    0  0.31722670185E+02  0.28122676286E+03 -0.12096526429E+03  0.30777819142E+03  0.00000000000E+00 0.  1.
          1    1    6    6  503    0  0.26609163216E+03 -0.80109597623E+01 -0.15260631218E+04  0.15491086417E+04  0.00000000000E+00 0. -1.
         -1    1    6    6    0  503  0.11036568950E+03 -0.37900900910E+02 -0.43984393293E+03  0.45506015981E+03  0.00000000000E+00 0.  1.
<mgrwt>
<rscale>  0 0.15574081E+04</rscale>
<asrwt>0</asrwt>
<pdfrwt beam="1">  1        2 0.50963351E+00 0.15574081E+04</pdfrwt>
<pdfrwt beam="2">  1       -1 0.28161784E-01 0.15574081E+04</pdfrwt>
<totfact> 0.13779890E+01</totfact>
</mgrwt>
</event>
<event>
12    7  0.1660832E-007  0.1835747E+04  0.7818608E-02  0.8687517E-01
          2   -1    0    0  501    0  0.00000000000E+00  0.00000000000E+00  0.39015150360E+03  0.39015150360E+03  0.00000000000E+00 0. -1.
         -1   -1    0    0    0  501 -0.00000000000E+00 -0.00000000000E+00 -0.21593957926E+04  0.21593957926E+04  0.00000000000E+00 0.  1.
         24    2    1    2    0    0  0.67703343882E+03  0.66882717520E+02 -0.87427437569E+03  0.11106505747E+04  0.79633158068E+02 0.  0.
        254    2    1    2    0    0 -0.67703343882E+03 -0.66882717520E+02 -0.89496991335E+03  0.14388967216E+04  0.89811193863E+03 0.  0.
         23    2    4    4    0    0 -0.60911259382E+03 -0.19009936383E+03 -0.10355311260E+04  0.12197104680E+04  0.90625563885E+02 0.  0.
         23    2    4    4    0    0 -0.67920844999E+02  0.12321664631E+03  0.14056121263E+03  0.21918625354E+03  0.92138895867E+02 0.  0.
          4    1    3    3  502    0  0.49820788033E+03  0.32041309018E+02 -0.58838248069E+03  0.77164219758E+03  0.00000000000E+00 0. -1.
         -3    1    3    3    0  502  0.17882555849E+03  0.34841408502E+02 -0.28589189499E+03  0.33900837709E+03  0.00000000000E+00 0.  1.
         13    1    5    5    0    0 -0.41734833148E+03 -0.13246470789E+03 -0.78638963033E+03  0.90007509649E+03  0.00000000000E+00 0. -1.
        -13    1    5    5    0    0 -0.19176426234E+03 -0.57634655936E+02 -0.24914149565E+03  0.31963537153E+03  0.00000000000E+00 0.  1.
          3    1    6    6  503    0 -0.69878781194E+02  0.13523816790E+03  0.14027775990E+03  0.20700303389E+03  0.00000000000E+00 0. -1.
         -3    1    6    6    0  503  0.19579361948E+01 -0.12021521592E+02  0.28345273074E+00  0.12183219647E+02  0.00000000000E+00 0.  1.
<mgrwt>
<rscale>  0 0.18357467E+04</rscale>
<asrwt>0</asrwt>
<pdfrwt beam="1">  1        2 0.60023308E-01 0.18357467E+04</pdfrwt>
<pdfrwt beam="2">  1       -1 0.33221474E+00 0.18357467E+04</pdfrwt>
<totfact> 0.17955487E+00</totfact>
</mgrwt>
</event>
<event>
12    7  0.1660832E-007  0.1191444E+04  0.7818608E-02  0.9120379E-01
         -1   -1    0    0    0  501 -0.00000000000E+00  0.00000000000E+00  0.40242767674E+03  0.40242767674E+03  0.00000000000E+00 0.  1.
          2   -1    0    0  501    0  0.00000000000E+00 -0.00000000000E+00 -0.88185940019E+03  0.88185940019E+03  0.00000000000E+00 0. -1.
         24    2    1    2    0    0  0.19622917018E+03  0.13497750433E+03 -0.13126939330E+03  0.28593834800E+03  0.88341787038E+02 0.  0.
        254    2    1    2    0    0 -0.19622917018E+03 -0.13497750433E+03 -0.34816233014E+03  0.99834872893E+03  0.90485267448E+03 0.  0.
         23    2    4    4    0    0 -0.40176883490E+03  0.11256301571E+03 -0.47706424529E+03  0.64099437712E+03  0.95889875220E+02 0.  0.
         23    2    4    4    0    0  0.20553966472E+03 -0.24754052004E+03  0.12890191515E+03  0.35735435180E+03  0.86968765619E+02 0.  0.
          4    1    3    3  502    0  0.58996794892E+02  0.88456479791E+02 -0.76688337448E+02  0.13109642148E+03  0.00000000000E+00 0. -1.
         -3    1    3    3    0  502  0.13723237529E+03  0.46521024538E+02 -0.54581055854E+02  0.15484192652E+03  0.00000000000E+00 0.  1.
         13    1    5    5    0    0 -0.47791017680E+02 -0.17122111261E+02 -0.48365014030E+02  0.70116493402E+02  0.00000000000E+00 0.  1.
        -13    1    5    5    0    0 -0.35397781722E+03  0.12968512697E+03 -0.42869923126E+03  0.57087788372E+03  0.00000000000E+00 0. -1.
          3    1    6    6  503    0  0.17967883821E+03 -0.17252503754E+03  0.70658544777E+02  0.25892470610E+03  0.00000000000E+00 0. -1.
         -3    1    6    6    0  503  0.25860826508E+02 -0.75015482496E+02  0.58243370369E+02  0.98429645706E+02  0.00000000000E+00 0.  1.
<mgrwt>
<rscale>  0 0.11914439E+04</rscale>
<asrwt>0</asrwt>
<pdfrwt beam="1">  1        2 0.13567068E+00 0.11914439E+04</pdfrwt>
<pdfrwt beam="2">  1       -1 0.61911951E-01 0.11914439E+04</pdfrwt>
<totfact> 0.89950759E+01</totfact>
</mgrwt>
</event>
<event>
12    7  0.1660832E-007  0.3181130E+04  0.7818608E-02  0.8193819E-01
         -1   -1    0    0    0  501 -0.00000000000E+00  0.00000000000E+00  0.11924331381E+04  0.11924331381E+04  0.00000000000E+00 0.  1.
          2   -1    0    0  501    0  0.00000000000E+00 -0.00000000000E+00 -0.21216253357E+04  0.21216253357E+04  0.00000000000E+00 0. -1.
         24    2    1    2    0    0  0.94649194624E+03 -0.86467087078E+03 -0.11598508557E+04  0.17306153843E+04  0.79201527199E+02 0.  0.
        254    2    1    2    0    0 -0.94649194624E+03  0.86467087078E+03  0.23065865807E+03  0.15834430894E+04  0.90032543107E+03 0.  0.
         23    2    4    4    0    0  0.55711743899E+02 -0.48740492415E+02  0.19071186319E+03  0.22391746228E+03  0.91041645099E+02 0.  0.
         23    2    4    4    0    0 -0.10022036901E+04  0.91341136320E+03  0.39946794878E+02  0.13595256271E+04  0.89339965908E+02 0.  0.
          4    1    3    3  502    0  0.43016986526E+03 -0.43169054689E+03 -0.51402982903E+03  0.79726376211E+03  0.00000000000E+00 0. -1.
         -1    1    3    3    0  502  0.51632208098E+03 -0.43298032389E+03 -0.64582102669E+03  0.93335162222E+03  0.00000000000E+00 0.  1.
         13    1    5    5    0    0  0.18881277335E+02 -0.16581378606E+02  0.16823948203E+03  0.17010575553E+03  0.00000000000E+00 0.  1.
        -13    1    5    5    0    0  0.36830466564E+02 -0.32159113809E+02  0.22472381160E+02  0.53811706750E+02  0.00000000000E+00 0. -1.
          2    1    6    6  503    0 -0.93056955816E+03  0.82480632633E+03  0.54365786246E+02  0.12446769931E+04  0.00000000000E+00 0. -1.
         -2    1    6    6    0  503 -0.71634131975E+02  0.88605036862E+02 -0.14418991369E+02  0.11484863401E+03  0.00000000000E+00 0.  1.
<mgrwt>
<rscale>  0 0.31811296E+04</rscale>
<asrwt>0</asrwt>
<pdfrwt beam="1">  1        2 0.32640390E+00 0.31811296E+04</pdfrwt>
<pdfrwt beam="2">  1       -1 0.18345125E+00 0.31811296E+04</pdfrwt>
<totfact> 0.10774576E+00</totfact>
</mgrwt>
</event>
<event>
12    7  0.1660832E-007  0.1240554E+04  0.7818608E-02  0.9078082E-01
         -1   -1    0    0    0  501 -0.00000000000E+00  0.00000000000E+00  0.12686055881E+03  0.12686055881E+03  0.00000000000E+00 0.  1.
          2   -1    0    0  501    0  0.00000000000E+00 -0.00000000000E+00 -0.30328060994E+04  0.30328060994E+04  0.00000000000E+00 0. -1.
         24    2    1    2    0    0  0.91925487474E+02 -0.12427425558E+03 -0.13794337656E+04  0.13905871275E+04  0.83669945670E+02 0.  0.
        254    2    1    2    0    0 -0.91925487474E+02  0.12427425558E+03 -0.15265117750E+04  0.17690795307E+04  0.88063034286E+03 0.  0.
         23    2    4    4    0    0 -0.37783511424E+03 -0.20897934177E+03 -0.67328047001E+03  0.80522136435E+03  0.92968357300E+02 0.  0.
         23    2    4    4    0    0  0.28590962677E+03  0.33325359734E+03 -0.85323130498E+03  0.96385816632E+03  0.90645629521E+02 0.  0.
          4    1    3    3  502    0  0.63699483067E+02 -0.78353545174E+02 -0.11692301109E+04  0.11735825298E+04  0.00000000000E+00 0. -1.
         -3    1    3    3    0  502  0.28226004407E+02 -0.45920710402E+02 -0.21020365473E+03  0.21700459772E+03  0.00000000000E+00 0.  1.
         13    1    5    5    0    0 -0.22619947523E+03 -0.17472301831E+03 -0.41967827594E+03  0.50776391268E+03  0.00000000000E+00 0.  1.
        -13    1    5    5    0    0 -0.15163563901E+03 -0.34256323463E+02 -0.25360219407E+03  0.29745745167E+03  0.00000000000E+00 0. -1.
          3    1    6    6  503    0  0.25006367218E+03  0.32635080091E+03 -0.79738089672E+03  0.89713598738E+03  0.00000000000E+00 0. -1.
         -3    1    6    6    0  503  0.35845954591E+02  0.69027964390E+01 -0.55850408260E+02  0.66722178937E+02  0.00000000000E+00 0.  1.
<mgrwt>
<rscale>  0 0.12405539E+04</rscale>
<asrwt>0</asrwt>
<pdfrwt beam="1">  1        2 0.46658555E+00 0.12405539E+04</pdfrwt>
<pdfrwt beam="2">  1       -1 0.19517009E-01 0.12405539E+04</pdfrwt>
<totfact> 0.40204697E+01</totfact>
</mgrwt>
</event>
<event>
12    7  0.1660832E-007  0.2216880E+04  0.7818608E-02  0.8511435E-01
          2   -1    0    0  501    0  0.00000000000E+00  0.00000000000E+00  0.34192595177E+04  0.34192595177E+04  0.00000000000E+00 0. -1.
         -1   -1    0    0    0  501 -0.00000000000E+00 -0.00000000000E+00 -0.35932892536E+03  0.35932892536E+03  0.00000000000E+00 0.  1.
         24    2    1    2    0    0  0.50351614958E+03 -0.16082719720E+03  0.25835333241E+04  0.26382451096E+04  0.79365745495E+02 0.  0.
        254    2    1    2    0    0 -0.50351614958E+03  0.16082719720E+03  0.47639726831E+03  0.11403433335E+04  0.89108622520E+03 0.  0.
         23    2    4    4    0    0 -0.39330796903E+03 -0.33175407980E+03  0.27223503560E+03  0.58906112524E+03  0.90161891552E+02 0.  0.
         23    2    4    4    0    0 -0.11020818055E+03  0.49258127700E+03  0.20416223270E+03  0.55128220825E+03  0.86300048452E+02 0.  0.
          4    1    3    3  502    0  0.43490679014E+03 -0.14404087303E+03  0.20855585427E+04  0.21352859584E+04  0.00000000000E+00 0. -1.
         -3    1    3    3    0  502  0.68609359435E+02 -0.16786324170E+02  0.49797478136E+03  0.50295915118E+03  0.00000000000E+00 0.  1.
         13    1    5    5    0    0 -0.31554618857E+03 -0.29097351062E+03  0.25598666840E+03  0.49976409975E+03  0.00000000000E+00 0.  1.
        -13    1    5    5    0    0 -0.77761780464E+02 -0.40780569178E+02  0.16248367200E+02  0.89297025483E+02  0.00000000000E+00 0. -1.
          1    1    6    6  503    0 -0.16691666035E+02  0.24510780677E+03  0.12175628308E+03  0.27419161389E+03  0.00000000000E+00 0. -1.
         -1    1    6    6    0  503 -0.93516514511E+02  0.24747347023E+03  0.82405949618E+02  0.27709059437E+03  0.00000000000E+00 0.  1.
<mgrwt>
<rscale>  0 0.22168797E+04</rscale>
<asrwt>0</asrwt>
<pdfrwt beam="1">  1        2 0.52603990E+00 0.22168797E+04</pdfrwt>
<pdfrwt beam="2">  1       -1 0.55281376E-01 0.22168797E+04</pdfrwt>
<totfact> 0.31868346E+00</totfact>
</mgrwt>
</event>
<event>
12    7  0.1660832E-007  0.1435639E+04  0.7818608E-02  0.8928418E-01
          2   -1    0    0  501    0  0.00000000000E+00  0.00000000000E+00  0.81840028590E+03  0.81840028590E+03  0.00000000000E+00 0. -1.
         -1   -1    0    0    0  501 -0.00000000000E+00 -0.00000000000E+00 -0.62960020056E+03  0.62960020056E+03  0.00000000000E+00 0.  1.
         24    2    1    2    0    0 -0.61001320709E+02 -0.21085842319E+03  0.42617588226E+03  0.48583087354E+03  0.78888017489E+02 0.  0.
        254    2    1    2    0    0  0.61001320709E+02  0.21085842319E+03 -0.23737579693E+03  0.96216961292E+03  0.90622329440E+03 0.  0.
         23    2    4    4    0    0 -0.16784084441E+03 -0.17353723685E+03 -0.40093406806E+03  0.47684168256E+03  0.91346273449E+02 0.  0.
         23    2    4    4    0    0  0.22884216512E+03  0.38439566004E+03  0.16355827114E+03  0.48532793036E+03  0.93075947137E+02 0.  0.
          4    1    3    3  502    0 -0.66528682379E+02 -0.19549613060E+03  0.33750588450E+03  0.39567034856E+03  0.00000000000E+00 0. -1.
         -3    1    3    3    0  502  0.55273616706E+01 -0.15362292583E+02  0.88669997763E+02  0.90160524975E+02  0.00000000000E+00 0.  1.
         13    1    5    5    0    0 -0.17502162694E+03 -0.15882788246E+03 -0.34230578449E+03  0.41597129257E+03  0.00000000000E+00 0. -1.
        -13    1    5    5    0    0  0.71807825297E+01 -0.14709354397E+02 -0.58628283567E+02  0.60870389998E+02  0.00000000000E+00 0.  1.
          2    1    6    6  503    0  0.21137284771E+03  0.27938783924E+03  0.13066168683E+03  0.37390977772E+03  0.00000000000E+00 0. -1.
         -2    1    6    6    0  503  0.17469317407E+02  0.10500782080E+03  0.32896584305E+02  0.11141815264E+03  0.00000000000E+00 0.  1.
<mgrwt>
<rscale>  0 0.14356392E+04</rscale>
<asrwt>0</asrwt>
<pdfrwt beam="1">  1        2 0.12590774E+00 0.14356392E+04</pdfrwt>
<pdfrwt beam="2">  1       -1 0.96861569E-01 0.14356392E+04</pdfrwt>
<totfact> 0.37967467E+01</totfact>
</mgrwt>
</event>
<event>
12    7  0.1660832E-007  0.2857293E+04  0.7818608E-02  0.8285699E-01
         -3   -1    0    0    0  501 -0.00000000000E+00  0.00000000000E+00  0.89802791403E+03  0.89802791403E+03  0.00000000000E+00 0.  1.
          2   -1    0    0  501    0  0.00000000000E+00 -0.00000000000E+00 -0.22727920728E+04  0.22727920728E+04  0.00000000000E+00 0. -1.
         24    2    1    2    0    0 -0.91163893952E+03  0.88016769203E+03 -0.82088742798E+03  0.15119656164E+04  0.80019582762E+02 0.  0.
        254    2    1    2    0    0  0.91163893952E+03 -0.88016769203E+03 -0.55387673082E+03  0.16588543705E+04  0.91609915800E+03 0.  0.
         23    2    4    4    0    0  0.76093374952E+03 -0.21454414987E+03 -0.34477953978E+02  0.79635513668E+03  0.89125815611E+02 0.  0.
         23    2    4    4    0    0  0.15070519000E+03 -0.66562354216E+03 -0.51939877684E+03  0.86249923377E+03  0.91449902666E+02 0.  0.
          4    1    3    3  502    0 -0.71590029053E+02  0.89340319944E+02 -0.53764789068E+02  0.12648113524E+03  0.00000000000E+00 0. -1.
         -3    1    3    3    0  502 -0.84004891047E+03  0.79082737209E+03 -0.76712263891E+03  0.13854844812E+04  0.00000000000E+00 0.  1.
         13    1    5    5    0    0  0.57716936709E+03 -0.15433762992E+03 -0.63500893719E+02  0.60081356993E+03  0.00000000000E+00 0. -1.
        -13    1    5    5    0    0  0.18376438243E+03 -0.60206519952E+02  0.29022939742E+02  0.19554156675E+03  0.00000000000E+00 0.  1.
          4    1    6    6  503    0  0.29084264291E+02 -0.18447015898E+03 -0.95145812468E+02  0.20958974119E+03  0.00000000000E+00 0. -1.
         -4    1    6    6    0  503  0.12162092571E+03 -0.48115338318E+03 -0.42425296438E+03  0.65290949258E+03  0.00000000000E+00 0.  1.
<mgrwt>
<rscale>  0 0.28572929E+04</rscale>
<asrwt>0</asrwt>
<pdfrwt beam="1">  1        2 0.34966032E+00 0.28572929E+04</pdfrwt>
<pdfrwt beam="2">  1       -3 0.13815814E+00 0.28572929E+04</pdfrwt>
<totfact> 0.10309823E+00</totfact>
</mgrwt>
</event>
<event>
12    7  0.1660832E-007  0.1422726E+04  0.7818608E-02  0.8937531E-01
          2   -1    0    0  501    0  0.00000000000E+00  0.00000000000E+00  0.64943539757E+03  0.64943539757E+03  0.00000000000E+00 0. -1.
         -1   -1    0    0    0  501 -0.00000000000E+00 -0.00000000000E+00 -0.77919598420E+03  0.77919598420E+03  0.00000000000E+00 0.  1.
         24    2    1    2    0    0  0.39635250816E+03  0.38637458347E+02  0.95201698409E+02  0.41721101043E+03  0.80084330162E+02 0.  0.
        254    2    1    2    0    0 -0.39635250816E+03 -0.38637458347E+02 -0.22496228503E+03  0.10114203713E+04  0.90209476995E+03 0.  0.
         23    2    4    4    0    0 -0.44286912028E+03  0.13570504113E+03  0.22098024140E+03  0.52094362897E+03  0.89448765173E+02 0.  0.
         23    2    4    4    0    0  0.46516612127E+02 -0.17434249948E+03 -0.44594252643E+03  0.49047674237E+03  0.95622150105E+02 0.  0.
          4    1    3    3  502    0  0.81956505079E+02  0.34955132343E+01 -0.12601992637E+02  0.82993358505E+02  0.00000000000E+00 0. -1.
         -3    1    3    3    0  502  0.31439600308E+03  0.35141945113E+02  0.10780369105E+03  0.33421765193E+03  0.00000000000E+00 0.  1.
         13    1    5    5    0    0 -0.10947084579E+03  0.43475373185E+02  0.16046662822E+02  0.11887585768E+03  0.00000000000E+00 0.  1.
        -13    1    5    5    0    0 -0.33339827449E+03  0.92229667948E+02  0.20493357858E+03  0.40206777130E+03  0.00000000000E+00 0. -1.
          3    1    6    6  503    0  0.44983615827E+02 -0.31184004816E+02 -0.18392719762E+03  0.19189888451E+03  0.00000000000E+00 0. -1.
         -3    1    6    6    0  503  0.15329962997E+01 -0.14315849466E+03 -0.26201532881E+03  0.29857785786E+03  0.00000000000E+00 0.  1.
<mgrwt>
<rscale>  0 0.14227262E+04</rscale>
<asrwt>0</asrwt>
<pdfrwt beam="1">  1        2 0.99913138E-01 0.14227262E+04</pdfrwt>
<pdfrwt beam="2">  1       -1 0.11987631E+00 0.14227262E+04</pdfrwt>
<totfact> 0.31023965E+01</totfact>
</mgrwt>
</event>
<event>
12    7  0.1660832E-007  0.3407157E+04  0.7818608E-02  0.8136152E-01
          2   -1    0    0  501    0  0.00000000000E+00  0.00000000000E+00  0.20235623631E+04  0.20235623631E+04  0.00000000000E+00 0. -1.
         -1   -1    0    0    0  501 -0.00000000000E+00 -0.00000000000E+00 -0.14341935461E+04  0.14341935461E+04  0.00000000000E+00 0.  1.
         24    2    1    2    0    0 -0.78600276440E+03  0.13693810359E+04  0.33088871706E+03  0.16148611732E+04  0.72694555433E+02 0.  0.
        254    2    1    2    0    0  0.78600276440E+03 -0.13693810359E+04  0.25848009995E+03  0.18428947360E+04  0.91457327683E+03 0.  0.
         23    2    4    4    0    0 -0.39974470260E+02 -0.70269317171E+03 -0.10343424279E+03  0.71775269486E+03  0.95365803920E+02 0.  0.
         23    2    4    4    0    0  0.82597723466E+03 -0.66668786420E+03  0.36191434274E+03  0.11251420411E+04  0.90837881826E+02 0.  0.
          4    1    3    3  502    0 -0.57113042017E+03  0.10414202778E+04  0.27042385032E+03  0.12181441666E+04  0.00000000000E+00 0. -1.
         -3    1    3    3    0  502 -0.21487234423E+03  0.32796075808E+03  0.60464866739E+02  0.39671700652E+03  0.00000000000E+00 0.  1.
         13    1    5    5    0    0  0.68654951205E+00 -0.34628512551E+03 -0.72508246738E+01  0.34636170971E+03  0.00000000000E+00 0. -1.
        -13    1    5    5    0    0 -0.40661019772E+02 -0.35640804620E+03 -0.96183418118E+02  0.37139098514E+03  0.00000000000E+00 0.  1.
          4    1    6    6  503    0  0.15833973412E+03 -0.84893025285E+02  0.67386236439E+02  0.19188330309E+03  0.00000000000E+00 0. -1.
         -4    1    6    6    0  503  0.66763750054E+03 -0.58179483891E+03  0.29452810630E+03  0.93325873804E+03  0.00000000000E+00 0.  1.
<mgrwt>
<rscale>  0 0.34071572E+04</rscale>
<asrwt>0</asrwt>
<pdfrwt beam="1">  1        2 0.31131729E+00 0.34071572E+04</pdfrwt>
<pdfrwt beam="2">  1       -1 0.22064516E+00 0.34071572E+04</pdfrwt>
<totfact> 0.66517198E-01</totfact>
</mgrwt>
</event>
<event>
12    7  0.1660832E-007  0.1950437E+04  0.7818608E-02  0.8630150E-01
          2   -1    0    0  501    0  0.00000000000E+00  0.00000000000E+00  0.38956363200E+04  0.38956363200E+04  0.00000000000E+00 0. -1.
         -1   -1    0    0    0  501 -0.00000000000E+00 -0.00000000000E+00 -0.24413254432E+03  0.24413254432E+03  0.00000000000E+00 0.  1.
         24    2    1    2    0    0  0.61520507053E+03 -0.35768393629E+02  0.22987393344E+04  0.23804991374E+04  0.53075030627E+02 0.  0.
        254    2    1    2    0    0 -0.61520507053E+03  0.35768393629E+02  0.13527644413E+04  0.17592697270E+04  0.94090471448E+03 0.  0.
         23    2    4    4    0    0  0.18704256314E+03 -0.11592373729E+03  0.60265634972E+03  0.64685093661E+03  0.82451349545E+02 0.  0.
         23    2    4    4    0    0 -0.80224763367E+03  0.15169213092E+03  0.75010809162E+03  0.11124187904E+04  0.90562949066E+02 0.  0.
          2    1    3    3  502    0  0.25767722445E+03  0.10669198808E+02  0.97939732186E+03  0.10127835395E+04  0.00000000000E+00 0. -1.
         -1    1    3    3    0  502  0.35752784608E+03 -0.46437592437E+02  0.13193420125E+04  0.13677155979E+04  0.00000000000E+00 0.  1.
         13    1    5    5    0    0  0.16808177910E+03 -0.77522937600E+02  0.41561754375E+03  0.45497168373E+03  0.00000000000E+00 0. -1.
        -13    1    5    5    0    0  0.18960784036E+02 -0.38400799690E+02  0.18703880597E+03  0.19187925288E+03  0.00000000000E+00 0.  1.
          4    1    6    6  503    0 -0.64247820492E+02  0.15161774785E+02  0.98064763112E+02  0.11821319561E+03  0.00000000000E+00 0.  1.
         -4    1    6    6    0  503 -0.73799981318E+03  0.13653035613E+03  0.65204332850E+03  0.99420559475E+03  0.00000000000E+00 0. -1.
<mgrwt>
<rscale>  0 0.19504375E+04</rscale>
<asrwt>0</asrwt>
<pdfrwt beam="1">  1        2 0.59932862E+00 0.19504375E+04</pdfrwt>
<pdfrwt beam="2">  1       -1 0.37558856E-01 0.19504375E+04</pdfrwt>
<totfact> 0.30363296E+00</totfact>
</mgrwt>
</event>
<event>
12    7  0.1660832E-007  0.1629451E+04  0.7818608E-02  0.8802656E-01
         -1   -1    0    0    0  501 -0.00000000000E+00  0.00000000000E+00  0.31991486622E+03  0.31991486622E+03  0.00000000000E+00 0.  1.
          2   -1    0    0  501    0  0.00000000000E+00 -0.00000000000E+00 -0.20748582374E+04  0.20748582374E+04  0.00000000000E+00 0. -1.
         24    2    1    2    0    0 -0.27615858339E+03 -0.27955313494E+02  0.10634812063E+03  0.30826365140E+03  0.81679209606E+02 0.  0.
        254    2    1    2    0    0  0.27615858339E+03  0.27955313494E+02 -0.18612914918E+04  0.20865094522E+04  0.90114960687E+03 0.  0.
         23    2    4    4    0    0  0.62779632352E+02  0.17006835532E+03  0.34681794844E+01  0.20195280814E+03  0.88929076944E+02 0.  0.
         23    2    4    4    0    0  0.21337895104E+03 -0.14211304182E+03 -0.18647596713E+04  0.18845566441E+04  0.92186873561E+02 0.  0.
          4    1    3    3  502    0 -0.27576994367E+02  0.21067629205E+02  0.37348801235E+01  0.34903938863E+02  0.00000000000E+00 0. -1.
         -3    1    3    3    0  502 -0.24858158903E+03 -0.49022942699E+02  0.10261324050E+03  0.27335971254E+03  0.00000000000E+00 0.  1.
         13    1    5    5    0    0  0.24965423199E+02  0.96977828096E+02  0.44985397221E+02  0.10978004127E+03  0.00000000000E+00 0.  1.
        -13    1    5    5    0    0  0.37814209153E+02  0.73090527221E+02 -0.41517217736E+02  0.92172766867E+02  0.00000000000E+00 0. -1.
          4    1    6    6  503    0  0.32140166183E+02  0.49434481622E+01 -0.12286578502E+03  0.12709614113E+03  0.00000000000E+00 0. -1.
         -4    1    6    6    0  503  0.18123878486E+03 -0.14705648999E+03 -0.17418938863E+04  0.17574605029E+04  0.00000000000E+00 0.  1.
<mgrwt>
<rscale>  0 0.16294514E+04</rscale>
<asrwt>0</asrwt>
<pdfrwt beam="1">  1        2 0.31920896E+00 0.16294514E+04</pdfrwt>
<pdfrwt beam="2">  1       -1 0.49217672E-01 0.16294514E+04</pdfrwt>
<totfact> 0.27365001E+01</totfact>
</mgrwt>
</event>
<event>
12    7  0.1660832E-007  0.2523393E+04  0.7818608E-02  0.8394699E-01
         -1   -1    0    0    0  501 -0.00000000000E+00  0.00000000000E+00  0.65261561253E+03  0.65261561253E+03  0.00000000000E+00 0.  1.
          2   -1    0    0  501    0  0.00000000000E+00 -0.00000000000E+00 -0.24392281569E+04  0.24392281569E+04  0.00000000000E+00 0. -1.
         24    2    1    2    0    0 -0.79706274509E+03 -0.37983344635E+03 -0.15900900265E+04  0.18205407917E+04  0.80000095977E+02 0.  0.
        254    2    1    2    0    0  0.79706274509E+03  0.37983344635E+03 -0.19652251788E+03  0.12713029777E+04  0.89331276413E+03 0.  0.
         23    2    4    4    0    0 -0.66112910635E+02  0.36776357037E+03 -0.10115403722E+03  0.39801542432E+03  0.92537441637E+02 0.  0.
         23    2    4    4    0    0  0.86317565573E+03  0.12069875975E+02 -0.95368480660E+02  0.87328755340E+03  0.91203669218E+02 0.  0.
          4    1    3    3  502    0 -0.51267340196E+03 -0.27410895141E+03 -0.10988371429E+04  0.12431463313E+04  0.00000000000E+00 0. -1.
         -3    1    3    3    0  502 -0.28438934313E+03 -0.10572449494E+03 -0.49125288358E+03  0.57739446043E+03  0.00000000000E+00 0.  1.
         13    1    5    5    0    0 -0.73086079224E+02  0.34917402430E+03 -0.73930579422E+02  0.36432101888E+03  0.00000000000E+00 0.  1.
        -13    1    5    5    0    0  0.69731685889E+01  0.18589546069E+02 -0.27223457803E+02  0.33694405440E+02  0.00000000000E+00 0. -1.
          4    1    6    6  503    0  0.17342419334E+03 -0.26046363272E+02 -0.42612917043E+02  0.18047222661E+03  0.00000000000E+00 0. -1.
         -4    1    6    6    0  503  0.68975146238E+03  0.38116239247E+02 -0.52755563617E+02  0.69281532680E+03  0.00000000000E+00 0.  1.
<mgrwt>
<rscale>  0 0.25233933E+04</rscale>
<asrwt>0</asrwt>
<pdfrwt beam="1">  1        2 0.37526587E+00 0.25233933E+04</pdfrwt>
<pdfrwt beam="2">  1       -1 0.10040240E+00 0.25233933E+04</pdfrwt>
<totfact> 0.36080999E+00</totfact>
</mgrwt>
</event>
<event>
12    7  0.1660832E-007  0.1550645E+04  0.7818608E-02  0.8851456E-01
         -1   -1    0    0    0  501 -0.00000000000E+00  0.00000000000E+00  0.48966422872E+03  0.48966422872E+03  0.00000000000E+00 0.  1.
          2   -1    0    0  501    0  0.00000000000E+00 -0.00000000000E+00 -0.12276271713E+04  0.12276271713E+04  0.00000000000E+00 0. -1.
         24    2    1    2    0    0  0.32560465635E+03 -0.32346675922E+03 -0.54760952381E+03  0.71877993956E+03  0.78225791053E+02 0.  0.
        254    2    1    2    0    0 -0.32560465635E+03  0.32346675922E+03 -0.19035341881E+03  0.99851146050E+03  0.86610713895E+03 0.  0.
         23    2    4    4    0    0 -0.40651152418E+03 -0.57683935774E+02  0.17609491178E+03  0.45578773633E+03  0.90299429098E+02 0.  0.
         23    2    4    4    0    0  0.80906867830E+02  0.38115069499E+03 -0.36644833059E+03  0.54272372416E+03  0.91885190455E+02 0.  0.
          2    1    3    3  502    0  0.21225421353E+03 -0.20368334721E+03 -0.40623459727E+03  0.50156286257E+03  0.00000000000E+00 0. -1.
         -1    1    3    3    0  502  0.11335044283E+03 -0.11978341201E+03 -0.14137492655E+03  0.21721707699E+03  0.00000000000E+00 0.  1.
         13    1    5    5    0    0 -0.72469004656E+02 -0.40305272624E+02  0.57428812908E+02  0.10086793439E+03  0.00000000000E+00 0. -1.
        -13    1    5    5    0    0 -0.33404251953E+03 -0.17378663149E+02  0.11866609887E+03  0.35491980194E+03  0.00000000000E+00 0.  1.
          4    1    6    6  503    0  0.13915480323E+02  0.13415223152E+03 -0.73020064286E+02  0.15337011313E+03  0.00000000000E+00 0. -1.
         -4    1    6    6    0  503  0.66991387507E+02  0.24699846347E+03 -0.29342826631E+03  0.38935361103E+03  0.00000000000E+00 0.  1.
<mgrwt>
<rscale>  0 0.15506452E+04</rscale>
<asrwt>0</asrwt>
<pdfrwt beam="1">  1        2 0.18886572E+00 0.15506452E+04</pdfrwt>
<pdfrwt beam="2">  1       -1 0.75332959E-01 0.15506452E+04</pdfrwt>
<totfact> 0.35453653E+01</totfact>
</mgrwt>
</event>
<event>
12    7  0.1660832E-007  0.2528761E+04  0.7818608E-02  0.8392810E-01
          2   -1    0    0  501    0  0.00000000000E+00  0.00000000000E+00  0.21305230421E+04  0.21305230421E+04  0.00000000000E+00 0. -1.
         -1   -1    0    0    0  501 -0.00000000000E+00 -0.00000000000E+00 -0.75035926827E+03  0.75035926827E+03  0.00000000000E+00 0.  1.
         24    2    1    2    0    0 -0.64975504625E+03  0.88771538154E+03  0.50962988058E+03  0.12155552013E+04  0.87359106931E+02 0.  0.
        254    2    1    2    0    0  0.64975504625E+03 -0.88771538154E+03  0.87053389329E+03  0.16653271091E+04  0.89736553429E+03 0.  0.
         23    2    4    4    0    0  0.39925599487E+03  0.62833338473E+02  0.38706071793E+03  0.56603795723E+03  0.85027006229E+02 0.  0.
         23    2    4    4    0    0  0.25049905138E+03 -0.95054872002E+03  0.48347317536E+03  0.10992891519E+04  0.91638879493E+02 0.  0.
          2    1    3    3  502    0 -0.17715217885E+03  0.23095424134E+03  0.93694537237E+02  0.30578002285E+03  0.00000000000E+00 0. -1.
         -1    1    3    3    0  502 -0.47260286740E+03  0.65676114020E+03  0.41593534334E+03  0.90977517849E+03  0.00000000000E+00 0.  1.
         13    1    5    5    0    0  0.89863365114E+02 -0.14738182624E+02  0.11583263845E+03  0.14734258905E+03  0.00000000000E+00 0. -1.
        -13    1    5    5    0    0  0.30939262976E+03  0.77571521097E+02  0.27122807948E+03  0.41869536818E+03  0.00000000000E+00 0.  1.
          2    1    6    6  503    0  0.22019619204E+03 -0.77388574803E+03  0.42969114289E+03  0.91215129900E+03  0.00000000000E+00 0.  1.
         -2    1    6    6    0  503  0.30302859340E+02 -0.17666297198E+03  0.53782032468E+02  0.18713785285E+03  0.00000000000E+00 0. -1.
<mgrwt>
<rscale>  0 0.25287607E+04</rscale>
<asrwt>0</asrwt>
<pdfrwt beam="1">  1        2 0.32777277E+00 0.25287607E+04</pdfrwt>
<pdfrwt beam="2">  1       -1 0.11543989E+00 0.25287607E+04</pdfrwt>
<totfact> 0.38888564E+00</totfact>
</mgrwt>
</event>
<event>
12    7  0.1660832E-007  0.1336396E+04  0.7818608E-02  0.9001191E-01
          2   -1    0    0  501    0  0.00000000000E+00  0.00000000000E+00  0.16936396722E+04  0.16936396722E+04  0.00000000000E+00 0. -1.
         -1   -1    0    0    0  501 -0.00000000000E+00 -0.00000000000E+00 -0.26362665799E+03  0.26362665799E+03  0.00000000000E+00 0.  1.
         24    2    1    2    0    0 -0.30092806139E+03 -0.52318587392E+02  0.66225174129E+03  0.73364084171E+03  0.79728182377E+02 0.  0.
        254    2    1    2    0    0  0.30092806139E+03  0.52318587392E+02  0.76776127290E+03  0.12236254885E+04  0.90250043277E+03 0.  0.
         23    2    4    4    0    0 -0.40587263063E+02  0.32382199637E+03  0.69303356312E+03  0.77123464390E+03  0.89439057891E+02 0.  0.
         23    2    4    4    0    0  0.34151532445E+03 -0.27150340898E+03  0.74727709780E+02  0.45239084457E+03  0.93415350591E+02 0.  0.
          2    1    3    3  502    0 -0.25017947898E+03 -0.72189404653E+02  0.52689186522E+03  0.58772112390E+03  0.00000000000E+00 0. -1.
         -1    1    3    3    0  502 -0.50748582408E+02  0.19870817261E+02  0.13535987607E+03  0.14591971781E+03  0.00000000000E+00 0.  1.
         13    1    5    5    0    0 -0.14752338476E+02  0.28527819270E+03  0.53444590025E+03  0.60599810149E+03  0.00000000000E+00 0. -1.
        -13    1    5    5    0    0 -0.25834924586E+02  0.38543803670E+02  0.15858766287E+03  0.16523654240E+03  0.00000000000E+00 0.  1.
          1    1    6    6  503    0  0.29651305545E+02 -0.60474049571E+02  0.28033120468E+02  0.72953179747E+02  0.00000000000E+00 0. -1.
         -1    1    6    6    0  503  0.31186401890E+03 -0.21102935940E+03  0.46694589311E+02  0.37943766483E+03  0.00000000000E+00 0.  1.
<mgrwt>
<rscale>  0 0.13363960E+04</rscale>
<asrwt>0</asrwt>
<pdfrwt beam="1">  1        2 0.26055994E+00 0.13363960E+04</pdfrwt>
<pdfrwt beam="2">  1       -1 0.40557948E-01 0.13363960E+04</pdfrwt>
<totfact> 0.65390733E+01</totfact>
</mgrwt>
</event>
<event>
12    7  0.1660832E-007  0.3679779E+04  0.7818608E-02  0.8072458E-01
          2   -1    0    0  501    0  0.00000000000E+00  0.00000000000E+00  0.28270737274E+04  0.28270737274E+04  0.00000000000E+00 0. -1.
         -1   -1    0    0    0  501 -0.00000000000E+00 -0.00000000000E+00 -0.11974193910E+04  0.11974193910E+04  0.00000000000E+00 0.  1.
         24    2    1    2    0    0  0.16751954303E+04 -0.40857683641E+03  0.93213388113E+03  0.19617565836E+04  0.80003500123E+02 0.  0.
        254    2    1    2    0    0 -0.16751954303E+04  0.40857683641E+03  0.69752045523E+03  0.20627365347E+04  0.89170200469E+03 0.  0.
         23    2    4    4    0    0 -0.77809953235E+03  0.63227666606E+03  0.28541842987E+03  0.10464661208E+04  0.91733293451E+02 0.  0.
         23    2    4    4    0    0 -0.89709589798E+03 -0.22369982964E+03  0.41210202537E+03  0.10162704140E+04  0.90303992259E+02 0.  0.
          2    1    3    3  502    0  0.18722791716E+03 -0.60498950292E+02  0.13068854212E+03  0.23620734746E+03  0.00000000000E+00 0. -1.
         -1    1    3    3    0  502  0.14879675132E+04 -0.34807788612E+03  0.80144533900E+03  0.17255492362E+04  0.00000000000E+00 0.  1.
         13    1    5    5    0    0 -0.62863186472E+03  0.53069062218E+03  0.26642002843E+03  0.86474862785E+03  0.00000000000E+00 0.  1.
        -13    1    5    5    0    0 -0.14946766763E+03  0.10158604387E+03  0.18998401433E+02  0.18171749292E+03  0.00000000000E+00 0. -1.
          3    1    6    6  503    0 -0.56158642164E+03 -0.16850210266E+03  0.29733546064E+03  0.65740447498E+03  0.00000000000E+00 0. -1.
         -3    1    6    6    0  503 -0.33550947634E+03 -0.55197726984E+02  0.11476656473E+03  0.35886593898E+03  0.00000000000E+00 0.  1.
<mgrwt>
<rscale>  0 0.36797787E+04</rscale>
<asrwt>0</asrwt>
<pdfrwt beam="1">  1        2 0.43493442E+00 0.36797787E+04</pdfrwt>
<pdfrwt beam="2">  1       -1 0.18421837E+00 0.36797787E+04</pdfrwt>
<totfact> 0.39740766E-01</totfact>
</mgrwt>
</event>
<event>
12    7  0.1660832E-007  0.1524639E+04  0.7818608E-02  0.8868232E-01
         -1   -1    0    0    0  501 -0.00000000000E+00  0.00000000000E+00  0.32658794694E+03  0.32658794694E+03  0.00000000000E+00 0.  1.
          2   -1    0    0  501    0  0.00000000000E+00 -0.00000000000E+00 -0.17794007529E+04  0.17794007529E+04  0.00000000000E+00 0. -1.
         24    2    1    2    0    0  0.55668618723E+02 -0.30565557810E+03 -0.10486146851E+04  0.10965741096E+04  0.79735138651E+02 0.  0.
        254    2    1    2    0    0 -0.55668618723E+02  0.30565557810E+03 -0.40419812086E+03  0.10094145903E+04  0.87121602757E+03 0.  0.
         23    2    4    4    0    0  0.28113212540E+03  0.32080239904E+03  0.47724442673E+02  0.43836924742E+03  0.89109615035E+02 0.  0.
         23    2    4    4    0    0 -0.33680074413E+03 -0.15146820932E+02 -0.45192256354E+03  0.57104534290E+03  0.90524100583E+02 0.  0.
          4    1    3    3  502    0  0.31552137834E+02 -0.78541183354E+02 -0.40186973110E+03  0.41068666360E+03  0.00000000000E+00 0. -1.
         -3    1    3    3    0  502  0.24116480889E+02 -0.22711439475E+03 -0.64674495403E+03  0.68588744595E+03  0.00000000000E+00 0.  1.
         13    1    5    5    0    0  0.13377601700E+03  0.88933665587E+02  0.86383929237E+01  0.16087212757E+03  0.00000000000E+00 0. -1.
        -13    1    5    5    0    0  0.14735610841E+03  0.23186873345E+03  0.39086049749E+02  0.27749711984E+03  0.00000000000E+00 0.  1.
          4    1    6    6  503    0 -0.42335947459E+01 -0.18129583546E+01  0.43110850061E+01  0.63083750997E+01  0.00000000000E+00 0. -1.
         -4    1    6    6    0  503 -0.33256714938E+03 -0.13333862578E+02 -0.45623364854E+03  0.56473696780E+03  0.00000000000E+00 0.  1.
<mgrwt>
<rscale>  0 0.15246388E+04</rscale>
<asrwt>0</asrwt>
<pdfrwt beam="1">  1        2 0.27375396E+00 0.15246388E+04</pdfrwt>
<pdfrwt beam="2">  1       -1 0.50244299E-01 0.15246388E+04</pdfrwt>
<totfact> 0.38704982E+01</totfact>
</mgrwt>
</event>
<event>
12    7  0.1660832E-007  0.1376440E+04  0.7818608E-02  0.8971051E-01
         -1   -1    0    0    0  501 -0.00000000000E+00  0.00000000000E+00  0.19546822062E+03  0.19546822062E+03  0.00000000000E+00 0.  1.
          2   -1    0    0  501    0  0.00000000000E+00 -0.00000000000E+00 -0.24231400077E+04  0.24231400077E+04  0.00000000000E+00 0. -1.
         24    2    1    2    0    0  0.35021558668E+03 -0.12309886845E+03 -0.82108683996E+03  0.90456192845E+03  0.79021484924E+02 0.  0.
        254    2    1    2    0    0 -0.35021558668E+03  0.12309886845E+03 -0.14065849471E+04  0.17140462999E+04  0.90645971563E+03 0.  0.
         23    2    4    4    0    0  0.17054150180E+03  0.85044930431E+02 -0.90476777268E+00  0.21188880349E+03  0.92622904364E+02 0.  0.
         23    2    4    4    0    0 -0.52075708848E+03  0.38053938018E+02 -0.14056801794E+04  0.15021574964E+04  0.88906298466E+02 0.  0.
          4    1    3    3  502    0  0.31417157025E+03 -0.12741569041E+03 -0.69384629513E+03  0.77224427157E+03  0.00000000000E+00 0. -1.
         -3    1    3    3    0  502  0.36044016438E+02  0.43168219631E+01 -0.12724054484E+03  0.13231765688E+03  0.00000000000E+00 0.  1.
         13    1    5    5    0    0  0.15859402045E+03  0.52979403187E+02 -0.26314800250E+02  0.16926709425E+03  0.00000000000E+00 0.  1.
        -13    1    5    5    0    0  0.11947481349E+02  0.32065527244E+02  0.25410032478E+02  0.42621709240E+02  0.00000000000E+00 0. -1.
          3    1    6    6  503    0 -0.38540241256E+02 -0.13519596054E+02 -0.68527387202E+02  0.79775512974E+02  0.00000000000E+00 0. -1.
         -3    1    6    6    0  503 -0.48221684723E+03  0.51573534073E+02 -0.13371527922E+04  0.14223819834E+04  0.00000000000E+00 0.  1.
<mgrwt>
<rscale>  0 0.13764401E+04</rscale>
<asrwt>0</asrwt>
<pdfrwt beam="1">  1        2 0.37279078E+00 0.13764401E+04</pdfrwt>
<pdfrwt beam="2">  1       -1 0.30072033E-01 0.13764401E+04</pdfrwt>
<totfact> 0.43644927E+01</totfact>
</mgrwt>
</event>
<event>
12    7  0.1660832E-007  0.1886529E+04  0.7818608E-02  0.8661591E-01
          2   -1    0    0  501    0  0.00000000000E+00  0.00000000000E+00  0.57410748124E+03  0.57410748124E+03  0.00000000000E+00 0. -1.
         -1   -1    0    0    0  501 -0.00000000000E+00 -0.00000000000E+00 -0.15497928886E+04  0.15497928886E+04  0.00000000000E+00 0.  1.
         24    2    1    2    0    0 -0.19139207050E+03  0.68698973795E+03 -0.19273796322E+03  0.74299709931E+03  0.79441440188E+02 0.  0.
        254    2    1    2    0    0  0.19139207050E+03 -0.68698973795E+03 -0.78294744417E+03  0.13809032706E+04  0.88617228440E+03 0.  0.
         23    2    4    4    0    0  0.37261667419E+03  0.34177398066E+02 -0.31668662318E+03  0.49867761918E+03  0.91529613492E+02 0.  0.
         23    2    4    4    0    0 -0.18122460369E+03 -0.72116713601E+03 -0.46626082099E+03  0.88222565139E+03  0.89434622678E+02 0.  0.
          4    1    3    3  502    0 -0.12879199932E+03  0.52937854425E+03 -0.11687954392E+03  0.55721616092E+03  0.00000000000E+00 0. -1.
         -3    1    3    3    0  502 -0.62600071181E+02  0.15761119370E+03 -0.75858419302E+02  0.18578093839E+03  0.00000000000E+00 0.  1.
         13    1    5    5    0    0  0.11638060873E+03  0.25915216080E+02 -0.15510606548E+03  0.19563725633E+03  0.00000000000E+00 0. -1.
        -13    1    5    5    0    0  0.25623606546E+03  0.82621819863E+01 -0.16158055770E+03  0.30304036285E+03  0.00000000000E+00 0.  1.
          3    1    6    6  503    0 -0.13132415639E+03 -0.56178443689E+03 -0.31726008759E+03  0.65840849840E+03  0.00000000000E+00 0. -1.
         -3    1    6    6    0  503 -0.49900447295E+02 -0.15938269912E+03 -0.14900073340E+03  0.22381715300E+03  0.00000000000E+00 0.  1.
<mgrwt>
<rscale>  0 0.18865288E+04</rscale>
<asrwt>0</asrwt>
<pdfrwt beam="1">  1        2 0.88324228E-01 0.18865288E+04</pdfrwt>
<pdfrwt beam="2">  1       -1 0.23842967E+00 0.18865288E+04</pdfrwt>
<totfact> 0.46504751E+00</totfact>
</mgrwt>
</event>
<event>
12    7  0.1660832E-007  0.1374313E+04  0.7818608E-02  0.8972625E-01
          2   -1    0    0  501    0  0.00000000000E+00  0.00000000000E+00  0.48085509036E+03  0.48085509036E+03  0.00000000000E+00 0. -1.
         -1   -1    0    0    0  501 -0.00000000000E+00 -0.00000000000E+00 -0.98196717455E+03  0.98196717455E+03  0.00000000000E+00 0.  1.
         24    2    1    2    0    0 -0.18142430393E+03 -0.11876983952E+03 -0.48053646398E+03  0.53189860166E+03  0.70567530735E+02 0.  0.
        254    2    1    2    0    0  0.18142430393E+03  0.11876983952E+03 -0.20575620210E+02  0.93092366325E+03  0.90508256961E+03 0.  0.
         23    2    4    4    0    0 -0.12917200203E+03  0.42915256530E+03 -0.11701886042E+03  0.47214011073E+03  0.91463326317E+02 0.  0.
         23    2    4    4    0    0  0.31059630596E+03 -0.31038272577E+03  0.96443240208E+02  0.45878355251E+03  0.91507091201E+02 0.  0.
          2    1    3    3  502    0 -0.60367545063E+01  0.91166104832E+01 -0.20962067596E+02  0.23642404057E+02  0.00000000000E+00 0. -1.
         -1    1    3    3    0  502 -0.17538754943E+03 -0.12788645001E+03 -0.45957439638E+03  0.50825619760E+03  0.00000000000E+00 0.  1.
         13    1    5    5    0    0 -0.12765616116E+03  0.35250042472E+03 -0.67665015939E+02  0.38096088946E+03  0.00000000000E+00 0.  1.
        -13    1    5    5    0    0 -0.15158408679E+01  0.76652140572E+02 -0.49353844479E+02  0.91179221277E+02  0.00000000000E+00 0. -1.
          1    1    6    6  503    0  0.23182702149E+03 -0.18367964603E+03  0.91140490448E+02  0.30949728474E+03  0.00000000000E+00 0. -1.
         -1    1    6    6    0  503  0.78769284468E+02 -0.12670307974E+03  0.53027497598E+01  0.14928626778E+03  0.00000000000E+00 0.  1.
<mgrwt>
<rscale>  0 0.13743128E+04</rscale>
<asrwt>0</asrwt>
<pdfrwt beam="1">  1        2 0.73977706E-01 0.13743128E+04</pdfrwt>
<pdfrwt beam="2">  1       -1 0.15107187E+00 0.13743128E+04</pdfrwt>
<totfact> 0.24593290E+01</totfact>
</mgrwt>
</event>
<event>
12    7  0.1660832E-007  0.4532241E+04  0.7818608E-02  0.7905017E-01
         -1   -1    0    0    0  501 -0.00000000000E+00  0.00000000000E+00  0.14672538272E+04  0.14672538272E+04  0.00000000000E+00 0.  1.
          2   -1    0    0  501    0  0.00000000000E+00 -0.00000000000E+00 -0.34999411942E+04  0.34999411942E+04  0.00000000000E+00 0. -1.
         24    2    1    2    0    0  0.19790017322E+04 -0.33380296576E+03 -0.18979868572E+04  0.27634788140E+04  0.81171234976E+02 0.  0.
        254    2    1    2    0    0 -0.19790017322E+04  0.33380296576E+03 -0.13470050975E+03  0.22037162073E+04  0.90019365655E+03 0.  0.
         23    2    4    4    0    0 -0.35973078897E+02 -0.14475678475E+03  0.73209403811E+02  0.18974236191E+03  0.91618545957E+02 0.  0.
         23    2    4    4    0    0 -0.19430286533E+04  0.47855975051E+03 -0.20790991356E+03  0.20139738454E+04  0.92110453577E+02 0.  0.
          4    1    3    3  502    0  0.19556267248E+04 -0.32980791932E+03 -0.18617805663E+04  0.27201977920E+04  0.00000000000E+00 0. -1.
         -3    1    3    3    0  502  0.23375007325E+02 -0.39950464409E+01 -0.36206290892E+02  0.43281021980E+02  0.00000000000E+00 0.  1.
         13    1    5    5    0    0  0.10286029094E+02 -0.26037887652E+02  0.54086101277E+02  0.60902219493E+02  0.00000000000E+00 0. -1.
        -13    1    5    5    0    0 -0.46259107990E+02 -0.11871889709E+03  0.19123302534E+02  0.12884014242E+03  0.00000000000E+00 0.  1.
          1    1    6    6  503    0 -0.18480046043E+04  0.45168627807E+03 -0.21731484563E+03  0.19147760322E+04  0.00000000000E+00 0. -1.
         -1    1    6    6    0  503 -0.95024049002E+02  0.26873472436E+02  0.94049320685E+01  0.99197813266E+02  0.00000000000E+00 0.  1.
<mgrwt>
<rscale>  0 0.45322410E+04</rscale>
<asrwt>0</asrwt>
<pdfrwt beam="1">  1        2 0.53845249E+00 0.45322410E+04</pdfrwt>
<pdfrwt beam="2">  1       -1 0.22573136E+00 0.45322410E+04</pdfrwt>
<totfact> 0.70149918E-02</totfact>
</mgrwt>
</event>
<event>
12    7  0.1660832E-007  0.1503587E+04  0.7818608E-02  0.8882071E-01
          2   -1    0    0  501    0  0.00000000000E+00  0.00000000000E+00  0.18598779886E+04  0.18598779886E+04  0.00000000000E+00 0. -1.
         -1   -1    0    0    0  501 -0.00000000000E+00 -0.00000000000E+00 -0.30388758332E+03  0.30388758332E+03  0.00000000000E+00 0.  1.
         24    2    1    2    0    0  0.81838553563E+02  0.35152405880E+03  0.52303312922E+02  0.37341246752E+03  0.80215469768E+02 0.  0.
        254    2    1    2    0    0 -0.81838553563E+02 -0.35152405880E+03  0.15036870923E+04  0.17903531044E+04  0.90223203996E+03 0.  0.
         23    2    4    4    0    0 -0.44408802090E+03 -0.22001138008E+03  0.11619790728E+04  0.12671099967E+04  0.98758293127E+02 0.  0.
         23    2    4    4    0    0  0.36224946734E+03 -0.13151267873E+03  0.34170801953E+03  0.52324310766E+03  0.92188490873E+02 0.  0.
          2    1    3    3  502    0  0.67620979493E+02  0.34304523579E+03  0.60659244207E+02  0.35486923587E+03  0.00000000000E+00 0. -1.
         -1    1    3    3    0  502  0.14217574070E+02  0.84788230179E+01 -0.83559312849E+01  0.18543231645E+02  0.00000000000E+00 0.  1.
         13    1    5    5    0    0 -0.80795394945E+02 -0.37757229925E+02  0.12701380208E+03  0.15519668223E+03  0.00000000000E+00 0.  1.
        -13    1    5    5    0    0 -0.36329262596E+03 -0.18225415015E+03  0.10349652707E+04  0.11119133145E+04  0.00000000000E+00 0. -1.
          3    1    6    6  503    0  0.31471111475E+03 -0.12505843825E+03  0.25416897909E+03  0.42342008533E+03  0.00000000000E+00 0. -1.
         -3    1    6    6    0  503  0.47538352587E+02 -0.64542404727E+01  0.87539040435E+02  0.99823022330E+02  0.00000000000E+00 0.  1.
<mgrwt>
<rscale>  0 0.15035875E+04</rscale>
<asrwt>0</asrwt>
<pdfrwt beam="1">  1        2 0.28613507E+00 0.15035875E+04</pdfrwt>
<pdfrwt beam="2">  1       -1 0.46751937E-01 0.15035875E+04</pdfrwt>
<totfact> 0.40097795E+01</totfact>
</mgrwt>
</event>
<event>
12    7  0.1660832E-007  0.1648892E+04  0.7818608E-02  0.8791062E-01
          2   -1    0    0  501    0  0.00000000000E+00  0.00000000000E+00  0.28778789858E+04  0.28778789858E+04  0.00000000000E+00 0. -1.
         -3   -1    0    0    0  501 -0.00000000000E+00 -0.00000000000E+00 -0.23618481844E+03  0.23618481844E+03  0.00000000000E+00 0.  1.
         24    2    1    2    0    0 -0.11669848299E+03 -0.16232817800E+03  0.21268060582E+04  0.21376906498E+04  0.80301505194E+02 0.  0.
        254    2    1    2    0    0  0.11669848299E+03  0.16232817800E+03  0.51488810914E+03  0.97637315442E+03  0.80512470986E+03 0.  0.
         23    2    4    4    0    0 -0.71596288877E+01  0.41409832288E+03  0.53256547980E+03  0.68105709353E+03  0.93188481441E+02 0.  0.
         23    2    4    4    0    0  0.12385811188E+03 -0.25177014488E+03 -0.17677370662E+02  0.29531606089E+03  0.90388321454E+02 0.  0.
          4    1    3    3  502    0 -0.12309083005E+03 -0.12124214155E+03  0.17929218038E+04  0.18012272494E+04  0.00000000000E+00 0. -1.
         -3    1    3    3    0  502  0.63923470593E+01 -0.41086036454E+02  0.33388425440E+03  0.33646340043E+03  0.00000000000E+00 0.  1.
         13    1    5    5    0    0 -0.50018505046E+02  0.22695072314E+03  0.29984651943E+03  0.37936317270E+03  0.00000000000E+00 0.  1.
        -13    1    5    5    0    0  0.42858876159E+02  0.18714759974E+03  0.23271896037E+03  0.30169392084E+03  0.00000000000E+00 0. -1.
          1    1    6    6  503    0  0.33717523144E+02 -0.16770002363E+03 -0.20438434367E+01  0.17106825126E+03  0.00000000000E+00 0. -1.
         -1    1    6    6    0  503  0.90140588736E+02 -0.84070121244E+02 -0.15633527226E+02  0.12424780963E+03  0.00000000000E+00 0.  1.
<mgrwt>
<rscale>  0 0.16488921E+04</rscale>
<asrwt>0</asrwt>
<pdfrwt beam="1">  1        2 0.44275059E+00 0.16488921E+04</pdfrwt>
<pdfrwt beam="2">  1       -3 0.36336128E-01 0.16488921E+04</pdfrwt>
<totfact> 0.96690805E+00</totfact>
</mgrwt>
</event>
<event>
12    7  0.1660832E-007  0.2375488E+04  0.7818608E-02  0.8448738E-01
          2   -1    0    0  501    0  0.00000000000E+00  0.00000000000E+00  0.15768744933E+04  0.15768744933E+04  0.00000000000E+00 0. -1.
         -1   -1    0    0    0  501 -0.00000000000E+00 -0.00000000000E+00 -0.89464050401E+03  0.89464050401E+03  0.00000000000E+00 0.  1.
         24    2    1    2    0    0  0.76027884320E+03 -0.79362718973E+02  0.99282685999E+03  0.12567111137E+04  0.96412077539E+02 0.  0.
        254    2    1    2    0    0 -0.76027884320E+03  0.79362718973E+02 -0.31059287067E+03  0.12148038837E+04  0.89160427541E+03 0.  0.
         23    2    4    4    0    0 -0.30646633696E+03  0.34187688735E+03 -0.46595097562E+03  0.66054927672E+03  0.91725751524E+02 0.  0.
         23    2    4    4    0    0 -0.45381250624E+03 -0.26251416837E+03  0.15535810495E+03  0.55425460697E+03  0.90567925648E+02 0.  0.
          4    1    3    3  502    0  0.53830319756E+03 -0.51379151234E+02  0.62784531184E+03  0.82861323021E+03  0.00000000000E+00 0. -1.
         -3    1    3    3    0  502  0.22197564564E+03 -0.27983567739E+02  0.36498154815E+03  0.42809788345E+03  0.00000000000E+00 0.  1.
         13    1    5    5    0    0 -0.16107310577E+03  0.17691750383E+03 -0.17783119950E+03  0.29810783968E+03  0.00000000000E+00 0.  1.
        -13    1    5    5    0    0 -0.14539323119E+03  0.16495938352E+03 -0.28811977612E+03  0.36244143704E+03  0.00000000000E+00 0. -1.
          2    1    6    6  503    0 -0.35953897340E+03 -0.17716248866E+03  0.88069792057E+02  0.41037922590E+03  0.00000000000E+00 0. -1.
         -2    1    6    6    0  503 -0.94273532842E+02 -0.85351679718E+02  0.67288312894E+02  0.14387538107E+03  0.00000000000E+00 0.  1.
<mgrwt>
<rscale>  0 0.23754880E+04</rscale>
<asrwt>0</asrwt>
<pdfrwt beam="1">  1        2 0.24259608E+00 0.23754880E+04</pdfrwt>
<pdfrwt beam="2">  1       -1 0.13763700E+00 0.23754880E+04</pdfrwt>
<totfact> 0.51668643E+00</totfact>
</mgrwt>
</event>
<event>
12    7  0.1660832E-007  0.2895510E+04  0.7818608E-02  0.8274215E-01
          2   -1    0    0  501    0  0.00000000000E+00  0.00000000000E+00  0.19909767163E+04  0.19909767163E+04  0.00000000000E+00 0. -1.
         -1   -1    0    0    0  501 -0.00000000000E+00 -0.00000000000E+00 -0.10527467368E+04  0.10527467368E+04  0.00000000000E+00 0.  1.
         24    2    1    2    0    0 -0.83385174246E+03  0.16251542774E+03 -0.61712326624E+03  0.10530712860E+04  0.79987593155E+02 0.  0.
        254    2    1    2    0    0  0.83385174246E+03 -0.16251542774E+03  0.15553532457E+04  0.19906521670E+04  0.90656071973E+03 0.  0.
         23    2    4    4    0    0  0.37194146128E+03 -0.35798286595E+03  0.13362732043E+04  0.14353450188E+04  0.89983684445E+02 0.  0.
         23    2    4    4    0    0  0.46191028118E+03  0.19546743821E+03  0.21908004144E+03  0.55530714830E+03  0.93815441858E+02 0.  0.
          2    1    3    3  502    0 -0.74247939283E+03  0.16169316180E+03 -0.52710609260E+03  0.92480330893E+03  0.00000000000E+00 0. -1.
         -1    1    3    3    0  502 -0.91372349629E+02  0.82226593986E+00 -0.90017173638E+02  0.12826797709E+03  0.00000000000E+00 0.  1.
         13    1    5    5    0    0  0.37543467392E+03 -0.34266584364E+03  0.12964157422E+04  0.13925030884E+04  0.00000000000E+00 0. -1.
        -13    1    5    5    0    0 -0.34932126486E+01 -0.15317022314E+02  0.39857462104E+02  0.42841930308E+02  0.00000000000E+00 0.  1.
          1    1    6    6  503    0  0.30797783552E+03  0.10951020249E+03  0.18548406055E+03  0.37582864226E+03  0.00000000000E+00 0. -1.
         -1    1    6    6    0  503  0.15393244566E+03  0.85957235714E+02  0.33595980894E+02  0.17947850604E+03  0.00000000000E+00 0.  1.
<mgrwt>
<rscale>  0 0.28955098E+04</rscale>
<asrwt>0</asrwt>
<pdfrwt beam="1">  1        2 0.30630411E+00 0.28955098E+04</pdfrwt>
<pdfrwt beam="2">  1       -1 0.16196104E+00 0.28955098E+04</pdfrwt>
<totfact> 0.18749089E+00</totfact>
</mgrwt>
</event>
<event>
12    7  0.1660832E-007  0.1919953E+04  0.7818608E-02  0.8644988E-01
          2   -1    0    0  501    0  0.00000000000E+00  0.00000000000E+00  0.20087519514E+04  0.20087519514E+04  0.00000000000E+00 0. -1.
         -1   -1    0    0    0  501 -0.00000000000E+00 -0.00000000000E+00 -0.45877009819E+03  0.45877009819E+03  0.00000000000E+00 0.  1.
         24    2    1    2    0    0 -0.68404172764E+03  0.23062503325E+03  0.37562779220E+03  0.81758518487E+03  0.79046221469E+02 0.  0.
        254    2    1    2    0    0  0.68404172764E+03 -0.23062503325E+03  0.11743540610E+04  0.16499368647E+04  0.90668804217E+03 0.  0.
         23    2    4    4    0    0 -0.17922024782E+03  0.35330999009E+02  0.43178160545E+03  0.47708758368E+03  0.88368721695E+02 0.  0.
         23    2    4    4    0    0  0.86326197546E+03 -0.26595603226E+03  0.74257245556E+03  0.11728492810E+04  0.90596550179E+02 0.  0.
          4    1    3    3  502    0 -0.14712566133E+02  0.27792509227E+01 -0.33978953171E+01  0.15353485940E+02  0.00000000000E+00 0. -1.
         -3    1    3    3    0  502 -0.66932916151E+03  0.22784578233E+03  0.37902568752E+03  0.80223169893E+03  0.00000000000E+00 0.  1.
         13    1    5    5    0    0 -0.11400617925E+03 -0.68377638679E+01  0.32903588525E+03  0.34829409657E+03  0.00000000000E+00 0.  1.
        -13    1    5    5    0    0 -0.65214068574E+02  0.42168762877E+02  0.10274572020E+03  0.12879348711E+03  0.00000000000E+00 0. -1.
          3    1    6    6  503    0  0.35209144585E+01  0.16115985446E+01 -0.20914769458E+01  0.44009503869E+01  0.00000000000E+00 0. -1.
         -3    1    6    6    0  503  0.85974106100E+03 -0.26756763081E+03  0.74466393250E+03  0.11684483307E+04  0.00000000000E+00 0.  1.
<mgrwt>
<rscale>  0 0.19199535E+04</rscale>
<asrwt>0</asrwt>
<pdfrwt beam="1">  1        2 0.30903876E+00 0.19199535E+04</pdfrwt>
<pdfrwt beam="2">  1       -1 0.70580016E-01 0.19199535E+04</pdfrwt>
<totfact> 0.14268494E+01</totfact>
</mgrwt>
</event>
<event>
12    7  0.1660832E-007  0.2645494E+04  0.7818608E-02  0.8352910E-01
         -1   -1    0    0    0  501 -0.00000000000E+00  0.00000000000E+00  0.11957964265E+04  0.11957964265E+04  0.00000000000E+00 0.  1.
          2   -1    0    0  501    0  0.00000000000E+00 -0.00000000000E+00 -0.14631750540E+04  0.14631750540E+04  0.00000000000E+00 0. -1.
         24    2    1    2    0    0  0.52374518417E+03 -0.56503894675E+03  0.76373253617E+03  0.10878019831E+04  0.80297810729E+02 0.  0.
        254    2    1    2    0    0 -0.52374518417E+03  0.56503894675E+03 -0.10311111637E+04  0.15711694974E+04  0.90100240202E+03 0.  0.
         23    2    4    4    0    0 -0.25860456634E+03  0.14998853676E+03  0.10490986977E+03  0.32970919063E+03  0.91264378158E+02 0.  0.
         23    2    4    4    0    0 -0.26514061783E+03  0.41505040999E+03 -0.11360210335E+04  0.12414603068E+04  0.90075050966E+02 0.  0.
          4    1    3    3  502    0  0.17400714271E+03 -0.20579357103E+03  0.31906375970E+03  0.41764956883E+03  0.00000000000E+00 0. -1.
         -3    1    3    3    0  502  0.34973804146E+03 -0.35924537571E+03  0.44466877647E+03  0.67015241430E+03  0.00000000000E+00 0.  1.
         13    1    5    5    0    0 -0.23796989829E+03  0.10083880281E+03  0.77819881023E+02  0.26991493202E+03  0.00000000000E+00 0.  1.
        -13    1    5    5    0    0 -0.20634668049E+02  0.49149733946E+02  0.27089988745E+02  0.59794258610E+02  0.00000000000E+00 0. -1.
          1    1    6    6  503    0 -0.24328487298E+02  0.93754408796E+02 -0.27107753529E+03  0.28786245778E+03  0.00000000000E+00 0. -1.
         -1    1    6    6    0  503 -0.24081213053E+03  0.32129600119E+03 -0.86494349818E+03  0.95359784901E+03  0.00000000000E+00 0.  1.
<mgrwt>
<rscale>  0 0.26454939E+04</rscale>
<asrwt>0</asrwt>
<pdfrwt beam="1">  1        2 0.22510386E+00 0.26454939E+04</pdfrwt>
<pdfrwt beam="2">  1       -1 0.18396868E+00 0.26454939E+04</pdfrwt>
<totfact> 0.26059987E+00</totfact>
</mgrwt>
</event>
<event>
12    7  0.1660832E-007  0.1422022E+04  0.7818608E-02  0.8938030E-01
         -1   -1    0    0    0  501 -0.00000000000E+00  0.00000000000E+00  0.56328103395E+03  0.56328103395E+03  0.00000000000E+00 0.  1.
          2   -1    0    0  501    0  0.00000000000E+00 -0.00000000000E+00 -0.89748576518E+03  0.89748576518E+03  0.00000000000E+00 0. -1.
         24    2    1    2    0    0 -0.84100610857E+02 -0.74915315180E+02  0.34783797517E+03  0.37369783610E+03  0.77289058372E+02 0.  0.
        254    2    1    2    0    0  0.84100610857E+02  0.74915315180E+02 -0.68204270640E+03  0.10870689630E+04  0.83895855669E+03 0.  0.
         23    2    4    4    0    0 -0.11544390741E+02  0.43570745997E+03 -0.47220181635E+03  0.64923481626E+03  0.92504203392E+02 0.  0.
         23    2    4    4    0    0  0.95645001598E+02 -0.36079214479E+03 -0.20984089005E+03  0.43783414678E+03  0.91359744264E+02 0.  0.
          4    1    3    3  502    0 -0.28722807879E+02 -0.39980750419E+01  0.18843469962E+03  0.19065314138E+03  0.00000000000E+00 0. -1.
         -3    1    3    3    0  502 -0.55377802978E+02 -0.70917240138E+02  0.15940327555E+03  0.18304469472E+03  0.00000000000E+00 0.  1.
         13    1    5    5    0    0 -0.19571939220E+02  0.20525643902E+03 -0.15935933928E+03  0.26059291160E+03  0.00000000000E+00 0. -1.
        -13    1    5    5    0    0  0.80275484784E+01  0.23045102095E+03 -0.31284247707E+03  0.38864190465E+03  0.00000000000E+00 0.  1.
          3    1    6    6  503    0  0.73323039542E+01 -0.10041984710E+02  0.87600850312E+01  0.15209971333E+02  0.00000000000E+00 0. -1.
         -3    1    6    6    0  503  0.88312697644E+02 -0.35075016008E+03 -0.21860097508E+03  0.42262417545E+03  0.00000000000E+00 0.  1.
<mgrwt>
<rscale>  0 0.14220221E+04</rscale>
<asrwt>0</asrwt>
<pdfrwt beam="1">  1        2 0.13807473E+00 0.14220221E+04</pdfrwt>
<pdfrwt beam="2">  1       -1 0.86658620E-01 0.14220221E+04</pdfrwt>
<totfact> 0.42869485E+01</totfact>
</mgrwt>
</event>
<event>
12    7  0.1660832E-007  0.1494882E+04  0.7818608E-02  0.8887864E-01
         -1   -1    0    0    0  501 -0.00000000000E+00  0.00000000000E+00  0.89365477230E+03  0.89365477230E+03  0.00000000000E+00 0.  1.
          2   -1    0    0  501    0  0.00000000000E+00 -0.00000000000E+00 -0.62514933983E+03  0.62514933983E+03  0.00000000000E+00 0. -1.
         24    2    1    2    0    0 -0.24115009454E+03 -0.75934093963E+02  0.49240820494E+03  0.55911768025E+03  0.78913784259E+02 0.  0.
        254    2    1    2    0    0  0.24115009454E+03  0.75934093963E+02 -0.22390277247E+03  0.95968643188E+03  0.89830186535E+03 0.  0.
         23    2    4    4    0    0 -0.12902920322E+03  0.30151959852E+03 -0.36105546755E+03  0.49581891567E+03  0.88953599794E+02 0.  0.
         23    2    4    4    0    0  0.37017929776E+03 -0.22558550456E+03  0.13715269508E+03  0.46386751621E+03  0.91873165126E+02 0.  0.
          4    1    3    3  502    0 -0.48817721561E+02 -0.11953533442E+02  0.43117180670E+02  0.66220451290E+02  0.00000000000E+00 0. -1.
         -3    1    3    3    0  502 -0.19233237298E+03 -0.63980560521E+02  0.44929102427E+03  0.49289722896E+03  0.00000000000E+00 0.  1.
         13    1    5    5    0    0 -0.76375291707E+02  0.74475492478E+02 -0.11809630406E+03  0.15914308403E+03  0.00000000000E+00 0.  1.
        -13    1    5    5    0    0 -0.52653911508E+02  0.22704410604E+03 -0.24295916349E+03  0.33667583164E+03  0.00000000000E+00 0. -1.
          2    1    6    6  503    0  0.94263009010E+02 -0.94680427515E+02  0.71358041789E+02  0.15146573325E+03  0.00000000000E+00 0. -1.
         -2    1    6    6    0  503  0.27591628875E+03 -0.13090507704E+03  0.65794653294E+02  0.31240178295E+03  0.00000000000E+00 0.  1.
<mgrwt>
<rscale>  0 0.14948815E+04</rscale>
<asrwt>0</asrwt>
<pdfrwt beam="1">  1        2 0.96176821E-01 0.14948815E+04</pdfrwt>
<pdfrwt beam="2">  1       -1 0.13748535E+00 0.14948815E+04</pdfrwt>
<totfact> 0.22898772E+01</totfact>
</mgrwt>
</event>
<event>
12    7  0.1660832E-007  0.2241996E+04  0.7818608E-02  0.8501149E-01
          2   -1    0    0  501    0  0.00000000000E+00  0.00000000000E+00  0.17650976177E+04  0.17650976177E+04  0.00000000000E+00 0. -1.
         -1   -1    0    0    0  501 -0.00000000000E+00 -0.00000000000E+00 -0.71193585878E+03  0.71193585878E+03  0.00000000000E+00 0.  1.
         24    2    1    2    0    0 -0.83853360926E+02 -0.47122503990E+03  0.13310089109E+04  0.14166777146E+04  0.79414114510E+02 0.  0.
        254    2    1    2    0    0  0.83853360926E+02  0.47122503990E+03 -0.27784715197E+03  0.10603557620E+04  0.90447270700E+03 0.  0.
         23    2    4    4    0    0  0.58325730763E+02  0.16736101246E+03  0.32388031287E+03  0.38051516271E+03  0.92096322543E+02 0.  0.
         23    2    4    4    0    0  0.25527630163E+02  0.30386402744E+03 -0.60172746484E+03  0.67984059926E+03  0.84393669113E+02 0.  0.
          4    1    3    3  502    0 -0.54461783730E+02 -0.35908615126E+03  0.10964044003E+04  0.11549941813E+04  0.00000000000E+00 0. -1.
         -3    1    3    3    0  502 -0.29391577195E+02 -0.11213888864E+03  0.23460451068E+03  0.26168353328E+03  0.00000000000E+00 0.  1.
         13    1    5    5    0    0  0.87420590348E+01  0.14372431230E+03  0.21849693072E+03  0.26167539104E+03  0.00000000000E+00 0.  1.
        -13    1    5    5    0    0  0.49583671728E+02  0.23636700156E+02  0.10538338215E+03  0.11883977166E+03  0.00000000000E+00 0. -1.
          4    1    6    6  503    0  0.24144428907E+02  0.17013156374E+02 -0.57474760575E+02  0.64620035904E+02  0.00000000000E+00 0. -1.
         -4    1    6    6    0  503  0.13832012553E+01  0.28685087107E+03 -0.54425270426E+03  0.61522056336E+03  0.00000000000E+00 0.  1.
<mgrwt>
<rscale>  0 0.22419958E+04</rscale>
<asrwt>0</asrwt>
<pdfrwt beam="1">  1        2 0.27155348E+00 0.22419958E+04</pdfrwt>
<pdfrwt beam="2">  1       -1 0.10952859E+00 0.22419958E+04</pdfrwt>
<totfact> 0.72144136E+00</totfact>
</mgrwt>
</event>
<event>
12    7  0.1660832E-007  0.5184095E+04  0.7818608E-02  0.7800720E-01
         -1   -1    0    0    0  501 -0.00000000000E+00  0.00000000000E+00  0.19534301272E+04  0.19534301272E+04  0.00000000000E+00 0.  1.
          2   -1    0    0  501    0  0.00000000000E+00 -0.00000000000E+00 -0.34394427517E+04  0.34394427517E+04  0.00000000000E+00 0. -1.
         24    2    1    2    0    0  0.23112146902E+04  0.89867932777E+03 -0.35266225194E+03  0.25061570609E+04  0.84348513242E+02 0.  0.
        254    2    1    2    0    0 -0.23112146902E+04 -0.89867932777E+03 -0.11333503726E+04  0.28867158179E+04  0.94831812604E+03 0.  0.
         23    2    4    4    0    0 -0.15386087836E+04 -0.10636974246E+03 -0.68465474329E+03  0.16897991216E+04  0.89651786578E+02 0.  0.
         23    2    4    4    0    0 -0.77260590662E+03 -0.79230958531E+03 -0.44869562931E+03  0.11969166964E+04  0.81286187811E+02 0.  0.
          2    1    3    3  502    0  0.39637316959E+03  0.18349737593E+03 -0.45159992661E+02  0.43911547624E+03  0.00000000000E+00 0. -1.
         -1    1    3    3    0  502  0.19148415206E+04  0.71518195185E+03 -0.30750225928E+03  0.20670415847E+04  0.00000000000E+00 0.  1.
         13    1    5    5    0    0 -0.14617637512E+03 -0.36308652629E+02 -0.71641375809E+02  0.16678830183E+03  0.00000000000E+00 0.  1.
        -13    1    5    5    0    0 -0.13924324084E+04 -0.70061089835E+02 -0.61301336748E+03  0.15230108198E+04  0.00000000000E+00 0. -1.
          3    1    6    6  503    0 -0.64666095628E+03 -0.70188028761E+03 -0.39423674621E+03  0.10325836250E+04  0.00000000000E+00 0. -1.
         -3    1    6    6    0  503 -0.12594495034E+03 -0.90429297699E+02 -0.54458883100E+02  0.16433307137E+03  0.00000000000E+00 0.  1.
<mgrwt>
<rscale>  0 0.51840953E+04</rscale>
<asrwt>0</asrwt>
<pdfrwt beam="1">  1        2 0.52914503E+00 0.51840953E+04</pdfrwt>
<pdfrwt beam="2">  1       -1 0.30052772E+00 0.51840953E+04</pdfrwt>
<totfact> 0.23881959E-02</totfact>
</mgrwt>
</event>
<event>
12    7  0.1660832E-007  0.1224484E+04  0.7818608E-02  0.9091692E-01
         -1   -1    0    0    0  501 -0.00000000000E+00  0.00000000000E+00  0.12719623425E+03  0.12719623425E+03  0.00000000000E+00 0.  1.
          2   -1    0    0  501    0  0.00000000000E+00 -0.00000000000E+00 -0.29469451090E+04  0.29469451090E+04  0.00000000000E+00 0. -1.
         24    2    1    2    0    0 -0.88483382961E+02  0.24010190576E+03 -0.90946414372E+03  0.94812789422E+03  0.79644465390E+02 0.  0.
        254    2    1    2    0    0  0.88483382961E+02 -0.24010190576E+03 -0.19102847310E+04  0.21260134490E+04  0.89736681330E+03 0.  0.
         23    2    4    4    0    0  0.48563755225E+03 -0.15250739742E+03 -0.10333609964E+04  0.11552767059E+04  0.87903241552E+02 0.  0.
         23    2    4    4    0    0 -0.39715416928E+03 -0.87594508346E+02 -0.87692373459E+03  0.97073674309E+03  0.89052546496E+02 0.  0.
          2    1    3    3  502    0 -0.68579809643E+02  0.10666933087E+03 -0.54324277668E+03  0.55784787430E+03  0.00000000000E+00 0. -1.
         -3    1    3    3    0  502 -0.19903573318E+02  0.13343257490E+03 -0.36622136704E+03  0.39028001992E+03  0.00000000000E+00 0.  1.
         13    1    5    5    0    0  0.17113134614E+02  0.55941430838E+01 -0.15893547755E+02  0.24015800495E+02  0.00000000000E+00 0. -1.
        -13    1    5    5    0    0  0.46852441763E+03 -0.15810154050E+03 -0.10174674487E+04  0.11312609054E+04  0.00000000000E+00 0.  1.
          3    1    6    6  503    0 -0.32957008422E+02  0.16033908872E+02 -0.98640122877E+02  0.10522891465E+03  0.00000000000E+00 0. -1.
         -3    1    6    6    0  503 -0.36419716086E+03 -0.10362841722E+03 -0.77828361171E+03  0.86550782844E+03  0.00000000000E+00 0.  1.
<mgrwt>
<rscale>  0 0.12244841E+04</rscale>
<asrwt>0</asrwt>
<pdfrwt beam="1">  1        2 0.45337616E+00 0.12244841E+04</pdfrwt>
<pdfrwt beam="2">  1       -1 0.19568652E-01 0.12244841E+04</pdfrwt>
<totfact> 0.45305164E+01</totfact>
</mgrwt>
</event>
<event>
12    7  0.1660832E-007  0.2072758E+04  0.7818608E-02  0.8573340E-01
         -1   -1    0    0    0  501 -0.00000000000E+00  0.00000000000E+00  0.16974505098E+04  0.16974505098E+04  0.00000000000E+00 0.  1.
          2   -1    0    0  501    0  0.00000000000E+00 -0.00000000000E+00 -0.63276150341E+03  0.63276150341E+03  0.00000000000E+00 0. -1.
         24    2    1    2    0    0  0.25007329782E+03  0.61515945120E+03 -0.13641805053E+03  0.68257113863E+03  0.79596922647E+02 0.  0.
        254    2    1    2    0    0 -0.25007329782E+03 -0.61515945120E+03  0.12011070569E+04  0.16476408746E+04  0.91164932112E+03 0.  0.
         23    2    4    4    0    0 -0.14209922436E+03 -0.62062129548E+02 -0.11472881427E+03  0.21339818068E+03  0.91280804147E+02 0.  0.
         23    2    4    4    0    0 -0.10797407347E+03 -0.55309732166E+03  0.13158358712E+04  0.14342426939E+04  0.89738605613E+02 0.  0.
          2    1    3    3  502    0  0.17047210998E+03  0.45646933947E+03 -0.13264778035E+03  0.50499547700E+03  0.00000000000E+00 0. -1.
         -1    1    3    3    0  502  0.79601187840E+02  0.15869011173E+03 -0.37702701837E+01  0.17757566163E+03  0.00000000000E+00 0.  1.
         13    1    5    5    0    0  0.71334646325E+00 -0.23810359958E+02  0.35202482295E+01  0.24079747758E+02  0.00000000000E+00 0. -1.
        -13    1    5    5    0    0 -0.14281257082E+03 -0.38251769590E+02 -0.11824906250E+03  0.18931843292E+03  0.00000000000E+00 0.  1.
          1    1    6    6  503    0  0.39927928666E+01  0.18630853688E+01  0.81306399119E+01  0.92477449870E+01  0.00000000000E+00 0. -1.
         -1    1    6    6    0  503 -0.11196686633E+03 -0.55496040702E+03  0.13077052313E+04  0.14249949489E+04  0.00000000000E+00 0.  1.
<mgrwt>
<rscale>  0 0.20727579E+04</rscale>
<asrwt>0</asrwt>
<pdfrwt beam="1">  1        2 0.97347924E-01 0.20727579E+04</pdfrwt>
<pdfrwt beam="2">  1       -1 0.26114623E+00 0.20727579E+04</pdfrwt>
<totfact> 0.28909183E+00</totfact>
</mgrwt>
</event>
<event>
12    7  0.1660832E-007  0.3251932E+04  0.7818608E-02  0.8175235E-01
          2   -1    0    0  501    0  0.00000000000E+00  0.00000000000E+00  0.19454507258E+04  0.19454507258E+04  0.00000000000E+00 0. -1.
         -1   -1    0    0    0  501 -0.00000000000E+00 -0.00000000000E+00 -0.13589475467E+04  0.13589475467E+04  0.00000000000E+00 0.  1.
         24    2    1    2    0    0 -0.10929554505E+04  0.45367311808E+03 -0.66581020663E+03  0.13601761916E+04  0.80032032257E+02 0.  0.
        254    2    1    2    0    0  0.10929554505E+04 -0.45367311808E+03  0.12523133857E+04  0.19442220808E+04  0.90074400851E+03 0.  0.
         23    2    4    4    0    0  0.10329247022E+04 -0.19861718936E+02  0.92358742494E+03  0.13888639426E+04  0.92743684938E+02 0.  0.
         23    2    4    4    0    0  0.60030748256E+02 -0.43381139914E+03  0.32872596074E+03  0.55535813828E+03  0.92552059538E+02 0.  0.
          4    1    3    3  502    0 -0.53535706752E+03  0.18018733839E+03 -0.30622306445E+03  0.64253189171E+03  0.00000000000E+00 0. -1.
         -3    1    3    3    0  502 -0.55759838296E+03  0.27348577969E+03 -0.35958714218E+03  0.71764429991E+03  0.00000000000E+00 0.  1.
         13    1    5    5    0    0  0.85239430752E+03  0.10941647511E+02  0.78935598001E+03  0.11617997411E+04  0.00000000000E+00 0.  1.
        -13    1    5    5    0    0  0.18053039471E+03 -0.30803366447E+02  0.13423144493E+03  0.22706420151E+03  0.00000000000E+00 0. -1.
          1    1    6    6  503    0  0.67833490493E+02 -0.20786503287E+03  0.19311750586E+03  0.29172525669E+03  0.00000000000E+00 0. -1.
         -1    1    6    6    0  503 -0.78027422367E+01 -0.22594636628E+03  0.13560845488E+03  0.26363288159E+03  0.00000000000E+00 0.  1.
<mgrwt>
<rscale>  0 0.32519320E+04</rscale>
<asrwt>0</asrwt>
<pdfrwt beam="1">  1        2 0.29930011E+00 0.32519320E+04</pdfrwt>
<pdfrwt beam="2">  1       -1 0.20906885E+00 0.32519320E+04</pdfrwt>
<totfact> 0.89147088E-01</totfact>
</mgrwt>
</event>
<event>
12    7  0.1660832E-007  0.1462469E+04  0.7818608E-02  0.8909801E-01
         -1   -1    0    0    0  501 -0.00000000000E+00  0.00000000000E+00  0.11659287622E+03  0.11659287622E+03  0.00000000000E+00 0.  1.
          2   -1    0    0  501    0  0.00000000000E+00 -0.00000000000E+00 -0.45860781582E+04  0.45860781582E+04  0.00000000000E+00 0. -1.
         24    2    1    2    0    0  0.92367120300E+02  0.26603310353E+03 -0.28455287841E+03  0.40855613537E+03  0.81501399058E+02 0.  0.
        254    2    1    2    0    0 -0.92367120300E+02 -0.26603310353E+03 -0.41849324035E+04  0.42941148990E+04  0.92003165532E+03 0.  0.
         23    2    4    4    0    0 -0.10618558550E+03 -0.54298795299E+03 -0.16542915618E+04  0.17466355583E+04  0.89128593817E+02 0.  0.
         23    2    4    4    0    0  0.13818465202E+02  0.27695484946E+03 -0.25306408417E+04  0.25474793407E+04  0.92806159368E+02 0.  0.
          2    1    3    3  502    0  0.43030896286E+02  0.33249828846E+02 -0.65447627022E+02  0.85091721315E+02  0.00000000000E+00 0. -1.
         -1    1    3    3    0  502  0.49336224014E+02  0.23278327469E+03 -0.21910525139E+03  0.32346441405E+03  0.00000000000E+00 0.  1.
         13    1    5    5    0    0 -0.20048924627E+00 -0.60465671456E+02 -0.27416491490E+03  0.28075351856E+03  0.00000000000E+00 0.  1.
        -13    1    5    5    0    0 -0.10598509626E+03 -0.48252228153E+03 -0.13801266469E+04  0.14658820397E+04  0.00000000000E+00 0. -1.
          2    1    6    6  503    0  0.17521440983E+02  0.28306514244E+03 -0.24990180232E+04  0.25150594339E+04  0.00000000000E+00 0. -1.
         -2    1    6    6    0  503 -0.37029757810E+01 -0.61102929869E+01 -0.31622818526E+02  0.32419906872E+02  0.00000000000E+00 0.  1.
<mgrwt>
<rscale>  0 0.14624692E+04</rscale>
<asrwt>0</asrwt>
<pdfrwt beam="1">  1        2 0.70555035E+00 0.14624692E+04</pdfrwt>
<pdfrwt beam="2">  1       -1 0.17937369E-01 0.14624692E+04</pdfrwt>
<totfact> 0.28450590E+00</totfact>
</mgrwt>
</event>
<event>
12    7  0.1660832E-007  0.1200671E+04  0.7818608E-02  0.9112270E-01
          2   -1    0    0  501    0  0.00000000000E+00  0.00000000000E+00  0.20349586872E+04  0.20349586872E+04  0.00000000000E+00 0. -1.
         -1   -1    0    0    0  501 -0.00000000000E+00 -0.00000000000E+00 -0.17710552806E+03  0.17710552806E+03  0.00000000000E+00 0.  1.
         24    2    1    2    0    0  0.24539253298E+00  0.15110721213E+03  0.32242285351E+02  0.17402641581E+03  0.80076080449E+02 0.  0.
        254    2    1    2    0    0 -0.24539253298E+00 -0.15110721213E+03  0.18256108738E+04  0.20380377995E+04  0.89325783496E+03 0.  0.
         23    2    4    4    0    0  0.10079755900E+03  0.26064916346E+03  0.20484449439E+03  0.36030778800E+03  0.98804356664E+02 0.  0.
         23    2    4    4    0    0 -0.10104295153E+03 -0.41175637560E+03  0.16207663794E+04  0.16777300115E+04  0.90229395599E+02 0.  0.
          2    1    3    3  502    0  0.39904452279E+02  0.79330940805E+02  0.12478406134E+02  0.89674266656E+02  0.00000000000E+00 0. -1.
         -1    1    3    3    0  502 -0.39659059746E+02  0.71776271326E+02  0.19763879217E+02  0.84352149156E+02  0.00000000000E+00 0.  1.
         13    1    5    5    0    0  0.11300654895E+02  0.69549387243E+02  0.10600920896E+03  0.12729011922E+03  0.00000000000E+00 0. -1.
        -13    1    5    5    0    0  0.89496904107E+02  0.19109977622E+03  0.98835285430E+02  0.23301766878E+03  0.00000000000E+00 0.  1.
          4    1    6    6  503    0 -0.42453922642E+02 -0.13875658765E+03  0.40194882658E+03  0.42733895838E+03  0.00000000000E+00 0. -1.
         -4    1    6    6    0  503 -0.58589028893E+02 -0.27299978795E+03  0.12188175529E+04  0.12503910531E+04  0.00000000000E+00 0.  1.
<mgrwt>
<rscale>  0 0.12006705E+04</rscale>
<asrwt>0</asrwt>
<pdfrwt beam="1">  1        2 0.31307055E+00 0.12006705E+04</pdfrwt>
<pdfrwt beam="2">  1       -1 0.27247006E-01 0.12006705E+04</pdfrwt>
<totfact> 0.86824609E+01</totfact>
</mgrwt>
</event>
<event>
12    7  0.1660832E-007  0.2035901E+04  0.7818608E-02  0.8590017E-01
          2   -1    0    0  501    0  0.00000000000E+00  0.00000000000E+00  0.30698539188E+04  0.30698539188E+04  0.00000000000E+00 0. -1.
         -3   -1    0    0    0  501 -0.00000000000E+00 -0.00000000000E+00 -0.33754819480E+03  0.33754819480E+03  0.00000000000E+00 0.  1.
         24    2    1    2    0    0 -0.25360088919E+03 -0.38587434124E+03 -0.24855377315E+02  0.46908824056E+03  0.78826197542E+02 0.  0.
        254    2    1    2    0    0  0.25360088919E+03  0.38587434124E+03  0.27571611013E+04  0.29383138730E+04  0.90473126377E+03 0.  0.
         23    2    4    4    0    0 -0.30031327588E+03  0.23773231387E+03  0.15424153372E+04  0.15920067781E+04  0.93465462207E+02 0.  0.
         23    2    4    4    0    0  0.55391416507E+03  0.14814202737E+03  0.12147457642E+04  0.13463070949E+04  0.90380084543E+02 0.  0.
          4    1    3    3  502    0 -0.42375695814E+02 -0.51622900341E+02  0.23371953989E+02  0.70759251470E+02  0.00000000000E+00 0. -1.
         -3    1    3    3    0  502 -0.21122519338E+03 -0.33425144090E+03 -0.48227331303E+02  0.39832898909E+03  0.00000000000E+00 0.  1.
         13    1    5    5    0    0 -0.17113059743E+03  0.13985693043E+03  0.10692926951E+04  0.10918940013E+04  0.00000000000E+00 0. -1.
        -13    1    5    5    0    0 -0.12918267845E+03  0.97875383444E+02  0.47312264208E+03  0.50011277683E+03  0.00000000000E+00 0.  1.
          3    1    6    6  503    0  0.22687223352E+03  0.96949531654E+02  0.45519240846E+03  0.51775510693E+03  0.00000000000E+00 0. -1.
         -3    1    6    6    0  503  0.32704193155E+03  0.51192495720E+02  0.75955335571E+03  0.82855198798E+03  0.00000000000E+00 0.  1.
<mgrwt>
<rscale>  0 0.20359014E+04</rscale>
<asrwt>0</asrwt>
<pdfrwt beam="1">  1        2 0.47228520E+00 0.20359014E+04</pdfrwt>
<pdfrwt beam="2">  1       -3 0.51930494E-01 0.20359014E+04</pdfrwt>
<totfact> 0.34593805E+00</totfact>
</mgrwt>
</event>
<event>
12    7  0.1660832E-007  0.2106364E+04  0.7818608E-02  0.8558445E-01
          2   -1    0    0  501    0  0.00000000000E+00  0.00000000000E+00  0.29843090983E+04  0.29843090983E+04  0.00000000000E+00 0. -1.
         -1   -1    0    0    0  501 -0.00000000000E+00 -0.00000000000E+00 -0.37167492181E+03  0.37167492181E+03  0.00000000000E+00 0.  1.
         24    2    1    2    0    0  0.52374709107E+03 -0.28575818498E+03  0.20618474573E+04  0.21479358222E+04  0.80278287514E+02 0.  0.
        254    2    1    2    0    0 -0.52374709107E+03  0.28575818498E+03  0.55078671919E+03  0.12080481979E+04  0.89445272806E+03 0.  0.
         23    2    4    4    0    0 -0.53947669582E+03  0.25717427999E+03  0.76443630918E+03  0.97467610421E+03  0.91961522971E+02 0.  0.
         23    2    4    4    0    0  0.15729604743E+02  0.28583904982E+02 -0.21364958999E+03  0.23337209369E+03  0.88045026668E+02 0.  0.
          4    1    3    3  502    0  0.34436375020E+03 -0.19600825580E+03  0.14961186877E+04  0.15477004737E+04  0.00000000000E+00 0. -1.
         -3    1    3    3    0  502  0.17938334087E+03 -0.89749929171E+02  0.56572876964E+03  0.60023534848E+03  0.00000000000E+00 0.  1.
         13    1    5    5    0    0 -0.13530408564E+03  0.26123732914E+02  0.14847340752E+03  0.20256850138E+03  0.00000000000E+00 0.  1.
        -13    1    5    5    0    0 -0.40417261018E+03  0.23105054708E+03  0.61596290166E+03  0.77210760283E+03  0.00000000000E+00 0. -1.
          3    1    6    6  503    0  0.14759237482E+01  0.35840311871E+02 -0.21438066156E+03  0.21736093107E+03  0.00000000000E+00 0. -1.
         -3    1    6    6    0  503  0.14253680995E+02 -0.72564068888E+01  0.73107156587E+00  0.16011162621E+02  0.00000000000E+00 0.  1.
<mgrwt>
<rscale>  0 0.21063645E+04</rscale>
<asrwt>0</asrwt>
<pdfrwt beam="1">  1        2 0.45912446E+00 0.21063645E+04</pdfrwt>
<pdfrwt beam="2">  1       -1 0.57180759E-01 0.21063645E+04</pdfrwt>
<totfact> 0.57913586E+00</totfact>
</mgrwt>
</event>
<event>
12    7  0.1660832E-007  0.2953965E+04  0.7818608E-02  0.8257000E-01
          2   -1    0    0  501    0  0.00000000000E+00  0.00000000000E+00  0.14605600145E+04  0.14605600145E+04  0.00000000000E+00 0. -1.
         -1   -1    0    0    0  501 -0.00000000000E+00 -0.00000000000E+00 -0.14935896555E+04  0.14935896555E+04  0.00000000000E+00 0.  1.
         24    2    1    2    0    0  0.37390045526E+03 -0.41006833694E+03 -0.12325795145E+04  0.13542008692E+04  0.81548410512E+02 0.  0.
        254    2    1    2    0    0 -0.37390045526E+03  0.41006833694E+03  0.11995498735E+04  0.15999488008E+04  0.90164220999E+03 0.  0.
         23    2    4    4    0    0 -0.61249873896E+03  0.11920370001E+03  0.94791635197E+03  0.11384893017E+04  0.90819890382E+02 0.  0.
         23    2    4    4    0    0  0.23859828370E+03  0.29086463694E+03  0.25163352149E+03  0.46145949907E+03  0.89967005824E+02 0.  0.
          2    1    3    3  502    0  0.77896174900E+02 -0.68419976204E+02 -0.16510976184E+03  0.19496240834E+03  0.00000000000E+00 0. -1.
         -1    1    3    3    0  502  0.29600428036E+03 -0.34164836074E+03 -0.10674697526E+04  0.11592384609E+04  0.00000000000E+00 0.  1.
         13    1    5    5    0    0 -0.28055729149E+03  0.91820752271E+02  0.39715772679E+03  0.49485119410E+03  0.00000000000E+00 0. -1.
        -13    1    5    5    0    0 -0.33194144748E+03  0.27382947737E+02  0.55075862518E+03  0.64363810762E+03  0.00000000000E+00 0.  1.
          3    1    6    6  503    0  0.47515891921E+02  0.27795281964E+02  0.69902312097E+02  0.88975676008E+02  0.00000000000E+00 0. -1.
         -3    1    6    6    0  503  0.19108239178E+03  0.26306935497E+03  0.18173120939E+03  0.37248382306E+03  0.00000000000E+00 0.  1.
<mgrwt>
<rscale>  0 0.29539650E+04</rscale>
<asrwt>0</asrwt>
<pdfrwt beam="1">  1        2 0.22470154E+00 0.29539650E+04</pdfrwt>
<pdfrwt beam="2">  1       -1 0.22978302E+00 0.29539650E+04</pdfrwt>
<totfact> 0.12384367E+00</totfact>
</mgrwt>
</event>
<event>
12    7  0.1660832E-007  0.2131829E+04  0.7818608E-02  0.8547351E-01
          2   -1    0    0  501    0  0.00000000000E+00  0.00000000000E+00  0.21142960061E+04  0.21142960061E+04  0.00000000000E+00 0. -1.
         -1   -1    0    0    0  501 -0.00000000000E+00 -0.00000000000E+00 -0.53737664274E+03  0.53737664274E+03  0.00000000000E+00 0.  1.
         24    2    1    2    0    0  0.62818087204E+03  0.30488902537E+03  0.13029023552E+04  0.14803525673E+04  0.79502519485E+02 0.  0.
        254    2    1    2    0    0 -0.62818087204E+03 -0.30488902537E+03  0.27401700820E+03  0.11713200816E+04  0.89963152839E+03 0.  0.
         23    2    4    4    0    0 -0.74456649855E+03 -0.35925093327E+03  0.44071162106E+03  0.94094640457E+03  0.87823114906E+02 0.  0.
         23    2    4    4    0    0  0.11638562651E+03  0.54361907903E+02 -0.16669461286E+03  0.23037367698E+03  0.93723561609E+02 0.  0.
          4    1    3    3  502    0  0.51701029605E+03  0.22293275181E+03  0.10042722898E+04  0.11513303132E+04  0.00000000000E+00 0. -1.
         -3    1    3    3    0  502  0.11117057599E+03  0.81956273558E+02  0.29863006540E+03  0.32902225411E+03  0.00000000000E+00 0.  1.
         13    1    5    5    0    0 -0.22516429184E+03 -0.80165260925E+02  0.93284669348E+02  0.25656862029E+03  0.00000000000E+00 0.  1.
        -13    1    5    5    0    0 -0.51940220671E+03 -0.27908567235E+03  0.34742695171E+03  0.68437778428E+03  0.00000000000E+00 0. -1.
          2    1    6    6  503    0  0.24003217881E+02  0.59412104049E+02 -0.48991642116E+02  0.80660607321E+02  0.00000000000E+00 0. -1.
         -2    1    6    6    0  503  0.92382408631E+02 -0.50501961461E+01 -0.11770297075E+03  0.14971306966E+03  0.00000000000E+00 0.  1.
<mgrwt>
<rscale>  0 0.21318286E+04</rscale>
<asrwt>0</asrwt>
<pdfrwt beam="1">  1        2 0.32527630E+00 0.21318286E+04</pdfrwt>
<pdfrwt beam="2">  1       -1 0.82673331E-01 0.21318286E+04</pdfrwt>
<totfact> 0.87735731E+00</totfact>
</mgrwt>
</event>
<event>
12    7  0.1660832E-007  0.1478778E+04  0.7818608E-02  0.8898689E-01
          4   -1    0    0  501    0  0.00000000000E+00  0.00000000000E+00  0.10987541954E+04  0.10987541954E+04  0.00000000000E+00 0. -1.
         -3   -1    0    0    0  501 -0.00000000000E+00 -0.00000000000E+00 -0.49756002973E+03  0.49756002973E+03  0.00000000000E+00 0.  1.
         24    2    1    2    0    0 -0.39200254494E+03 -0.22812976521E+03  0.16222305981E+03  0.48818407634E+03  0.79361112923E+02 0.  0.
        254    2    1    2    0    0  0.39200254494E+03  0.22812976521E+03  0.43897110587E+03  0.11081301488E+04  0.91079504272E+03 0.  0.
         23    2    4    4    0    0 -0.49804434525E+02  0.48508075865E+03  0.26403592530E+03  0.56012298423E+03  0.78987109743E+02 0.  0.
         23    2    4    4    0    0  0.44180697947E+03 -0.25695099344E+03  0.17493518056E+03  0.54800716455E+03  0.92153756663E+02 0.  0.
          2    1    3    3  502    0 -0.11039550726E+03 -0.10363391319E+03  0.69661561486E+02  0.16667300062E+03  0.00000000000E+00 0. -1.
         -1    1    3    3    0  502 -0.28160703768E+03 -0.12449585202E+03  0.92561498324E+02  0.32151107572E+03  0.00000000000E+00 0.  1.
         13    1    5    5    0    0  0.15570394516E+02  0.11228124150E+03  0.83454194955E+02  0.14076262655E+03  0.00000000000E+00 0. -1.
        -13    1    5    5    0    0 -0.65374829042E+02  0.37279951715E+03  0.18058173035E+03  0.41936035769E+03  0.00000000000E+00 0.  1.
          3    1    6    6  503    0  0.65812659298E+02 -0.45331033065E+02 -0.60199947772E+01  0.80140183552E+02  0.00000000000E+00 0. -1.
         -3    1    6    6    0  503  0.37599432017E+03 -0.21161996038E+03  0.18095517534E+03  0.46786698100E+03  0.00000000000E+00 0.  1.
<mgrwt>
<rscale>  0 0.14787781E+04</rscale>
<asrwt>0</asrwt>
<pdfrwt beam="1">  1        4 0.16903911E+00 0.14787781E+04</pdfrwt>
<pdfrwt beam="2">  1       -3 0.76547697E-01 0.14787781E+04</pdfrwt>
<totfact> 0.76235021E-01</totfact>
</mgrwt>
</event>
<event>
12    7  0.1660832E-007  0.1261845E+04  0.7818608E-02  0.9060382E-01
          2   -1    0    0  501    0  0.00000000000E+00  0.00000000000E+00  0.31204617634E+04  0.31204617634E+04  0.00000000000E+00 0. -1.
         -1   -1    0    0    0  501 -0.00000000000E+00 -0.00000000000E+00 -0.12756542625E+03  0.12756542625E+03  0.00000000000E+00 0.  1.
         24    2    1    2    0    0  0.24016686728E+03 -0.12869970935E+02  0.27048086169E+03  0.37079330058E+03  0.80510961513E+02 0.  0.
        254    2    1    2    0    0 -0.24016686728E+03  0.12869970935E+02  0.27224154755E+04  0.28772338891E+04  0.89949045077E+03 0.  0.
         23    2    4    4    0    0 -0.29186225850E+03 -0.34602494202E+03  0.21076860972E+04  0.21576922266E+04  0.91532626513E+02 0.  0.
         23    2    4    4    0    0  0.51695391212E+02  0.35889491295E+03  0.61472937823E+03  0.71954166249E+03  0.91487832963E+02 0.  0.
          4    1    3    3  502    0  0.20442879390E+02 -0.10021313919E+02  0.69016816799E+02  0.72675023574E+02  0.00000000000E+00 0. -1.
         -3    1    3    3    0  502  0.21972398789E+03 -0.28486570162E+01  0.20146404489E+03  0.29811827701E+03  0.00000000000E+00 0.  1.
         13    1    5    5    0    0 -0.24841621211E+03 -0.32098779739E+03  0.19641529112E+04  0.20056521231E+04  0.00000000000E+00 0.  1.
        -13    1    5    5    0    0 -0.43446046383E+02 -0.25037144630E+02  0.14353318608E+03  0.15204010347E+03  0.00000000000E+00 0. -1.
          2    1    6    6  503    0 -0.12620009149E+02  0.68523693233E+01  0.40012924190E+02  0.42511806578E+02  0.00000000000E+00 0. -1.
         -2    1    6    6    0  503  0.64315400362E+02  0.35204254363E+03  0.57471645404E+03  0.67702985591E+03  0.00000000000E+00 0.  1.
<mgrwt>
<rscale>  0 0.12618447E+04</rscale>
<asrwt>0</asrwt>
<pdfrwt beam="1">  1        2 0.48007098E+00 0.12618447E+04</pdfrwt>
<pdfrwt beam="2">  1       -1 0.19625453E-01 0.12618447E+04</pdfrwt>
<totfact> 0.35010149E+01</totfact>
</mgrwt>
</event>
<event>
12    7  0.1660832E-007  0.2251838E+04  0.7818608E-02  0.8497156E-01
         -1   -1    0    0    0  501 -0.00000000000E+00  0.00000000000E+00  0.61444106827E+03  0.61444106827E+03  0.00000000000E+00 0.  1.
          2   -1    0    0  501    0  0.00000000000E+00 -0.00000000000E+00 -0.20631663174E+04  0.20631663174E+04  0.00000000000E+00 0. -1.
         24    2    1    2    0    0 -0.60465921063E+03 -0.64200301470E+01  0.24753728904E+03  0.65887810048E+03  0.84803679452E+02 0.  0.
        254    2    1    2    0    0  0.60465921063E+03  0.64200301470E+01 -0.16962625382E+04  0.20187292852E+04  0.91230880227E+03 0.  0.
         23    2    4    4    0    0  0.78256335266E+03 -0.68188266488E+02 -0.92433168734E+03  0.12164712692E+04  0.91423410302E+02 0.  0.
         23    2    4    4    0    0 -0.17790414204E+03  0.74608296635E+02 -0.77193085082E+03  0.80225801598E+03  0.10258851826E+03 0.  0.
          2    1    3    3  502    0 -0.26214421351E+03  0.30059784547E+02  0.13579114930E+03  0.29675312223E+03  0.00000000000E+00 0. -1.
         -1    1    3    3    0  502 -0.34251499711E+03 -0.36479814694E+02  0.11174613974E+03  0.36212497825E+03  0.00000000000E+00 0.  1.
         13    1    5    5    0    0  0.22375656298E+03 -0.58439257872E+02 -0.24796233365E+03  0.33906852588E+03  0.00000000000E+00 0.  1.
        -13    1    5    5    0    0  0.55880678969E+03 -0.97490086168E+01 -0.67636935369E+03  0.87740274332E+03  0.00000000000E+00 0. -1.
          1    1    6    6  503    0 -0.30831063444E+02 -0.11667329286E+02 -0.27326307596E+03  0.27524423650E+03  0.00000000000E+00 0. -1.
         -1    1    6    6    0  503 -0.14707307859E+03  0.86275625921E+02 -0.49866777486E+03  0.52701377948E+03  0.00000000000E+00 0.  1.
<mgrwt>
<rscale>  0 0.22518385E+04</rscale>
<asrwt>0</asrwt>
<pdfrwt beam="1">  1        2 0.31741020E+00 0.22518385E+04</pdfrwt>
<pdfrwt beam="2">  1       -1 0.94529396E-01 0.22518385E+04</pdfrwt>
<totfact> 0.69096958E+00</totfact>
</mgrwt>
</event>
<event>
12    7  0.1660832E-007  0.1179844E+04  0.7818608E-02  0.9130684E-01
         -1   -1    0    0    0  501 -0.00000000000E+00  0.00000000000E+00  0.99343183107E+02  0.99343183107E+02  0.00000000000E+00 0.  1.
          2   -1    0    0  501    0  0.00000000000E+00 -0.00000000000E+00 -0.35030874025E+04  0.35030874025E+04  0.00000000000E+00 0. -1.
         24    2    1    2    0    0  0.73469327313E+02  0.14959438865E+03 -0.22378041863E+03  0.28928618935E+03  0.76371463328E+02 0.  0.
        254    2    1    2    0    0 -0.73469327313E+02 -0.14959438865E+03 -0.31799638008E+04  0.33131443963E+04  0.91486599738E+03 0.  0.
         23    2    4    4    0    0 -0.33221935629E+03 -0.10180936133E+03 -0.28882136408E+04  0.29101706709E+04  0.81119985834E+02 0.  0.
         23    2    4    4    0    0  0.25875002897E+03 -0.47785027318E+02 -0.29175016000E+03  0.40297372540E+03  0.89636383106E+02 0.  0.
          2    1    3    3  502    0  0.37667359160E+02  0.11658466611E+03 -0.20129333248E+03  0.23564766075E+03  0.00000000000E+00 0. -1.
         -1    1    3    3    0  502  0.35801968153E+02  0.33009722541E+02 -0.22487086154E+02  0.53638528593E+02  0.00000000000E+00 0.  1.
         13    1    5    5    0    0 -0.27302500985E+03 -0.10119762108E+03 -0.25751258204E+04  0.25915355691E+04  0.00000000000E+00 0.  1.
        -13    1    5    5    0    0 -0.59194346433E+02 -0.61174025158E+00 -0.31308782032E+03  0.31863510182E+03  0.00000000000E+00 0. -1.
          3    1    6    6  503    0  0.53756475382E+02  0.23445874361E+02 -0.84763101184E+02  0.10307400736E+03  0.00000000000E+00 0. -1.
         -3    1    6    6    0  503  0.20499355359E+03 -0.71230901679E+02 -0.20698705881E+03  0.29989971805E+03  0.00000000000E+00 0.  1.
<mgrwt>
<rscale>  0 0.11798438E+04</rscale>
<asrwt>0</asrwt>
<pdfrwt beam="1">  1        2 0.53893645E+00 0.11798438E+04</pdfrwt>
<pdfrwt beam="2">  1       -1 0.15283569E-01 0.11798438E+04</pdfrwt>
<totfact> 0.29844851E+01</totfact>
</mgrwt>
</event>
<event>
12    7  0.1660832E-007  0.1484102E+04  0.7818608E-02  0.8895094E-01
          2   -1    0    0  501    0  0.00000000000E+00  0.00000000000E+00  0.81500223057E+03  0.81500223057E+03  0.00000000000E+00 0. -1.
         -1   -1    0    0    0  501 -0.00000000000E+00 -0.00000000000E+00 -0.67562962807E+03  0.67562962807E+03  0.00000000000E+00 0.  1.
         24    2    1    2    0    0  0.22306652515E+03  0.37426607237E+03  0.20144773247E+03  0.48667138881E+03  0.80212743345E+02 0.  0.
        254    2    1    2    0    0 -0.22306652515E+03 -0.37426607237E+03 -0.62075129966E+02  0.10039604698E+04  0.90235776478E+03 0.  0.
         23    2    4    4    0    0 -0.27204818035E+03  0.15466501108E+03 -0.27436632829E+03  0.42512947308E+03  0.86756606076E+02 0.  0.
         23    2    4    4    0    0  0.48981655199E+02 -0.52893108346E+03  0.21229119832E+03  0.57883099676E+03  0.88376899317E+02 0.  0.
          4    1    3    3  502    0  0.18667297595E+03  0.28254319181E+03  0.18728960976E+03  0.38698172193E+03  0.00000000000E+00 0. -1.
         -3    1    3    3    0  502  0.36393549206E+02  0.91722880566E+02  0.14158122705E+02  0.99689666875E+02  0.00000000000E+00 0.  1.
         13    1    5    5    0    0 -0.23589925861E+03  0.97631993752E+02 -0.19723728091E+03  0.32261898796E+03  0.00000000000E+00 0. -1.
        -13    1    5    5    0    0 -0.36148921745E+02  0.57033017331E+02 -0.77129047377E+02  0.10251048512E+03  0.00000000000E+00 0.  1.
          2    1    6    6  503    0  0.68735912988E+02 -0.28586034947E+03  0.12979164251E+03  0.32138238221E+03  0.00000000000E+00 0. -1.
         -2    1    6    6    0  503 -0.19754257789E+02 -0.24307073399E+03  0.82499555814E+02  0.25744861455E+03  0.00000000000E+00 0.  1.
<mgrwt>
<rscale>  0 0.14841020E+04</rscale>
<asrwt>0</asrwt>
<pdfrwt beam="1">  1        2 0.12538496E+00 0.14841020E+04</pdfrwt>
<pdfrwt beam="2">  1       -1 0.10394302E+00 0.14841020E+04</pdfrwt>
<totfact> 0.32356010E+01</totfact>
</mgrwt>
</event>
<event>
12    7  0.1660832E-007  0.2230812E+04  0.7818608E-02  0.8505712E-01
          2   -1    0    0  501    0  0.00000000000E+00  0.00000000000E+00  0.96460588545E+03  0.96460588545E+03  0.00000000000E+00 0. -1.
         -1   -1    0    0    0  501 -0.00000000000E+00 -0.00000000000E+00 -0.12897812463E+04  0.12897812463E+04  0.00000000000E+00 0.  1.
         24    2    1    2    0    0  0.55457351938E+02 -0.13400904154E+03 -0.10636176749E+04  0.10763441941E+04  0.78742140613E+02 0.  0.
        254    2    1    2    0    0 -0.55457351938E+02  0.13400904154E+03  0.73844231410E+03  0.11780429376E+04  0.90634108949E+03 0.  0.
         23    2    4    4    0    0  0.24357412610E+03  0.36031791438E+03  0.64037113740E+03  0.77943707506E+03  0.91047273617E+02 0.  0.
         23    2    4    4    0    0 -0.29903147804E+03 -0.22630887284E+03  0.98071176696E+02  0.39860586255E+03  0.92914730682E+02 0.  0.
          2    1    3    3  502    0  0.11574479511E+02 -0.42587430233E+02 -0.13110029554E+03  0.13832911943E+03  0.00000000000E+00 0. -1.
         -1    1    3    3    0  502  0.43882872427E+02 -0.91421611308E+02 -0.93251737938E+03  0.93801507469E+03  0.00000000000E+00 0.  1.
         13    1    5    5    0    0  0.14455600705E+03  0.16660379265E+03  0.25734811615E+03  0.33894146366E+03  0.00000000000E+00 0. -1.
        -13    1    5    5    0    0  0.99018119050E+02  0.19371412173E+03  0.38302302125E+03  0.44049561140E+03  0.00000000000E+00 0.  1.
          4    1    6    6  503    0 -0.20050035067E+03 -0.14952336527E+03  0.10976741238E+03  0.27314192684E+03  0.00000000000E+00 0. -1.
         -4    1    6    6    0  503 -0.98531127371E+02 -0.76785507569E+02 -0.11696235686E+02  0.12546393571E+03  0.00000000000E+00 0.  1.
<mgrwt>
<rscale>  0 0.22308120E+04</rscale>
<asrwt>0</asrwt>
<pdfrwt beam="1">  1        2 0.14840091E+00 0.22308120E+04</pdfrwt>
<pdfrwt beam="2">  1       -1 0.19842788E+00 0.22308120E+04</pdfrwt>
<totfact> 0.42612855E+00</totfact>
</mgrwt>
</event>
<event>
12    7  0.1660832E-007  0.1729126E+04  0.7818608E-02  0.8744925E-01
         -1   -1    0    0    0  501 -0.00000000000E+00  0.00000000000E+00  0.27606046162E+03  0.27606046162E+03  0.00000000000E+00 0.  1.
          2   -1    0    0  501    0  0.00000000000E+00 -0.00000000000E+00 -0.27076270763E+04  0.27076270763E+04  0.00000000000E+00 0. -1.
         24    2    1    2    0    0  0.86715418738E+02 -0.28551770211E+03 -0.18528199772E+04  0.18781590331E+04  0.74159041703E+02 0.  0.
        254    2    1    2    0    0 -0.86715418738E+02  0.28551770211E+03 -0.57874663747E+03  0.11055285049E+04  0.89342357401E+03 0.  0.
         23    2    4    4    0    0  0.59474453455E+02  0.43540038925E+03 -0.70947240552E+03  0.84075707291E+03  0.10203260203E+03 0.  0.
         23    2    4    4    0    0 -0.14618987219E+03 -0.14988268714E+03  0.13072576804E+03  0.26477143195E+03  0.95803894016E+02 0.  0.
          2    1    3    3  502    0  0.94753464757E+02 -0.19773333250E+03 -0.13377538092E+04  0.13556039038E+04  0.00000000000E+00 0. -1.
         -1    1    3    3    0  502 -0.80380460189E+01 -0.87784369606E+02 -0.51506616800E+03  0.52255512929E+03  0.00000000000E+00 0.  1.
         13    1    5    5    0    0  0.58411802618E+02  0.19217196872E+03 -0.39563219333E+03  0.44369678458E+03  0.00000000000E+00 0. -1.
        -13    1    5    5    0    0  0.10626508364E+01  0.24322842053E+03 -0.31384021219E+03  0.39706028833E+03  0.00000000000E+00 0.  1.
          3    1    6    6  503    0 -0.13667245156E+03 -0.10259652507E+03  0.13289733110E+03  0.21648812112E+03  0.00000000000E+00 0. -1.
         -3    1    6    6    0  503 -0.95174206358E+01 -0.47286162068E+02 -0.21715630541E+01  0.48283310831E+02  0.00000000000E+00 0.  1.
<mgrwt>
<rscale>  0 0.17291255E+04</rscale>
<asrwt>0</asrwt>
<pdfrwt beam="1">  1        2 0.41655799E+00 0.17291255E+04</pdfrwt>
<pdfrwt beam="2">  1       -1 0.42470842E-01 0.17291255E+04</pdfrwt>
<totfact> 0.15532726E+01</totfact>
</mgrwt>
</event>
<event>
12    7  0.1660832E-007  0.1777550E+04  0.7818608E-02  0.8718330E-01
          2   -1    0    0  501    0  0.00000000000E+00  0.00000000000E+00  0.69473625200E+03  0.69473625200E+03  0.00000000000E+00 0. -1.
         -1   -1    0    0    0  501 -0.00000000000E+00 -0.00000000000E+00 -0.11370089557E+04  0.11370089557E+04  0.00000000000E+00 0.  1.
         24    2    1    2    0    0 -0.46809219363E+03 -0.33839403983E+03 -0.49341585651E+03  0.76401943804E+03  0.81520956373E+02 0.  0.
        254    2    1    2    0    0  0.46809219363E+03  0.33839403983E+03  0.51143152849E+02  0.10677257696E+04  0.89654998138E+03 0.  0.
         23    2    4    4    0    0 -0.17909793649E+03  0.35988433124E+03  0.43329505066E+02  0.41426957220E+03  0.90271976345E+02 0.  0.
         23    2    4    4    0    0  0.64719013011E+03 -0.21490291419E+02  0.78136477835E+01  0.65345619743E+03  0.87332993329E+02 0.  0.
          2    1    3    3  502    0 -0.10767923736E+03 -0.51876217776E+02 -0.13666666498E+03  0.18155918442E+03  0.00000000000E+00 0. -1.
         -1    1    3    3    0  502 -0.36041295626E+03 -0.28651782205E+03 -0.35674919153E+03  0.58246025362E+03  0.00000000000E+00 0.  1.
         13    1    5    5    0    0 -0.71232987342E+02  0.17981472949E+03 -0.21451201555E+02  0.19459606747E+03  0.00000000000E+00 0.  1.
        -13    1    5    5    0    0 -0.10786494914E+03  0.18006960176E+03  0.64780706621E+02  0.21967350473E+03  0.00000000000E+00 0. -1.
          3    1    6    6  503    0  0.58561329320E+03 -0.14373976349E+02 -0.18580085452E+02  0.58608426010E+03  0.00000000000E+00 0. -1.
         -3    1    6    6    0  503  0.61576836914E+02 -0.71163150691E+01  0.26393733235E+02  0.67371937322E+02  0.00000000000E+00 0.  1.
<mgrwt>
<rscale>  0 0.17775504E+04</rscale>
<asrwt>0</asrwt>
<pdfrwt beam="1">  1        2 0.10688250E+00 0.17775504E+04</pdfrwt>
<pdfrwt beam="2">  1       -1 0.17492445E+00 0.17775504E+04</pdfrwt>
<totfact> 0.10116830E+01</totfact>
</mgrwt>
</event>
<event>
12    7  0.1660832E-007  0.1677041E+04  0.7818608E-02  0.8774568E-01
         -1   -1    0    0    0  501 -0.00000000000E+00  0.00000000000E+00  0.10943858065E+04  0.10943858065E+04  0.00000000000E+00 0.  1.
          2   -1    0    0  501    0  0.00000000000E+00 -0.00000000000E+00 -0.64247623002E+03  0.64247623002E+03  0.00000000000E+00 0. -1.
         24    2    1    2    0    0 -0.47072518667E+03  0.36719293612E+03 -0.77071145225E+02  0.60745572912E+03  0.81545372108E+02 0.  0.
        254    2    1    2    0    0  0.47072518667E+03 -0.36719293612E+03  0.52898072173E+03  0.11294063074E+04  0.79957810723E+03 0.  0.
         23    2    4    4    0    0  0.51871601602E+03  0.85393806798E+02  0.27571485383E+03  0.60068317168E+03  0.91886803155E+02 0.  0.
         23    2    4    4    0    0 -0.47990829351E+02 -0.45258674292E+03  0.25326586790E+03  0.52872313574E+03  0.90921256326E+02 0.  0.
          4    1    3    3  502    0 -0.21693819051E+03  0.15635831761E+03  0.50114702764E+01  0.26746068276E+03  0.00000000000E+00 0. -1.
         -1    1    3    3    0  502 -0.25378699616E+03  0.21083461851E+03 -0.82082615502E+02  0.33999504636E+03  0.00000000000E+00 0.  1.
         13    1    5    5    0    0  0.38696113108E+03  0.32579947370E+02  0.23108854397E+03  0.45188746951E+03  0.00000000000E+00 0.  1.
        -13    1    5    5    0    0  0.13175488494E+03  0.52813859429E+02  0.44626309858E+02  0.14879570217E+03  0.00000000000E+00 0. -1.
          3    1    6    6  503    0  0.80025620021E+01 -0.30386133157E+03  0.18440120262E+03  0.35552714854E+03  0.00000000000E+00 0. -1.
         -3    1    6    6    0  503 -0.55993391354E+02 -0.14872541136E+03  0.68864665274E+02  0.17319598720E+03  0.00000000000E+00 0.  1.
<mgrwt>
<rscale>  0 0.16770413E+04</rscale>
<asrwt>0</asrwt>
<pdfrwt beam="1">  1        2 0.98842497E-01 0.16770413E+04</pdfrwt>
<pdfrwt beam="2">  1       -1 0.16836705E+00 0.16770413E+04</pdfrwt>
<totfact> 0.12564525E+01</totfact>
</mgrwt>
</event>
<event>
12    7  0.1660832E-007  0.1820297E+04  0.7818608E-02  0.8695579E-01
         -1   -1    0    0    0  501 -0.00000000000E+00  0.00000000000E+00  0.87611957455E+03  0.87611957455E+03  0.00000000000E+00 0.  1.
          2   -1    0    0  501    0  0.00000000000E+00 -0.00000000000E+00 -0.94549950567E+03  0.94549950567E+03  0.00000000000E+00 0. -1.
         24    2    1    2    0    0 -0.54841532696E+03  0.70063361784E+02  0.37839180315E+03  0.67433041246E+03  0.76634867913E+02 0.  0.
        254    2    1    2    0    0  0.54841532696E+03 -0.70063361784E+02 -0.44777173427E+03  0.11472886678E+04  0.90005750686E+03 0.  0.
         23    2    4    4    0    0  0.57035827196E+03 -0.34141906839E+03 -0.52371494124E+03  0.85119472746E+03  0.91540077103E+02 0.  0.
         23    2    4    4    0    0 -0.21942945003E+02  0.27135570661E+03  0.75943206969E+02  0.29609394030E+03  0.88254396224E+02 0.  0.
          2    1    3    3  502    0 -0.35527112368E+03  0.82063907389E+02  0.24475330402E+03  0.43915400037E+03  0.00000000000E+00 0. -1.
         -1    1    3    3    0  502 -0.19314420327E+03 -0.12000545605E+02  0.13363849913E+03  0.23517641209E+03  0.00000000000E+00 0.  1.
         13    1    5    5    0    0  0.32471943003E+03 -0.22491346243E+03 -0.26322265455E+03  0.47467350851E+03  0.00000000000E+00 0. -1.
        -13    1    5    5    0    0  0.24563884193E+03 -0.11650560597E+03 -0.26049228669E+03  0.37652121894E+03  0.00000000000E+00 0.  1.
          1    1    6    6  503    0 -0.12757400780E+02  0.23953920969E+03  0.33417855489E+02  0.24219524628E+03  0.00000000000E+00 0. -1.
         -1    1    6    6    0  503 -0.91855442227E+01  0.31816496917E+02  0.42525351479E+02  0.53898694021E+02  0.00000000000E+00 0.  1.
<mgrwt>
<rscale>  0 0.18202974E+04</rscale>
<asrwt>0</asrwt>
<pdfrwt beam="1">  1        2 0.14546146E+00 0.18202974E+04</pdfrwt>
<pdfrwt beam="2">  1       -1 0.13478763E+00 0.18202974E+04</pdfrwt>
<totfact> 0.13598669E+01</totfact>
</mgrwt>
</event>
<event>
12    7  0.1660832E-007  0.1247417E+04  0.7818608E-02  0.9072336E-01
          2   -1    0    0  501    0  0.00000000000E+00  0.00000000000E+00  0.11061972063E+04  0.11061972063E+04  0.00000000000E+00 0. -1.
         -1   -1    0    0    0  501 -0.00000000000E+00 -0.00000000000E+00 -0.35166651192E+03  0.35166651192E+03  0.00000000000E+00 0.  1.
         24    2    1    2    0    0  0.23328336753E+03 -0.34177229282E+02 -0.17109412573E+02  0.24959705663E+03  0.80104594842E+02 0.  0.
        254    2    1    2    0    0 -0.23328336753E+03  0.34177229282E+02  0.77164010692E+03  0.12082666616E+04  0.89938348786E+03 0.  0.
         23    2    4    4    0    0 -0.48901152194E+03 -0.23349160867E+03  0.43784594934E+03  0.70254441871E+03  0.90603449150E+02 0.  0.
         23    2    4    4    0    0  0.25572815441E+03  0.26766883795E+03  0.33379415758E+03  0.50572224284E+03  0.85398779280E+02 0.  0.
          4    1    3    3  502    0  0.87006731987E+02  0.17694920729E+02 -0.30349467305E+02  0.93831614056E+02  0.00000000000E+00 0. -1.
         -3    1    3    3    0  502  0.14627663554E+03 -0.51872150011E+02  0.13240054732E+02  0.15576544258E+03  0.00000000000E+00 0.  1.
         13    1    5    5    0    0 -0.19837587271E+03 -0.48568547127E+02  0.18029845902E+03  0.27243242275E+03  0.00000000000E+00 0.  1.
        -13    1    5    5    0    0 -0.29063564923E+03 -0.18492306155E+03  0.25754749033E+03  0.43011199596E+03  0.00000000000E+00 0. -1.
          1    1    6    6  503    0 -0.70565054333E+00  0.14370563728E+02  0.33930427384E+02  0.36854917541E+02  0.00000000000E+00 0.  1.
         -1    1    6    6    0  503  0.25643380495E+03  0.25329827423E+03  0.29986373020E+03  0.46886732530E+03  0.00000000000E+00 0. -1.
<mgrwt>
<rscale>  0 0.12474174E+04</rscale>
<asrwt>0</asrwt>
<pdfrwt beam="1">  1        2 0.17018418E+00 0.12474174E+04</pdfrwt>
<pdfrwt beam="2">  1       -1 0.54102541E-01 0.12474174E+04</pdfrwt>
<totfact> 0.83546144E+01</totfact>
</mgrwt>
</event>
<event>
12    7  0.1660832E-007  0.3258352E+04  0.7818608E-02  0.8173574E-01
         -1   -1    0    0    0  501 -0.00000000000E+00  0.00000000000E+00  0.13871735066E+04  0.13871735066E+04  0.00000000000E+00 0.  1.
          2   -1    0    0  501    0  0.00000000000E+00 -0.00000000000E+00 -0.19133978579E+04  0.19133978579E+04  0.00000000000E+00 0. -1.
         24    2    1    2    0    0 -0.79791050454E+03 -0.45242213131E+03  0.96678181548E+03  0.13352425978E+04  0.82817619598E+02 0.  0.
        254    2    1    2    0    0  0.79791050454E+03  0.45242213131E+03 -0.14930061668E+04  0.19653287667E+04  0.89000156688E+03 0.  0.
         23    2    4    4    0    0  0.17866350668E+03  0.96633014436E+02  0.79275029881E+02  0.23608428294E+03  0.90513370229E+02 0.  0.
         23    2    4    4    0    0  0.61924699786E+03  0.35578911688E+03 -0.15722811967E+04  0.17292444838E+04  0.90363616614E+02 0.  0.
          2    1    3    3  502    0 -0.56282116214E+03 -0.32407511257E+03  0.62860512629E+03  0.90384553102E+03  0.00000000000E+00 0. -1.
         -1    1    3    3    0  502 -0.23508934240E+03 -0.12834701874E+03  0.33817668919E+03  0.43139706680E+03  0.00000000000E+00 0.  1.
         13    1    5    5    0    0  0.13489378005E+03  0.38264147198E+02  0.83164128945E+02  0.16302376882E+03  0.00000000000E+00 0. -1.
        -13    1    5    5    0    0  0.43769726631E+02  0.58368867239E+02 -0.38890990637E+01  0.73060514121E+02  0.00000000000E+00 0.  1.
          1    1    6    6  503    0  0.42148610526E+03  0.26470835721E+03 -0.10017794320E+04  0.11186076532E+04  0.00000000000E+00 0. -1.
         -1    1    6    6    0  503  0.19776089260E+03  0.91080759662E+02 -0.57050176465E+03  0.61063683061E+03  0.00000000000E+00 0.  1.
<mgrwt>
<rscale>  0 0.32583522E+04</rscale>
<asrwt>0</asrwt>
<pdfrwt beam="1">  1        2 0.29436890E+00 0.32583522E+04</pdfrwt>
<pdfrwt beam="2">  1       -1 0.21341131E+00 0.32583522E+04</pdfrwt>
<totfact> 0.86746672E-01</totfact>
</mgrwt>
</event>
<event>
12    7  0.1660832E-007  0.2058496E+04  0.7818608E-02  0.8579750E-01
         -1   -1    0    0    0  501 -0.00000000000E+00  0.00000000000E+00  0.98967828256E+03  0.98967828256E+03  0.00000000000E+00 0.  1.
          2   -1    0    0  501    0  0.00000000000E+00 -0.00000000000E+00 -0.10703997731E+04  0.10703997731E+04  0.00000000000E+00 0. -1.
         24    2    1    2    0    0  0.14539027665E+02  0.18402462590E+02 -0.85998884179E+03  0.86392409777E+03  0.78955713891E+02 0.  0.
        254    2    1    2    0    0 -0.14539027665E+02 -0.18402462590E+02  0.77926735124E+03  0.11961539579E+04  0.90718060623E+03 0.  0.
         23    2    4    4    0    0 -0.29624582980E+03  0.27343299104E+03  0.14596291935E+03  0.43836254687E+03  0.91265307838E+02 0.  0.
         23    2    4    4    0    0  0.28170680214E+03 -0.29183545363E+03  0.63330443190E+03  0.75779141102E+03  0.92987444316E+02 0.  0.
          2    1    3    3  502    0  0.23157537892E+01  0.41662307267E+02 -0.73598635849E+03  0.73716825111E+03  0.00000000000E+00 0. -1.
         -1    1    3    3    0  502  0.12223273876E+02 -0.23259844677E+02 -0.12400248330E+03  0.12675584666E+03  0.00000000000E+00 0.  1.
         13    1    5    5    0    0 -0.26842678710E+03  0.20049046443E+03  0.12422668008E+03  0.35732566995E+03  0.00000000000E+00 0. -1.
        -13    1    5    5    0    0 -0.27819042703E+02  0.72942526602E+02  0.21736239265E+02  0.81036876923E+02  0.00000000000E+00 0.  1.
          4    1    6    6  503    0  0.14335925625E+03 -0.18815019698E+03  0.29734101243E+03  0.37995269528E+03  0.00000000000E+00 0. -1.
         -4    1    6    6    0  503  0.13834754589E+03 -0.10368525665E+03  0.33596341946E+03  0.37783871575E+03  0.00000000000E+00 0.  1.
<mgrwt>
<rscale>  0 0.20584960E+04</rscale>
<asrwt>0</asrwt>
<pdfrwt beam="1">  1        2 0.16467689E+00 0.20584960E+04</pdfrwt>
<pdfrwt beam="2">  1       -1 0.15225820E+00 0.20584960E+04</pdfrwt>
<totfact> 0.80312483E+00</totfact>
</mgrwt>
</event>
<event>
12    7  0.1660832E-007  0.1483822E+04  0.7818608E-02  0.8895283E-01
         -1   -1    0    0    0  501 -0.00000000000E+00  0.00000000000E+00  0.10458726550E+04  0.10458726550E+04  0.00000000000E+00 0.  1.
          2   -1    0    0  501    0  0.00000000000E+00 -0.00000000000E+00 -0.52628929111E+03  0.52628929111E+03  0.00000000000E+00 0. -1.
         24    2    1    2    0    0  0.34653970469E+03 -0.70063183812E+02 -0.14919315857E+03  0.39171329916E+03  0.78626290263E+02 0.  0.
        254    2    1    2    0    0 -0.34653970469E+03  0.70063183812E+02  0.66877652248E+03  0.11804486470E+04  0.90619995280E+03 0.  0.
         23    2    4    4    0    0 -0.42704221687E+03  0.29560974858E+03  0.74545106333E+03  0.91361744908E+03  0.96173681400E+02 0.  0.
         23    2    4    4    0    0  0.80502512177E+02 -0.22554656476E+03 -0.76674540852E+02  0.26683119789E+03  0.89263629829E+02 0.  0.
          4    1    3    3  502    0  0.24253915464E+03 -0.28067111650E+02 -0.68635036856E+02  0.25362131727E+03  0.00000000000E+00 0. -1.
         -3    1    3    3    0  502  0.10400055005E+03 -0.41996072162E+02 -0.80558121712E+02  0.13809198189E+03  0.00000000000E+00 0.  1.
         13    1    5    5    0    0 -0.16788865456E+02  0.95331652843E+01  0.47721635670E+01  0.19887704462E+02  0.00000000000E+00 0.  1.
        -13    1    5    5    0    0 -0.41025335141E+03  0.28607658329E+03  0.74067889977E+03  0.89372974462E+03  0.00000000000E+00 0. -1.
          1    1    6    6  503    0  0.69764854907E+02 -0.23026422613E+03 -0.81668893921E+02  0.25408375991E+03  0.00000000000E+00 0. -1.
         -1    1    6    6    0  503  0.10737657270E+02  0.47176613704E+01  0.49943530689E+01  0.12747437979E+02  0.00000000000E+00 0.  1.
<mgrwt>
<rscale>  0 0.14838215E+04</rscale>
<asrwt>0</asrwt>
<pdfrwt beam="1">  1        2 0.80967583E-01 0.14838215E+04</pdfrwt>
<pdfrwt beam="2">  1       -1 0.16090349E+00 0.14838215E+04</pdfrwt>
<totfact> 0.18448448E+01</totfact>
</mgrwt>
</event>
<event>
12    7  0.1660832E-007  0.2248123E+04  0.7818608E-02  0.8498661E-01
         -1   -1    0    0    0  501 -0.00000000000E+00  0.00000000000E+00  0.26850763932E+03  0.26850763932E+03  0.00000000000E+00 0.  1.
          2   -1    0    0  501    0  0.00000000000E+00 -0.00000000000E+00 -0.47056935853E+04  0.47056935853E+04  0.00000000000E+00 0. -1.
         24    2    1    2    0    0  0.59315547615E+03  0.27012755763E+03 -0.34521402341E+04  0.35142180407E+04  0.87486714586E+02 0.  0.
        254    2    1    2    0    0 -0.59315547615E+03 -0.27012755763E+03 -0.98504571193E+03  0.14599831840E+04  0.85815705247E+03 0.  0.
         23    2    4    4    0    0 -0.52698401984E+03 -0.33700389680E+03 -0.19879822133E+03  0.66282991891E+03  0.92406628381E+02 0.  0.
         23    2    4    4    0    0 -0.66171456304E+02  0.66876339169E+02 -0.78624749061E+03  0.79715326510E+03  0.91744782961E+02 0.  0.
          4    1    3    3  502    0  0.56900188884E+03  0.24406892829E+03 -0.31744877364E+04  0.32343013434E+04  0.00000000000E+00 0. -1.
         -3    1    3    3    0  502  0.24153587309E+02  0.26058629348E+02 -0.27765249765E+03  0.27991669725E+03  0.00000000000E+00 0.  1.
         13    1    5    5    0    0 -0.46789336371E+03 -0.31049241174E+03 -0.14855288574E+03  0.58085944721E+03  0.00000000000E+00 0. -1.
        -13    1    5    5    0    0 -0.59090656133E+02 -0.26511485063E+02 -0.50245335585E+02  0.81970471699E+02  0.00000000000E+00 0.  1.
          4    1    6    6  503    0 -0.29623227490E+02  0.83288170592E+02 -0.45645436799E+03  0.46493552782E+03  0.00000000000E+00 0. -1.
         -4    1    6    6    0  503 -0.36548228814E+02 -0.16411831422E+02 -0.32979312262E+03  0.33221773728E+03  0.00000000000E+00 0.  1.
<mgrwt>
<rscale>  0 0.22481234E+04</rscale>
<asrwt>0</asrwt>
<pdfrwt beam="1">  1        2 0.72395279E+00 0.22481234E+04</pdfrwt>
<pdfrwt beam="2">  1       -1 0.41308872E-01 0.22481234E+04</pdfrwt>
<totfact> 0.45577440E-01</totfact>
</mgrwt>
</event>
<event>
12    7  0.1660832E-007  0.1953997E+04  0.7818608E-02  0.8628436E-01
          2   -1    0    0  501    0  0.00000000000E+00  0.00000000000E+00  0.19058993502E+04  0.19058993502E+04  0.00000000000E+00 0. -1.
         -1   -1    0    0    0  501 -0.00000000000E+00 -0.00000000000E+00 -0.50082701270E+03  0.50082701270E+03  0.00000000000E+00 0.  1.
         24    2    1    2    0    0 -0.60220474571E+03 -0.16696733913E+03  0.10976188715E+04  0.12655437291E+04  0.79404628351E+02 0.  0.
        254    2    1    2    0    0  0.60220474571E+03  0.16696733913E+03  0.30745346591E+03  0.11411826338E+04  0.90401411593E+03 0.  0.
         23    2    4    4    0    0  0.81752451790E+03  0.22347424491E+03  0.18913698533E+03  0.87314950400E+03  0.91269828550E+02 0.  0.
         23    2    4    4    0    0 -0.21531977220E+03 -0.56506905778E+02  0.11831648058E+03  0.26803312976E+03  0.91034797590E+02 0.  0.
          4    1    3    3  502    0 -0.44864118637E+03 -0.12891944527E+03  0.74656534985E+03  0.88048790967E+03  0.00000000000E+00 0. -1.
         -3    1    3    3    0  502 -0.15356355933E+03 -0.38047893867E+02  0.35105352169E+03  0.38505581943E+03  0.00000000000E+00 0.  1.
         13    1    5    5    0    0  0.54275497587E+02  0.26279991851E+02 -0.72686721366E+01  0.60739618081E+02  0.00000000000E+00 0.  1.
        -13    1    5    5    0    0  0.76324902032E+03  0.19719425306E+03  0.19640565746E+03  0.81240988592E+03  0.00000000000E+00 0. -1.
          3    1    6    6  503    0 -0.92994819170E+02 -0.70472586377E+02  0.47327460951E+02  0.12591390068E+03  0.00000000000E+00 0. -1.
         -3    1    6    6    0  503 -0.12232495303E+03  0.13965680599E+02  0.70989019629E+02  0.14211922908E+03  0.00000000000E+00 0.  1.
<mgrwt>
<rscale>  0 0.19539968E+04</rscale>
<asrwt>0</asrwt>
<pdfrwt beam="1">  1        2 0.29321528E+00 0.19539968E+04</pdfrwt>
<pdfrwt beam="2">  1       -1 0.77050311E-01 0.19539968E+04</pdfrwt>
<totfact> 0.13518278E+01</totfact>
</mgrwt>
</event>
<event>
12    7  0.1660832E-007  0.1410259E+04  0.7818608E-02  0.8946426E-01
          2   -1    0    0  501    0  0.00000000000E+00  0.00000000000E+00  0.38126123083E+04  0.38126123083E+04  0.00000000000E+00 0. -1.
         -1   -1    0    0    0  501 -0.00000000000E+00 -0.00000000000E+00 -0.13041130103E+03  0.13041130103E+03  0.00000000000E+00 0.  1.
         24    2    1    2    0    0  0.35374851445E+03 -0.10044935190E+03  0.14847193860E+04  0.15315972336E+04  0.78551555852E+02 0.  0.
        254    2    1    2    0    0 -0.35374851445E+03  0.10044935190E+03  0.21974816213E+04  0.24114263758E+04  0.92240100075E+03 0.  0.
         23    2    4    4    0    0 -0.52901583176E+03 -0.19371507599E+03  0.89355357205E+03  0.10602267564E+04  0.90881835395E+02 0.  0.
         23    2    4    4    0    0  0.17526731731E+03  0.29416442789E+03  0.13039280492E+04  0.13511996194E+04  0.90888451524E+02 0.  0.
          4    1    3    3  502    0  0.27381463621E+03 -0.93151259132E+02  0.12659204971E+04  0.12985400714E+04  0.00000000000E+00 0. -1.
         -3    1    3    3    0  502  0.79933878235E+02 -0.72980927673E+01  0.21879888894E+03  0.23305716219E+03  0.00000000000E+00 0.  1.
         13    1    5    5    0    0 -0.39220583573E+03 -0.14935756486E+03  0.73326839001E+03  0.84487610426E+03  0.00000000000E+00 0. -1.
        -13    1    5    5    0    0 -0.13680999603E+03 -0.44357511130E+02  0.16028518203E+03  0.21535065216E+03  0.00000000000E+00 0.  1.
          4    1    6    6  503    0  0.17038571910E+03  0.25832433574E+03  0.10481763545E+04  0.10929027523E+04  0.00000000000E+00 0. -1.
         -4    1    6    6    0  503  0.48815982056E+01  0.35840092148E+02  0.25575169471E+03  0.25829686710E+03  0.00000000000E+00 0.  1.
<mgrwt>
<rscale>  0 0.14102592E+04</rscale>
<asrwt>0</asrwt>
<pdfrwt beam="1">  1        2 0.58655566E+00 0.14102592E+04</pdfrwt>
<pdfrwt beam="2">  1       -1 0.20063280E-01 0.14102592E+04</pdfrwt>
<totfact> 0.11080641E+01</totfact>
</mgrwt>
</event>
<event>
12    7  0.1660832E-007  0.1734963E+04  0.7818608E-02  0.8741671E-01
         -1   -1    0    0    0  501 -0.00000000000E+00  0.00000000000E+00  0.28436814901E+04  0.28436814901E+04  0.00000000000E+00 0.  1.
          2   -1    0    0  501    0  0.00000000000E+00 -0.00000000000E+00 -0.26463016347E+03  0.26463016347E+03  0.00000000000E+00 0. -1.
         24    2    1    2    0    0  0.26689850510E+03 -0.52797301494E+02 -0.69824473522E+02  0.29201693693E+03  0.79850280412E+02 0.  0.
        254    2    1    2    0    0 -0.26689850510E+03  0.52797301494E+02  0.26488758001E+04  0.28162947166E+04  0.91703356494E+03 0.  0.
         23    2    4    4    0    0  0.33129579146E+03 -0.34103492780E+02  0.94329906769E+03  0.10045640047E+04  0.91737444810E+02 0.  0.
         23    2    4    4    0    0 -0.59819429657E+03  0.86900794274E+02  0.17055767324E+04  0.18117307119E+04  0.89375711132E+02 0.  0.
          4    1    3    3  502    0  0.20849351317E+03 -0.64707971805E+02 -0.30061165400E+02  0.22036410850E+03  0.00000000000E+00 0. -1.
         -3    1    3    3    0  502  0.58404991937E+02  0.11910670311E+02 -0.39763308122E+02  0.71652828438E+02  0.00000000000E+00 0.  1.
         13    1    5    5    0    0  0.18365987331E+03 -0.43367129016E+02  0.63785671420E+03  0.66518632336E+03  0.00000000000E+00 0. -1.
        -13    1    5    5    0    0  0.14763591815E+03  0.92636362358E+01  0.30544235350E+03  0.33937768134E+03  0.00000000000E+00 0.  1.
          3    1    6    6  503    0 -0.57801439436E+03  0.79504125085E+02  0.15791338263E+04  0.16834741422E+04  0.00000000000E+00 0. -1.
         -3    1    6    6    0  503 -0.20179902203E+02  0.73966691885E+01  0.12644290609E+03  0.12825656969E+03  0.00000000000E+00 0.  1.
<mgrwt>
<rscale>  0 0.17349627E+04</rscale>
<asrwt>0</asrwt>
<pdfrwt beam="1">  1        2 0.40712335E-01 0.17349627E+04</pdfrwt>
<pdfrwt beam="2">  1       -1 0.43748944E+00 0.17349627E+04</pdfrwt>
<totfact> 0.54340977E-01</totfact>
</mgrwt>
</event>
<event>
12    7  0.1660832E-007  0.2678582E+04  0.7818608E-02  0.8341988E-01
         -1   -1    0    0    0  501 -0.00000000000E+00  0.00000000000E+00  0.21525347634E+04  0.21525347634E+04  0.00000000000E+00 0.  1.
          2   -1    0    0  501    0  0.00000000000E+00 -0.00000000000E+00 -0.83329690113E+03  0.83329690113E+03  0.00000000000E+00 0. -1.
         24    2    1    2    0    0 -0.23023802129E+03  0.69935910948E+02  0.18903192422E+04  0.19073995987E+04  0.83461450416E+02 0.  0.
        254    2    1    2    0    0  0.23023802129E+03 -0.69935910948E+02 -0.57108137990E+03  0.10784320658E+04  0.88259911629E+03 0.  0.
         23    2    4    4    0    0 -0.23971046241E+02  0.37732624221E+03 -0.28922943648E+03  0.48453748275E+03  0.90405758390E+02 0.  0.
         23    2    4    4    0    0  0.25420906753E+03 -0.44726215316E+03 -0.28185194342E+03  0.59389458308E+03  0.92760843811E+02 0.  0.
          2    1    3    3  502    0 -0.28493838818E+02 -0.46751469880E+01  0.96424690935E+02  0.10065523768E+03  0.00000000000E+00 0. -1.
         -1    1    3    3    0  502 -0.20174418247E+03  0.74611057936E+02  0.17938945513E+04  0.18067443611E+04  0.00000000000E+00 0.  1.
         13    1    5    5    0    0 -0.43559083582E+02  0.31006004567E+03 -0.20180799000E+03  0.37250649727E+03  0.00000000000E+00 0.  1.
        -13    1    5    5    0    0  0.19588037341E+02  0.67266196545E+02 -0.87421446474E+02  0.11203098548E+03  0.00000000000E+00 0. -1.
          4    1    6    6  503    0  0.55165999657E+02 -0.18567105178E+03 -0.94014913133E+02  0.21530404287E+03  0.00000000000E+00 0. -1.
         -4    1    6    6    0  503  0.19904306787E+03 -0.26159110138E+03 -0.18783703029E+03  0.37859054021E+03  0.00000000000E+00 0.  1.
<mgrwt>
<rscale>  0 0.26785821E+04</rscale>
<asrwt>0</asrwt>
<pdfrwt beam="1">  1        2 0.12819952E+00 0.26785821E+04</pdfrwt>
<pdfrwt beam="2">  1       -1 0.33115919E+00 0.26785821E+04</pdfrwt>
<totfact> 0.67595929E-01</totfact>
</mgrwt>
</event>
<event>
12    7  0.1660832E-007  0.1939420E+04  0.7818608E-02  0.8635480E-01
         -1   -1    0    0    0  501 -0.00000000000E+00  0.00000000000E+00  0.17322096208E+04  0.17322096208E+04  0.00000000000E+00 0.  1.
          2   -1    0    0  501    0  0.00000000000E+00 -0.00000000000E+00 -0.54285432819E+03  0.54285432819E+03  0.00000000000E+00 0. -1.
         24    2    1    2    0    0 -0.60108081047E+03  0.39779135393E+03  0.19793920651E+03  0.75183261862E+03  0.80847108589E+02 0.  0.
        254    2    1    2    0    0  0.60108081047E+03 -0.39779135393E+03  0.99141608613E+03  0.15232313304E+04  0.90431837762E+03 0.  0.
         23    2    4    4    0    0 -0.21526447864E+03  0.21575260278E+02  0.20650742775E+03  0.31208079356E+03  0.89133699411E+02 0.  0.
         23    2    4    4    0    0  0.81634528912E+03 -0.41936661420E+03  0.78490865837E+03  0.12111505368E+04  0.92282353246E+02 0.  0.
          2    1    3    3  502    0 -0.46285242484E+03  0.33042804934E+03  0.18264051081E+03  0.59730446102E+03  0.00000000000E+00 0. -1.
         -1    1    3    3    0  502 -0.13822838563E+03  0.67363304588E+02  0.15298695705E+02  0.15452815760E+03  0.00000000000E+00 0.  1.
         13    1    5    5    0    0 -0.18706817304E+03  0.84623713232E+01  0.20931999088E+03  0.28085756474E+03  0.00000000000E+00 0.  1.
        -13    1    5    5    0    0 -0.28196305606E+02  0.13112888954E+02 -0.28125631237E+01  0.31223228819E+02  0.00000000000E+00 0. -1.
          4    1    6    6  503    0  0.95528157737E+02 -0.74298599675E+02  0.76188156100E+02  0.14300540537E+03  0.00000000000E+00 0. -1.
         -4    1    6    6    0  503  0.72081713138E+03 -0.34506801453E+03  0.70872050227E+03  0.10681451315E+04  0.00000000000E+00 0.  1.
<mgrwt>
<rscale>  0 0.19394200E+04</rscale>
<asrwt>0</asrwt>
<pdfrwt beam="1">  1        2 0.83516051E-01 0.19394200E+04</pdfrwt>
<pdfrwt beam="2">  1       -1 0.26649379E+00 0.19394200E+04</pdfrwt>
<totfact> 0.32473649E+00</totfact>
</mgrwt>
</event>
<event>
12    7  0.1660832E-007  0.2038601E+04  0.7818608E-02  0.8588783E-01
          2   -1    0    0  501    0  0.00000000000E+00  0.00000000000E+00  0.16976912022E+04  0.16976912022E+04  0.00000000000E+00 0. -1.
         -1   -1    0    0    0  501 -0.00000000000E+00 -0.00000000000E+00 -0.61199207775E+03  0.61199207775E+03  0.00000000000E+00 0.  1.
         24    2    1    2    0    0 -0.74215022152E+02  0.46065239825E+03 -0.32349756436E+03  0.57338132163E+03  0.80043515164E+02 0.  0.
        254    2    1    2    0    0  0.74215022152E+02 -0.46065239825E+03  0.14091966889E+04  0.17363019584E+04  0.90066679812E+03 0.  0.
         23    2    4    4    0    0  0.32989865383E+03 -0.60723640170E+03  0.10758787568E+04  0.12818532946E+04  0.89797550847E+02 0.  0.
         23    2    4    4    0    0 -0.25568363168E+03  0.14658400344E+03  0.33331793205E+03  0.45444866379E+03  0.92529749923E+02 0.  0.
          4    1    3    3  502    0 -0.51861156135E+02  0.26153205998E+03 -0.13751364769E+03  0.29999766868E+03  0.00000000000E+00 0. -1.
         -1    1    3    3    0  502 -0.22353866017E+02  0.19912033827E+03 -0.18598391668E+03  0.27338365295E+03  0.00000000000E+00 0.  1.
         13    1    5    5    0    0  0.27031296807E+03 -0.45132768597E+03  0.75577093134E+03  0.92084498233E+03  0.00000000000E+00 0.  1.
        -13    1    5    5    0    0  0.59585685754E+02 -0.15590871573E+03  0.32010782547E+03  0.36100831225E+03  0.00000000000E+00 0. -1.
          1    1    6    6  503    0 -0.16099836129E+03  0.10240865050E+03  0.14712602779E+03  0.24094412649E+03  0.00000000000E+00 0. -1.
         -1    1    6    6    0  503 -0.94685270384E+02  0.44175352943E+02  0.18619190427E+03  0.21350453730E+03  0.00000000000E+00 0.  1.
<mgrwt>
<rscale>  0 0.20386011E+04</rscale>
<asrwt>0</asrwt>
<pdfrwt beam="1">  1        2 0.26118326E+00 0.20386011E+04</pdfrwt>
<pdfrwt beam="2">  1       -1 0.94152628E-01 0.20386011E+04</pdfrwt>
<totfact> 0.11334875E+01</totfact>
</mgrwt>
</event>
<event>
12    7  0.1660832E-007  0.1457061E+04  0.7818608E-02  0.8913520E-01
          2   -1    0    0  501    0  0.00000000000E+00  0.00000000000E+00  0.86271168732E+03  0.86271168732E+03  0.00000000000E+00 0. -1.
         -1   -1    0    0    0  501 -0.00000000000E+00 -0.00000000000E+00 -0.61521882344E+03  0.61521882344E+03  0.00000000000E+00 0.  1.
         24    2    1    2    0    0 -0.27781230878E+03  0.10947250536E+03 -0.24995293167E+03  0.39755009340E+03  0.80035619380E+02 0.  0.
        254    2    1    2    0    0  0.27781230878E+03 -0.10947250536E+03  0.49744579555E+03  0.10803804174E+04  0.91137567357E+03 0.  0.
         23    2    4    4    0    0  0.17105259565E+03  0.36824131818E+03  0.65853493918E+02  0.42154878222E+03  0.92228164052E+02 0.  0.
         23    2    4    4    0    0  0.10675971313E+03 -0.47771382354E+03  0.43159230163E+03  0.65883163514E+03  0.90438239043E+02 0.  0.
          4    1    3    3  502    0 -0.41403957237E+02 -0.10892787017E+01 -0.67210091786E+02  0.78947264936E+02  0.00000000000E+00 0. -1.
         -3    1    3    3    0  502 -0.23640835155E+03  0.11056178406E+03 -0.18274283989E+03  0.31860282847E+03  0.00000000000E+00 0.  1.
         13    1    5    5    0    0  0.12323066066E+02  0.43766029299E+02 -0.20925520882E+02  0.50051980001E+02  0.00000000000E+00 0.  1.
        -13    1    5    5    0    0  0.15872952958E+03  0.32447528888E+03  0.86779014799E+02  0.37149680222E+03  0.00000000000E+00 0. -1.
          3    1    6    6  503    0 -0.18067242762E+01 -0.15404271191E+01  0.19978553121E+02  0.20119138976E+02  0.00000000000E+00 0.  1.
         -3    1    6    6    0  503  0.10856643741E+03 -0.47617339642E+03  0.41161374851E+03  0.63871249616E+03  0.00000000000E+00 0. -1.
<mgrwt>
<rscale>  0 0.14570607E+04</rscale>
<asrwt>0</asrwt>
<pdfrwt beam="1">  1        2 0.13272487E+00 0.14570607E+04</pdfrwt>
<pdfrwt beam="2">  1       -1 0.94649050E-01 0.14570607E+04</pdfrwt>
<totfact> 0.37162372E+01</totfact>
</mgrwt>
</event>
<event>
12    7  0.1660832E-007  0.1240513E+04  0.7818608E-02  0.9078116E-01
         -1   -1    0    0    0  501 -0.00000000000E+00  0.00000000000E+00  0.17891880198E+03  0.17891880198E+03  0.00000000000E+00 0.  1.
          2   -1    0    0  501    0  0.00000000000E+00 -0.00000000000E+00 -0.21502398475E+04  0.21502398475E+04  0.00000000000E+00 0. -1.
         24    2    1    2    0    0  0.18237217936E+03  0.15074789614E+03 -0.18734543497E+03  0.31287278587E+03  0.82501685645E+02 0.  0.
        254    2    1    2    0    0 -0.18237217936E+03 -0.15074789614E+03 -0.17839756105E+04  0.20162858636E+04  0.90931576736E+03 0.  0.
         23    2    4    4    0    0  0.11736496486E+02  0.16271468211E+03 -0.15684849726E+04  0.15794493209E+04  0.88888890128E+02 0.  0.
         23    2    4    4    0    0 -0.19410867585E+03 -0.31346257824E+03 -0.21549063789E+03  0.43683654270E+03  0.91940111023E+02 0.  0.
          4    1    3    3  502    0  0.63139362818E+02  0.33835913127E+02 -0.10388853399E+03  0.12619142463E+03  0.00000000000E+00 0. -1.
         -3    1    3    3    0  502  0.11923281655E+03  0.11691198301E+03 -0.83456900982E+02  0.18668136124E+03  0.00000000000E+00 0.  1.
         13    1    5    5    0    0  0.10619251168E+02  0.47454923211E+02 -0.18894799373E+03  0.19510531148E+03  0.00000000000E+00 0.  1.
        -13    1    5    5    0    0  0.11172453173E+01  0.11525975890E+03 -0.13795369789E+04  0.13843440094E+04  0.00000000000E+00 0. -1.
          1    1    6    6  503    0 -0.18116982917E+03 -0.29218920672E+03 -0.16674687740E+03  0.38210150569E+03  0.00000000000E+00 0. -1.
         -1    1    6    6    0  503 -0.12938846682E+02 -0.21273371520E+02 -0.48743760490E+02  0.54735037005E+02  0.00000000000E+00 0.  1.
<mgrwt>
<rscale>  0 0.12405133E+04</rscale>
<asrwt>0</asrwt>
<pdfrwt beam="1">  1        2 0.33080612E+00 0.12405133E+04</pdfrwt>
<pdfrwt beam="2">  1       -1 0.27525971E-01 0.12405133E+04</pdfrwt>
<totfact> 0.73383097E+01</totfact>
</mgrwt>
</event>
<event>
12    7  0.1660832E-007  0.1535739E+04  0.7818608E-02  0.8861028E-01
          2   -1    0    0  501    0  0.00000000000E+00  0.00000000000E+00  0.13739340009E+04  0.13739340009E+04  0.00000000000E+00 0. -1.
         -1   -1    0    0    0  501 -0.00000000000E+00 -0.00000000000E+00 -0.42914998861E+03  0.42914998861E+03  0.00000000000E+00 0.  1.
         24    2    1    2    0    0  0.28863361755E+03 -0.15990258920E+03  0.75628477703E+03  0.82898742550E+03  0.79845378462E+02 0.  0.
        254    2    1    2    0    0 -0.28863361755E+03  0.15990258920E+03  0.18849923528E+03  0.97409656403E+03  0.89691356949E+03 0.  0.
         23    2    4    4    0    0 -0.47032446252E+03  0.40296371178E+03  0.18946547742E+03  0.65406818443E+03  0.91231407376E+02 0.  0.
         23    2    4    4    0    0  0.18169084497E+03 -0.24306112258E+03 -0.96624214523E+00  0.32002837960E+03  0.10162163979E+03 0.  0.
          4    1    3    3  502    0  0.27025552548E+03 -0.14497510860E+03  0.73762791705E+03  0.79884339840E+03  0.00000000000E+00 0. -1.
         -3    1    3    3    0  502  0.18378092073E+02 -0.14927480602E+02  0.18656859979E+02  0.30144027097E+02  0.00000000000E+00 0.  1.
         13    1    5    5    0    0 -0.41237509355E+03  0.37780469769E+03  0.14809134442E+03  0.57855047633E+03  0.00000000000E+00 0. -1.
        -13    1    5    5    0    0 -0.57949368969E+02  0.25159014092E+02  0.41374133004E+02  0.75517708094E+02  0.00000000000E+00 0.  1.
          4    1    6    6  503    0  0.13346065778E+03 -0.19580446049E+03  0.41062435040E+02  0.24049377849E+03  0.00000000000E+00 0. -1.
         -4    1    6    6    0  503  0.48230187185E+02 -0.47256662091E+02 -0.42028677185E+02  0.79534601110E+02  0.00000000000E+00 0.  1.
<mgrwt>
<rscale>  0 0.15357392E+04</rscale>
<asrwt>0</asrwt>
<pdfrwt beam="1">  1        2 0.21137446E+00 0.15357392E+04</pdfrwt>
<pdfrwt beam="2">  1       -1 0.66023076E-01 0.15357392E+04</pdfrwt>
<totfact> 0.38247526E+01</totfact>
</mgrwt>
</event>
<event>
12    7  0.1660832E-007  0.1826564E+04  0.7818608E-02  0.8692299E-01
         -1   -1    0    0    0  501 -0.00000000000E+00  0.00000000000E+00  0.26402683538E+03  0.26402683538E+03  0.00000000000E+00 0.  1.
          2   -1    0    0  501    0  0.00000000000E+00 -0.00000000000E+00 -0.31590866469E+04  0.31590866469E+04  0.00000000000E+00 0. -1.
         24    2    1    2    0    0  0.20430380582E+03  0.64467434319E+03 -0.80767835655E+03  0.10565490386E+04  0.81280314310E+02 0.  0.
        254    2    1    2    0    0 -0.20430380582E+03 -0.64467434319E+03 -0.20873814549E+04  0.23665644436E+04  0.88663457732E+03 0.  0.
         23    2    4    4    0    0 -0.14732681417E+03 -0.29721889331E+03 -0.19467901852E+04  0.19768700159E+04  0.89323982306E+02 0.  0.
         23    2    4    4    0    0 -0.56976991644E+02 -0.34745544988E+03 -0.14059126973E+03  0.38969442776E+03  0.90134203659E+02 0.  0.
          2    1    3    3  502    0  0.99482175189E+02  0.24307900151E+03 -0.36563340826E+03  0.45019095214E+03  0.00000000000E+00 0. -1.
         -1    1    3    3    0  502  0.10482163063E+03  0.40159534168E+03 -0.44204494829E+03  0.60635808646E+03  0.00000000000E+00 0.  1.
         13    1    5    5    0    0 -0.41663353224E+02 -0.75973053541E+02 -0.31247746934E+03  0.32426826658E+03  0.00000000000E+00 0.  1.
        -13    1    5    5    0    0 -0.10566346095E+03 -0.22124583977E+03 -0.16343127158E+04  0.16526017493E+04  0.00000000000E+00 0. -1.
          1    1    6    6  503    0 -0.76243605793E+02 -0.27690025567E+03 -0.13188776210E+03  0.31603990382E+03  0.00000000000E+00 0. -1.
         -1    1    6    6    0  503  0.19266614149E+02 -0.70555194216E+02 -0.87035076309E+01  0.73654523939E+02  0.00000000000E+00 0.  1.
<mgrwt>
<rscale>  0 0.18265636E+04</rscale>
<asrwt>0</asrwt>
<pdfrwt beam="1">  1        2 0.48601333E+00 0.18265636E+04</pdfrwt>
<pdfrwt beam="2">  1       -1 0.40619513E-01 0.18265636E+04</pdfrwt>
<totfact> 0.87974686E+00</totfact>
</mgrwt>
</event>
<event>
12    7  0.1660832E-007  0.1724233E+04  0.7818608E-02  0.8747663E-01
          2   -1    0    0  501    0  0.00000000000E+00  0.00000000000E+00  0.47280294005E+03  0.47280294005E+03  0.00000000000E+00 0. -1.
         -1   -1    0    0    0  501 -0.00000000000E+00 -0.00000000000E+00 -0.15719976208E+04  0.15719976208E+04  0.00000000000E+00 0.  1.
         24    2    1    2    0    0 -0.35171592482E+03 -0.44134911706E+03 -0.72056490950E+03  0.91929052870E+03  0.85954362593E+02 0.  0.
        254    2    1    2    0    0  0.35171592482E+03  0.44134911706E+03 -0.37862977125E+03  0.11255100321E+04  0.89717288963E+03 0.  0.
         23    2    4    4    0    0 -0.15708803419E+02  0.13676750528E+03 -0.57732169339E+03  0.60041685049E+03  0.90818168284E+02 0.  0.
         23    2    4    4    0    0  0.36742472824E+03  0.30458161179E+03  0.19869192214E+03  0.52509318166E+03  0.92051509136E+02 0.  0.
          4    1    3    3  502    0 -0.92220582861E+02 -0.14481297477E+03 -0.16457487477E+03  0.23782414295E+03  0.00000000000E+00 0. -1.
         -3    1    3    3    0  502 -0.25949534196E+03 -0.29653614229E+03 -0.55599003473E+03  0.68146638575E+03  0.00000000000E+00 0.  1.
         13    1    5    5    0    0 -0.30589136386E+02  0.11086746383E+03 -0.54241697539E+03  0.55447584708E+03  0.00000000000E+00 0. -1.
        -13    1    5    5    0    0  0.14880332967E+02  0.25900041445E+02 -0.34904718004E+02  0.45941003417E+02  0.00000000000E+00 0.  1.
          3    1    6    6  503    0  0.36717125211E+03  0.30775333738E+03  0.20250242704E+03  0.52012890518E+03  0.00000000000E+00 0. -1.
         -3    1    6    6    0  503  0.25347613483E+00 -0.31717255907E+01 -0.38105049004E+01  0.49642764800E+01  0.00000000000E+00 0.  1.
<mgrwt>
<rscale>  0 0.17242333E+04</rscale>
<asrwt>0</asrwt>
<pdfrwt beam="1">  1        2 0.72738915E-01 0.17242333E+04</pdfrwt>
<pdfrwt beam="2">  1       -1 0.24184578E+00 0.17242333E+04</pdfrwt>
<totfact> 0.56243179E+00</totfact>
</mgrwt>
</event>
<event>
12    7  0.1660832E-007  0.1532191E+04  0.7818608E-02  0.8863324E-01
         -1   -1    0    0    0  501 -0.00000000000E+00  0.00000000000E+00  0.32861553357E+03  0.32861553357E+03  0.00000000000E+00 0.  1.
          2   -1    0    0  501    0  0.00000000000E+00 -0.00000000000E+00 -0.17859848711E+04  0.17859848711E+04  0.00000000000E+00 0. -1.
         24    2    1    2    0    0  0.46392184632E+03 -0.73808793152E+02 -0.70353374626E+03  0.84975087484E+03  0.80284492408E+02 0.  0.
        254    2    1    2    0    0 -0.46392184632E+03  0.73808793152E+02 -0.75383559126E+03  0.12648495298E+04  0.90050264685E+03 0.  0.
         23    2    4    4    0    0 -0.68013378960E+03 -0.13826485286E+03 -0.53306128563E+03  0.87944193058E+03  0.86974902942E+02 0.  0.
         23    2    4    4    0    0  0.21621194327E+03  0.21207364601E+03 -0.22077430563E+03  0.38540759924E+03  0.89860379366E+02 0.  0.
          2    1    3    3  502    0  0.28027568943E+03 -0.67433194592E+02 -0.37111350700E+03  0.46992226260E+03  0.00000000000E+00 0. -1.
         -3    1    3    3    0  502  0.18364615690E+03 -0.63755985598E+01 -0.33242023927E+03  0.37982861224E+03  0.00000000000E+00 0.  1.
         13    1    5    5    0    0 -0.64029583423E+03 -0.13263862118E+03 -0.47251913838E+03  0.80675033021E+03  0.00000000000E+00 0.  1.
        -13    1    5    5    0    0 -0.39837955364E+02 -0.56262316731E+01 -0.60542147250E+02  0.72691600368E+02  0.00000000000E+00 0. -1.
          3    1    6    6  503    0  0.11464490618E+02  0.59414958179E+02 -0.42912356218E+02  0.74182491983E+02  0.00000000000E+00 0. -1.
         -3    1    6    6    0  503  0.20474745265E+03  0.15265868783E+03 -0.17786194941E+03  0.31122510726E+03  0.00000000000E+00 0.  1.
<mgrwt>
<rscale>  0 0.15321911E+04</rscale>
<asrwt>0</asrwt>
<pdfrwt beam="1">  1        2 0.27476689E+00 0.15321911E+04</pdfrwt>
<pdfrwt beam="2">  1       -1 0.50556238E-01 0.15321911E+04</pdfrwt>
<totfact> 0.37907921E+01</totfact>
</mgrwt>
</event>
<event>
12    7  0.1660832E-007  0.2560727E+04  0.7818608E-02  0.8381665E-01
         -1   -1    0    0    0  501 -0.00000000000E+00  0.00000000000E+00  0.70232249930E+03  0.70232249930E+03  0.00000000000E+00 0.  1.
          2   -1    0    0  501    0  0.00000000000E+00 -0.00000000000E+00 -0.23341564117E+04  0.23341564117E+04  0.00000000000E+00 0. -1.
         24    2    1    2    0    0 -0.39942035687E+03  0.91209566748E+03 -0.13081865219E+04  0.16460127637E+04  0.80937716762E+02 0.  0.
        254    2    1    2    0    0  0.39942035687E+03 -0.91209566748E+03 -0.32364739045E+03  0.13904661473E+04  0.91498270218E+03 0.  0.
         23    2    4    4    0    0  0.47824825446E+03 -0.10550027585E+04 -0.29456593652E+03  0.11982338399E+04  0.85105997318E+02 0.  0.
         23    2    4    4    0    0 -0.78827897595E+02  0.14290709106E+03 -0.29081453926E+02  0.19223230735E+03  0.97320372537E+02 0.  0.
          4    1    3    3  502    0 -0.37936398444E+03  0.88033112495E+03 -0.12794483755E+04  0.15987145048E+04  0.00000000000E+00 0. -1.
         -1    1    3    3    0  502 -0.20056372424E+02  0.31764542531E+02 -0.28738146477E+02  0.47298258952E+02  0.00000000000E+00 0.  1.
         13    1    5    5    0    0  0.62429427017E+02 -0.16617340927E+03 -0.16323701222E+02  0.17826244284E+03  0.00000000000E+00 0.  1.
        -13    1    5    5    0    0  0.41581882744E+03 -0.88882934927E+03 -0.27824223530E+03  0.10199713971E+04  0.00000000000E+00 0. -1.
          2    1    6    6  503    0 -0.32663814153E+02 -0.63470582094E+01 -0.10547447202E+02  0.34906425561E+02  0.00000000000E+00 0.  1.
         -2    1    6    6    0  503 -0.46164083442E+02  0.14925414927E+03 -0.18534006724E+02  0.15732588179E+03  0.00000000000E+00 0. -1.
<mgrwt>
<rscale>  0 0.25607269E+04</rscale>
<asrwt>0</asrwt>
<pdfrwt beam="1">  1        2 0.35910098E+00 0.25607269E+04</pdfrwt>
<pdfrwt beam="2">  1       -1 0.10804962E+00 0.25607269E+04</pdfrwt>
<totfact> 0.34829851E+00</totfact>
</mgrwt>
</event>
<event>
12    7  0.1660832E-007  0.3174759E+04  0.7818608E-02  0.8195515E-01
         -1   -1    0    0    0  501 -0.00000000000E+00  0.00000000000E+00  0.68732636695E+03  0.68732636695E+03  0.00000000000E+00 0.  1.
          2   -1    0    0  501    0  0.00000000000E+00 -0.00000000000E+00 -0.36660515651E+04  0.36660515651E+04  0.00000000000E+00 0. -1.
         24    2    1    2    0    0 -0.90436110096E+03  0.65209322021E+02  0.19472454723E+03  0.93078909889E+03  0.79557782183E+02 0.  0.
        254    2    1    2    0    0  0.90436110096E+03 -0.65209322021E+02 -0.31734497453E+04  0.34225888331E+04  0.90620625571E+03 0.  0.
         23    2    4    4    0    0 -0.16684941062E+03  0.21089511204E+02 -0.31744230528E+03  0.36972082078E+03  0.87409237668E+02 0.  0.
         23    2    4    4    0    0  0.10712105116E+04 -0.86298833225E+02 -0.28560074401E+04  0.30528680124E+04  0.91022823842E+02 0.  0.
          4    1    3    3  502    0 -0.91509584229E+02 -0.11716240129E+02  0.40959173606E+01  0.92347446243E+02  0.00000000000E+00 0. -1.
         -3    1    3    3    0  502 -0.81285151673E+03  0.76925562150E+02  0.19062862987E+03  0.83844165264E+03  0.00000000000E+00 0.  1.
         13    1    5    5    0    0 -0.17430871036E+03  0.26085815125E+02 -0.27718488865E+03  0.32847444155E+03  0.00000000000E+00 0. -1.
        -13    1    5    5    0    0  0.74592997415E+01 -0.49963039214E+01 -0.40257416632E+02  0.41246379227E+02  0.00000000000E+00 0.  1.
          4    1    6    6  503    0  0.48473196996E+03 -0.15614768218E+02 -0.11785346542E+04  0.12744225495E+04  0.00000000000E+00 0. -1.
         -4    1    6    6    0  503  0.58647854162E+03 -0.70684065007E+02 -0.16774727859E+04  0.17784454628E+04  0.00000000000E+00 0.  1.
<mgrwt>
<rscale>  0 0.31747591E+04</rscale>
<asrwt>0</asrwt>
<pdfrwt beam="1">  1        2 0.56400793E+00 0.31747591E+04</pdfrwt>
<pdfrwt beam="2">  1       -1 0.10574252E+00 0.31747591E+04</pdfrwt>
<totfact> 0.49547856E-01</totfact>
</mgrwt>
</event>
<event>
12    7  0.1660832E-007  0.1558715E+04  0.7818608E-02  0.8846320E-01
         -1   -1    0    0    0  501 -0.00000000000E+00  0.00000000000E+00  0.48125975675E+03  0.48125975675E+03  0.00000000000E+00 0.  1.
          2   -1    0    0  501    0  0.00000000000E+00 -0.00000000000E+00 -0.12621005272E+04  0.12621005272E+04  0.00000000000E+00 0. -1.
         24    2    1    2    0    0  0.32728658534E+03 -0.33700877967E+03 -0.47642944073E+02  0.47890871121E+03  0.79951716909E+02 0.  0.
        254    2    1    2    0    0 -0.32728658534E+03  0.33700877967E+03 -0.73319782633E+03  0.12644515727E+04  0.91682457464E+03 0.  0.
         23    2    4    4    0    0 -0.38650638000E+03  0.56695100935E+03 -0.28335984684E+03  0.74797265809E+03  0.91376505016E+02 0.  0.
         23    2    4    4    0    0  0.59219794660E+02 -0.22994222968E+03 -0.44983797950E+03  0.51647891461E+03  0.89531270359E+02 0.  0.
          2    1    3    3  502    0  0.10430103096E+02 -0.36135883215E+02 -0.15825919044E+02  0.40805009741E+02  0.00000000000E+00 0. -1.
         -1    1    3    3    0  502  0.31685648224E+03 -0.30087289645E+03 -0.31817025029E+02  0.43810370147E+03  0.00000000000E+00 0.  1.
         13    1    5    5    0    0 -0.17217447951E+03  0.32557604806E+03 -0.12973432341E+03  0.39048022886E+03  0.00000000000E+00 0. -1.
        -13    1    5    5    0    0 -0.21433190049E+03  0.24137496130E+03 -0.15362552343E+03  0.35749242923E+03  0.00000000000E+00 0.  1.
          3    1    6    6  503    0 -0.14012204745E+02 -0.11506724327E+02 -0.69320564269E+02  0.71652545085E+02  0.00000000000E+00 0. -1.
         -3    1    6    6    0  503  0.73231999405E+02 -0.21843550536E+03 -0.38051741523E+03  0.44482636953E+03  0.00000000000E+00 0.  1.
<mgrwt>
<rscale>  0 0.15587151E+04</rscale>
<asrwt>0</asrwt>
<pdfrwt beam="1">  1        2 0.19416931E+00 0.15587151E+04</pdfrwt>
<pdfrwt beam="2">  1       -1 0.74039963E-01 0.15587151E+04</pdfrwt>
<totfact> 0.35050545E+01</totfact>
</mgrwt>
</event>
<event>
12    7  0.1660832E-007  0.1669013E+04  0.7818608E-02  0.8779237E-01
         -1   -1    0    0    0  501 -0.00000000000E+00  0.00000000000E+00  0.27483033939E+03  0.27483033939E+03  0.00000000000E+00 0.  1.
          2   -1    0    0  501    0  0.00000000000E+00 -0.00000000000E+00 -0.25339319841E+04  0.25339319841E+04  0.00000000000E+00 0. -1.
         24    2    1    2    0    0 -0.25340452462E+03 -0.53027023413E+03 -0.81007045547E+03  0.10039314645E+04  0.79144603848E+02 0.  0.
        254    2    1    2    0    0  0.25340452462E+03  0.53027023413E+03 -0.14490311893E+04  0.18048308590E+04  0.90128944731E+03 0.  0.
         23    2    4    4    0    0 -0.16358135989E+03  0.49284531869E+01  0.20074527593E+02  0.18731041092E+03  0.88876613494E+02 0.  0.
         23    2    4    4    0    0  0.41698588451E+03  0.52534178094E+03 -0.14691057169E+04  0.16175204481E+04  0.90772121072E+02 0.  0.
          2    1    3    3  502    0 -0.48943277364E+01 -0.20497109388E+02 -0.60016558943E+02  0.63608751636E+02  0.00000000000E+00 0. -1.
         -1    1    3    3    0  502 -0.24851019688E+03 -0.50977312474E+03 -0.75005389652E+03  0.94032271287E+03  0.00000000000E+00 0.  1.
         13    1    5    5    0    0 -0.23434655022E+02 -0.49478974198E+01  0.38776128276E+02  0.45576889637E+02  0.00000000000E+00 0.  1.
        -13    1    5    5    0    0 -0.14014670487E+03  0.98763506067E+01 -0.18701600683E+02  0.14173352129E+03  0.00000000000E+00 0. -1.
          4    1    6    6  503    0  0.71526868778E+02  0.42726583362E+02 -0.18144585377E+03  0.19966034091E+03  0.00000000000E+00 0. -1.
         -4    1    6    6    0  503  0.34545901573E+03  0.48261519758E+03 -0.12876598631E+04  0.14178601072E+04  0.00000000000E+00 0.  1.
<mgrwt>
<rscale>  0 0.16690133E+04</rscale>
<asrwt>0</asrwt>
<pdfrwt beam="1">  1        2 0.38983569E+00 0.16690133E+04</pdfrwt>
<pdfrwt beam="2">  1       -1 0.42281590E-01 0.16690133E+04</pdfrwt>
<totfact> 0.19909154E+01</totfact>
</mgrwt>
</event>
<event>
12    7  0.1660832E-007  0.1235778E+04  0.7818608E-02  0.9082104E-01
          2   -1    0    0  501    0  0.00000000000E+00  0.00000000000E+00  0.82296832845E+03  0.82296832845E+03  0.00000000000E+00 0. -1.
         -1   -1    0    0    0  501 -0.00000000000E+00 -0.00000000000E+00 -0.46391462533E+03  0.46391462533E+03  0.00000000000E+00 0.  1.
         24    2    1    2    0    0 -0.27715263207E+02 -0.26345899778E+02 -0.16035323049E+03  0.18399562506E+03  0.81725083428E+02 0.  0.
        254    2    1    2    0    0  0.27715263207E+02  0.26345899778E+02  0.51940693361E+03  0.11028873287E+04  0.97217007510E+03 0.  0.
         23    2    4    4    0    0  0.10108512050E+03 -0.29429260600E+03 -0.14606580095E+03  0.35572182659E+03  0.91523003521E+02 0.  0.
         23    2    4    4    0    0 -0.73369857294E+02  0.32063850577E+03  0.66547273455E+03  0.74716550213E+03  0.84912542057E+02 0.  0.
          2    1    3    3  502    0 -0.32113863543E+02  0.13388704674E+02 -0.24950386855E+02  0.42814477092E+02  0.00000000000E+00 0. -1.
         -1    1    3    3    0  502  0.43986003354E+01 -0.39734604451E+02 -0.13540284364E+03  0.14118114796E+03  0.00000000000E+00 0.  1.
         13    1    5    5    0    0  0.50315865911E+01  0.51061000613E+01  0.29704182220E+01  0.77596717633E+01  0.00000000000E+00 0. -1.
        -13    1    5    5    0    0  0.96053533910E+02 -0.29939870606E+03 -0.14903621917E+03  0.34796215482E+03  0.00000000000E+00 0.  1.
          4    1    6    6  503    0 -0.78787907811E+02  0.15637713660E+03  0.35771660478E+03  0.39827441872E+03  0.00000000000E+00 0. -1.
         -4    1    6    6    0  503  0.54180505166E+01  0.16426136917E+03  0.30775612977E+03  0.34889108341E+03  0.00000000000E+00 0.  1.
<mgrwt>
<rscale>  0 0.12357784E+04</rscale>
<asrwt>0</asrwt>
<pdfrwt beam="1">  1        2 0.12661051E+00 0.12357784E+04</pdfrwt>
<pdfrwt beam="2">  1       -1 0.71371481E-01 0.12357784E+04</pdfrwt>
<totfact> 0.73898700E+01</totfact>
</mgrwt>
</event>
<event>
12    7  0.1660832E-007  0.3044559E+04  0.7818608E-02  0.8231120E-01
          2   -1    0    0  501    0  0.00000000000E+00  0.00000000000E+00  0.15916594467E+04  0.15916594467E+04  0.00000000000E+00 0. -1.
         -1   -1    0    0    0  501 -0.00000000000E+00 -0.00000000000E+00 -0.14559238459E+04  0.14559238459E+04  0.00000000000E+00 0.  1.
         24    2    1    2    0    0  0.29535695715E+03 -0.19262204784E+03  0.14047058199E+04  0.14513247541E+04  0.93840907347E+02 0.  0.
        254    2    1    2    0    0 -0.29535695715E+03  0.19262204784E+03 -0.12689702192E+04  0.15962585385E+04  0.90189629067E+03 0.  0.
         23    2    4    4    0    0  0.32393731574E+02 -0.31436035578E+03 -0.27079237128E+03  0.42629150460E+03  0.92326331135E+02 0.  0.
         23    2    4    4    0    0 -0.32775068873E+03  0.50698240362E+03 -0.99817784787E+03  0.11699670339E+04  0.89510741532E+02 0.  0.
          2    1    3    3  502    0  0.28106074455E+03 -0.20118882552E+03  0.13683546587E+04  0.14113350267E+04  0.00000000000E+00 0. -1.
         -1    1    3    3    0  502  0.14296212606E+02  0.85667776774E+01  0.36351161258E+02  0.39989727424E+02  0.00000000000E+00 0.  1.
         13    1    5    5    0    0  0.55494417283E+02 -0.23636202323E+03 -0.16819413260E+03  0.29535724575E+03  0.00000000000E+00 0.  1.
        -13    1    5    5    0    0 -0.23100685710E+02 -0.77998332545E+02 -0.10259823868E+03  0.13093425885E+03  0.00000000000E+00 0. -1.
          1    1    6    6  503    0 -0.10823285691E+03  0.21406473640E+03 -0.46511359576E+03  0.52332467899E+03  0.00000000000E+00 0. -1.
         -1    1    6    6    0  503 -0.21951783182E+03  0.29291766722E+03 -0.53306425211E+03  0.64664235489E+03  0.00000000000E+00 0.  1.
<mgrwt>
<rscale>  0 0.30445590E+04</rscale>
<asrwt>0</asrwt>
<pdfrwt beam="1">  1        2 0.24487069E+00 0.30445590E+04</pdfrwt>
<pdfrwt beam="2">  1       -1 0.22398828E+00 0.30445590E+04</pdfrwt>
<totfact> 0.11327842E+00</totfact>
</mgrwt>
</event>
<event>
12    7  0.1660832E-007  0.2401592E+04  0.7818608E-02  0.8438908E-01
         -1   -1    0    0    0  501 -0.00000000000E+00  0.00000000000E+00  0.17582723875E+04  0.17582723875E+04  0.00000000000E+00 0.  1.
          2   -1    0    0  501    0  0.00000000000E+00 -0.00000000000E+00 -0.82007266625E+03  0.82007266625E+03  0.00000000000E+00 0. -1.
         24    2    1    2    0    0 -0.42885924837E+03  0.91568076409E+03  0.63341145983E+03  0.11959417887E+04  0.81701700296E+02 0.  0.
        254    2    1    2    0    0  0.42885924837E+03 -0.91568076409E+03  0.30478826144E+03  0.13824032651E+04  0.89204898205E+03 0.  0.
         23    2    4    4    0    0  0.23957619197E+03 -0.28902761781E+03  0.55504799958E+03  0.67567505761E+03  0.86745524490E+02 0.  0.
         23    2    4    4    0    0  0.18928305640E+03 -0.62665314628E+03 -0.25025973814E+03  0.70672820748E+03  0.91173359746E+02 0.  0.
          2    1    3    3  502    0 -0.30325867321E+03  0.63541469640E+03  0.48414395596E+03  0.85446651741E+03  0.00000000000E+00 0. -1.
         -1    1    3    3    0  502 -0.12560057516E+03  0.28026606769E+03  0.14926750387E+03  0.34147527127E+03  0.00000000000E+00 0.  1.
         13    1    5    5    0    0  0.98346951417E+01 -0.10043007090E+02  0.89262874106E+00  0.14084743732E+02  0.00000000000E+00 0. -1.
        -13    1    5    5    0    0  0.22974149683E+03 -0.27898461072E+03  0.55415537084E+03  0.66159031387E+03  0.00000000000E+00 0.  1.
          3    1    6    6  503    0  0.89335831275E+02 -0.18426036675E+03 -0.49112779928E+02  0.21058214230E+03  0.00000000000E+00 0. -1.
         -3    1    6    6    0  503  0.99947225126E+02 -0.44239277954E+03 -0.20114695821E+03  0.49614606518E+03  0.00000000000E+00 0.  1.
<mgrwt>
<rscale>  0 0.24015921E+04</rscale>
<asrwt>0</asrwt>
<pdfrwt beam="1">  1        2 0.12616503E+00 0.24015921E+04</pdfrwt>
<pdfrwt beam="2">  1       -1 0.27050344E+00 0.24015921E+04</pdfrwt>
<totfact> 0.17524684E+00</totfact>
</mgrwt>
</event>
<event>
12    7  0.1660832E-007  0.2010800E+04  0.7818608E-02  0.8601588E-01
          2   -1    0    0  501    0  0.00000000000E+00  0.00000000000E+00  0.57715488078E+03  0.57715488078E+03  0.00000000000E+00 0. -1.
         -1   -1    0    0    0  501 -0.00000000000E+00 -0.00000000000E+00 -0.17514009299E+04  0.17514009299E+04  0.00000000000E+00 0.  1.
         24    2    1    2    0    0 -0.79864983264E+03 -0.77789479687E+02 -0.44858338917E+03  0.92259760519E+03  0.77887904986E+02 0.  0.
        254    2    1    2    0    0  0.79864983264E+03  0.77789479687E+02 -0.72566266000E+03  0.14059582055E+04  0.89790835906E+03 0.  0.
         23    2    4    4    0    0  0.20831149560E+03  0.12585162784E+00  0.19919187230E+03  0.30208209863E+03  0.90457157162E+02 0.  0.
         23    2    4    4    0    0  0.59033833703E+03  0.77663628059E+02 -0.92485453230E+03  0.11038761069E+04  0.93035273848E+02 0.  0.
          2    1    3    3  502    0 -0.79062771650E+03 -0.80110427621E+02 -0.43316918249E+03  0.90506652096E+03  0.00000000000E+00 0. -1.
         -1    1    3    3    0  502 -0.80221161405E+01  0.23209479342E+01 -0.15414206679E+02  0.17531084229E+02  0.00000000000E+00 0.  1.
         13    1    5    5    0    0  0.42127316550E+02  0.20727246926E+02  0.91910909600E+02  0.10320825969E+03  0.00000000000E+00 0.  1.
        -13    1    5    5    0    0  0.16618417905E+03 -0.20601395299E+02  0.10728096270E+03  0.19887383894E+03  0.00000000000E+00 0. -1.
          1    1    6    6  503    0  0.37413414691E+03  0.80352253770E+02 -0.64853624013E+03  0.75301533804E+03  0.00000000000E+00 0. -1.
         -1    1    6    6    0  503  0.21620419013E+03 -0.26886257104E+01 -0.27631829217E+03  0.35086076886E+03  0.00000000000E+00 0.  1.
<mgrwt>
<rscale>  0 0.20108004E+04</rscale>
<asrwt>0</asrwt>
<pdfrwt beam="1">  1        2 0.88793061E-01 0.20108004E+04</pdfrwt>
<pdfrwt beam="2">  1       -1 0.26944629E+00 0.20108004E+04</pdfrwt>
<totfact> 0.28709958E+00</totfact>
</mgrwt>
</event>
<event>
12    7  0.1660832E-007  0.1315116E+04  0.7818608E-02  0.9017663E-01
         -1   -1    0    0    0  501 -0.00000000000E+00  0.00000000000E+00  0.25231485247E+03  0.25231485247E+03  0.00000000000E+00 0.  1.
          2   -1    0    0  501    0  0.00000000000E+00 -0.00000000000E+00 -0.17136633986E+04  0.17136633986E+04  0.00000000000E+00 0. -1.
         24    2    1    2    0    0  0.23579752782E+02  0.11015414224E+02  0.12227498313E+03  0.14845360672E+03  0.80062211786E+02 0.  0.
        254    2    1    2    0    0 -0.23579752782E+02 -0.11015414224E+02 -0.15836235292E+04  0.18175246443E+04  0.89154641285E+03 0.  0.
         23    2    4    4    0    0  0.22199980152E+03 -0.89987869841E+02 -0.15130956412E+04  0.15346872111E+04  0.91786097780E+02 0.  0.
         23    2    4    4    0    0 -0.24557955430E+03  0.78972455618E+02 -0.70527888013E+02  0.28283743325E+03  0.92069888788E+02 0.  0.
          2    1    3    3  502    0  0.39269997702E+02  0.20678538100E+02  0.28182356358E+02  0.52573566241E+02  0.00000000000E+00 0. -1.
         -1    1    3    3    0  502 -0.15690244920E+02 -0.96631238766E+01  0.94092626774E+02  0.95880040478E+02  0.00000000000E+00 0.  1.
         13    1    5    5    0    0  0.22583490958E+03 -0.83513195493E+02 -0.15026171583E+04  0.15217865108E+04  0.00000000000E+00 0.  1.
        -13    1    5    5    0    0 -0.38351080636E+01 -0.64746743488E+01 -0.10478482948E+02  0.12900700240E+02  0.00000000000E+00 0. -1.
          3    1    6    6  503    0 -0.11026034101E+03 -0.82626310616E+01 -0.10724022120E+02  0.11108833657E+03  0.00000000000E+00 0. -1.
         -3    1    6    6    0  503 -0.13531921329E+03  0.87235086679E+02 -0.59803865893E+02  0.17174909668E+03  0.00000000000E+00 0.  1.
<mgrwt>
<rscale>  0 0.13151163E+04</rscale>
<asrwt>0</asrwt>
<pdfrwt beam="1">  1        2 0.26364052E+00 0.13151163E+04</pdfrwt>
<pdfrwt beam="2">  1       -1 0.38817671E-01 0.13151163E+04</pdfrwt>
<totfact> 0.69164764E+01</totfact>
</mgrwt>
</event>
<event>
12    7  0.1660832E-007  0.1550018E+04  0.7818608E-02  0.8851857E-01
          2   -1    0    0  501    0  0.00000000000E+00  0.00000000000E+00  0.28240788519E+04  0.28240788519E+04  0.00000000000E+00 0. -1.
         -1   -1    0    0    0  501 -0.00000000000E+00 -0.00000000000E+00 -0.21268478595E+03  0.21268478595E+03  0.00000000000E+00 0.  1.
         24    2    1    2    0    0 -0.70733571078E+02 -0.10673060673E+02 -0.11229772253E+03  0.15850124872E+03  0.85992529091E+02 0.  0.
        254    2    1    2    0    0  0.70733571078E+02  0.10673060673E+02  0.27236917885E+04  0.28782623891E+04  0.92778244742E+03 0.  0.
         23    2    4    4    0    0  0.36386391014E+03 -0.10251336762E+03  0.51616101894E+03  0.64643865492E+03  0.92492169710E+02 0.  0.
         23    2    4    4    0    0 -0.29313033907E+03  0.11318642830E+03  0.22075307695E+04  0.22318237342E+04  0.95438560742E+02 0.  0.
          2    1    3    3  502    0 -0.18582028117E+01 -0.37777348896E+02 -0.39283974581E+02  0.54532666047E+02  0.00000000000E+00 0. -1.
         -1    1    3    3    0  502 -0.68875368266E+02  0.27104288223E+02 -0.73013747946E+02  0.10396858267E+03  0.00000000000E+00 0.  1.
         13    1    5    5    0    0  0.49196833837E+02  0.84858353690E+01  0.10996098459E+03  0.12076322285E+03  0.00000000000E+00 0. -1.
        -13    1    5    5    0    0  0.31466707631E+03 -0.11099920299E+03  0.40620003435E+03  0.52567543207E+03  0.00000000000E+00 0.  1.
          3    1    6    6  503    0 -0.10320850542E+01  0.10905892258E+02  0.22640560674E+03  0.22667047105E+03  0.00000000000E+00 0. -1.
         -3    1    6    6    0  503 -0.29209825401E+03  0.10228053604E+03  0.19811251628E+04  0.20051532632E+04  0.00000000000E+00 0.  1.
<mgrwt>
<rscale>  0 0.15500176E+04</rscale>
<asrwt>0</asrwt>
<pdfrwt beam="1">  1        2 0.43447364E+00 0.15500176E+04</pdfrwt>
<pdfrwt beam="2">  1       -1 0.32720738E-01 0.15500176E+04</pdfrwt>
<totfact> 0.21555073E+01</totfact>
</mgrwt>
</event>
<event>
12    7  0.1660832E-007  0.1980242E+04  0.7818608E-02  0.8615914E-01
         -1   -1    0    0    0  501 -0.00000000000E+00  0.00000000000E+00  0.76567773373E+03  0.76567773373E+03  0.00000000000E+00 0.  1.
          2   -1    0    0  501    0  0.00000000000E+00 -0.00000000000E+00 -0.12803556479E+04  0.12803556479E+04  0.00000000000E+00 0. -1.
         24    2    1    2    0    0 -0.11730671560E+03  0.42866110249E+03 -0.86457209777E+03  0.97558096619E+03  0.82232007375E+02 0.  0.
        254    2    1    2    0    0  0.11730671560E+03 -0.42866110249E+03  0.34989418360E+03  0.10704524154E+04  0.90880758564E+03 0.  0.
         23    2    4    4    0    0 -0.11659976283E+03  0.43931371318E+02 -0.23303526289E+03  0.27915935779E+03  0.89994684373E+02 0.  0.
         23    2    4    4    0    0  0.23390647844E+03 -0.47259247380E+03  0.58292944649E+03  0.79129305766E+03  0.91005914964E+02 0.  0.
          2    1    3    3  502    0 -0.10125787270E+03  0.23267878269E+03 -0.52703474363E+03  0.58494289781E+03  0.00000000000E+00 0. -1.
         -1    1    3    3    0  502 -0.16048842899E+02  0.19598231980E+03 -0.33753735414E+03  0.39063806838E+03  0.00000000000E+00 0.  1.
         13    1    5    5    0    0 -0.31458905651E+02  0.58921497247E+02 -0.90975848535E+02  0.11286279546E+03  0.00000000000E+00 0.  1.
        -13    1    5    5    0    0 -0.85140857184E+02 -0.14990125928E+02 -0.14205941435E+03  0.16629656233E+03  0.00000000000E+00 0. -1.
          3    1    6    6  503    0  0.16895588842E+03 -0.28872206681E+03  0.42166622219E+03  0.53824615840E+03  0.00000000000E+00 0. -1.
         -3    1    6    6    0  503  0.64950590023E+02 -0.18387040700E+03  0.16126322429E+03  0.25304689926E+03  0.00000000000E+00 0.  1.
<mgrwt>
<rscale>  0 0.19802422E+04</rscale>
<asrwt>0</asrwt>
<pdfrwt beam="1">  1        2 0.19697779E+00 0.19802422E+04</pdfrwt>
<pdfrwt beam="2">  1       -1 0.11779658E+00 0.19802422E+04</pdfrwt>
<totfact> 0.11664468E+01</totfact>
</mgrwt>
</event>
<event>
12    7  0.1660832E-007  0.1747269E+04  0.7818608E-02  0.8734855E-01
          2   -1    0    0  501    0  0.00000000000E+00  0.00000000000E+00  0.21693853346E+04  0.21693853346E+04  0.00000000000E+00 0. -1.
         -1   -1    0    0    0  501 -0.00000000000E+00 -0.00000000000E+00 -0.35182182731E+03  0.35182182731E+03  0.00000000000E+00 0.  1.
         24    2    1    2    0    0 -0.49550082424E+03  0.29564732539E+03  0.22727983934E+03  0.62491063943E+03  0.76998532901E+02 0.  0.
        254    2    1    2    0    0  0.49550082424E+03 -0.29564732539E+03  0.15902836680E+04  0.18962965225E+04  0.85674380584E+03 0.  0.
         23    2    4    4    0    0 -0.18602643739E+03 -0.25031241972E+03  0.35172372114E+03  0.47889131879E+03  0.91461337872E+02 0.  0.
         23    2    4    4    0    0  0.68152726163E+03 -0.45334905673E+02  0.12385599468E+04  0.14174052037E+04  0.92044052756E+02 0.  0.
          4    1    3    3  502    0 -0.61907759064E+02  0.59761969316E+02  0.13910072454E+02  0.87163947390E+02  0.00000000000E+00 0. -1.
         -3    1    3    3    0  502 -0.43359306517E+03  0.23588535607E+03  0.21336976689E+03  0.53774669204E+03  0.00000000000E+00 0.  1.
         13    1    5    5    0    0 -0.12325688553E+03 -0.89403583502E+02  0.16731301182E+03  0.22622755027E+03  0.00000000000E+00 0. -1.
        -13    1    5    5    0    0 -0.62769551853E+02 -0.16090883621E+03  0.18441070932E+03  0.25266376852E+03  0.00000000000E+00 0.  1.
          1    1    6    6  503    0  0.17266926838E+03 -0.16203459659E+02  0.23775763142E+03  0.29428883711E+03  0.00000000000E+00 0. -1.
         -1    1    6    6    0  503  0.50885799325E+03 -0.29131446014E+02  0.10008023154E+04  0.11231163666E+04  0.00000000000E+00 0.  1.
<mgrwt>
<rscale>  0 0.17472689E+04</rscale>
<asrwt>0</asrwt>
<pdfrwt beam="1">  1        2 0.33375158E+00 0.17472689E+04</pdfrwt>
<pdfrwt beam="2">  1       -1 0.54126436E-01 0.17472689E+04</pdfrwt>
<totfact> 0.19997723E+01</totfact>
</mgrwt>
</event>
<event>
12    7  0.1660832E-007  0.2032698E+04  0.7818608E-02  0.8591484E-01
         -1   -1    0    0    0  501 -0.00000000000E+00  0.00000000000E+00  0.55132811681E+03  0.55132811681E+03  0.00000000000E+00 0.  1.
          2   -1    0    0  501    0  0.00000000000E+00 -0.00000000000E+00 -0.18735939979E+04  0.18735939979E+04  0.00000000000E+00 0. -1.
         24    2    1    2    0    0 -0.50432836243E+03  0.21887464078E+03 -0.12340900242E+04  0.13533440101E+04  0.79426797604E+02 0.  0.
        254    2    1    2    0    0  0.50432836243E+03 -0.21887464078E+03 -0.88175856911E+02  0.10715781047E+04  0.91556072829E+03 0.  0.
         23    2    4    4    0    0  0.63051397434E+03 -0.41358191936E+03 -0.21954187823E+03  0.79065170311E+03  0.91288572509E+02 0.  0.
         23    2    4    4    0    0 -0.12618561192E+03  0.19470727859E+03  0.13136602131E+03  0.28092640158E+03  0.88480950268E+02 0.  0.
          2    1    3    3  502    0 -0.96131623846E+02  0.63010441681E+02 -0.32434800153E+03  0.34411223600E+03  0.00000000000E+00 0. -1.
         -1    1    3    3    0  502 -0.40819673858E+03  0.15586419910E+03 -0.90974202269E+03  0.10092317741E+04  0.00000000000E+00 0.  1.
         13    1    5    5    0    0  0.57236957544E+03 -0.37007217497E+03 -0.22515744989E+03  0.71781350142E+03  0.00000000000E+00 0. -1.
        -13    1    5    5    0    0  0.58144398903E+02 -0.43509744397E+02  0.56155716598E+01  0.72838201697E+02  0.00000000000E+00 0.  1.
          1    1    6    6  503    0 -0.13069323016E+03  0.14671734339E+03  0.12353313386E+03  0.23209294350E+03  0.00000000000E+00 0. -1.
         -1    1    6    6    0  503  0.45076182417E+01  0.47989935200E+02  0.78328874555E+01  0.48833458086E+02  0.00000000000E+00 0.  1.
<mgrwt>
<rscale>  0 0.20326978E+04</rscale>
<asrwt>0</asrwt>
<pdfrwt beam="1">  1        2 0.28824523E+00 0.20326978E+04</pdfrwt>
<pdfrwt beam="2">  1       -1 0.84819710E-01 0.20326978E+04</pdfrwt>
<totfact> 0.11397047E+01</totfact>
</mgrwt>
</event>
<event>
12    7  0.1660832E-007  0.1577953E+04  0.7818608E-02  0.8834208E-01
         -1   -1    0    0    0  501 -0.00000000000E+00  0.00000000000E+00  0.31227376904E+03  0.31227376904E+03  0.00000000000E+00 0.  1.
          2   -1    0    0  501    0  0.00000000000E+00 -0.00000000000E+00 -0.19933925922E+04  0.19933925922E+04  0.00000000000E+00 0. -1.
         24    2    1    2    0    0 -0.49146247576E+03 -0.11382072228E+03 -0.34243638966E+03  0.61490755487E+03  0.79737683495E+02 0.  0.
        254    2    1    2    0    0  0.49146247576E+03  0.11382072228E+03 -0.13386824335E+04  0.16907588063E+04  0.90116822050E+03 0.  0.
         23    2    4    4    0    0  0.64830473159E+03  0.34416188967E+03 -0.93759621439E+03  0.11945709308E+04  0.95742446970E+02 0.  0.
         23    2    4    4    0    0 -0.15684225583E+03 -0.23034116739E+03 -0.40108621908E+03  0.49618787555E+03  0.87611107139E+02 0.  0.
          2    1    3    3  502    0 -0.19869266982E+03 -0.16004520700E+02 -0.16570643694E+03  0.25921717722E+03  0.00000000000E+00 0. -1.
         -3    1    3    3    0  502 -0.29276980594E+03 -0.97816201580E+02 -0.17672995271E+03  0.35569037764E+03  0.00000000000E+00 0.  1.
         13    1    5    5    0    0  0.11764178198E+03  0.22955686667E+02 -0.14689727138E+03  0.18959261789E+03  0.00000000000E+00 0.  1.
        -13    1    5    5    0    0  0.53066294962E+03  0.32120620300E+03 -0.79069894301E+03  0.10049783129E+04  0.00000000000E+00 0. -1.
          1    1    6    6  503    0 -0.93233344683E+02 -0.20199794852E+03 -0.30453278065E+03  0.37714167398E+03  0.00000000000E+00 0. -1.
         -1    1    6    6    0  503 -0.63608911149E+02 -0.28343218876E+02 -0.96553438436E+02  0.11904620157E+03  0.00000000000E+00 0.  1.
<mgrwt>
<rscale>  0 0.15779534E+04</rscale>
<asrwt>0</asrwt>
<pdfrwt beam="1">  1        2 0.30667579E+00 0.15779534E+04</pdfrwt>
<pdfrwt beam="2">  1       -1 0.48042117E-01 0.15779534E+04</pdfrwt>
<totfact> 0.31931366E+01</totfact>
</mgrwt>
</event>
<event>
12    7  0.1660832E-007  0.1435122E+04  0.7818608E-02  0.8928780E-01
         -1   -1    0    0    0  501 -0.00000000000E+00  0.00000000000E+00  0.15954112611E+03  0.15954112611E+03  0.00000000000E+00 0.  1.
          2   -1    0    0  501    0  0.00000000000E+00 -0.00000000000E+00 -0.32273427415E+04  0.32273427415E+04  0.00000000000E+00 0. -1.
         24    2    1    2    0    0 -0.20908758087E+03  0.11063858107E+03 -0.55679047303E+02  0.25553491833E+03  0.78990037846E+02 0.  0.
        254    2    1    2    0    0  0.20908758087E+03 -0.11063858107E+03 -0.30121225681E+04  0.31313489493E+04  0.82249946197E+03 0.  0.
         23    2    4    4    0    0  0.37580579232E+03 -0.12502385851E+03 -0.68657512736E+03  0.79800239779E+03  0.92528172071E+02 0.  0.
         23    2    4    4    0    0 -0.16671821145E+03  0.14385277440E+02 -0.23255474407E+04  0.23333465515E+04  0.91287086157E+02 0.  0.
          4    1    3    3  502    0 -0.58299551841E+02  0.47870300364E+02  0.16090197616E+02  0.77131691678E+02  0.00000000000E+00 0. -1.
         -3    1    3    3    0  502 -0.15078802903E+03  0.62768280705E+02 -0.71769244919E+02  0.17840322665E+03  0.00000000000E+00 0.  1.
         13    1    5    5    0    0  0.70514911355E+02  0.77497958772E+01 -0.15991694499E+03  0.17494525245E+03  0.00000000000E+00 0.  1.
        -13    1    5    5    0    0  0.30529088097E+03 -0.13277365439E+03 -0.52665818237E+03  0.62305714534E+03  0.00000000000E+00 0. -1.
          2    1    6    6  503    0  0.53571905245E+01 -0.53673661129E+01 -0.21504215432E+02  0.22802179515E+02  0.00000000000E+00 0.  1.
         -2    1    6    6    0  503 -0.17207540197E+03  0.19752643553E+02 -0.23040432253E+04  0.23105443720E+04  0.00000000000E+00 0. -1.
<mgrwt>
<rscale>  0 0.14351221E+04</rscale>
<asrwt>0</asrwt>
<pdfrwt beam="1">  1        2 0.49651428E+00 0.14351221E+04</pdfrwt>
<pdfrwt beam="2">  1       -1 0.24544788E-01 0.14351221E+04</pdfrwt>
<totfact> 0.20120197E+01</totfact>
</mgrwt>
</event>
<event>
12    7  0.1660832E-007  0.2348287E+04  0.7818608E-02  0.8459122E-01
          2   -1    0    0  501    0  0.00000000000E+00  0.00000000000E+00  0.22082467450E+04  0.22082467450E+04  0.00000000000E+00 0. -1.
         -1   -1    0    0    0  501 -0.00000000000E+00 -0.00000000000E+00 -0.62430184741E+03  0.62430184741E+03  0.00000000000E+00 0.  1.
         24    2    1    2    0    0  0.99292731755E+03 -0.11710033397E+03  0.84268857517E+03  0.13099007066E+04  0.78094047806E+02 0.  0.
        254    2    1    2    0    0 -0.99292731755E+03  0.11710033397E+03  0.74125632239E+03  0.15226478858E+04  0.87714223615E+03 0.  0.
         23    2    4    4    0    0 -0.76996426703E+03  0.29626972783E+02  0.92324013082E+03  0.12059683445E+04  0.90909729264E+02 0.  0.
         23    2    4    4    0    0 -0.22296305052E+03  0.87473361187E+02 -0.18198380843E+03  0.31667954123E+03  0.99013708599E+02 0.  0.
          2    1    3    3  502    0  0.89305550902E+03 -0.12616941727E+03  0.77206778862E+03  0.11872470401E+04  0.00000000000E+00 0. -1.
         -1    1    3    3    0  502  0.99871808525E+02  0.90690832991E+01  0.70620786544E+02  0.12265366648E+03  0.00000000000E+00 0.  1.
         13    1    5    5    0    0 -0.66754977120E+03 -0.55517755497E+01  0.79154931978E+03  0.10354727639E+04  0.00000000000E+00 0. -1.
        -13    1    5    5    0    0 -0.10241449582E+03  0.35178748333E+02  0.13169081104E+03  0.17049558059E+03  0.00000000000E+00 0.  1.
          3    1    6    6  503    0 -0.14349360207E+03  0.10336798261E+03 -0.10988272336E+03  0.20820558723E+03  0.00000000000E+00 0. -1.
         -3    1    6    6    0  503 -0.79469448456E+02 -0.15894621423E+02 -0.72101085072E+02  0.10847395400E+03  0.00000000000E+00 0.  1.
<mgrwt>
<rscale>  0 0.23482866E+04</rscale>
<asrwt>0</asrwt>
<pdfrwt beam="1">  1        2 0.33973026E+00 0.23482866E+04</pdfrwt>
<pdfrwt beam="2">  1       -1 0.96046439E-01 0.23482866E+04</pdfrwt>
<totfact> 0.54831412E+00</totfact>
</mgrwt>
</event>
<event>
12    7  0.1660832E-007  0.3591916E+04  0.7818608E-02  0.8092346E-01
         -1   -1    0    0    0  501 -0.00000000000E+00  0.00000000000E+00  0.14070047381E+04  0.14070047381E+04  0.00000000000E+00 0.  1.
          2   -1    0    0  501    0  0.00000000000E+00 -0.00000000000E+00 -0.22924334229E+04  0.22924334229E+04  0.00000000000E+00 0. -1.
         24    2    1    2    0    0  0.14407489864E+04  0.24592890078E+03 -0.12782822738E+04  0.19433620837E+04  0.80074656909E+02 0.  0.
        254    2    1    2    0    0 -0.14407489864E+04 -0.24592890078E+03  0.39285358895E+03  0.17560760774E+04  0.89063493147E+03 0.  0.
         23    2    4    4    0    0 -0.13395121088E+04  0.93227138853E+02  0.30907834809E+03  0.13809682209E+04  0.92519256592E+02 0.  0.
         23    2    4    4    0    0 -0.10123687760E+03 -0.33915603964E+03  0.83775240853E+02  0.37510785648E+03  0.91716347533E+02 0.  0.
          2    1    3    3  502    0  0.65514721108E+03  0.14146526147E+03 -0.62186754252E+03  0.91430275556E+03  0.00000000000E+00 0. -1.
         -1    1    3    3    0  502  0.78560177529E+03  0.10446363931E+03 -0.65641473129E+03  0.10290593281E+04  0.00000000000E+00 0.  1.
         13    1    5    5    0    0 -0.11339219642E+04  0.11210977269E+03  0.25834068033E+03  0.11683696030E+04  0.00000000000E+00 0.  1.
        -13    1    5    5    0    0 -0.20559014456E+03 -0.18882633834E+02  0.50737667765E+02  0.21259861790E+03  0.00000000000E+00 0. -1.
          2    1    6    6  503    0  0.12384928990E+02 -0.18584620416E+02  0.18023477195E+02  0.28698785903E+02  0.00000000000E+00 0. -1.
         -2    1    6    6    0  503 -0.11362180659E+03 -0.32057141922E+03  0.65751763658E+02  0.34640907058E+03  0.00000000000E+00 0.  1.
<mgrwt>
<rscale>  0 0.35919157E+04</rscale>
<asrwt>0</asrwt>
<pdfrwt beam="1">  1        2 0.35268207E+00 0.35919157E+04</pdfrwt>
<pdfrwt beam="2">  1       -1 0.21646227E+00 0.35919157E+04</pdfrwt>
<totfact> 0.49348258E-01</totfact>
</mgrwt>
</event>
<event>
12    7  0.1660832E-007  0.1503973E+04  0.7818608E-02  0.8881815E-01
         -1   -1    0    0    0  501 -0.00000000000E+00  0.00000000000E+00  0.33004827994E+03  0.33004827994E+03  0.00000000000E+00 0.  1.
          2   -1    0    0  501    0  0.00000000000E+00 -0.00000000000E+00 -0.17133365456E+04  0.17133365456E+04  0.00000000000E+00 0. -1.
         24    2    1    2    0    0  0.33467839037E+03  0.32648988381E+03 -0.31901042304E+03  0.57145795540E+03  0.78684659068E+02 0.  0.
        254    2    1    2    0    0 -0.33467839037E+03 -0.32648988381E+03 -0.10642778426E+04  0.14719268701E+04  0.90292641755E+03 0.  0.
         23    2    4    4    0    0  0.17329498249E+03  0.92817380129E+02  0.95909867664E-01  0.21675066944E+03  0.91294175570E+02 0.  0.
         23    2    4    4    0    0 -0.50797337285E+03 -0.41930726394E+03 -0.10643737525E+04  0.12551762007E+04  0.93382443154E+02 0.  0.
          2    1    3    3  502    0  0.34687066103E+02  0.12057662725E+02 -0.43382334492E+02  0.56838426537E+02  0.00000000000E+00 0. -1.
         -1    1    3    3    0  502  0.29999132426E+03  0.31443222109E+03 -0.27562808855E+03  0.51461952886E+03  0.00000000000E+00 0.  1.
         13    1    5    5    0    0  0.38484229215E+02  0.47164195464E+02 -0.34917134574E+02  0.70176231866E+02  0.00000000000E+00 0. -1.
        -13    1    5    5    0    0  0.13481075327E+03  0.45653184665E+02  0.35013044442E+02  0.14657443757E+03  0.00000000000E+00 0.  1.
          1    1    6    6  503    0 -0.40388002672E+02 -0.44932819785E+02 -0.56368566996E+02  0.82629077199E+02  0.00000000000E+00 0. -1.
         -1    1    6    6    0  503 -0.46758537018E+03 -0.37437444416E+03 -0.10080051855E+04  0.11725471235E+04  0.00000000000E+00 0.  1.
<mgrwt>
<rscale>  0 0.15039731E+04</rscale>
<asrwt>0</asrwt>
<pdfrwt beam="1">  1        2 0.26359023E+00 0.15039731E+04</pdfrwt>
<pdfrwt beam="2">  1       -1 0.50776660E-01 0.15039731E+04</pdfrwt>
<totfact> 0.41344890E+01</totfact>
</mgrwt>
</event>
<event>
12    7  0.1660832E-007  0.1168120E+04  0.7818608E-02  0.9141228E-01
         -1   -1    0    0    0  501 -0.00000000000E+00  0.00000000000E+00  0.46801441987E+03  0.46801441987E+03  0.00000000000E+00 0.  1.
          2   -1    0    0  501    0  0.00000000000E+00 -0.00000000000E+00 -0.72887942276E+03  0.72887942276E+03  0.00000000000E+00 0. -1.
         24    2    1    2    0    0 -0.21723295885E+01 -0.17353564408E+03 -0.20159936064E+03  0.27745730504E+03  0.78872778092E+02 0.  0.
        254    2    1    2    0    0  0.21723295885E+01  0.17353564408E+03 -0.59265642251E+02  0.91943653759E+03  0.90096159270E+03 0.  0.
         23    2    4    4    0    0 -0.25304566190E+03 -0.20974640135E+03 -0.23960987970E+03  0.41678606637E+03  0.90950925136E+02 0.  0.
         23    2    4    4    0    0  0.25521799149E+03  0.38328204543E+03  0.18034423745E+03  0.50265047123E+03  0.89956115480E+02 0.  0.
          2    1    3    3  502    0  0.33300806954E+02 -0.45609359324E+02 -0.76170222038E+02  0.94821200831E+02  0.00000000000E+00 0. -1.
         -1    1    3    3    0  502 -0.35473136543E+02 -0.12792628476E+03 -0.12542913860E+03  0.18263610420E+03  0.00000000000E+00 0.  1.
         13    1    5    5    0    0 -0.24696962112E+03 -0.16770145787E+03 -0.20838393660E+03  0.36406268383E+03  0.00000000000E+00 0.  1.
        -13    1    5    5    0    0 -0.60760407840E+01 -0.42044943472E+02 -0.31225943105E+02  0.52723382535E+02  0.00000000000E+00 0. -1.
          1    1    6    6  503    0 -0.59562725687E+01  0.25676391933E+02  0.10349191379E+02  0.28317133468E+02  0.00000000000E+00 0. -1.
         -1    1    6    6    0  503  0.26117426406E+03  0.35760565350E+03  0.16999504607E+03  0.47433333776E+03  0.00000000000E+00 0.  1.
<mgrwt>
<rscale>  0 0.11681200E+04</rscale>
<asrwt>0</asrwt>
<pdfrwt beam="1">  1        2 0.11213530E+00 0.11681200E+04</pdfrwt>
<pdfrwt beam="2">  1       -1 0.72002219E-01 0.11681200E+04</pdfrwt>
<totfact> 0.85555024E+01</totfact>
</mgrwt>
</event>
<event>
12    7  0.1660832E-007  0.3067301E+04  0.7818608E-02  0.8224769E-01
          2   -1    0    0  501    0  0.00000000000E+00  0.00000000000E+00  0.16416295750E+04  0.16416295750E+04  0.00000000000E+00 0. -1.
         -1   -1    0    0    0  501 -0.00000000000E+00 -0.00000000000E+00 -0.14327740756E+04  0.14327740756E+04  0.00000000000E+00 0.  1.
         24    2    1    2    0    0  0.76676853881E+03  0.80962560211E+03  0.93144158030E+03  0.14552343214E+04  0.81828509858E+02 0.  0.
        254    2    1    2    0    0 -0.76676853881E+03 -0.80962560211E+03 -0.72258608097E+03  0.16191693292E+04  0.92528431551E+03 0.  0.
         23    2    4    4    0    0 -0.73053465620E+03 -0.16039616103E+03 -0.57111949126E+03  0.94551247138E+03  0.91698134450E+02 0.  0.
         23    2    4    4    0    0 -0.36233882613E+02 -0.64922944108E+03 -0.15146658971E+03  0.67365685783E+03  0.89775680954E+02 0.  0.
          2    1    3    3  502    0  0.68384378011E+03  0.69047300346E+03  0.83162686110E+03  0.12790615780E+04  0.00000000000E+00 0. -1.
         -1    1    3    3    0  502  0.82924758699E+02  0.11915259865E+03  0.99814719207E+02  0.17617274347E+03  0.00000000000E+00 0.  1.
         13    1    5    5    0    0 -0.24248477062E+03 -0.59811642893E+02 -0.24576062706E+03  0.35039204103E+03  0.00000000000E+00 0. -1.
        -13    1    5    5    0    0 -0.48804988558E+03 -0.10058451814E+03 -0.32535886420E+03  0.59512043035E+03  0.00000000000E+00 0.  1.
          3    1    6    6  503    0 -0.34098095695E+02 -0.61599347014E+03 -0.12135655389E+03  0.62875913398E+03  0.00000000000E+00 0. -1.
         -3    1    6    6    0  503 -0.21357869180E+01 -0.33235970934E+02 -0.30110035825E+02  0.44897723852E+02  0.00000000000E+00 0.  1.
<mgrwt>
<rscale>  0 0.30673013E+04</rscale>
<asrwt>0</asrwt>
<pdfrwt beam="1">  1        2 0.25255840E+00 0.30673013E+04</pdfrwt>
<pdfrwt beam="2">  1       -1 0.22042678E+00 0.30673013E+04</pdfrwt>
<totfact> 0.11198416E+00</totfact>
</mgrwt>
</event>
<event>
12    7  0.1660832E-007  0.2759387E+04  0.7818608E-02  0.8315989E-01
         -1   -1    0    0    0  501 -0.00000000000E+00  0.00000000000E+00  0.61588410576E+03  0.61588410576E+03  0.00000000000E+00 0.  1.
          2   -1    0    0  501    0  0.00000000000E+00 -0.00000000000E+00 -0.30907662206E+04  0.30907662206E+04  0.00000000000E+00 0. -1.
         24    2    1    2    0    0 -0.90701191425E+03  0.87746781287E+02 -0.28031184692E+02  0.91454277936E+03  0.72336973636E+02 0.  0.
        254    2    1    2    0    0  0.90701191425E+03 -0.87746781287E+02 -0.24468509301E+04  0.27921075470E+04  0.98914860836E+03 0.  0.
         23    2    4    4    0    0  0.78356473220E+03  0.21920715106E+03 -0.93904188655E+03  0.12458060171E+04  0.90595269755E+02 0.  0.
         23    2    4    4    0    0  0.12344718205E+03 -0.30695393234E+03 -0.15078090436E+04  0.15463015299E+04  0.90002145056E+02 0.  0.
          2    1    3    3  502    0 -0.21061448252E+03 -0.83088561530E+01 -0.17041282251E+02  0.21146607917E+03  0.00000000000E+00 0. -1.
         -1    1    3    3    0  502 -0.69639743173E+03  0.96055637440E+02 -0.10989902441E+02  0.70307670019E+03  0.00000000000E+00 0.  1.
         13    1    5    5    0    0  0.15591488384E+03  0.26038356053E+02 -0.23308321550E+03  0.28162960131E+03  0.00000000000E+00 0. -1.
        -13    1    5    5    0    0  0.62764984836E+03  0.19316879500E+03 -0.70595867106E+03  0.96417641578E+03  0.00000000000E+00 0.  1.
          4    1    6    6  503    0  0.57834400170E+02 -0.46468135678E+02 -0.31466318399E+03  0.32329092909E+03  0.00000000000E+00 0.  1.
         -4    1    6    6    0  503  0.65612781876E+02 -0.26048579666E+03 -0.11931458596E+04  0.12230106008E+04  0.00000000000E+00 0. -1.
<mgrwt>
<rscale>  0 0.27593867E+04</rscale>
<asrwt>0</asrwt>
<pdfrwt beam="1">  1        2 0.47550248E+00 0.27593867E+04</pdfrwt>
<pdfrwt beam="2">  1       -1 0.94751404E-01 0.27593867E+04</pdfrwt>
<totfact> 0.16298725E+00</totfact>
</mgrwt>
</event>
<event>
12    7  0.1660832E-007  0.1814740E+04  0.7818608E-02  0.8698500E-01
         -1   -1    0    0    0  501 -0.00000000000E+00  0.00000000000E+00  0.79385581805E+03  0.79385581805E+03  0.00000000000E+00 0.  1.
          2   -1    0    0  501    0  0.00000000000E+00 -0.00000000000E+00 -0.10371154251E+04  0.10371154251E+04  0.00000000000E+00 0. -1.
         24    2    1    2    0    0 -0.73620732530E+02 -0.57715588634E+03 -0.44696980281E+03  0.73808021456E+03  0.80321037762E+02 0.  0.
        254    2    1    2    0    0  0.73620732530E+02  0.57715588634E+03  0.20371019577E+03  0.10928910286E+04  0.90243228395E+03 0.  0.
         23    2    4    4    0    0 -0.36785307697E+03  0.44539107014E+03  0.20959417198E+03  0.62129394991E+03  0.91582551115E+02 0.  0.
         23    2    4    4    0    0  0.44147380950E+03  0.13176481620E+03 -0.58839762194E+01  0.47159707869E+03  0.10053900829E+03 0.  0.
          4    1    3    3  502    0 -0.58183467489E+02 -0.33310765567E+03 -0.21300364626E+03  0.39964556732E+03  0.00000000000E+00 0. -1.
         -3    1    3    3    0  502 -0.15437265042E+02 -0.24404823067E+03 -0.23396615655E+03  0.33843464725E+03  0.00000000000E+00 0.  1.
         13    1    5    5    0    0  0.54700135471E+00  0.24230100417E+02  0.14298975868E+01  0.24278418066E+02  0.00000000000E+00 0.  1.
        -13    1    5    5    0    0 -0.36840007832E+03  0.42116096972E+03  0.20816427440E+03  0.59701553184E+03  0.00000000000E+00 0. -1.
          4    1    6    6  503    0  0.27229815361E+03  0.30408307558E+02  0.56067624109E+01  0.27404814433E+03  0.00000000000E+00 0. -1.
         -4    1    6    6    0  503  0.16917565589E+03  0.10135650865E+03 -0.11490738630E+02  0.19754893436E+03  0.00000000000E+00 0.  1.
<mgrwt>
<rscale>  0 0.18147398E+04</rscale>
<asrwt>0</asrwt>
<pdfrwt beam="1">  1        2 0.15955622E+00 0.18147398E+04</pdfrwt>
<pdfrwt beam="2">  1       -1 0.12213167E+00 0.18147398E+04</pdfrwt>
<totfact> 0.15211122E+01</totfact>
</mgrwt>
</event>
<event>
12    7  0.1660832E-007  0.1390744E+04  0.7818608E-02  0.8960546E-01
         -1   -1    0    0    0  501 -0.00000000000E+00  0.00000000000E+00  0.43524010878E+03  0.43524010878E+03  0.00000000000E+00 0.  1.
          2   -1    0    0  501    0  0.00000000000E+00 -0.00000000000E+00 -0.11109788444E+04  0.11109788444E+04  0.00000000000E+00 0. -1.
         24    2    1    2    0    0  0.26790445884E+03  0.22589893064E+02  0.13512554894E+03  0.31085846544E+03  0.78044661704E+02 0.  0.
        254    2    1    2    0    0 -0.26790445884E+03 -0.22589893064E+02 -0.81086428456E+03  0.12353604878E+04  0.89237410563E+03 0.  0.
         23    2    4    4    0    0 -0.42654050427E+03  0.10587307827E+03 -0.61447714634E+02  0.45340491556E+03  0.93028411452E+02 0.  0.
         23    2    4    4    0    0  0.15863604543E+03 -0.12846297133E+03 -0.74941656993E+03  0.78195557219E+03  0.90339314210E+02 0.  0.
          4    1    3    3  502    0  0.32080402805E+01  0.56000795448E+00  0.21866213992E+02  0.22107384416E+02  0.00000000000E+00 0. -1.
         -3    1    3    3    0  502  0.26469641856E+03  0.22029885109E+02  0.11325933495E+03  0.28875108102E+03  0.00000000000E+00 0.  1.
         13    1    5    5    0    0 -0.25331940300E+03  0.46929254976E+02 -0.79307132393E+02  0.26956019023E+03  0.00000000000E+00 0. -1.
        -13    1    5    5    0    0 -0.17322110127E+03  0.58943823290E+02  0.17859417759E+02  0.18384472533E+03  0.00000000000E+00 0.  1.
          1    1    6    6  503    0  0.96248967275E+02 -0.11454015939E+03 -0.40707287044E+03  0.43369532354E+03  0.00000000000E+00 0. -1.
         -1    1    6    6    0  503  0.62387078152E+02 -0.13922811944E+02 -0.34234369949E+03  0.34826024865E+03  0.00000000000E+00 0.  1.
<mgrwt>
<rscale>  0 0.13907445E+04</rscale>
<asrwt>0</asrwt>
<pdfrwt beam="1">  1        2 0.17091982E+00 0.13907445E+04</pdfrwt>
<pdfrwt beam="2">  1       -1 0.66960018E-01 0.13907445E+04</pdfrwt>
<totfact> 0.53836125E+01</totfact>
</mgrwt>
</event>
<event>
12    7  0.1660832E-007  0.1040123E+04  0.7818608E-02  0.9265601E-01
         -1   -1    0    0    0  501 -0.00000000000E+00  0.00000000000E+00  0.13295555498E+03  0.13295555498E+03  0.00000000000E+00 0.  1.
          2   -1    0    0  501    0  0.00000000000E+00 -0.00000000000E+00 -0.20342427823E+04  0.20342427823E+04  0.00000000000E+00 0. -1.
         24    2    1    2    0    0 -0.52306216811E+02 -0.48976426756E+02 -0.70343969593E+02  0.12647377654E+03  0.76894157113E+02 0.  0.
        254    2    1    2    0    0  0.52306216811E+02  0.48976426756E+02 -0.18309432577E+04  0.20407245607E+04  0.89837012922E+03 0.  0.
         23    2    4    4    0    0  0.19327642163E+03  0.20296257658E+03 -0.17841615153E+04  0.18083336657E+04  0.91042579230E+02 0.  0.
         23    2    4    4    0    0 -0.14097020482E+03 -0.15398614983E+03 -0.46781742429E+02  0.23239089502E+03  0.90734027129E+02 0.  0.
          2    1    3    3  502    0  0.16038318022E+02 -0.67218013384E+01 -0.34199228617E+02  0.38366619556E+02  0.00000000000E+00 0. -1.
         -1    1    3    3    0  502 -0.68344534833E+02 -0.42254625418E+02 -0.36144740976E+02  0.88107156979E+02  0.00000000000E+00 0.  1.
         13    1    5    5    0    0  0.19929443855E+03  0.18657730674E+03 -0.17305752604E+04  0.17519760548E+04  0.00000000000E+00 0.  1.
        -13    1    5    5    0    0 -0.60180169207E+01  0.16385269848E+02 -0.53586254859E+02  0.56357610892E+02  0.00000000000E+00 0. -1.
          1    1    6    6  503    0 -0.45998917965E+02 -0.91671747908E+02 -0.58704555907E+02  0.11817713274E+03  0.00000000000E+00 0. -1.
         -1    1    6    6    0  503 -0.94971286855E+02 -0.62314401919E+02  0.11922813478E+02  0.11421376228E+03  0.00000000000E+00 0.  1.
<mgrwt>
<rscale>  0 0.10401228E+04</rscale>
<asrwt>0</asrwt>
<pdfrwt beam="1">  1        2 0.31296039E+00 0.10401228E+04</pdfrwt>
<pdfrwt beam="2">  1       -1 0.20454703E-01 0.10401228E+04</pdfrwt>
<totfact> 0.14342051E+02</totfact>
</mgrwt>
</event>
<event>
12    7  0.1660832E-007  0.4660122E+04  0.7818608E-02  0.7883189E-01
          2   -1    0    0  501    0  0.00000000000E+00  0.00000000000E+00  0.34301870349E+04  0.34301870349E+04  0.00000000000E+00 0. -1.
         -1   -1    0    0    0  501 -0.00000000000E+00 -0.00000000000E+00 -0.15827661983E+04  0.15827661983E+04  0.00000000000E+00 0.  1.
         24    2    1    2    0    0 -0.16117090349E+04 -0.77569641981E+02 -0.78614445178E+03  0.17966434031E+04  0.79255008906E+02 0.  0.
        254    2    1    2    0    0  0.16117090349E+04  0.77569641981E+02  0.26335652883E+04  0.32163098300E+04  0.89741837080E+03 0.  0.
         23    2    4    4    0    0  0.84248189302E+03 -0.39831233979E+03  0.12838540245E+04  0.15890627550E+04  0.91710539965E+02 0.  0.
         23    2    4    4    0    0  0.76922714189E+03  0.47588198177E+03  0.13497112638E+04  0.16272470750E+04  0.89657631776E+02 0.  0.
          4    1    3    3  502    0 -0.23742201125E+03  0.15755908434E+02 -0.10796754777E+03  0.26129380293E+03  0.00000000000E+00 0. -1.
         -3    1    3    3    0  502 -0.13742870237E+04 -0.93325550415E+02 -0.67817690401E+03  0.15353496002E+04  0.00000000000E+00 0.  1.
         13    1    5    5    0    0  0.23762688500E+02 -0.15856759811E+02  0.18011400081E+02  0.33771478045E+02  0.00000000000E+00 0. -1.
        -13    1    5    5    0    0  0.81871920452E+03 -0.38245557998E+03  0.12658426244E+04  0.15552912770E+04  0.00000000000E+00 0.  1.
          2    1    6    6  503    0  0.54023152386E+03  0.31980344738E+03  0.10047587187E+04  0.11847634478E+04  0.00000000000E+00 0. -1.
         -2    1    6    6    0  503  0.22899561803E+03  0.15607853439E+03  0.34495254513E+03  0.44248362723E+03  0.00000000000E+00 0.  1.
<mgrwt>
<rscale>  0 0.46601219E+04</rscale>
<asrwt>0</asrwt>
<pdfrwt beam="1">  1        2 0.52772108E+00 0.46601219E+04</pdfrwt>
<pdfrwt beam="2">  1       -1 0.24350249E+00 0.46601219E+04</pdfrwt>
<totfact> 0.59260797E-02</totfact>
</mgrwt>
</event>
<event>
12    7  0.1660832E-007  0.2291591E+04  0.7818608E-02  0.8481244E-01
         -1   -1    0    0    0  501 -0.00000000000E+00  0.00000000000E+00  0.87411394237E+03  0.87411394237E+03  0.00000000000E+00 0.  1.
          2   -1    0    0  501    0  0.00000000000E+00 -0.00000000000E+00 -0.15019184022E+04  0.15019184022E+04  0.00000000000E+00 0. -1.
         24    2    1    2    0    0 -0.89886176966E+03  0.35550210904E+03 -0.19714280741E+03  0.98978265421E+03  0.80437463757E+02 0.  0.
        254    2    1    2    0    0  0.89886176966E+03 -0.35550210904E+03 -0.43066165240E+03  0.13862496903E+04  0.89548004705E+03 0.  0.
         23    2    4    4    0    0  0.39014777386E+03 -0.41775849183E+03 -0.60460996582E+03  0.83748958977E+03  0.95384271535E+02 0.  0.
         23    2    4    4    0    0  0.50871399580E+03  0.62256382797E+02  0.17394831342E+03  0.54876010058E+03  0.90630268250E+02 0.  0.
          4    1    3    3  502    0 -0.27657590920E+03  0.14959764634E+03 -0.59586732830E+02  0.32003791661E+03  0.00000000000E+00 0. -1.
         -3    1    3    3    0  502 -0.62228586046E+03  0.20590446270E+03 -0.13755607458E+03  0.66974473760E+03  0.00000000000E+00 0.  1.
         13    1    5    5    0    0  0.29732135321E+03 -0.32025560810E+03 -0.51665560244E+03  0.67668061383E+03  0.00000000000E+00 0.  1.
        -13    1    5    5    0    0  0.92826420652E+02 -0.97502883730E+02 -0.87954363384E+02  0.16080897595E+03  0.00000000000E+00 0. -1.
          1    1    6    6  503    0  0.42307537619E+02  0.31805148998E+02  0.21472185366E+02  0.57118735863E+02  0.00000000000E+00 0. -1.
         -1    1    6    6    0  503  0.46640645818E+03  0.30451233799E+02  0.15247612806E+03  0.49164136471E+03  0.00000000000E+00 0.  1.
<mgrwt>
<rscale>  0 0.22915914E+04</rscale>
<asrwt>0</asrwt>
<pdfrwt beam="1">  1        2 0.23106437E+00 0.22915914E+04</pdfrwt>
<pdfrwt beam="2">  1       -1 0.13447907E+00 0.22915914E+04</pdfrwt>
<totfact> 0.60883018E+00</totfact>
</mgrwt>
</event>
<event>
12    7  0.1660832E-007  0.1352382E+04  0.7818608E-02  0.8989027E-01
         -1   -1    0    0    0  501 -0.00000000000E+00  0.00000000000E+00  0.41100549960E+03  0.41100549960E+03  0.00000000000E+00 0.  1.
          2   -1    0    0  501    0  0.00000000000E+00 -0.00000000000E+00 -0.11124768852E+04  0.11124768852E+04  0.00000000000E+00 0. -1.
         24    2    1    2    0    0  0.15587449646E+03 -0.27758035871E+01  0.17543661087E+03  0.24792313949E+03  0.79895650244E+02 0.  0.
        254    2    1    2    0    0 -0.15587449646E+03  0.27758035871E+01 -0.87690799642E+03  0.12755592453E+04  0.91311510242E+03 0.  0.
         23    2    4    4    0    0 -0.32049623418E+03  0.35449148184E+03 -0.66585029433E+03  0.82471340428E+03  0.91725339564E+02 0.  0.
         23    2    4    4    0    0  0.16462173771E+03 -0.35171567826E+03 -0.21105770209E+03  0.45084584099E+03  0.88951581600E+02 0.  0.
          4    1    3    3  502    0  0.13301932010E+03 -0.10834100050E+02  0.94744613940E+02  0.16367058109E+03  0.00000000000E+00 0. -1.
         -3    1    3    3    0  502  0.22855176363E+02  0.80582964629E+01  0.80691996928E+02  0.84252558398E+02  0.00000000000E+00 0.  1.
         13    1    5    5    0    0 -0.21464011418E+03  0.28789426695E+03 -0.52849145060E+03  0.63894968575E+03  0.00000000000E+00 0. -1.
        -13    1    5    5    0    0 -0.10585612000E+03  0.66597214891E+02 -0.13735884373E+03  0.18576371853E+03  0.00000000000E+00 0.  1.
          4    1    6    6  503    0  0.17242087146E+03 -0.30182054039E+03 -0.18992906116E+03  0.39610307218E+03  0.00000000000E+00 0.  1.
         -4    1    6    6    0  503 -0.77991337453E+01 -0.49895137867E+02 -0.21128640935E+02  0.54742768817E+02  0.00000000000E+00 0. -1.
<mgrwt>
<rscale>  0 0.13523818E+04</rscale>
<asrwt>0</asrwt>
<pdfrwt beam="1">  1        2 0.17115029E+00 0.13523818E+04</pdfrwt>
<pdfrwt beam="2">  1       -1 0.63231617E-01 0.13523818E+04</pdfrwt>
<totfact> 0.60474895E+01</totfact>
</mgrwt>
</event>
<event>
12    7  0.1660832E-007  0.1827378E+04  0.7818608E-02  0.8691874E-01
         -3   -1    0    0    0  501 -0.00000000000E+00  0.00000000000E+00  0.38105677033E+03  0.38105677033E+03  0.00000000000E+00 0.  1.
          2   -1    0    0  501    0  0.00000000000E+00 -0.00000000000E+00 -0.21908221624E+04  0.21908221624E+04  0.00000000000E+00 0. -1.
         24    2    1    2    0    0  0.62188320712E+03  0.28739032302E+03 -0.49390721495E+03  0.84821144716E+03  0.78653677900E+02 0.  0.
        254    2    1    2    0    0 -0.62188320712E+03 -0.28739032302E+03 -0.13158581771E+04  0.17236674855E+04  0.87761890216E+03 0.  0.
         23    2    4    4    0    0 -0.74698196039E+03 -0.45849744384E+03 -0.10098550491E+04  0.13404974962E+04  0.94468841113E+02 0.  0.
         23    2    4    4    0    0  0.12509875326E+03  0.17110712082E+03 -0.30600312794E+03  0.38316998932E+03  0.90851425619E+02 0.  0.
          2    1    3    3  502    0  0.15780438925E+03  0.10784587273E+03 -0.15611409260E+03  0.24678850751E+03  0.00000000000E+00 0. -1.
         -1    1    3    3    0  502  0.46407881788E+03  0.17954445029E+03 -0.33779312235E+03  0.60142293965E+03  0.00000000000E+00 0.  1.
         13    1    5    5    0    0 -0.25134264532E+03 -0.18538035912E+03 -0.41594727965E+03  0.52014530888E+03  0.00000000000E+00 0.  1.
        -13    1    5    5    0    0 -0.49563931506E+03 -0.27311708472E+03 -0.59390776949E+03  0.82035218733E+03  0.00000000000E+00 0. -1.
          2    1    6    6  503    0  0.76129577191E+02  0.54794076063E+02 -0.18937030054E+03  0.21132726758E+03  0.00000000000E+00 0. -1.
         -2    1    6    6    0  503  0.48969176072E+02  0.11631304476E+03 -0.11663282740E+03  0.17184272174E+03  0.00000000000E+00 0.  1.
<mgrwt>
<rscale>  0 0.18273780E+04</rscale>
<asrwt>0</asrwt>
<pdfrwt beam="1">  1        2 0.33704956E+00 0.18273780E+04</pdfrwt>
<pdfrwt beam="2">  1       -3 0.58624120E-01 0.18273780E+04</pdfrwt>
<totfact> 0.90140568E+00</totfact>
</mgrwt>
</event>
<event>
12    7  0.1660832E-007  0.1440338E+04  0.7818608E-02  0.8925126E-01
          2   -1    0    0  501    0  0.00000000000E+00  0.00000000000E+00  0.44290905688E+03  0.44290905688E+03  0.00000000000E+00 0. -1.
         -1   -1    0    0    0  501 -0.00000000000E+00 -0.00000000000E+00 -0.11709932534E+04  0.11709932534E+04  0.00000000000E+00 0.  1.
         24    2    1    2    0    0 -0.30362353219E+03 -0.29531822595E+03 -0.39114931397E+03  0.58203678576E+03  0.79805578034E+02 0.  0.
        254    2    1    2    0    0  0.30362353219E+03  0.29531822595E+03 -0.33693488253E+03  0.10318655245E+04  0.87853357459E+03 0.  0.
         23    2    4    4    0    0  0.35083060256E+03  0.42224567455E+03  0.98913681713E+02  0.56654003069E+03  0.99046295092E+02 0.  0.
         23    2    4    4    0    0 -0.47207070374E+02 -0.12692744860E+03 -0.43584856424E+03  0.46532549380E+03  0.90690459962E+02 0.  0.
          2    1    3    3  502    0 -0.10000801852E+03 -0.73935370566E+02 -0.72989188043E+02  0.14420632566E+03  0.00000000000E+00 0. -1.
         -1    1    3    3    0  502 -0.20361551367E+03 -0.22138285538E+03 -0.31816012592E+03  0.43783046010E+03  0.00000000000E+00 0.  1.
         13    1    5    5    0    0  0.22065220889E+03  0.32950924832E+03  0.88814569044E+02  0.40638869287E+03  0.00000000000E+00 0. -1.
        -13    1    5    5    0    0  0.13017839367E+03  0.92736426227E+02  0.10099112669E+02  0.16015133782E+03  0.00000000000E+00 0.  1.
          3    1    6    6  503    0  0.17327520208E+02 -0.74816254085E+02 -0.25599189550E+03  0.26726310144E+03  0.00000000000E+00 0. -1.
         -3    1    6    6    0  503 -0.64534590582E+02 -0.52111194514E+02 -0.17985666875E+03  0.19806239236E+03  0.00000000000E+00 0.  1.
<mgrwt>
<rscale>  0 0.14403382E+04</rscale>
<asrwt>0</asrwt>
<pdfrwt beam="1">  1        2 0.68139855E-01 0.14403382E+04</pdfrwt>
<pdfrwt beam="2">  1       -1 0.18015281E+00 0.14403382E+04</pdfrwt>
<totfact> 0.16317370E+01</totfact>
</mgrwt>
</event>
<event>
12    7  0.1660832E-007  0.1534168E+04  0.7818608E-02  0.8862044E-01
         -1   -1    0    0    0  501 -0.00000000000E+00  0.00000000000E+00  0.18780058597E+03  0.18780058597E+03  0.00000000000E+00 0.  1.
          2   -1    0    0  501    0  0.00000000000E+00 -0.00000000000E+00 -0.31332050890E+04  0.31332050890E+04  0.00000000000E+00 0. -1.
         24    2    1    2    0    0  0.59626425980E+02 -0.22278828167E+03 -0.16690305039E+02  0.24449545735E+03  0.79432570511E+02 0.  0.
        254    2    1    2    0    0 -0.59626425980E+02  0.22278828167E+03 -0.29287141980E+04  0.30765102177E+04  0.91343217397E+03 0.  0.
         23    2    4    4    0    0 -0.15733570720E+03  0.52516246940E+03 -0.23009978500E+04  0.23670975115E+04  0.89495135925E+02 0.  0.
         23    2    4    4    0    0  0.97709281222E+02 -0.30237418773E+03 -0.62771634808E+03  0.70941270617E+03  0.90891809266E+02 0.  0.
          4    1    3    3  502    0  0.30510042543E+02 -0.18516113387E+03  0.13508585987E+02  0.18814353586E+03  0.00000000000E+00 0. -1.
         -3    1    3    3    0  502  0.29116383437E+02 -0.37627147799E+02 -0.30198891025E+02  0.56351921485E+02  0.00000000000E+00 0.  1.
         13    1    5    5    0    0 -0.18378817933E+02  0.59686313712E+02 -0.16172714502E+03  0.17336639360E+03  0.00000000000E+00 0. -1.
        -13    1    5    5    0    0 -0.13895688927E+03  0.46547615568E+03 -0.21392707049E+04  0.21937311179E+04  0.00000000000E+00 0.  1.
          2    1    6    6  503    0  0.11608798159E+02 -0.12781870316E+02 -0.98742874108E+02  0.10024118710E+03  0.00000000000E+00 0. -1.
         -2    1    6    6    0  503  0.86100483063E+02 -0.28959231741E+03 -0.52897347397E+03  0.60917151908E+03  0.00000000000E+00 0.  1.
<mgrwt>
<rscale>  0 0.15341679E+04</rscale>
<asrwt>0</asrwt>
<pdfrwt beam="1">  1        2 0.48203152E+00 0.15341679E+04</pdfrwt>
<pdfrwt beam="2">  1       -1 0.28892399E-01 0.15341679E+04</pdfrwt>
<totfact> 0.17281269E+01</totfact>
</mgrwt>
</event>
<event>
12    7  0.1660832E-007  0.1702774E+04  0.7818608E-02  0.8759784E-01
          2   -1    0    0  501    0  0.00000000000E+00  0.00000000000E+00  0.33447013879E+04  0.33447013879E+04  0.00000000000E+00 0. -1.
         -1   -1    0    0    0  501 -0.00000000000E+00 -0.00000000000E+00 -0.21671887627E+03  0.21671887627E+03  0.00000000000E+00 0.  1.
         24    2    1    2    0    0 -0.31390557210E+03  0.38597288940E+03  0.38918156564E+03  0.63613091736E+03  0.75421969198E+02 0.  0.
        254    2    1    2    0    0  0.31390557210E+03 -0.38597288940E+03  0.27388009460E+04  0.29252893468E+04  0.89931938782E+03 0.  0.
         23    2    4    4    0    0  0.48776568892E+03 -0.57193485512E+03  0.19993297671E+04  0.21378054841E+04  0.88701321957E+02 0.  0.
         23    2    4    4    0    0 -0.17386011682E+03  0.18596196572E+03  0.73947117889E+03  0.78748386270E+03  0.92217225578E+02 0.  0.
          4    1    3    3  502    0 -0.17656277961E+02  0.42084845964E+02  0.60225572499E+02  0.75564528676E+02  0.00000000000E+00 0. -1.
         -3    1    3    3    0  502 -0.29624929414E+03  0.34388804343E+03  0.32895599314E+03  0.56056638868E+03  0.00000000000E+00 0.  1.
         13    1    5    5    0    0  0.18758024908E+03 -0.24632993434E+03  0.93813831942E+03  0.98791107533E+03  0.00000000000E+00 0. -1.
        -13    1    5    5    0    0  0.30018543984E+03 -0.32560492077E+03  0.10611914477E+04  0.11498944088E+04  0.00000000000E+00 0.  1.
          3    1    6    6  503    0 -0.37832527655E+02  0.49476731317E+02  0.85941624274E+02  0.10613769299E+03  0.00000000000E+00 0. -1.
         -3    1    6    6    0  503 -0.13602758917E+03  0.13648523440E+03  0.65352955462E+03  0.68134616971E+03  0.00000000000E+00 0.  1.
<mgrwt>
<rscale>  0 0.17027741E+04</rscale>
<asrwt>0</asrwt>
<pdfrwt beam="1">  1        2 0.51456941E+00 0.17027741E+04</pdfrwt>
<pdfrwt beam="2">  1       -1 0.33341368E-01 0.17027741E+04</pdfrwt>
<totfact> 0.96074934E+00</totfact>
</mgrwt>
</event>
<event>
12    7  0.1660832E-007  0.2952463E+04  0.7818608E-02  0.8257437E-01
          2   -1    0    0  501    0  0.00000000000E+00  0.00000000000E+00  0.11327112740E+04  0.11327112740E+04  0.00000000000E+00 0. -1.
         -1   -1    0    0    0  501 -0.00000000000E+00 -0.00000000000E+00 -0.19239325040E+04  0.19239325040E+04  0.00000000000E+00 0.  1.
         24    2    1    2    0    0 -0.12045018113E+04  0.26602836822E+03  0.15291921498E+03  0.12451779232E+04  0.74081495034E+02 0.  0.
        254    2    1    2    0    0  0.12045018113E+04 -0.26602836822E+03 -0.94414044499E+03  0.18114658549E+04  0.93188607537E+03 0.  0.
         23    2    4    4    0    0  0.71303219840E+03  0.30525527542E+03 -0.55692685133E+03  0.95907136474E+03  0.89747789913E+02 0.  0.
         23    2    4    4    0    0  0.49146961288E+03 -0.57128364364E+03 -0.38721359366E+03  0.85239449015E+03  0.93459177407E+02 0.  0.
          4    1    3    3  502    0 -0.96409056052E+03  0.18285417052E+03  0.12723116930E+03  0.98949180240E+03  0.00000000000E+00 0. -1.
         -3    1    3    3    0  502 -0.24041125076E+03  0.83174197705E+02  0.25688045676E+02  0.25568612075E+03  0.00000000000E+00 0.  1.
         13    1    5    5    0    0  0.55115144516E+03  0.24132544783E+03 -0.47569154495E+03  0.76699956533E+03  0.00000000000E+00 0.  1.
        -13    1    5    5    0    0  0.16188075324E+03  0.63929827591E+02 -0.81235306377E+02  0.19207179941E+03  0.00000000000E+00 0. -1.
          2    1    6    6  503    0  0.30367377376E+03 -0.41469944347E+03 -0.24327288149E+03  0.56866078127E+03  0.00000000000E+00 0.  1.
         -2    1    6    6    0  503  0.18779583912E+03 -0.15658420017E+03 -0.14394071218E+03  0.28373370888E+03  0.00000000000E+00 0. -1.
<mgrwt>
<rscale>  0 0.29524634E+04</rscale>
<asrwt>0</asrwt>
<pdfrwt beam="1">  1        2 0.17426328E+00 0.29524634E+04</pdfrwt>
<pdfrwt beam="2">  1       -1 0.29598961E+00 0.29524634E+04</pdfrwt>
<totfact> 0.71407746E-01</totfact>
</mgrwt>
</event>
<event>
12    7  0.1660832E-007  0.1569039E+04  0.7818608E-02  0.8839798E-01
         -1   -1    0    0    0  501 -0.00000000000E+00  0.00000000000E+00  0.26382006814E+03  0.26382006814E+03  0.00000000000E+00 0.  1.
          2   -1    0    0  501    0  0.00000000000E+00 -0.00000000000E+00 -0.23329184412E+04  0.23329184412E+04  0.00000000000E+00 0. -1.
         24    2    1    2    0    0  0.40917995628E+03 -0.12430363838E+03 -0.19695529645E+03  0.47751225554E+03  0.79667648734E+02 0.  0.
        254    2    1    2    0    0 -0.40917995628E+03  0.12430363838E+03 -0.18721430766E+04  0.21192262538E+04  0.89628153185E+03 0.  0.
         23    2    4    4    0    0 -0.66995100383E+03  0.20270387946E+03 -0.13295589077E+04  0.15054195934E+04  0.92941125468E+02 0.  0.
         23    2    4    4    0    0  0.26077104755E+03 -0.78400241080E+02 -0.54258416892E+03  0.61380666043E+03  0.90625046081E+02 0.  0.
          2    1    3    3  502    0  0.22401342947E+03 -0.10571994903E+03 -0.12991659476E+03  0.27970885899E+03  0.00000000000E+00 0. -1.
         -1    1    3    3    0  502  0.18516652682E+03 -0.18583689356E+02 -0.67038701686E+02  0.19780339655E+03  0.00000000000E+00 0.  1.
         13    1    5    5    0    0 -0.66490288788E+03  0.20586364944E+03 -0.12936041286E+04  0.14689749263E+04  0.00000000000E+00 0. -1.
        -13    1    5    5    0    0 -0.50481159519E+01 -0.31597699735E+01 -0.35954779086E+02  0.36444667101E+02  0.00000000000E+00 0.  1.
          3    1    6    6  503    0  0.20960447760E+03 -0.71395936935E+02 -0.50011679232E+03  0.54694444215E+03  0.00000000000E+00 0. -1.
         -3    1    6    6    0  503  0.51166569953E+02 -0.70043041453E+01 -0.42467376605E+02  0.66862218278E+02  0.00000000000E+00 0.  1.
<mgrwt>
<rscale>  0 0.15690388E+04</rscale>
<asrwt>0</asrwt>
<pdfrwt beam="1">  1        2 0.35891053E+00 0.15690388E+04</pdfrwt>
<pdfrwt beam="2">  1       -1 0.40587702E-01 0.15690388E+04</pdfrwt>
<totfact> 0.28228246E+01</totfact>
</mgrwt>
</event>
<event>
12    7  0.1660832E-007  0.3657501E+04  0.7818608E-02  0.8077446E-01
         -1   -1    0    0    0  501 -0.00000000000E+00  0.00000000000E+00  0.16156006332E+04  0.16156006332E+04  0.00000000000E+00 0.  1.
          2   -1    0    0  501    0  0.00000000000E+00 -0.00000000000E+00 -0.20700222793E+04  0.20700222793E+04  0.00000000000E+00 0. -1.
         24    2    1    2    0    0 -0.93593854563E+03  0.76430889226E+03  0.10090396947E+04  0.15763120479E+04  0.80308921717E+02 0.  0.
        254    2    1    2    0    0  0.93593854563E+03 -0.76430889226E+03 -0.14634613408E+04  0.21093108647E+04  0.92050213676E+03 0.  0.
         23    2    4    4    0    0 -0.65058462707E+02  0.71239829535E+02  0.10822907933E+02  0.13900931539E+03  0.99492399440E+02 0.  0.
         23    2    4    4    0    0  0.10009970083E+04 -0.83554872180E+03 -0.14742842487E+04  0.19703015493E+04  0.91855711910E+02 0.  0.
          2    1    3    3  502    0 -0.37702362253E+03  0.35354436702E+03  0.45445851201E+03  0.68823903590E+03  0.00000000000E+00 0. -1.
         -1    1    3    3    0  502 -0.55891492310E+03  0.41076452525E+03  0.55458118267E+03  0.88807301200E+03  0.00000000000E+00 0.  1.
         13    1    5    5    0    0  0.15911063505E+02 -0.31462798088E+00 -0.21014727550E+02  0.26360571060E+02  0.00000000000E+00 0. -1.
        -13    1    5    5    0    0 -0.80969526211E+02  0.71554457516E+02  0.31837635482E+02  0.11264874433E+03  0.00000000000E+00 0.  1.
          3    1    6    6  503    0  0.47529686274E+03 -0.38277498430E+03 -0.62296900613E+03  0.87207464069E+03  0.00000000000E+00 0. -1.
         -3    1    6    6    0  503  0.52570014560E+03 -0.45277373750E+03 -0.85131524261E+03  0.10982269086E+04  0.00000000000E+00 0.  1.
<mgrwt>
<rscale>  0 0.36575015E+04</rscale>
<asrwt>0</asrwt>
<pdfrwt beam="1">  1        2 0.31846496E+00 0.36575015E+04</pdfrwt>
<pdfrwt beam="2">  1       -1 0.24855394E+00 0.36575015E+04</pdfrwt>
<totfact> 0.40149486E-01</totfact>
</mgrwt>
</event>
<event>
12    7  0.1660832E-007  0.2285303E+04  0.7818608E-02  0.8483738E-01
          2   -1    0    0  501    0  0.00000000000E+00  0.00000000000E+00  0.21002717691E+04  0.21002717691E+04  0.00000000000E+00 0. -1.
         -1   -1    0    0    0  501 -0.00000000000E+00 -0.00000000000E+00 -0.62165890824E+03  0.62165890824E+03  0.00000000000E+00 0.  1.
         24    2    1    2    0    0  0.47500236121E+03  0.41799108932E+03  0.14877358039E+04  0.16187932899E+04  0.82402058294E+02 0.  0.
        254    2    1    2    0    0 -0.47500236121E+03 -0.41799108932E+03 -0.91229430452E+01  0.11031373875E+04  0.90359563613E+03 0.  0.
         23    2    4    4    0    0  0.26190703161E+03 -0.13337316062E+03 -0.48029803723E+01  0.30762252812E+03  0.90691002874E+02 0.  0.
         23    2    4    4    0    0 -0.73690939282E+03 -0.28461792870E+03 -0.43199626729E+01  0.79551485935E+03  0.93714517608E+02 0.  0.
          2    1    3    3  502    0  0.47786732537E+03  0.41838328617E+03  0.14821170488E+04  0.16124740931E+04  0.00000000000E+00 0. -1.
         -1    1    3    3    0  502 -0.28649641666E+01 -0.39219684575E+00  0.56187551522E+01  0.63191967450E+01  0.00000000000E+00 0.  1.
         13    1    5    5    0    0  0.60173326797E+02 -0.48673924171E+02  0.35500041553E+02  0.85148300643E+02  0.00000000000E+00 0. -1.
        -13    1    5    5    0    0  0.20173370482E+03 -0.84699236448E+02 -0.40303021926E+02  0.22247422747E+03  0.00000000000E+00 0.  1.
          2    1    6    6  503    0 -0.48010536714E+02 -0.28353100079E+00 -0.14572298617E+02  0.50174135891E+02  0.00000000000E+00 0. -1.
         -2    1    6    6    0  503 -0.68889885611E+03 -0.28433439770E+03  0.10252335945E+02  0.74534072346E+03  0.00000000000E+00 0.  1.
<mgrwt>
<rscale>  0 0.22853032E+04</rscale>
<asrwt>0</asrwt>
<pdfrwt beam="1">  1        2 0.32311873E+00 0.22853032E+04</pdfrwt>
<pdfrwt beam="2">  1       -1 0.95639833E-01 0.22853032E+04</pdfrwt>
<totfact> 0.63987783E+00</totfact>
</mgrwt>
</event>
<event>
12    7  0.1660832E-007  0.2227516E+04  0.7818608E-02  0.8507062E-01
         -3   -1    0    0    0  501 -0.00000000000E+00  0.00000000000E+00  0.59226435408E+03  0.59226435408E+03  0.00000000000E+00 0.  1.
          2   -1    0    0  501    0  0.00000000000E+00 -0.00000000000E+00 -0.20944318754E+04  0.20944318754E+04  0.00000000000E+00 0. -1.
         24    2    1    2    0    0  0.30686698700E+03  0.52483456557E+03  0.19784460675E+03  0.64415050282E+03  0.78541154369E+02 0.  0.
        254    2    1    2    0    0 -0.30686698700E+03 -0.52483456557E+03 -0.17000121280E+04  0.20425457266E+04  0.95516131675E+03 0.  0.
         23    2    4    4    0    0 -0.11905651862E+03 -0.31865191852E+03 -0.17146562227E+04  0.17504233410E+04  0.90677509340E+02 0.  0.
         23    2    4    4    0    0 -0.18781046838E+03 -0.20618264706E+03  0.14644094692E+02  0.29212238566E+03  0.85656189007E+02 0.  0.
          2    1    3    3  502    0  0.77946770304E+02  0.19266624939E+03  0.44288678103E+02  0.21250286978E+03  0.00000000000E+00 0. -1.
         -1    1    3    3    0  502  0.22892021670E+03  0.33216831618E+03  0.15355592864E+03  0.43164763304E+03  0.00000000000E+00 0.  1.
         13    1    5    5    0    0 -0.57818704192E+02 -0.24271820389E+03 -0.13545460830E+04  0.13773344620E+04  0.00000000000E+00 0. -1.
        -13    1    5    5    0    0 -0.61237814425E+02 -0.75933714624E+02 -0.36011013970E+03  0.37308887902E+03  0.00000000000E+00 0.  1.
          1    1    6    6  503    0 -0.18104767459E+02 -0.36910029839E+02  0.31565771867E+02  0.51831755334E+02  0.00000000000E+00 0.  1.
         -1    1    6    6    0  503 -0.16970570093E+03 -0.16927261722E+03 -0.16921677175E+02  0.24029063033E+03  0.00000000000E+00 0. -1.
<mgrwt>
<rscale>  0 0.22275164E+04</rscale>
<asrwt>0</asrwt>
<pdfrwt beam="1">  1        2 0.32222029E+00 0.22275164E+04</pdfrwt>
<pdfrwt beam="2">  1       -3 0.91117593E-01 0.22275164E+04</pdfrwt>
<totfact> 0.37356695E+00</totfact>
</mgrwt>
</event>
<event>
12    7  0.1660832E-007  0.1773231E+04  0.7818608E-02  0.8720666E-01
          2   -1    0    0  501    0  0.00000000000E+00  0.00000000000E+00  0.10814176209E+04  0.10814176209E+04  0.00000000000E+00 0. -1.
         -1   -1    0    0    0  501 -0.00000000000E+00 -0.00000000000E+00 -0.72690458031E+03  0.72690458031E+03  0.00000000000E+00 0.  1.
         24    2    1    2    0    0 -0.30131970951E+03  0.29058246379E+03 -0.37079722577E+03  0.56634812732E+03  0.89598454718E+02 0.  0.
        254    2    1    2    0    0  0.30131970951E+03 -0.29058246379E+03  0.72531026637E+03  0.12419740739E+04  0.91716567867E+03 0.  0.
         23    2    4    4    0    0 -0.11206958863E+02 -0.41693321294E+03 -0.10282962448E+02  0.42709791897E+03  0.91367352430E+02 0.  0.
         23    2    4    4    0    0  0.31252666837E+03  0.12635074915E+03  0.73559322882E+03  0.81487615493E+03  0.96375927139E+02 0.  0.
          2    1    3    3  502    0 -0.21338877780E+02  0.43213571973E+02 -0.15117820349E+02  0.50510484057E+02  0.00000000000E+00 0. -1.
         -1    1    3    3    0  502 -0.27998083173E+03  0.24736889181E+03 -0.35567940542E+03  0.51583764327E+03  0.00000000000E+00 0.  1.
         13    1    5    5    0    0 -0.30299213330E+02 -0.25890832652E+03 -0.44078692173E+02  0.26437567016E+03  0.00000000000E+00 0.  1.
        -13    1    5    5    0    0  0.19092254467E+02 -0.15802488642E+03  0.33795729725E+02  0.16272224880E+03  0.00000000000E+00 0. -1.
          4    1    6    6  503    0  0.71726461120E+02  0.75533255778E+02  0.23545929537E+03  0.25747045992E+03  0.00000000000E+00 0. -1.
         -4    1    6    6    0  503  0.24080020725E+03  0.50817493374E+02  0.50013393345E+03  0.55740569501E+03  0.00000000000E+00 0.  1.
<mgrwt>
<rscale>  0 0.17732314E+04</rscale>
<asrwt>0</asrwt>
<pdfrwt beam="1">  1        2 0.16637194E+00 0.17732314E+04</pdfrwt>
<pdfrwt beam="2">  1       -1 0.11183147E+00 0.17732314E+04</pdfrwt>
<totfact> 0.17718788E+01</totfact>
</mgrwt>
</event>
<event>
12    7  0.1660832E-007  0.1572313E+04  0.7818608E-02  0.8837740E-01
         -1   -1    0    0    0  501 -0.00000000000E+00  0.00000000000E+00  0.10583201525E+04  0.10583201525E+04  0.00000000000E+00 0.  1.
          2   -1    0    0  501    0  0.00000000000E+00 -0.00000000000E+00 -0.58398431627E+03  0.58398431627E+03  0.00000000000E+00 0. -1.
         24    2    1    2    0    0 -0.33865757921E+03  0.20622933391E+03  0.53805022523E+03  0.67321412842E+03  0.80620863964E+02 0.  0.
        254    2    1    2    0    0  0.33865757921E+03 -0.20622933391E+03 -0.63714389039E+02  0.96909034032E+03  0.88196205712E+03 0.  0.
         23    2    4    4    0    0  0.58913880090E+03 -0.28805947083E+03  0.57848391253E+02  0.66470725957E+03  0.91796073359E+02 0.  0.
         23    2    4    4    0    0 -0.25048122169E+03  0.81830136918E+02 -0.12156278029E+03  0.30438308075E+03  0.91839733052E+02 0.  0.
          4    1    3    3  502    0  0.22335698211E+01 -0.24660818678E+01  0.52569289529E+00  0.33684932751E+01  0.00000000000E+00 0. -1.
         -3    1    3    3    0  502 -0.34089114903E+03  0.20869541578E+03  0.53752453234E+03  0.66984563515E+03  0.00000000000E+00 0.  1.
         13    1    5    5    0    0  0.24866513951E+03 -0.14042093403E+03 -0.17191484221E+02  0.28609078533E+03  0.00000000000E+00 0. -1.
        -13    1    5    5    0    0  0.34047366140E+03 -0.14763853680E+03  0.75039875474E+02  0.37861647424E+03  0.00000000000E+00 0.  1.
          2    1    6    6  503    0 -0.44211164954E+02  0.90766005262E+01 -0.63817212517E+02  0.78164239887E+02  0.00000000000E+00 0.  1.
         -2    1    6    6    0  503 -0.20627005674E+03  0.72753536392E+02 -0.57745567774E+02  0.22621884086E+03  0.00000000000E+00 0. -1.
<mgrwt>
<rscale>  0 0.15723134E+04</rscale>
<asrwt>0</asrwt>
<pdfrwt beam="1">  1        2 0.89843741E-01 0.15723134E+04</pdfrwt>
<pdfrwt beam="2">  1       -1 0.16281848E+00 0.15723134E+04</pdfrwt>
<totfact> 0.15657170E+01</totfact>
</mgrwt>
</event>
<event>
12    7  0.1660832E-007  0.1945124E+04  0.7818608E-02  0.8632716E-01
         -1   -1    0    0    0  501 -0.00000000000E+00  0.00000000000E+00  0.80967865135E+03  0.80967865135E+03  0.00000000000E+00 0.  1.
          2   -1    0    0  501    0  0.00000000000E+00 -0.00000000000E+00 -0.11682121279E+04  0.11682121279E+04  0.00000000000E+00 0. -1.
         24    2    1    2    0    0  0.81039534390E+02  0.66775274317E+03  0.21321092952E+03  0.71008605762E+03  0.79386249542E+02 0.  0.
        254    2    1    2    0    0 -0.81039534390E+02 -0.66775274317E+03 -0.57174440604E+03  0.12678047216E+04  0.90993187333E+03 0.  0.
         23    2    4    4    0    0  0.31908403519E+03 -0.15302188696E+02 -0.30693897460E+03  0.45215419368E+03  0.90460501031E+02 0.  0.
         23    2    4    4    0    0 -0.40012356958E+03 -0.65245055447E+03 -0.26480543144E+03  0.81565052791E+03  0.96815650567E+02 0.  0.
          2    1    3    3  502    0 -0.12935297438E+02  0.91654140226E+02  0.15843914144E+02  0.93908641539E+02  0.00000000000E+00 0. -1.
         -1    1    3    3    0  502  0.93974831828E+02  0.57609860294E+03  0.19736701537E+03  0.61617741608E+03  0.00000000000E+00 0.  1.
         13    1    5    5    0    0  0.89282311889E+02 -0.20207411525E+02 -0.14313941527E+03  0.16990751278E+03  0.00000000000E+00 0. -1.
        -13    1    5    5    0    0  0.22980172330E+03  0.49052228289E+01 -0.16379955933E+03  0.28224668090E+03  0.00000000000E+00 0.  1.
          3    1    6    6  503    0 -0.20125489734E+02 -0.18886057993E+02  0.69651165610E+01  0.28464563448E+02  0.00000000000E+00 0. -1.
         -3    1    6    6    0  503 -0.37999807984E+03 -0.63356449648E+03 -0.27177054800E+03  0.78718596446E+03  0.00000000000E+00 0.  1.
<mgrwt>
<rscale>  0 0.19451236E+04</rscale>
<asrwt>0</asrwt>
<pdfrwt beam="1">  1        2 0.17972494E+00 0.19451236E+04</pdfrwt>
<pdfrwt beam="2">  1       -1 0.12456595E+00 0.19451236E+04</pdfrwt>
<totfact> 0.11890379E+01</totfact>
</mgrwt>
</event>
<event>
12    7  0.1660832E-007  0.4193519E+04  0.7818608E-02  0.7966606E-01
         -1   -1    0    0    0  501 -0.00000000000E+00  0.00000000000E+00  0.22251649608E+04  0.22251649608E+04  0.00000000000E+00 0.  1.
          2   -1    0    0  501    0  0.00000000000E+00 -0.00000000000E+00 -0.19757640753E+04  0.19757640753E+04  0.00000000000E+00 0. -1.
         24    2    1    2    0    0  0.11731282913E+04 -0.13337667763E+04 -0.80633330201E+03  0.19520057465E+04  0.70634545266E+02 0.  0.
        254    2    1    2    0    0 -0.11731282913E+04  0.13337667763E+04  0.10557341875E+04  0.22489232896E+04  0.88764716330E+03 0.  0.
         23    2    4    4    0    0 -0.47127340755E+03  0.58390998956E+03 -0.23105649046E+02  0.75620657853E+03  0.90912143402E+02 0.  0.
         23    2    4    4    0    0 -0.70185488377E+03  0.74985678673E+03  0.10788398365E+04  0.14927167111E+04  0.97068574779E+02 0.  0.
          2    1    3    3  502    0  0.76620202723E+03 -0.92077344693E+03 -0.53832519097E+03  0.13132719819E+04  0.00000000000E+00 0. -1.
         -1    1    3    3    0  502  0.40692626409E+03 -0.41299332937E+03 -0.26800811104E+03  0.63873376464E+03  0.00000000000E+00 0.  1.
         13    1    5    5    0    0 -0.32309017180E+03  0.38790331812E+03  0.26517329469E+02  0.50552884397E+03  0.00000000000E+00 0. -1.
        -13    1    5    5    0    0 -0.14818323574E+03  0.19600667144E+03 -0.49622978516E+02  0.25067773456E+03  0.00000000000E+00 0.  1.
          2    1    6    6  503    0 -0.36996520709E+03  0.41478219870E+03  0.65053552025E+03  0.85563718358E+03  0.00000000000E+00 0. -1.
         -2    1    6    6    0  503 -0.33188967669E+03  0.33507458803E+03  0.42830431627E+03  0.63707952751E+03  0.00000000000E+00 0.  1.
<mgrwt>
<rscale>  0 0.41935193E+04</rscale>
<asrwt>0</asrwt>
<pdfrwt beam="1">  1        2 0.30396370E+00 0.41935193E+04</pdfrwt>
<pdfrwt beam="2">  1       -1 0.34233307E+00 0.41935193E+04</pdfrwt>
<totfact> 0.10635689E-01</totfact>
</mgrwt>
</event>
<event>
12    7  0.1959144E-007  0.2589662E+04  0.7818608E-02  0.8371721E-01
         -1   -1    0    0    0  501 -0.00000000000E+00  0.00000000000E+00  0.12212526934E+04  0.12212526934E+04  0.00000000000E+00 0.  1.
          2   -1    0    0  501    0  0.00000000000E+00 -0.00000000000E+00 -0.13728424499E+04  0.13728424499E+04  0.00000000000E+00 0. -1.
         24    2    1    2    0    0  0.67211249506E+03 -0.21460811856E+03  0.82483208820E+03  0.10884102094E+04  0.80603719090E+02 0.  0.
        254    2    1    2    0    0 -0.67211249506E+03  0.21460811856E+03 -0.97642184462E+03  0.15056849339E+04  0.90326942331E+03 0.  0.
         23    2    4    4    0    0 -0.65129598530E+03  0.51182449905E+03 -0.71747042634E+03  0.11002273269E+04  0.97905974460E+02 0.  0.
         23    2    4    4    0    0 -0.20816509759E+02 -0.29721638049E+03 -0.25895141828E+03  0.40545760707E+03  0.92569596465E+02 0.  0.
          4    1    3    3  502    0  0.62037583390E+02 -0.14270623295E+02  0.11340198219E+03  0.13004738370E+03  0.00000000000E+00 0. -1.
         -3    1    3    3    0  502  0.61007491167E+03 -0.20033749526E+03  0.71143010601E+03  0.95836282566E+03  0.00000000000E+00 0.  1.
         13    1    5    5    0    0 -0.96953295276E+02  0.35634615689E+02 -0.86090166680E+02  0.13446666538E+03  0.00000000000E+00 0.  1.
        -13    1    5    5    0    0 -0.55434269003E+03  0.47618988336E+03 -0.63138025966E+03  0.96576066149E+03  0.00000000000E+00 0. -1.
          2    1    6    6  503    0  0.31531383048E+02 -0.19081654439E+03 -0.15899807084E+03  0.25037086144E+03  0.00000000000E+00 0. -1.
         -2    1    6    6    0  503 -0.52347892807E+02 -0.10639983610E+03 -0.99953347445E+02  0.15508674563E+03  0.00000000000E+00 0.  1.
<mgrwt>
<rscale>  0 0.25896622E+04</rscale>
<asrwt>0</asrwt>
<pdfrwt beam="1">  1        2 0.21120653E+00 0.25896622E+04</pdfrwt>
<pdfrwt beam="2">  1       -1 0.18788503E+00 0.25896622E+04</pdfrwt>
<totfact> 0.27665265E+00</totfact>
</mgrwt>
</event>
<event>
12    7  0.1660832E-007  0.2044220E+04  0.7818608E-02  0.8586221E-01
          2   -1    0    0  501    0  0.00000000000E+00  0.00000000000E+00  0.43427523411E+04  0.43427523411E+04  0.00000000000E+00 0. -1.
         -1   -1    0    0    0  501 -0.00000000000E+00 -0.00000000000E+00 -0.24056384697E+03  0.24056384697E+03  0.00000000000E+00 0.  1.
         24    2    1    2    0    0  0.78752705644E+03 -0.10139834778E+03  0.21636847496E+04  0.23061560969E+04  0.79647710615E+02 0.  0.
        254    2    1    2    0    0 -0.78752705644E+03  0.10139834778E+03  0.19385037445E+04  0.22771600912E+04  0.89284983281E+03 0.  0.
         23    2    4    4    0    0 -0.78879496138E+03  0.20222196969E+03  0.85159679478E+03  0.11817848372E+04  0.91143208246E+02 0.  0.
         23    2    4    4    0    0  0.12679049372E+01 -0.10082362191E+03  0.10869069497E+04  0.10953752540E+04  0.91176858002E+02 0.  0.
          4    1    3    3  502    0  0.16815386148E+03 -0.35400510197E+02  0.38657294618E+03  0.42304557670E+03  0.00000000000E+00 0. -1.
         -1    1    3    3    0  502  0.61937319497E+03 -0.65997837581E+02  0.17771118035E+04  0.18831105202E+04  0.00000000000E+00 0.  1.
         13    1    5    5    0    0 -0.78872011346E+02  0.46515473754E+02  0.77454152501E+02  0.11993176899E+03  0.00000000000E+00 0. -1.
        -13    1    5    5    0    0 -0.70992295003E+03  0.15570649594E+03  0.77414264228E+03  0.10618530682E+04  0.00000000000E+00 0.  1.
          3    1    6    6  503    0 -0.22828396588E+02 -0.10241595821E+03  0.71187995450E+03  0.71957156267E+03  0.00000000000E+00 0. -1.
         -3    1    6    6    0  503  0.24096301525E+02  0.15923362950E+01  0.37502699520E+03  0.37580369132E+03  0.00000000000E+00 0.  1.
<mgrwt>
<rscale>  0 0.20442203E+04</rscale>
<asrwt>0</asrwt>
<pdfrwt beam="1">  1        2 0.66811569E+00 0.20442203E+04</pdfrwt>
<pdfrwt beam="2">  1       -1 0.37009826E-01 0.20442203E+04</pdfrwt>
<totfact> 0.12997062E+00</totfact>
</mgrwt>
</event>
<event>
12    7  0.1660832E-007  0.1359362E+04  0.7818608E-02  0.8983771E-01
          2   -1    0    0  501    0  0.00000000000E+00  0.00000000000E+00  0.14133506113E+04  0.14133506113E+04  0.00000000000E+00 0. -1.
         -1   -1    0    0    0  501 -0.00000000000E+00 -0.00000000000E+00 -0.32685884112E+03  0.32685884112E+03  0.00000000000E+00 0.  1.
         24    2    1    2    0    0  0.20885124715E+02  0.34984370839E+03  0.13323076994E+03  0.38352023924E+03  0.80687837432E+02 0.  0.
        254    2    1    2    0    0 -0.20885124715E+02 -0.34984370839E+03  0.95326100025E+03  0.13566892132E+04  0.89948445114E+03 0.  0.
         23    2    4    4    0    0  0.23330417782E+03  0.12287200593E+03  0.27250075321E+02  0.28253359172E+03  0.97746072110E+02 0.  0.
         23    2    4    4    0    0 -0.25418930254E+03 -0.47271571433E+03  0.92601092493E+03  0.10741556215E+04  0.90783907994E+02 0.  0.
          4    1    3    3  502    0  0.10826782355E+02  0.52004590528E+01  0.14570495877E+02  0.18882884860E+02  0.00000000000E+00 0. -1.
         -3    1    3    3    0  502  0.10058342360E+02  0.34464324934E+03  0.11866027406E+03  0.36463735438E+03  0.00000000000E+00 0.  1.
         13    1    5    5    0    0  0.90956995508E+02  0.63625698234E+02  0.58108185161E+02  0.12529152282E+03  0.00000000000E+00 0. -1.
        -13    1    5    5    0    0  0.14234718231E+03  0.59246307700E+02 -0.30858109841E+02  0.15724206890E+03  0.00000000000E+00 0.  1.
          1    1    6    6  503    0  0.46299661553E+01 -0.37490111815E+02  0.57097055630E+02  0.68461805644E+02  0.00000000000E+00 0. -1.
         -1    1    6    6    0  503 -0.25881926869E+03 -0.43522560251E+03  0.86891386930E+03  0.10056938158E+04  0.00000000000E+00 0.  1.
<mgrwt>
<rscale>  0 0.13593618E+04</rscale>
<asrwt>0</asrwt>
<pdfrwt beam="1">  1        2 0.21743855E+00 0.13593618E+04</pdfrwt>
<pdfrwt beam="2">  1       -1 0.50285977E-01 0.13593618E+04</pdfrwt>
<totfact> 0.62788631E+01</totfact>
</mgrwt>
</event>
<event>
12    7  0.1660832E-007  0.1822987E+04  0.7818608E-02  0.8694170E-01
          2   -1    0    0  501    0  0.00000000000E+00  0.00000000000E+00  0.23093413533E+04  0.23093413533E+04  0.00000000000E+00 0. -1.
         -1   -1    0    0    0  501 -0.00000000000E+00 -0.00000000000E+00 -0.35976523688E+03  0.35976523688E+03  0.00000000000E+00 0.  1.
         24    2    1    2    0    0  0.14033498360E+03  0.66535876132E+03  0.65319898997E+03  0.94643465815E+03  0.81691203760E+02 0.  0.
        254    2    1    2    0    0 -0.14033498360E+03 -0.66535876132E+03  0.12963771265E+04  0.17226719321E+04  0.90807970055E+03 0.  0.
         23    2    4    4    0    0  0.34792005798E+03 -0.42458206441E+03  0.46700337944E+03  0.72639988373E+03  0.90809352550E+02 0.  0.
         23    2    4    4    0    0 -0.48825504158E+03 -0.24077669691E+03  0.82937374705E+03  0.99627204834E+03  0.91273098975E+02 0.  0.
          2    1    3    3  502    0  0.69578391408E+02  0.26576102861E+03  0.31677492335E+03  0.41930469702E+03  0.00000000000E+00 0. -1.
         -1    1    3    3    0  502  0.70756592190E+02  0.39959773271E+03  0.33642406662E+03  0.52712996114E+03  0.00000000000E+00 0.  1.
         13    1    5    5    0    0  0.11806115555E+02 -0.57272477604E+01 -0.21491407719E+01  0.13296786734E+02  0.00000000000E+00 0. -1.
        -13    1    5    5    0    0  0.33611394243E+03 -0.41885481665E+03  0.46915252021E+03  0.71310309699E+03  0.00000000000E+00 0.  1.
          2    1    6    6  503    0 -0.24093067795E+02 -0.36277899326E+02  0.49097963914E+02  0.65629048110E+02  0.00000000000E+00 0. -1.
         -2    1    6    6    0  503 -0.46416197378E+03 -0.20449879758E+03  0.78027578314E+03  0.93064300023E+03  0.00000000000E+00 0.  1.
<mgrwt>
<rscale>  0 0.18229874E+04</rscale>
<asrwt>0</asrwt>
<pdfrwt beam="1">  1        2 0.35528328E+00 0.18229874E+04</pdfrwt>
<pdfrwt beam="2">  1       -1 0.55348499E-01 0.18229874E+04</pdfrwt>
<totfact> 0.15867128E+01</totfact>
</mgrwt>
</event>
<event>
12    7  0.1660832E-007  0.1227805E+04  0.7818608E-02  0.9088861E-01
          2   -1    0    0  501    0  0.00000000000E+00  0.00000000000E+00  0.42223464216E+04  0.42223464216E+04  0.00000000000E+00 0. -1.
         -1   -1    0    0    0  501 -0.00000000000E+00 -0.00000000000E+00 -0.89257559773E+02  0.89257559773E+02  0.00000000000E+00 0.  1.
         24    2    1    2    0    0 -0.24805394857E+03 -0.11505291389E+03  0.94462548780E+03  0.98683534213E+03  0.82211592171E+02 0.  0.
        254    2    1    2    0    0  0.24805394857E+03  0.11505291389E+03  0.31884633741E+04  0.33247686393E+04  0.90167615171E+03 0.  0.
         23    2    4    4    0    0  0.49136382461E+02  0.20927276950E+03  0.30294518046E+04  0.30384547524E+04  0.91758213444E+02 0.  0.
         23    2    4    4    0    0  0.19891756611E+03 -0.94219855616E+02  0.15901156945E+03  0.28631388688E+03  0.90804092977E+02 0.  0.
          4    1    3    3  502    0 -0.21703491856E+03 -0.96207507463E+02  0.69141346660E+03  0.73103530842E+03  0.00000000000E+00 0. -1.
         -3    1    3    3    0  502 -0.31019030015E+02 -0.18845406424E+02  0.25321202120E+03  0.25580003371E+03  0.00000000000E+00 0.  1.
         13    1    5    5    0    0 -0.18160531206E+02  0.28678087616E+02  0.24488444004E+03  0.24722586147E+03  0.00000000000E+00 0. -1.
        -13    1    5    5    0    0  0.67296913668E+02  0.18059468189E+03  0.27845673646E+04  0.27912288909E+04  0.00000000000E+00 0.  1.
          2    1    6    6  503    0  0.19339333034E+03 -0.90180115825E+02  0.11622794907E+03  0.24298635693E+03  0.00000000000E+00 0.  1.
         -2    1    6    6    0  503  0.55242357727E+01 -0.40397397911E+01  0.42783620385E+02  0.43327529951E+02  0.00000000000E+00 0. -1.
<mgrwt>
<rscale>  0 0.12278051E+04</rscale>
<asrwt>0</asrwt>
<pdfrwt beam="1">  1        2 0.64959160E+00 0.12278051E+04</pdfrwt>
<pdfrwt beam="2">  1       -1 0.13731936E-01 0.12278051E+04</pdfrwt>
<totfact> 0.99111241E+00</totfact>
</mgrwt>
</event>
<event>
12    7  0.1660832E-007  0.2527831E+04  0.7818608E-02  0.8393137E-01
         -1   -1    0    0    0  501 -0.00000000000E+00  0.00000000000E+00  0.10430848294E+04  0.10430848294E+04  0.00000000000E+00 0.  1.
          2   -1    0    0  501    0  0.00000000000E+00 -0.00000000000E+00 -0.15314979308E+04  0.15314979308E+04  0.00000000000E+00 0. -1.
         24    2    1    2    0    0 -0.32038680044E+03 -0.10493107328E+03 -0.12858353101E+04  0.13313284848E+04  0.73517737882E+02 0.  0.
        254    2    1    2    0    0  0.32038680044E+03  0.10493107328E+03  0.79742220862E+03  0.12432542754E+04  0.89226721476E+03 0.  0.
         23    2    4    4    0    0 -0.99328008192E+01  0.44011729872E+03  0.24272314674E+03  0.50983687824E+03  0.84954218752E+02 0.  0.
         23    2    4    4    0    0  0.33031960126E+03 -0.33518622544E+03  0.55469906188E+03  0.73341739719E+03  0.93537075833E+02 0.  0.
          4    1    3    3  502    0 -0.28122026972E+03 -0.11621406781E+03 -0.11370066455E+04  0.11770193972E+04  0.00000000000E+00 0. -1.
         -3    1    3    3    0  502 -0.39166530719E+02  0.11282994533E+02 -0.14882866463E+03  0.15430908758E+03  0.00000000000E+00 0.  1.
         13    1    5    5    0    0  0.10027741020E+02  0.41301527409E+03  0.21242524694E+03  0.46454995185E+03  0.00000000000E+00 0. -1.
        -13    1    5    5    0    0 -0.19960541840E+02  0.27102024623E+02  0.30297899806E+02  0.45286926390E+02  0.00000000000E+00 0.  1.
          3    1    6    6  503    0  0.30023263575E+03 -0.30714696573E+03  0.45568161303E+03  0.62619855205E+03  0.00000000000E+00 0. -1.
         -3    1    6    6    0  503  0.30086965512E+02 -0.28039259702E+02  0.99017448848E+02  0.10721884515E+03  0.00000000000E+00 0.  1.
<mgrwt>
<rscale>  0 0.25278309E+04</rscale>
<asrwt>0</asrwt>
<pdfrwt beam="1">  1        2 0.23561507E+00 0.25278309E+04</pdfrwt>
<pdfrwt beam="2">  1       -1 0.16047459E+00 0.25278309E+04</pdfrwt>
<totfact> 0.35791181E+00</totfact>
</mgrwt>
</event>
<event>
12    7  0.1660832E-007  0.2357701E+04  0.7818608E-02  0.8455511E-01
         -1   -1    0    0    0  501 -0.00000000000E+00  0.00000000000E+00  0.26698963113E+03  0.26698963113E+03  0.00000000000E+00 0.  1.
          2   -1    0    0  501    0  0.00000000000E+00 -0.00000000000E+00 -0.52050296588E+04  0.52050296588E+04  0.00000000000E+00 0. -1.
         24    2    1    2    0    0 -0.50780132936E+03  0.50320760225E+03 -0.37466775147E+04  0.38150781003E+04  0.78411933729E+02 0.  0.
        254    2    1    2    0    0  0.50780132936E+03 -0.50320760225E+03 -0.11913625130E+04  0.16569411896E+04  0.90278978031E+03 0.  0.
         23    2    4    4    0    0  0.19800269805E+03 -0.67056301590E+03 -0.10544694007E+04  0.12685491910E+04  0.91932074127E+02 0.  0.
         23    2    4    4    0    0  0.30979863131E+03  0.16735541365E+03 -0.13689311225E+03  0.38839199859E+03  0.90142076454E+02 0.  0.
          2    1    3    3  502    0 -0.50341764727E+03  0.50616181920E+03 -0.37168318339E+04  0.37847678920E+04  0.00000000000E+00 0. -1.
         -1    1    3    3    0  502 -0.43836820893E+01 -0.29542169469E+01 -0.29845680816E+02  0.30310208343E+02  0.00000000000E+00 0.  1.
         13    1    5    5    0    0  0.86346901944E+02 -0.19208107346E+03 -0.37427983375E+03  0.42946049901E+03  0.00000000000E+00 0.  1.
        -13    1    5    5    0    0  0.11165579611E+03 -0.47848194244E+03 -0.68018956697E+03  0.83908869201E+03  0.00000000000E+00 0. -1.
          1    1    6    6  503    0  0.29966721393E+03  0.17252295554E+03 -0.14444644498E+03  0.37473908892E+03  0.00000000000E+00 0. -1.
         -1    1    6    6    0  503  0.10131417376E+02 -0.51675418946E+01  0.75533327242E+01  0.13652909672E+02  0.00000000000E+00 0.  1.
<mgrwt>
<rscale>  0 0.23577014E+04</rscale>
<asrwt>0</asrwt>
<pdfrwt beam="1">  1        2 0.80077383E+00 0.23577014E+04</pdfrwt>
<pdfrwt beam="2">  1       -1 0.41075326E-01 0.23577014E+04</pdfrwt>
<totfact> 0.10975037E-01</totfact>
</mgrwt>
</event>
<event>
12    7  0.1660832E-007  0.1083839E+04  0.7818608E-02  0.9221088E-01
         -1   -1    0    0    0  501 -0.00000000000E+00  0.00000000000E+00  0.93749719139E+03  0.93749719139E+03  0.00000000000E+00 0.  1.
          2   -1    0    0  501    0  0.00000000000E+00 -0.00000000000E+00 -0.31325620502E+03  0.31325620502E+03  0.00000000000E+00 0. -1.
         24    2    1    2    0    0  0.26955931435E+02  0.18432757737E+02  0.30624264846E+03  0.31878894504E+03  0.82313078857E+02 0.  0.
        254    2    1    2    0    0 -0.26955931435E+02 -0.18432757737E+02  0.31799833792E+03  0.93196445136E+03  0.87542470087E+03 0.  0.
         23    2    4    4    0    0 -0.41940410852E+03  0.12453521696E+03  0.13271218253E+03  0.46594568947E+03  0.89911265354E+02 0.  0.
         23    2    4    4    0    0  0.39244817708E+03 -0.14296797470E+03  0.18528615539E+03  0.46601876189E+03  0.91581185676E+02 0.  0.
          2    1    3    3  502    0  0.34052201880E+02  0.68088687134E+01  0.43350992340E+02  0.55544771878E+02  0.00000000000E+00 0. -1.
         -1    1    3    3    0  502 -0.70962704456E+01  0.11623889023E+02  0.26289165612E+03  0.26324417316E+03  0.00000000000E+00 0.  1.
         13    1    5    5    0    0 -0.34424657607E+03  0.13182706460E+03  0.91043317648E+02  0.37970115326E+03  0.00000000000E+00 0. -1.
        -13    1    5    5    0    0 -0.75157532448E+02 -0.72918476410E+01  0.41668864879E+02  0.86244536210E+02  0.00000000000E+00 0.  1.
          3    1    6    6  503    0  0.37843047399E+03 -0.11879500958E+03  0.18595997395E+03  0.43806733484E+03  0.00000000000E+00 0. -1.
         -3    1    6    6    0  503  0.14017703098E+02 -0.24172965121E+02 -0.67381855715E+00  0.27951427054E+02  0.00000000000E+00 0.  1.
<mgrwt>
<rscale>  0 0.10838391E+04</rscale>
<asrwt>0</asrwt>
<pdfrwt beam="1">  1        2 0.48193263E-01 0.10838391E+04</pdfrwt>
<pdfrwt beam="2">  1       -1 0.14423034E+00 0.10838391E+04</pdfrwt>
<totfact> 0.46171592E+01</totfact>
</mgrwt>
</event>
<event>
12    7  0.1660832E-007  0.1917311E+04  0.7818608E-02  0.8646287E-01
          2   -1    0    0  501    0  0.00000000000E+00  0.00000000000E+00  0.16603165305E+04  0.16603165305E+04  0.00000000000E+00 0. -1.
         -1   -1    0    0    0  501 -0.00000000000E+00 -0.00000000000E+00 -0.55352095938E+03  0.55352095938E+03  0.00000000000E+00 0.  1.
         24    2    1    2    0    0 -0.53023376588E+02  0.24036267140E+03 -0.38152902787E+03  0.46086678063E+03  0.79044912001E+02 0.  0.
        254    2    1    2    0    0  0.53023376588E+02 -0.24036267140E+03  0.14883245990E+04  0.17529707093E+04  0.89286645322E+03 0.  0.
         23    2    4    4    0    0 -0.20163261998E+03 -0.48220559722E+03  0.10983579157E+04  0.12198323674E+04  0.91776587645E+02 0.  0.
         23    2    4    4    0    0  0.25465599657E+03  0.24184292582E+03  0.38996668330E+03  0.53313834190E+03  0.93940407515E+02 0.  0.
          4    1    3    3  502    0 -0.67710500128E+02  0.12694041968E+03 -0.22321973301E+03  0.26556662287E+03  0.00000000000E+00 0. -1.
         -3    1    3    3    0  502  0.14687123541E+02  0.11342225171E+03 -0.15830929486E+03  0.19530015776E+03  0.00000000000E+00 0.  1.
         13    1    5    5    0    0 -0.10898977680E+03 -0.35788980045E+03  0.73346168202E+03  0.82336499786E+03  0.00000000000E+00 0. -1.
        -13    1    5    5    0    0 -0.92642843184E+02 -0.12431579676E+03  0.36489623370E+03  0.39646736951E+03  0.00000000000E+00 0.  1.
          4    1    6    6  503    0  0.23870185874E+03  0.20208509287E+03  0.37371684948E+03  0.48732047536E+03  0.00000000000E+00 0. -1.
         -4    1    6    6    0  503  0.15954137836E+02  0.39757832949E+02  0.16249833818E+02  0.45817866537E+02  0.00000000000E+00 0.  1.
<mgrwt>
<rscale>  0 0.19173106E+04</rscale>
<asrwt>0</asrwt>
<pdfrwt beam="1">  1        2 0.25543331E+00 0.19173106E+04</pdfrwt>
<pdfrwt beam="2">  1       -1 0.85157072E-01 0.19173106E+04</pdfrwt>
<totfact> 0.14990377E+01</totfact>
</mgrwt>
</event>
<event>
12    7  0.1660832E-007  0.1482881E+04  0.7818608E-02  0.8895917E-01
         -1   -1    0    0    0  501 -0.00000000000E+00  0.00000000000E+00  0.25696716197E+03  0.25696716197E+03  0.00000000000E+00 0.  1.
          2   -1    0    0  501    0  0.00000000000E+00 -0.00000000000E+00 -0.21393164672E+04  0.21393164672E+04  0.00000000000E+00 0. -1.
         24    2    1    2    0    0 -0.52211502152E+02  0.45845603417E+03 -0.65310367074E+03  0.80378000786E+03  0.81301414958E+02 0.  0.
        254    2    1    2    0    0  0.52211502152E+02 -0.45845603417E+03 -0.12292456345E+04  0.15925036213E+04  0.90117422165E+03 0.  0.
         23    2    4    4    0    0  0.40180096386E+03 -0.10328839351E+03 -0.87854019076E+03  0.97573527876E+03  0.90077525664E+02 0.  0.
         23    2    4    4    0    0 -0.34958946171E+03 -0.35516764065E+03 -0.35070544374E+03  0.61676834257E+03  0.95142185278E+02 0.  0.
          2    1    3    3  502    0 -0.29676933876E+02  0.77752590540E+02 -0.80406576402E+02  0.11572123085E+03  0.00000000000E+00 0. -1.
         -1    1    3    3    0  502 -0.22534568276E+02  0.38070344363E+03 -0.57269709434E+03  0.68805877701E+03  0.00000000000E+00 0.  1.
         13    1    5    5    0    0  0.21311893798E+02  0.31950424616E+01 -0.15479755464E+02  0.26533524885E+02  0.00000000000E+00 0. -1.
        -13    1    5    5    0    0  0.38048907006E+03 -0.10648343598E+03 -0.86306043530E+03  0.94920175387E+03  0.00000000000E+00 0.  1.
          4    1    6    6  503    0 -0.18236206688E+03 -0.12898320722E+03 -0.12388781398E+03  0.25542275081E+03  0.00000000000E+00 0. -1.
         -4    1    6    6    0  503 -0.16722739483E+03 -0.22618443343E+03 -0.22681762976E+03  0.36134559175E+03  0.00000000000E+00 0.  1.
<mgrwt>
<rscale>  0 0.14828811E+04</rscale>
<asrwt>0</asrwt>
<pdfrwt beam="1">  1        2 0.32912562E+00 0.14828811E+04</pdfrwt>
<pdfrwt beam="2">  1       -1 0.39533408E-01 0.14828811E+04</pdfrwt>
<totfact> 0.38336629E+01</totfact>
</mgrwt>
</event>
<event>
12    7  0.1660832E-007  0.2126839E+04  0.7818608E-02  0.8549512E-01
          2   -1    0    0  501    0  0.00000000000E+00  0.00000000000E+00  0.12945667491E+04  0.12945667491E+04  0.00000000000E+00 0. -1.
         -1   -1    0    0    0  501 -0.00000000000E+00 -0.00000000000E+00 -0.87354369426E+03  0.87354369426E+03  0.00000000000E+00 0.  1.
         24    2    1    2    0    0  0.69413267803E+02  0.62927836985E+03 -0.42985004994E+03  0.76936701894E+03  0.79655984626E+02 0.  0.
        254    2    1    2    0    0 -0.69413267803E+02 -0.62927836985E+03  0.85087310479E+03  0.13987434244E+04  0.91196965873E+03 0.  0.
         23    2    4    4    0    0  0.44902570447E+02 -0.28932846360E+03  0.96438648180E+03  0.10120037477E+04  0.91559261785E+02 0.  0.
         23    2    4    4    0    0 -0.11431583825E+03 -0.33994990624E+03 -0.11351337701E+03  0.38673967672E+03  0.89711990062E+02 0.  0.
          4    1    3    3  502    0 -0.15101460047E+02  0.78850376740E+02 -0.40862546938E+02  0.90084314671E+02  0.00000000000E+00 0. -1.
         -3    1    3    3    0  502  0.84514727850E+02  0.55042799311E+03 -0.38898750300E+03  0.67928270426E+03  0.00000000000E+00 0.  1.
         13    1    5    5    0    0 -0.34318024926E+01 -0.63424119068E+02  0.34796722507E+03  0.35371681593E+03  0.00000000000E+00 0.  1.
        -13    1    5    5    0    0  0.48334372940E+02 -0.22590434454E+03  0.61641925673E+03  0.65828693178E+03  0.00000000000E+00 0. -1.
          3    1    6    6  503    0 -0.90761642160E+02 -0.18120486438E+03 -0.99141269536E+02  0.22561442748E+03  0.00000000000E+00 0. -1.
         -3    1    6    6    0  503 -0.23554196091E+02 -0.15874504186E+03 -0.14372107475E+02  0.16112524924E+03  0.00000000000E+00 0.  1.
<mgrwt>
<rscale>  0 0.21268386E+04</rscale>
<asrwt>0</asrwt>
<pdfrwt beam="1">  1        2 0.19916412E+00 0.21268386E+04</pdfrwt>
<pdfrwt beam="2">  1       -1 0.13439134E+00 0.21268386E+04</pdfrwt>
<totfact> 0.81341273E+00</totfact>
</mgrwt>
</event>
<event>
12    7  0.1660832E-007  0.1637402E+04  0.7818608E-02  0.8797894E-01
          2   -1    0    0  501    0  0.00000000000E+00  0.00000000000E+00  0.59574176670E+03  0.59574176670E+03  0.00000000000E+00 0. -1.
         -1   -1    0    0    0  501 -0.00000000000E+00 -0.00000000000E+00 -0.11251044569E+04  0.11251044569E+04  0.00000000000E+00 0.  1.
         24    2    1    2    0    0 -0.50339899266E+02 -0.51905709888E+03  0.47670200381E+02  0.53008782188E+03  0.82257361589E+02 0.  0.
        254    2    1    2    0    0  0.50339899266E+02  0.51905709888E+03 -0.57703289055E+03  0.11907584017E+04  0.90165638526E+03 0.  0.
         23    2    4    4    0    0  0.18251561375E+03  0.10417587137E+03 -0.69412278258E+03  0.73069733396E+03  0.89149285616E+02 0.  0.
         23    2    4    4    0    0 -0.13217571448E+03  0.41488122751E+03  0.11708989202E+03  0.46006106774E+03  0.91374453726E+02 0.  0.
          2    1    3    3  502    0 -0.31674834340E+02 -0.24334635116E+03  0.62882026128E+02  0.25332763561E+03  0.00000000000E+00 0. -1.
         -1    1    3    3    0  502 -0.18665064925E+02 -0.27571074772E+03 -0.15211825747E+02  0.27676018627E+03  0.00000000000E+00 0.  1.
         13    1    5    5    0    0 -0.48520086999E+01  0.24205815244E+01 -0.87996785016E+02  0.88163685134E+02  0.00000000000E+00 0. -1.
        -13    1    5    5    0    0  0.18736762245E+03  0.10175528985E+03 -0.60612599756E+03  0.64253364882E+03  0.00000000000E+00 0.  1.
          3    1    6    6  503    0 -0.65202360647E+01  0.36739252950E+02  0.39063398326E+02  0.54020693021E+02  0.00000000000E+00 0. -1.
         -3    1    6    6    0  503 -0.12565547842E+03  0.37814197456E+03  0.78026493698E+02  0.40604037472E+03  0.00000000000E+00 0.  1.
<mgrwt>
<rscale>  0 0.16374025E+04</rscale>
<asrwt>0</asrwt>
<pdfrwt beam="1">  1        2 0.91652580E-01 0.16374025E+04</pdfrwt>
<pdfrwt beam="2">  1       -1 0.17309299E+00 0.16374025E+04</pdfrwt>
<totfact> 0.12762737E+01</totfact>
</mgrwt>
</event>
<event>
12    7  0.1660832E-007  0.1608411E+04  0.7818608E-02  0.8815397E-01
         -1   -1    0    0    0  501 -0.00000000000E+00  0.00000000000E+00  0.27617065779E+03  0.27617065779E+03  0.00000000000E+00 0.  1.
          2   -1    0    0  501    0  0.00000000000E+00 -0.00000000000E+00 -0.23418369288E+04  0.23418369288E+04  0.00000000000E+00 0. -1.
         24    2    1    2    0    0  0.50849019470E+03 -0.78100270638E+02 -0.39893916769E+03  0.65583235831E+03  0.79383199133E+02 0.  0.
        254    2    1    2    0    0 -0.50849019470E+03  0.78100270638E+02 -0.16667271033E+04  0.19621752283E+04  0.89860472910E+03 0.  0.
         23    2    4    4    0    0 -0.49092042655E+03  0.20968477072E+03 -0.37106944314E+03  0.65642538076E+03  0.90725854100E+02 0.  0.
         23    2    4    4    0    0 -0.17569768149E+02 -0.13158450008E+03 -0.12956576602E+04  0.13057498475E+04  0.92901638738E+02 0.  0.
          2    1    3    3  502    0  0.47249033005E+02 -0.31545315011E+02 -0.48471510868E+02  0.74679752175E+02  0.00000000000E+00 0. -1.
         -1    1    3    3    0  502  0.46124116170E+03 -0.46554955628E+02 -0.35046765682E+03  0.58115260613E+03  0.00000000000E+00 0.  1.
         13    1    5    5    0    0 -0.24561149649E+03  0.15409593886E+03 -0.19755331176E+03  0.35085306978E+03  0.00000000000E+00 0. -1.
        -13    1    5    5    0    0 -0.24530893006E+03  0.55588831856E+02 -0.17351613138E+03  0.30557231099E+03  0.00000000000E+00 0.  1.
          3    1    6    6  503    0 -0.30474245888E+02 -0.10391128936E+03 -0.61877951000E+03  0.62818334722E+03  0.00000000000E+00 0. -1.
         -3    1    6    6    0  503  0.12904477739E+02 -0.27673210722E+02 -0.67687815020E+03  0.67756650032E+03  0.00000000000E+00 0.  1.
<mgrwt>
<rscale>  0 0.16084112E+04</rscale>
<asrwt>0</asrwt>
<pdfrwt beam="1">  1        2 0.36028262E+00 0.16084112E+04</pdfrwt>
<pdfrwt beam="2">  1       -1 0.42487791E-01 0.16084112E+04</pdfrwt>
<totfact> 0.25561264E+01</totfact>
</mgrwt>
</event>
<event>
12    7  0.1660832E-007  0.1683847E+04  0.7818608E-02  0.8770631E-01
         -1   -1    0    0    0  501 -0.00000000000E+00  0.00000000000E+00  0.59654292174E+03  0.59654292174E+03  0.00000000000E+00 0.  1.
          2   -1    0    0  501    0  0.00000000000E+00 -0.00000000000E+00 -0.11882390520E+04  0.11882390520E+04  0.00000000000E+00 0. -1.
         24    2    1    2    0    0  0.22540948062E+03  0.20476782477E+03 -0.75336901597E+03  0.81652801213E+03  0.80086355615E+02 0.  0.
        254    2    1    2    0    0 -0.22540948062E+03 -0.20476782477E+03  0.16167288569E+03  0.96825396163E+03  0.90478633734E+03 0.  0.
         23    2    4    4    0    0 -0.21876517679E+03  0.23175331912E+03 -0.20685943055E+03  0.39054765383E+03  0.90381648629E+02 0.  0.
         23    2    4    4    0    0 -0.66443038299E+01 -0.43652114389E+03  0.36853231624E+03  0.57770630780E+03  0.85636756824E+02 0.  0.
          2    1    3    3  502    0  0.21326781774E+03  0.19113415446E+03 -0.74116096416E+03  0.79456592042E+03  0.00000000000E+00 0. -1.
         -1    1    3    3    0  502  0.12141662872E+02  0.13633670316E+02 -0.12208051806E+02  0.21962091715E+02  0.00000000000E+00 0.  1.
         13    1    5    5    0    0 -0.22553611130E+03  0.23308738873E+03 -0.20185795545E+03  0.38202474065E+03  0.00000000000E+00 0. -1.
        -13    1    5    5    0    0  0.67709345177E+01 -0.13340696130E+01 -0.50014750988E+01  0.85229131839E+01  0.00000000000E+00 0.  1.
          1    1    6    6  503    0  0.74610889371E+01 -0.39389633059E+03  0.29750921233E+03  0.49368179885E+03  0.00000000000E+00 0. -1.
         -1    1    6    6    0  503 -0.14105392767E+02 -0.42624813304E+02  0.71023103912E+02  0.84024508946E+02  0.00000000000E+00 0.  1.
<mgrwt>
<rscale>  0 0.16838475E+04</rscale>
<asrwt>0</asrwt>
<pdfrwt beam="1">  1        2 0.18280601E+00 0.16838475E+04</pdfrwt>
<pdfrwt beam="2">  1       -1 0.91775835E-01 0.16838475E+04</pdfrwt>
<totfact> 0.24195762E+01</totfact>
</mgrwt>
</event>
<event>
12    7  0.1660832E-007  0.2150063E+04  0.7818608E-02  0.8539505E-01
         -1   -1    0    0    0  501 -0.00000000000E+00  0.00000000000E+00  0.62883714674E+03  0.62883714674E+03  0.00000000000E+00 0.  1.
          2   -1    0    0  501    0  0.00000000000E+00 -0.00000000000E+00 -0.18378249611E+04  0.18378249611E+04  0.00000000000E+00 0. -1.
         24    2    1    2    0    0 -0.80479879591E+02  0.34811432084E+03  0.41822660196E+03  0.56039488966E+03  0.10709038413E+03 0.  0.
        254    2    1    2    0    0  0.80479879591E+02 -0.34811432084E+03 -0.16272144164E+04  0.19062672182E+04  0.92648117036E+03 0.  0.
         23    2    4    4    0    0 -0.14168561602E+03 -0.61232466464E+03 -0.10631248505E+04  0.12384315205E+04  0.91988447179E+02 0.  0.
         23    2    4    4    0    0  0.22216549561E+03  0.26421034380E+03 -0.56408956587E+03  0.66783569775E+03  0.92967024604E+02 0.  0.
          4    1    3    3  502    0 -0.99273273403E+02  0.22285553804E+03  0.30441073807E+03  0.39010981928E+03  0.00000000000E+00 0. -1.
         -3    1    3    3    0  502  0.18793393812E+02  0.12525878281E+03  0.11381586389E+03  0.17028507038E+03  0.00000000000E+00 0.  1.
         13    1    5    5    0    0 -0.22207704740E+02 -0.27402262679E+03 -0.50368111287E+03  0.57382597153E+03  0.00000000000E+00 0.  1.
        -13    1    5    5    0    0 -0.11947791128E+03 -0.33830203785E+03 -0.55944373763E+03  0.66460554894E+03  0.00000000000E+00 0. -1.
          4    1    6    6  503    0  0.10189553110E+03  0.92258300685E+02 -0.30414821178E+03  0.33376702658E+03  0.00000000000E+00 0. -1.
         -4    1    6    6    0  503  0.12026996451E+03  0.17195204311E+03 -0.25994135408E+03  0.33406867117E+03  0.00000000000E+00 0.  1.
<mgrwt>
<rscale>  0 0.21500629E+04</rscale>
<asrwt>0</asrwt>
<pdfrwt beam="1">  1        2 0.28274230E+00 0.21500629E+04</pdfrwt>
<pdfrwt beam="2">  1       -1 0.96744175E-01 0.21500629E+04</pdfrwt>
<totfact> 0.88286357E+00</totfact>
</mgrwt>
</event>
<event>
12    7  0.1660832E-007  0.2653685E+04  0.7818608E-02  0.8350191E-01
         -1   -1    0    0    0  501 -0.00000000000E+00  0.00000000000E+00  0.18732326009E+04  0.18732326009E+04  0.00000000000E+00 0.  1.
          2   -1    0    0  501    0  0.00000000000E+00 -0.00000000000E+00 -0.93982480483E+03  0.93982480483E+03  0.00000000000E+00 0. -1.
         24    2    1    2    0    0  0.42317677676E+03  0.90469914071E+03 -0.24023882693E+03  0.10302131470E+04  0.77880129839E+02 0.  0.
        254    2    1    2    0    0 -0.42317677676E+03 -0.90469914071E+03  0.11736466230E+04  0.17828442587E+04  0.89639730908E+03 0.  0.
         23    2    4    4    0    0 -0.68571690483E+03 -0.55504579600E+03  0.68370862029E+03  0.11197803558E+04  0.90371779345E+02 0.  0.
         23    2    4    4    0    0  0.26254012808E+03 -0.34965334470E+03  0.48993800266E+03  0.66306390294E+03  0.91813466444E+02 0.  0.
          4    1    3    3  502    0  0.30029335131E+03  0.71810227274E+03 -0.18369601818E+03  0.79974445797E+03  0.00000000000E+00 0. -1.
         -3    1    3    3    0  502  0.12288342545E+03  0.18659686796E+03 -0.56542808751E+02  0.23046868899E+03  0.00000000000E+00 0.  1.
         13    1    5    5    0    0 -0.39425015512E+03 -0.31261092899E+03  0.44555429782E+03  0.67206949793E+03  0.00000000000E+00 0. -1.
        -13    1    5    5    0    0 -0.29146674971E+03 -0.24243486701E+03  0.23815432247E+03  0.44771085786E+03  0.00000000000E+00 0.  1.
          1    1    6    6  503    0  0.20992088991E+03 -0.26273735669E+03  0.42705785000E+03  0.54357713884E+03  0.00000000000E+00 0. -1.
         -1    1    6    6    0  503  0.52619238166E+02 -0.86915988008E+02  0.62880152661E+02  0.11948676410E+03  0.00000000000E+00 0.  1.
<mgrwt>
<rscale>  0 0.26536846E+04</rscale>
<asrwt>0</asrwt>
<pdfrwt beam="1">  1        2 0.14458843E+00 0.26536846E+04</pdfrwt>
<pdfrwt beam="2">  1       -1 0.28818963E+00 0.26536846E+04</pdfrwt>
<totfact> 0.10904463E+00</totfact>
</mgrwt>
</event>
<event>
12    7  0.1660832E-007  0.1560173E+04  0.7818608E-02  0.8845396E-01
         -1   -1    0    0    0  501 -0.00000000000E+00  0.00000000000E+00  0.60132140023E+03  0.60132140023E+03  0.00000000000E+00 0.  1.
          2   -1    0    0  501    0  0.00000000000E+00 -0.00000000000E+00 -0.10119956461E+04  0.10119956461E+04  0.00000000000E+00 0. -1.
         24    2    1    2    0    0  0.77333012454E+02  0.22407573061E+03 -0.61207397289E+03  0.66136397080E+03  0.81101329989E+02 0.  0.
        254    2    1    2    0    0 -0.77333012454E+02 -0.22407573061E+03  0.20139972703E+03  0.95195307551E+03  0.89970132826E+03 0.  0.
         23    2    4    4    0    0 -0.21333637510E+03  0.63132673129E+02  0.46874020303E+03  0.52703091050E+03  0.92444898890E+02 0.  0.
         23    2    4    4    0    0  0.13600336265E+03 -0.28720840374E+03 -0.26734047600E+03  0.42492216501E+03  0.90012967871E+02 0.  0.
          4    1    3    3  502    0  0.38111140379E+02  0.11818826965E+03 -0.42578581421E+03  0.44352506771E+03  0.00000000000E+00 0. -1.
         -3    1    3    3    0  502  0.39221872076E+02  0.10588746096E+03 -0.18628815868E+03  0.21783890309E+03  0.00000000000E+00 0.  1.
         13    1    5    5    0    0 -0.90835676296E+02  0.26496946688E+02  0.30465244719E+03  0.31900834135E+03  0.00000000000E+00 0.  1.
        -13    1    5    5    0    0 -0.12250069881E+03  0.36635726441E+02  0.16408775583E+03  0.20802256914E+03  0.00000000000E+00 0. -1.
          3    1    6    6  503    0  0.10381684083E+03 -0.26389322674E+03 -0.20100721714E+03  0.34759383324E+03  0.00000000000E+00 0. -1.
         -3    1    6    6    0  503  0.32186521816E+02 -0.23315176994E+02 -0.66333258858E+02  0.77328331778E+02  0.00000000000E+00 0.  1.
<mgrwt>
<rscale>  0 0.15601726E+04</rscale>
<asrwt>0</asrwt>
<pdfrwt beam="1">  1        2 0.15569164E+00 0.15601726E+04</pdfrwt>
<pdfrwt beam="2">  1       -1 0.92510986E-01 0.15601726E+04</pdfrwt>
<totfact> 0.30864448E+01</totfact>
</mgrwt>
</event>
<event>
12    7  0.1660832E-007  0.1303563E+04  0.7818608E-02  0.9026745E-01
          2   -1    0    0  501    0  0.00000000000E+00  0.00000000000E+00  0.11661185446E+04  0.11661185446E+04  0.00000000000E+00 0. -1.
         -1   -1    0    0    0  501 -0.00000000000E+00 -0.00000000000E+00 -0.36430178430E+03  0.36430178430E+03  0.00000000000E+00 0.  1.
         24    2    1    2    0    0  0.29752144953E+03 -0.13442152982E+03  0.36120569358E+03  0.49352718916E+03  0.80693077517E+02 0.  0.
        254    2    1    2    0    0 -0.29752144953E+03  0.13442152982E+03  0.44061106670E+03  0.10368931397E+04  0.88001199451E+03 0.  0.
         23    2    4    4    0    0 -0.50108094620E+03  0.32284278316E+03  0.14290800518E+03  0.61987299476E+03  0.92251040128E+02 0.  0.
         23    2    4    4    0    0  0.20355949667E+03 -0.18842125334E+03  0.29770306152E+03  0.41702014495E+03  0.91321689970E+02 0.  0.
          2    1    3    3  502    0  0.27731202753E+03 -0.14197083795E+03  0.31767495933E+03  0.44494388323E+03  0.00000000000E+00 0. -1.
         -1    1    3    3    0  502  0.20209421997E+02  0.75493081269E+01  0.43530734254E+02  0.48583305933E+02  0.00000000000E+00 0.  1.
         13    1    5    5    0    0  0.15326209559E+01  0.12205197790E+02  0.34987430392E+01  0.12788939867E+02  0.00000000000E+00 0. -1.
        -13    1    5    5    0    0 -0.50261356716E+03  0.31063758537E+03  0.13940926214E+03  0.60708405489E+03  0.00000000000E+00 0.  1.
          2    1    6    6  503    0  0.10810076559E+03 -0.15540942839E+03  0.21507821664E+03  0.28652487715E+03  0.00000000000E+00 0. -1.
         -2    1    6    6    0  503  0.95458731079E+02 -0.33011824949E+02  0.82624844886E+02  0.13049526780E+03  0.00000000000E+00 0.  1.
<mgrwt>
<rscale>  0 0.13035629E+04</rscale>
<asrwt>0</asrwt>
<pdfrwt beam="1">  1        2 0.17940285E+00 0.13035629E+04</pdfrwt>
<pdfrwt beam="2">  1       -1 0.56046429E-01 0.13035629E+04</pdfrwt>
<totfact> 0.71428071E+01</totfact>
</mgrwt>
</event>
<event>
12    7  0.1660832E-007  0.1421688E+04  0.7818608E-02  0.8938268E-01
          2   -1    0    0  501    0  0.00000000000E+00  0.00000000000E+00  0.19230733810E+04  0.19230733810E+04  0.00000000000E+00 0. -1.
         -1   -1    0    0    0  501 -0.00000000000E+00 -0.00000000000E+00 -0.26275590871E+03  0.26275590871E+03  0.00000000000E+00 0.  1.
         24    2    1    2    0    0  0.15555096317E+03 -0.32154587689E+03  0.83313128085E+03  0.91009514188E+03  0.81102299959E+02 0.  0.
        254    2    1    2    0    0 -0.15555096317E+03  0.32154587689E+03  0.82718619147E+03  0.12757341479E+04  0.90314603889E+03 0.  0.
         23    2    4    4    0    0  0.33044532304E+03  0.28270335232E+03  0.23925904844E+03  0.50651482247E+03  0.10098057331E+03 0.  0.
         23    2    4    4    0    0 -0.48599628621E+03  0.38842524572E+02  0.58792714303E+03  0.76921932539E+03  0.91317649534E+02 0.  0.
          4    1    3    3  502    0  0.13926242730E+03 -0.31580645870E+03  0.81491318398E+03  0.88499222621E+03  0.00000000000E+00 0. -1.
         -3    1    3    3    0  502  0.16288535873E+02 -0.57394181922E+01  0.18218096864E+02  0.25102915675E+02  0.00000000000E+00 0.  1.
         13    1    5    5    0    0  0.11492949264E+02  0.35190874923E+02 -0.38731035534E+00  0.37022095699E+02  0.00000000000E+00 0.  1.
        -13    1    5    5    0    0  0.31895237378E+03  0.24751247740E+03  0.23964635879E+03  0.46949272677E+03  0.00000000000E+00 0. -1.
          3    1    6    6  503    0 -0.48924046501E+03  0.38075014153E+02  0.57529617880E+03  0.75615582564E+03  0.00000000000E+00 0. -1.
         -3    1    6    6    0  503  0.32441788002E+01  0.76751041915E+00  0.12630964233E+02  0.13063499753E+02  0.00000000000E+00 0.  1.
<mgrwt>
<rscale>  0 0.14216876E+04</rscale>
<asrwt>0</asrwt>
<pdfrwt beam="1">  1        2 0.29585743E+00 0.14216876E+04</pdfrwt>
<pdfrwt beam="2">  1       -1 0.40423987E-01 0.14216876E+04</pdfrwt>
<totfact> 0.48774995E+01</totfact>
</mgrwt>
</event>
<event>
12    7  0.1660832E-007  0.2180078E+04  0.7818608E-02  0.8526766E-01
         -1   -1    0    0    0  501 -0.00000000000E+00  0.00000000000E+00  0.94676644128E+03  0.94676644128E+03  0.00000000000E+00 0.  1.
          2   -1    0    0  501    0  0.00000000000E+00 -0.00000000000E+00 -0.12549928606E+04  0.12549928606E+04  0.00000000000E+00 0. -1.
         24    2    1    2    0    0 -0.72987820654E+03  0.47607838127E+03 -0.37861569803E+03  0.95197341624E+03  0.59419836227E+02 0.  0.
        254    2    1    2    0    0  0.72987820654E+03 -0.47607838127E+03  0.70389278684E+02  0.12497858857E+04  0.89310541817E+03 0.  0.
         23    2    4    4    0    0  0.31911078052E+03 -0.68635609795E+03  0.13891800131E+03  0.77449456129E+03  0.87334019395E+02 0.  0.
         23    2    4    4    0    0  0.41076742602E+03  0.21027771668E+03 -0.68528722621E+02  0.47529132438E+03  0.90879374972E+02 0.  0.
          2    1    3    3  502    0 -0.54189578827E+03  0.32240200821E+03 -0.26725708981E+03  0.68485067883E+03  0.00000000000E+00 0. -1.
         -1    1    3    3    0  502 -0.18798241827E+03  0.15367637306E+03 -0.11135860822E+03  0.26712273740E+03  0.00000000000E+00 0.  1.
         13    1    5    5    0    0  0.30652645790E+03 -0.62203032974E+03  0.10724928466E+03  0.70169980017E+03  0.00000000000E+00 0. -1.
        -13    1    5    5    0    0  0.12584322623E+02 -0.64325768214E+02  0.31668716644E+02  0.72794761117E+02  0.00000000000E+00 0.  1.
          3    1    6    6  503    0  0.33722038109E+03  0.19143513520E+03 -0.86435238175E+02  0.39728585026E+03  0.00000000000E+00 0. -1.
         -3    1    6    6    0  503  0.73547044923E+02  0.18842581478E+02  0.17906515553E+02  0.78005474121E+02  0.00000000000E+00 0.  1.
<mgrwt>
<rscale>  0 0.21800781E+04</rscale>
<asrwt>0</asrwt>
<pdfrwt beam="1">  1        2 0.19307582E+00 0.21800781E+04</pdfrwt>
<pdfrwt beam="2">  1       -1 0.14565638E+00 0.21800781E+04</pdfrwt>
<totfact> 0.69217142E+00</totfact>
</mgrwt>
</event>
<event>
12    7  0.1660832E-007  0.2253539E+04  0.7818608E-02  0.8496469E-01
         -1   -1    0    0    0  501 -0.00000000000E+00  0.00000000000E+00  0.55911440124E+03  0.55911440124E+03  0.00000000000E+00 0.  1.
          2   -1    0    0  501    0  0.00000000000E+00 -0.00000000000E+00 -0.22707514750E+04  0.22707514750E+04  0.00000000000E+00 0. -1.
         24    2    1    2    0    0 -0.76902294716E+03 -0.27698069571E+03 -0.81691216207E+02  0.82558068263E+03  0.82434274851E+02 0.  0.
        254    2    1    2    0    0  0.76902294716E+03  0.27698069571E+03 -0.16299458576E+04  0.20042851937E+04  0.83205831512E+03 0.  0.
         23    2    4    4    0    0  0.15336254426E+03  0.47899931163E+03 -0.70342001303E+03  0.86939656655E+03  0.89945898574E+02 0.  0.
         23    2    4    4    0    0  0.61566040290E+03 -0.20201861592E+03 -0.92652584457E+03  0.11348886271E+04  0.98350406277E+02 0.  0.
          2    1    3    3  502    0 -0.18034982725E+02 -0.21963946861E+02 -0.23643519789E+01  0.28517814150E+02  0.00000000000E+00 0. -1.
         -1    1    3    3    0  502 -0.75098796444E+03 -0.25501674885E+03 -0.79326864228E+02  0.79706286848E+03  0.00000000000E+00 0.  1.
         13    1    5    5    0    0  0.15204429566E+03  0.48233775834E+03 -0.70264676143E+03  0.86572492879E+03  0.00000000000E+00 0. -1.
        -13    1    5    5    0    0  0.13182485984E+01 -0.33384467136E+01 -0.77325159594E+00  0.36716377623E+01  0.00000000000E+00 0.  1.
          1    1    6    6  503    0  0.20610524655E+03 -0.20079879074E+02 -0.30417712950E+03  0.36797595073E+03  0.00000000000E+00 0. -1.
         -1    1    6    6    0  503  0.40955515635E+03 -0.18193873684E+03 -0.62234871506E+03  0.76691267638E+03  0.00000000000E+00 0.  1.
<mgrwt>
<rscale>  0 0.22535393E+04</rscale>
<asrwt>0</asrwt>
<pdfrwt beam="1">  1        2 0.34934638E+00 0.22535393E+04</pdfrwt>
<pdfrwt beam="2">  1       -1 0.86017600E-01 0.22535393E+04</pdfrwt>
<totfact> 0.65066659E+00</totfact>
</mgrwt>
</event>
<event>
12    7  0.1660832E-007  0.2305595E+04  0.7818608E-02  0.8475718E-01
          2   -1    0    0  501    0  0.00000000000E+00  0.00000000000E+00  0.12082930578E+04  0.12082930578E+04  0.00000000000E+00 0. -1.
         -1   -1    0    0    0  501 -0.00000000000E+00 -0.00000000000E+00 -0.10998511051E+04  0.10998511051E+04  0.00000000000E+00 0.  1.
         24    2    1    2    0    0 -0.27980989381E+03 -0.55487024574E+03  0.80029755059E+03  0.10163458260E+04  0.79423562885E+02 0.  0.
        254    2    1    2    0    0  0.27980989381E+03  0.55487024574E+03 -0.69185559787E+03  0.12917983369E+04  0.89660705362E+03 0.  0.
         23    2    4    4    0    0  0.45872217692E+03  0.17503991160E+03 -0.70336670681E+03  0.86196369380E+03  0.84803767142E+02 0.  0.
         23    2    4    4    0    0 -0.17891228311E+03  0.37983033414E+03  0.11511108940E+02  0.42983464309E+03  0.91348929877E+02 0.  0.
          2    1    3    3  502    0 -0.18188221680E+03 -0.40168952330E+03  0.61507899244E+03  0.75680762473E+03  0.00000000000E+00 0. -1.
         -1    1    3    3    0  502 -0.97927677008E+02 -0.15318072244E+03  0.18521855815E+03  0.25953820130E+03  0.00000000000E+00 0.  1.
         13    1    5    5    0    0  0.42394613914E+03  0.15121819935E+03 -0.59790652891E+03  0.74839126800E+03  0.00000000000E+00 0. -1.
        -13    1    5    5    0    0  0.34776037782E+02  0.23821712255E+02 -0.10546017791E+03  0.11357242580E+03  0.00000000000E+00 0.  1.
          1    1    6    6  503    0 -0.17453198859E+03  0.36139202893E+03  0.31157446376E+02  0.40253745177E+03  0.00000000000E+00 0. -1.
         -1    1    6    6    0  503 -0.43802945242E+01  0.18438305206E+02 -0.19646337435E+02  0.27297191313E+02  0.00000000000E+00 0.  1.
<mgrwt>
<rscale>  0 0.23055953E+04</rscale>
<asrwt>0</asrwt>
<pdfrwt beam="1">  1        2 0.18589124E+00 0.23055953E+04</pdfrwt>
<pdfrwt beam="2">  1       -1 0.16920786E+00 0.23055953E+04</pdfrwt>
<totfact> 0.48241287E+00</totfact>
</mgrwt>
</event>
<event>
12    7  0.1660832E-007  0.1877588E+04  0.7818608E-02  0.8666093E-01
         -1   -1    0    0    0  501 -0.00000000000E+00  0.00000000000E+00  0.73105004087E+03  0.73105004087E+03  0.00000000000E+00 0.  1.
          2   -1    0    0  501    0  0.00000000000E+00 -0.00000000000E+00 -0.12055726691E+04  0.12055726691E+04  0.00000000000E+00 0. -1.
         24    2    1    2    0    0 -0.32969267236E+03  0.44708298898E+02  0.47303409431E+03  0.58458109911E+03  0.85309535596E+02 0.  0.
        254    2    1    2    0    0  0.32969267236E+03 -0.44708298898E+02 -0.94755672259E+03  0.13520416109E+04  0.90523846851E+03 0.  0.
         23    2    4    4    0    0  0.39412993447E+03 -0.40897993457E+03 -0.48245114889E+03  0.75070791851E+03  0.90555373818E+02 0.  0.
         23    2    4    4    0    0 -0.64437262106E+02  0.36427163568E+03 -0.46510557370E+03  0.60133369239E+03  0.91831528368E+02 0.  0.
          4    1    3    3  502    0 -0.10493511643E+03  0.44934096632E+02  0.11640169835E+03  0.16303314718E+03  0.00000000000E+00 0. -1.
         -3    1    3    3    0  502 -0.22475755593E+03 -0.22579773379E+00  0.35663239596E+03  0.42154795194E+03  0.00000000000E+00 0.  1.
         13    1    5    5    0    0  0.19355378500E+03 -0.26216442875E+03 -0.29214698098E+03  0.43765638792E+03  0.00000000000E+00 0.  1.
        -13    1    5    5    0    0  0.20057614946E+03 -0.14681550583E+03 -0.19030416791E+03  0.31305153060E+03  0.00000000000E+00 0. -1.
          4    1    6    6  503    0  0.57816433740E+01  0.19708896105E+03 -0.27751845339E+03  0.34043204600E+03  0.00000000000E+00 0.  1.
         -4    1    6    6    0  503 -0.70218905480E+02  0.16718267463E+03 -0.18758712031E+03  0.26090164639E+03  0.00000000000E+00 0. -1.
<mgrwt>
<rscale>  0 0.18775878E+04</rscale>
<asrwt>0</asrwt>
<pdfrwt beam="1">  1        2 0.18547272E+00 0.18775878E+04</pdfrwt>
<pdfrwt beam="2">  1       -1 0.11246924E+00 0.18775878E+04</pdfrwt>
<totfact> 0.14558727E+01</totfact>
</mgrwt>
</event>
<event>
12    7  0.1660832E-007  0.2082053E+04  0.7818608E-02  0.8569191E-01
          2   -1    0    0  501    0  0.00000000000E+00  0.00000000000E+00  0.40652881565E+04  0.40652881565E+04  0.00000000000E+00 0. -1.
         -3   -1    0    0    0  501 -0.00000000000E+00 -0.00000000000E+00 -0.26658286480E+03  0.26658286480E+03  0.00000000000E+00 0.  1.
         24    2    1    2    0    0  0.10560467307E+03 -0.84191073754E+03  0.18259410056E+04  0.20150351841E+04  0.79625373955E+02 0.  0.
        254    2    1    2    0    0 -0.10560467307E+03  0.84191073754E+03  0.19727642860E+04  0.23168358371E+04  0.86946151792E+03 0.  0.
         23    2    4    4    0    0 -0.13591779376E+03  0.74056422998E+03  0.68511837693E+03  0.10217235870E+04  0.87309062305E+02 0.  0.
         23    2    4    4    0    0  0.30313120686E+02  0.10134650756E+03  0.12876459091E+04  0.12951122502E+04  0.89965290618E+02 0.  0.
          2    1    3    3  502    0  0.82087091537E+02 -0.43411671788E+03  0.88045097061E+03  0.98508351270E+03  0.00000000000E+00 0. -1.
         -1    1    3    3    0  502  0.23517581536E+02 -0.40779401966E+03  0.94549003504E+03  0.10299516714E+04  0.00000000000E+00 0.  1.
         13    1    5    5    0    0 -0.41514797602E+02  0.39586610371E+03  0.40267775254E+03  0.56620033811E+03  0.00000000000E+00 0.  1.
        -13    1    5    5    0    0 -0.94402996158E+02  0.34469812628E+03  0.28244062439E+03  0.45552324886E+03  0.00000000000E+00 0. -1.
          3    1    6    6  503    0  0.27683354899E+02  0.95598759200E+02  0.66247684323E+03  0.66991123196E+03  0.00000000000E+00 0. -1.
         -3    1    6    6    0  503  0.26297657873E+01  0.57477483570E+01  0.62516906584E+03  0.62520101821E+03  0.00000000000E+00 0.  1.
<mgrwt>
<rscale>  0 0.20820530E+04</rscale>
<asrwt>0</asrwt>
<pdfrwt beam="1">  1        2 0.62542890E+00 0.20820530E+04</pdfrwt>
<pdfrwt beam="2">  1       -3 0.41012751E-01 0.20820530E+04</pdfrwt>
<totfact> 0.10823331E+00</totfact>
</mgrwt>
</event>
<event>
12    7  0.1660832E-007  0.3371406E+04  0.7818608E-02  0.8144960E-01
         -1   -1    0    0    0  501 -0.00000000000E+00  0.00000000000E+00  0.27673502784E+04  0.27673502784E+04  0.00000000000E+00 0.  1.
          2   -1    0    0  501    0  0.00000000000E+00 -0.00000000000E+00 -0.10268287873E+04  0.10268287873E+04  0.00000000000E+00 0. -1.
         24    2    1    2    0    0 -0.28265058063E+03  0.15109979076E+02 -0.91774161767E+03  0.96376201384E+03  0.80423133061E+02 0.  0.
        254    2    1    2    0    0  0.28265058063E+03 -0.15109979076E+02  0.26582631087E+04  0.28304170518E+04  0.92993455137E+03 0.  0.
         23    2    4    4    0    0  0.75447661028E+02 -0.97418420348E+02  0.25686881596E+04  0.25732341608E+04  0.90512357432E+02 0.  0.
         23    2    4    4    0    0  0.20720291960E+03  0.82308441271E+02  0.89574949108E+02  0.25718289101E+03  0.91714985269E+02 0.  0.
          2    1    3    3  502    0 -0.26461696891E+03 -0.82255270966E+01 -0.82917611019E+03  0.87041531537E+03  0.00000000000E+00 0. -1.
         -1    1    3    3    0  502 -0.18033611714E+02  0.23335506173E+02 -0.88565507480E+02  0.93346698468E+02  0.00000000000E+00 0.  1.
         13    1    5    5    0    0  0.12409357132E+02 -0.12672309047E+02  0.13106507338E+04  0.13107707372E+04  0.00000000000E+00 0. -1.
        -13    1    5    5    0    0  0.63038303896E+02 -0.84746111301E+02  0.12580374258E+04  0.12624634236E+04  0.00000000000E+00 0.  1.
          3    1    6    6  503    0  0.15451918730E+03  0.32307683824E+02  0.95177963388E+02  0.18433342180E+03  0.00000000000E+00 0. -1.
         -3    1    6    6    0  503  0.52683732297E+02  0.50000757448E+02 -0.56030142799E+01  0.72849469202E+02  0.00000000000E+00 0.  1.
<mgrwt>
<rscale>  0 0.33714062E+04</rscale>
<asrwt>0</asrwt>
<pdfrwt beam="1">  1        2 0.15797366E+00 0.33714062E+04</pdfrwt>
<pdfrwt beam="2">  1       -1 0.42574619E+00 0.33714062E+04</pdfrwt>
<totfact> 0.10891671E-01</totfact>
</mgrwt>
</event>
<event>
12    7  0.1660832E-007  0.1277004E+04  0.7818608E-02  0.9048003E-01
         -1   -1    0    0    0  501 -0.00000000000E+00  0.00000000000E+00  0.59580624936E+03  0.59580624936E+03  0.00000000000E+00 0.  1.
          2   -1    0    0  501    0  0.00000000000E+00 -0.00000000000E+00 -0.68425681780E+03  0.68425681780E+03  0.00000000000E+00 0. -1.
         24    2    1    2    0    0 -0.29637276095E+03  0.92306277549E+02 -0.53144967872E+02  0.32497737687E+03  0.80178834869E+02 0.  0.
        254    2    1    2    0    0  0.29637276095E+03 -0.92306277549E+02 -0.35305600570E+02  0.95508569029E+03  0.90254358790E+03 0.  0.
         23    2    4    4    0    0  0.60463397675E+03 -0.55275944060E+02  0.63165455230E+02  0.61719780429E+03  0.91134949670E+02 0.  0.
         23    2    4    4    0    0 -0.30826121581E+03 -0.37030333489E+02 -0.98471055799E+02  0.33788788600E+03  0.89863518204E+02 0.  0.
          2    1    3    3  502    0 -0.14772169437E+03  0.29411552457E+02  0.11599701039E+02  0.15106717535E+03  0.00000000000E+00 0. -1.
         -1    1    3    3    0  502 -0.14865106658E+03  0.62894725092E+02 -0.64744668911E+02  0.17391020152E+03  0.00000000000E+00 0.  1.
         13    1    5    5    0    0  0.55987893041E+03 -0.26115673429E+02  0.55384379065E+02  0.56321743098E+03  0.00000000000E+00 0.  1.
        -13    1    5    5    0    0  0.44755046342E+02 -0.29160270631E+02  0.77810761654E+01  0.53980373309E+02  0.00000000000E+00 0. -1.
          3    1    6    6  503    0 -0.19958676614E+01  0.11485904392E+02 -0.10184399312E+02  0.15480034779E+02  0.00000000000E+00 0. -1.
         -3    1    6    6    0  503 -0.30626534815E+03 -0.48516237881E+02 -0.88286656487E+02  0.32240785122E+03  0.00000000000E+00 0.  1.
<mgrwt>
<rscale>  0 0.12770035E+04</rscale>
<asrwt>0</asrwt>
<pdfrwt beam="1">  1        2 0.10527028E+00 0.12770035E+04</pdfrwt>
<pdfrwt beam="2">  1       -1 0.91662500E-01 0.12770035E+04</pdfrwt>
<totfact> 0.54878323E+01</totfact>
</mgrwt>
</event>
<event>
12    7  0.1660832E-007  0.1220914E+04  0.7818608E-02  0.9094745E-01
         -1   -1    0    0    0  501 -0.00000000000E+00  0.00000000000E+00  0.78506081142E+02  0.78506081142E+02  0.00000000000E+00 0.  1.
          2   -1    0    0  501    0  0.00000000000E+00 -0.00000000000E+00 -0.47468640716E+04  0.47468640716E+04  0.00000000000E+00 0. -1.
         24    2    1    2    0    0 -0.20001339929E+03 -0.17015713947E+03 -0.12751329513E+04  0.13046544223E+04  0.84854616444E+02 0.  0.
        254    2    1    2    0    0  0.20001339929E+03  0.17015713947E+03 -0.33932250391E+04  0.35207157305E+04  0.90139019116E+03 0.  0.
         23    2    4    4    0    0 -0.33184563112E+03  0.13539730088E+03 -0.97621795019E+03  0.10439509564E+04  0.91532295362E+02 0.  0.
         23    2    4    4    0    0  0.53185903041E+03  0.34759838590E+02 -0.24170070889E+04  0.24767647741E+04  0.91423211658E+02 0.  0.
          2    1    3    3  502    0 -0.18137482287E+03 -0.12981562793E+03 -0.11598757532E+04  0.11811268715E+04  0.00000000000E+00 0. -1.
         -1    1    3    3    0  502 -0.18638576417E+02 -0.40341511536E+02 -0.11525719812E+03  0.12352755078E+03  0.00000000000E+00 0.  1.
         13    1    5    5    0    0 -0.10841253077E+03  0.39814928902E+01 -0.34240142437E+03  0.35917664807E+03  0.00000000000E+00 0.  1.
        -13    1    5    5    0    0 -0.22343310035E+03  0.13141580799E+03 -0.63381652583E+03  0.68477430832E+03  0.00000000000E+00 0. -1.
          1    1    6    6  503    0  0.34136816448E+03 -0.11622951556E+02 -0.16604373289E+04  0.16952048371E+04  0.00000000000E+00 0. -1.
         -1    1    6    6    0  503  0.19049086593E+03  0.46382790146E+02 -0.75656976004E+03  0.78155993694E+03  0.00000000000E+00 0.  1.
<mgrwt>
<rscale>  0 0.12209139E+04</rscale>
<asrwt>0</asrwt>
<pdfrwt beam="1">  1        2 0.73028707E+00 0.12209139E+04</pdfrwt>
<pdfrwt beam="2">  1       -1 0.12077854E-01 0.12209139E+04</pdfrwt>
<totfact> 0.38193883E+00</totfact>
</mgrwt>
</event>
<event>
12    7  0.1660832E-007  0.2412196E+04  0.7818608E-02  0.8434952E-01
          2   -1    0    0  501    0  0.00000000000E+00  0.00000000000E+00  0.10559915021E+04  0.10559915021E+04  0.00000000000E+00 0. -1.
         -1   -1    0    0    0  501 -0.00000000000E+00 -0.00000000000E+00 -0.13775418726E+04  0.13775418726E+04  0.00000000000E+00 0.  1.
         24    2    1    2    0    0 -0.76930127064E+03 -0.58744728615E+03  0.19595492920E+03  0.99056446514E+03  0.76817096469E+02 0.  0.
        254    2    1    2    0    0  0.76930127064E+03  0.58744728615E+03 -0.51750529970E+03  0.14429689095E+04  0.93671168436E+03 0.  0.
         23    2    4    4    0    0  0.28378314943E+03 -0.31583875209E+02  0.21114495399E+03  0.36699927500E+03  0.92605934918E+02 0.  0.
         23    2    4    4    0    0  0.48551812121E+03  0.61903116136E+03 -0.72865025369E+03  0.10759696345E+04  0.88611723036E+02 0.  0.
          4    1    3    3  502    0 -0.72463883295E+03 -0.56358912308E+03  0.20076056511E+03  0.93970151771E+03  0.00000000000E+00 0. -1.
         -3    1    3    3    0  502 -0.44662437686E+02 -0.23858163068E+02 -0.48056359095E+01  0.50862947433E+02  0.00000000000E+00 0.  1.
         13    1    5    5    0    0  0.22313938529E+02 -0.20907999407E+02 -0.27373714753E+00  0.30579915368E+02  0.00000000000E+00 0. -1.
        -13    1    5    5    0    0  0.26146921090E+03 -0.10675875801E+02  0.21141869114E+03  0.33641935963E+03  0.00000000000E+00 0.  1.
          2    1    6    6  503    0  0.40296640828E+01 -0.29872551564E+01 -0.58983967328E+01  0.77429303243E+01  0.00000000000E+00 0. -1.
         -2    1    6    6    0  503  0.48148845712E+03  0.62201841652E+03 -0.72275185696E+03  0.10682267042E+04  0.00000000000E+00 0.  1.
<mgrwt>
<rscale>  0 0.24121961E+04</rscale>
<asrwt>0</asrwt>
<pdfrwt beam="1">  1        2 0.16246023E+00 0.24121961E+04</pdfrwt>
<pdfrwt beam="2">  1       -1 0.21192952E+00 0.24121961E+04</pdfrwt>
<totfact> 0.29646263E+00</totfact>
</mgrwt>
</event>
<event>
12    7  0.1660832E-007  0.2581177E+04  0.7818608E-02  0.8374623E-01
         -1   -1    0    0    0  501 -0.00000000000E+00  0.00000000000E+00  0.10807204503E+04  0.10807204503E+04  0.00000000000E+00 0.  1.
          2   -1    0    0  501    0  0.00000000000E+00 -0.00000000000E+00 -0.15412117676E+04  0.15412117676E+04  0.00000000000E+00 0. -1.
         24    2    1    2    0    0 -0.78950159748E+03  0.46536006248E+03  0.36394447923E+03  0.98927398224E+03  0.79590626349E+02 0.  0.
        254    2    1    2    0    0  0.78950159748E+03 -0.46536006248E+03 -0.82443579652E+03  0.16326582357E+04  0.10705165910E+04 0.  0.
         23    2    4    4    0    0  0.58317899621E+03 -0.76929676979E+03 -0.79173702698E+03  0.12521491074E+04  0.95470444220E+02 0.  0.
         23    2    4    4    0    0  0.20632260127E+03  0.30393670731E+03 -0.32698769544E+02  0.38050912823E+03  0.93656015807E+02 0.  0.
          2    1    3    3  502    0 -0.74647843974E+03  0.45129251254E+03  0.32972727898E+03  0.93253153908E+03  0.00000000000E+00 0. -1.
         -1    1    3    3    0  502 -0.43023157742E+02  0.14067549936E+02  0.34217200245E+02  0.56742443162E+02  0.00000000000E+00 0.  1.
         13    1    5    5    0    0  0.24462977157E+03 -0.28382229664E+03 -0.25573473570E+03  0.45365083077E+03  0.00000000000E+00 0. -1.
        -13    1    5    5    0    0  0.33854922464E+03 -0.48547447314E+03 -0.53600229128E+03  0.79849827666E+03  0.00000000000E+00 0.  1.
          3    1    6    6  503    0  0.11931363187E+03  0.23776460714E+03  0.13192527551E+01  0.26602535891E+03  0.00000000000E+00 0. -1.
         -3    1    6    6    0  503  0.87008969401E+02  0.66172100171E+02 -0.34018022299E+02  0.11448376932E+03  0.00000000000E+00 0.  1.
<mgrwt>
<rscale>  0 0.25811773E+04</rscale>
<asrwt>0</asrwt>
<pdfrwt beam="1">  1        2 0.23710950E+00 0.25811773E+04</pdfrwt>
<pdfrwt beam="2">  1       -1 0.16626469E+00 0.25811773E+04</pdfrwt>
<totfact> 0.31835772E+00</totfact>
</mgrwt>
</event>
<event>
12    7  0.1660832E-007  0.1943148E+04  0.7818608E-02  0.8633672E-01
          2   -1    0    0  501    0  0.00000000000E+00  0.00000000000E+00  0.21106507350E+04  0.21106507350E+04  0.00000000000E+00 0. -1.
         -1   -1    0    0    0  501 -0.00000000000E+00 -0.00000000000E+00 -0.44723463175E+03  0.44723463175E+03  0.00000000000E+00 0.  1.
         24    2    1    2    0    0 -0.22939218711E+03  0.71664979708E+03  0.99760562752E+03  0.12521891859E+04  0.80950985354E+02 0.  0.
        254    2    1    2    0    0  0.22939218711E+03 -0.71664979708E+03  0.66581047573E+03  0.13056961809E+04  0.83386522890E+03 0.  0.
         23    2    4    4    0    0 -0.21581967014E+03 -0.16631661620E+03 -0.52885205525E+02  0.29284311725E+03  0.93385756468E+02 0.  0.
         23    2    4    4    0    0  0.44521185725E+03 -0.55033318088E+03  0.71869568125E+03  0.10128530636E+04  0.90926555079E+02 0.  0.
          2    1    3    3  502    0 -0.11502119124E+03  0.36046463906E+03  0.43463779472E+03  0.57625918044E+03  0.00000000000E+00 0. -1.
         -1    1    3    3    0  502 -0.11437099588E+03  0.35618515802E+03  0.56296783280E+03  0.67593000544E+03  0.00000000000E+00 0.  1.
         13    1    5    5    0    0 -0.24511326411E+02  0.63435532677E+01 -0.21539651285E+02  0.33241575895E+02  0.00000000000E+00 0.  1.
        -13    1    5    5    0    0 -0.19130834373E+03 -0.17266016947E+03 -0.31345554240E+02  0.25960154135E+03  0.00000000000E+00 0. -1.
          3    1    6    6  503    0  0.38479047573E+03 -0.51744289253E+03  0.65320533600E+03  0.91787148786E+03  0.00000000000E+00 0. -1.
         -3    1    6    6    0  503  0.60421381526E+02 -0.32890288345E+02  0.65490345255E+02  0.94981575764E+02  0.00000000000E+00 0.  1.
<mgrwt>
<rscale>  0 0.19431481E+04</rscale>
<asrwt>0</asrwt>
<pdfrwt beam="1">  1        2 0.32471549E+00 0.19431481E+04</pdfrwt>
<pdfrwt beam="2">  1       -1 0.68805329E-01 0.19431481E+04</pdfrwt>
<totfact> 0.13164744E+01</totfact>
</mgrwt>
</event>
<event>
12    7  0.1660832E-007  0.3055542E+04  0.7818608E-02  0.8228046E-01
         -1   -1    0    0    0  501 -0.00000000000E+00  0.00000000000E+00  0.15296518768E+04  0.15296518768E+04  0.00000000000E+00 0.  1.
          2   -1    0    0  501    0  0.00000000000E+00 -0.00000000000E+00 -0.15258922024E+04  0.15258922024E+04  0.00000000000E+00 0. -1.
         24    2    1    2    0    0  0.12901252097E+04 -0.40930597625E+03 -0.32954003230E+03  0.13954234228E+04  0.81580986080E+02 0.  0.
        254    2    1    2    0    0 -0.12901252097E+04  0.40930597625E+03  0.33329970670E+03  0.16601206563E+04  0.90164153634E+03 0.  0.
         23    2    4    4    0    0 -0.12385351052E+04  0.41270039960E+03 -0.22945541605E+01  0.13085807296E+04  0.89930162350E+02 0.  0.
         23    2    4    4    0    0 -0.51590104457E+02 -0.33944233454E+01  0.33559426086E+03  0.35153992671E+03  0.91015115032E+02 0.  0.
          2    1    3    3  502    0  0.89389403846E+03 -0.28342057630E+03 -0.18934443975E+03  0.95667397368E+03  0.00000000000E+00 0. -1.
         -1    1    3    3    0  502  0.39623117123E+03 -0.12588539996E+03 -0.14019559255E+03  0.43874944917E+03  0.00000000000E+00 0.  1.
         13    1    5    5    0    0 -0.65145661997E+03  0.17892058587E+03 -0.27817269623E+02  0.67615242678E+03  0.00000000000E+00 0. -1.
        -13    1    5    5    0    0 -0.58707848525E+03  0.23377981373E+03  0.25522715463E+02  0.63242830278E+03  0.00000000000E+00 0.  1.
          3    1    6    6  503    0 -0.19892760681E+02 -0.73971773825E+01  0.30966919577E+03  0.31039563619E+03  0.00000000000E+00 0. -1.
         -3    1    6    6    0  503 -0.31697343776E+02  0.40027540372E+01  0.25925065091E+02  0.41144290519E+02  0.00000000000E+00 0.  1.
<mgrwt>
<rscale>  0 0.30555418E+04</rscale>
<asrwt>0</asrwt>
<pdfrwt beam="1">  1        2 0.23475265E+00 0.30555418E+04</pdfrwt>
<pdfrwt beam="2">  1       -1 0.23533106E+00 0.30555418E+04</pdfrwt>
<totfact> 0.10362943E+00</totfact>
</mgrwt>
</event>
<event>
12    7  0.1660832E-007  0.1719726E+04  0.7818608E-02  0.8750193E-01
          2   -1    0    0  501    0  0.00000000000E+00  0.00000000000E+00  0.21792602132E+04  0.21792602132E+04  0.00000000000E+00 0. -1.
         -1   -1    0    0    0  501 -0.00000000000E+00 -0.00000000000E+00 -0.33927310796E+03  0.33927310796E+03  0.00000000000E+00 0.  1.
         24    2    1    2    0    0  0.19382875221E+03 -0.41906012191E+03  0.66720247842E+02  0.47484910659E+03  0.88595212097E+02 0.  0.
        254    2    1    2    0    0 -0.19382875221E+03  0.41906012191E+03  0.17732668574E+04  0.20436842146E+04  0.90498002760E+03 0.  0.
         23    2    4    4    0    0  0.15594745883E+03  0.58793478160E+03  0.11291359848E+04  0.12855520648E+04  0.87801604681E+02 0.  0.
         23    2    4    4    0    0 -0.34977621104E+03 -0.16887465969E+03  0.64413087257E+03  0.75813214975E+03  0.94856349257E+02 0.  0.
          4    1    3    3  502    0 -0.58162016040E+01 -0.37512883075E+02  0.16197028249E+02  0.41272125240E+02  0.00000000000E+00 0. -1.
         -3    1    3    3    0  502  0.19964495381E+03 -0.38154723883E+03  0.50523219593E+02  0.43357698135E+03  0.00000000000E+00 0.  1.
         13    1    5    5    0    0  0.11627364423E+03  0.39820496263E+03  0.84856658385E+03  0.94453798220E+03  0.00000000000E+00 0. -1.
        -13    1    5    5    0    0  0.39673814600E+02  0.18972981896E+03  0.28056940097E+03  0.34101408260E+03  0.00000000000E+00 0.  1.
          4    1    6    6  503    0 -0.32978602349E+03 -0.15821972942E+03  0.54445240767E+03  0.65591213458E+03  0.00000000000E+00 0. -1.
         -4    1    6    6    0  503 -0.19990187545E+02 -0.10654930270E+02  0.99678464900E+02  0.10222001517E+03  0.00000000000E+00 0.  1.
<mgrwt>
<rscale>  0 0.17197260E+04</rscale>
<asrwt>0</asrwt>
<pdfrwt beam="1">  1        2 0.33527079E+00 0.17197260E+04</pdfrwt>
<pdfrwt beam="2">  1       -1 0.52195864E-01 0.17197260E+04</pdfrwt>
<totfact> 0.21225568E+01</totfact>
</mgrwt>
</event>
<event>
12    7  0.1660832E-007  0.2470771E+04  0.7818608E-02  0.8413473E-01
          2   -1    0    0  501    0  0.00000000000E+00  0.00000000000E+00  0.27632339016E+04  0.27632339016E+04  0.00000000000E+00 0. -1.
         -1   -1    0    0    0  501 -0.00000000000E+00 -0.00000000000E+00 -0.55231579422E+03  0.55231579422E+03  0.00000000000E+00 0.  1.
         24    2    1    2    0    0  0.87316689158E+03 -0.48525550401E+03  0.14953922792E+04  0.18001659612E+04  0.80660364880E+02 0.  0.
        254    2    1    2    0    0 -0.87316689158E+03  0.48525550401E+03  0.71552582817E+03  0.15153837346E+04  0.88685812146E+03 0.  0.
         23    2    4    4    0    0 -0.14480482350E+03 -0.18312510081E+03 -0.58897696668E+02  0.25614161015E+03  0.87386190690E+02 0.  0.
         23    2    4    4    0    0 -0.72836206808E+03  0.66838060482E+03  0.77442352483E+03  0.12592421244E+04  0.93354148509E+02 0.  0.
          4    1    3    3  502    0  0.73344702178E+03 -0.37517318846E+03  0.12508857644E+04  0.14978032750E+04  0.00000000000E+00 0. -1.
         -3    1    3    3    0  502  0.13971986980E+03 -0.11008231555E+03  0.24450651480E+03  0.30236268618E+03  0.00000000000E+00 0.  1.
         13    1    5    5    0    0 -0.11777081925E+03 -0.16211717863E+03 -0.15660303508E+02  0.20099052361E+03  0.00000000000E+00 0. -1.
        -13    1    5    5    0    0 -0.27034004251E+02 -0.21007922184E+02 -0.43237393159E+02  0.55151086549E+02  0.00000000000E+00 0.  1.
          4    1    6    6  503    0 -0.41097127541E+03  0.43368888469E+03  0.48995746850E+03  0.77268477328E+03  0.00000000000E+00 0. -1.
         -4    1    6    6    0  503 -0.31739079267E+03  0.23469172013E+03  0.28446605634E+03  0.48655735117E+03  0.00000000000E+00 0.  1.
<mgrwt>
<rscale>  0 0.24707713E+04</rscale>
<asrwt>0</asrwt>
<pdfrwt beam="1">  1        2 0.42511290E+00 0.24707713E+04</pdfrwt>
<pdfrwt beam="2">  1       -1 0.84971662E-01 0.24707713E+04</pdfrwt>
<totfact> 0.33902970E+00</totfact>
</mgrwt>
</event>
<event>
12    7  0.1660832E-007  0.1261592E+04  0.7818608E-02  0.9060590E-01
         -1   -1    0    0    0  501 -0.00000000000E+00  0.00000000000E+00  0.45478641897E+03  0.45478641897E+03  0.00000000000E+00 0.  1.
          2   -1    0    0  501    0  0.00000000000E+00 -0.00000000000E+00 -0.87492462936E+03  0.87492462936E+03  0.00000000000E+00 0. -1.
         24    2    1    2    0    0 -0.12278075285E+03  0.15724580574E+02 -0.39088998592E+03  0.41779431560E+03  0.80216789673E+02 0.  0.
        254    2    1    2    0    0  0.12278075285E+03 -0.15724580574E+02 -0.29248224457E+02  0.91191673273E+03  0.90300293084E+03 0.  0.
         23    2    4    4    0    0 -0.10646486872E+03 -0.26356028646E+03  0.30556447471E+03  0.42776274502E+03  0.93875049701E+02 0.  0.
         23    2    4    4    0    0  0.22924562158E+03  0.24783570588E+03 -0.33481269916E+03  0.48415398771E+03  0.91265810522E+02 0.  0.
          4    1    3    3  502    0 -0.96282694539E+02  0.43032630781E+02 -0.32527520904E+03  0.34194462446E+03  0.00000000000E+00 0. -1.
         -3    1    3    3    0  502 -0.26498058315E+02 -0.27308050208E+02 -0.65614776882E+02  0.75849691139E+02  0.00000000000E+00 0.  1.
         13    1    5    5    0    0 -0.65361620771E+01 -0.13335488600E+03  0.11457039137E+03  0.17593357159E+03  0.00000000000E+00 0. -1.
        -13    1    5    5    0    0 -0.99928706646E+02 -0.13020540046E+03  0.19099408334E+03  0.25182917343E+03  0.00000000000E+00 0.  1.
          3    1    6    6  503    0  0.76459849906E+02  0.13758901996E+03 -0.11679113148E+03  0.19600259043E+03  0.00000000000E+00 0. -1.
         -3    1    6    6    0  503  0.15278577167E+03  0.11024668593E+03 -0.21802156768E+03  0.28815139728E+03  0.00000000000E+00 0.  1.
<mgrwt>
<rscale>  0 0.12615924E+04</rscale>
<asrwt>0</asrwt>
<pdfrwt beam="1">  1        2 0.13460379E+00 0.12615924E+04</pdfrwt>
<pdfrwt beam="2">  1       -1 0.69967143E-01 0.12615924E+04</pdfrwt>
<totfact> 0.70668808E+01</totfact>
</mgrwt>
</event>
<event>
12    7  0.1660832E-007  0.1730615E+04  0.7818608E-02  0.8744094E-01
          2   -1    0    0  501    0  0.00000000000E+00  0.00000000000E+00  0.15086522472E+04  0.15086522472E+04  0.00000000000E+00 0. -1.
         -1   -1    0    0    0  501 -0.00000000000E+00 -0.00000000000E+00 -0.49630836511E+03  0.49630836511E+03  0.00000000000E+00 0.  1.
         24    2    1    2    0    0 -0.15759385349E+03  0.91192905951E+02  0.10734392096E+04  0.10917769196E+04  0.80951445923E+02 0.  0.
        254    2    1    2    0    0  0.15759385349E+03 -0.91192905951E+02 -0.61095327504E+02  0.91318369276E+03  0.89275968151E+03 0.  0.
         23    2    4    4    0    0  0.39624079924E+03  0.23436052327E+03  0.80052105866E+02  0.47608040237E+03  0.91173373388E+02 0.  0.
         23    2    4    4    0    0 -0.23864694575E+03 -0.32555342922E+03 -0.14114743337E+03  0.43710329039E+03  0.90549922850E+02 0.  0.
          4    1    3    3  502    0 -0.12160929134E+03  0.26397084306E+02  0.71611272135E+03  0.72684458825E+03  0.00000000000E+00 0. -1.
         -3    1    3    3    0  502 -0.35984562150E+02  0.64795821645E+02  0.35732648826E+03  0.36493233130E+03  0.00000000000E+00 0.  1.
         13    1    5    5    0    0  0.27196964911E+03  0.16713696709E+03  0.97354878140E+02  0.33373676468E+03  0.00000000000E+00 0. -1.
        -13    1    5    5    0    0  0.12427115013E+03  0.67223556181E+02 -0.17302772274E+02  0.14234363769E+03  0.00000000000E+00 0.  1.
          4    1    6    6  503    0 -0.12919634689E+03 -0.22846517318E+03 -0.12239266377E+03  0.28959971607E+03  0.00000000000E+00 0. -1.
         -4    1    6    6    0  503 -0.10945059887E+03 -0.97088256045E+02 -0.18754769597E+02  0.14750357432E+03  0.00000000000E+00 0.  1.
<mgrwt>
<rscale>  0 0.17306146E+04</rscale>
<asrwt>0</asrwt>
<pdfrwt beam="1">  1        2 0.23210034E+00 0.17306146E+04</pdfrwt>
<pdfrwt beam="2">  1       -1 0.76355134E-01 0.17306146E+04</pdfrwt>
<totfact> 0.23377874E+01</totfact>
</mgrwt>
</event>
<event>
12    7  0.1660832E-007  0.1566690E+04  0.7818608E-02  0.8841277E-01
         -1   -1    0    0    0  501 -0.00000000000E+00  0.00000000000E+00  0.23813941397E+03  0.23813941397E+03  0.00000000000E+00 0.  1.
          2   -1    0    0  501    0  0.00000000000E+00 -0.00000000000E+00 -0.25767645068E+04  0.25767645068E+04  0.00000000000E+00 0. -1.
         24    2    1    2    0    0  0.44747573168E+03 -0.75416439498E+02 -0.30696989422E+03  0.55372622065E+03  0.80374384507E+02 0.  0.
        254    2    1    2    0    0 -0.44747573168E+03  0.75416439498E+02 -0.20316551986E+04  0.22611777001E+04  0.88282477067E+03 0.  0.
         23    2    4    4    0    0  0.13735732623E+03 -0.26271138088E+03 -0.59993704504E+03  0.67541052684E+03  0.91491076291E+02 0.  0.
         23    2    4    4    0    0 -0.58483305791E+03  0.33812782037E+03 -0.14317181536E+04  0.15857671733E+04  0.92089782670E+02 0.  0.
          4    1    3    3  502    0  0.88300050845E+02  0.16059330632E+02 -0.69827494156E+02  0.11371314796E+03  0.00000000000E+00 0. -1.
         -3    1    3    3    0  502  0.35917568083E+03 -0.91475770130E+02 -0.23714240007E+03  0.44001307268E+03  0.00000000000E+00 0.  1.
         13    1    5    5    0    0  0.11620066241E+03 -0.14617652086E+03 -0.30558449844E+03  0.35812296056E+03  0.00000000000E+00 0. -1.
        -13    1    5    5    0    0  0.21156663821E+02 -0.11653486002E+03 -0.29435254660E+03  0.31728756628E+03  0.00000000000E+00 0.  1.
          3    1    6    6  503    0 -0.48460098352E+03  0.26175555353E+03 -0.12335747730E+04  0.13509481129E+04  0.00000000000E+00 0. -1.
         -3    1    6    6    0  503 -0.10023207439E+03  0.76372266840E+02 -0.19814338055E+03  0.23481906042E+03  0.00000000000E+00 0.  1.
<mgrwt>
<rscale>  0 0.15666897E+04</rscale>
<asrwt>0</asrwt>
<pdfrwt beam="1">  1        2 0.39642534E+00 0.15666897E+04</pdfrwt>
<pdfrwt beam="2">  1       -1 0.36636830E-01 0.15666897E+04</pdfrwt>
<totfact> 0.24639199E+01</totfact>
</mgrwt>
</event>
<event>
12    7  0.1660832E-007  0.2739069E+04  0.7818608E-02  0.8322439E-01
          2   -1    0    0  501    0  0.00000000000E+00  0.00000000000E+00  0.21970118648E+04  0.21970118648E+04  0.00000000000E+00 0. -1.
         -1   -1    0    0    0  501 -0.00000000000E+00 -0.00000000000E+00 -0.85371607045E+03  0.85371607045E+03  0.00000000000E+00 0.  1.
         24    2    1    2    0    0  0.78304856932E+02 -0.79244795940E+03 -0.43265170327E+03  0.90976756729E+03  0.79900633091E+02 0.  0.
        254    2    1    2    0    0 -0.78304856932E+02  0.79244795940E+03  0.17759474977E+04  0.21409603680E+04  0.89197329775E+03 0.  0.
         23    2    4    4    0    0  0.20624019523E+03  0.28177900873E+02  0.95147020512E+03  0.97820623883E+03  0.90900397282E+02 0.  0.
         23    2    4    4    0    0 -0.28454505217E+03  0.76427005853E+03  0.82447729254E+03  0.11627541292E+04  0.84615305385E+02 0.  0.
          2    1    3    3  502    0  0.14408401076E+02 -0.18124062086E+02 -0.92329656456E+01  0.24926518062E+02  0.00000000000E+00 0. -1.
         -3    1    3    3    0  502  0.63896455856E+02 -0.77432389731E+03 -0.42341873763E+03  0.88484104923E+03  0.00000000000E+00 0.  1.
         13    1    5    5    0    0  0.38721122833E+02 -0.28640374184E+02  0.15412763927E+03  0.16147732216E+03  0.00000000000E+00 0. -1.
        -13    1    5    5    0    0  0.16751907240E+03  0.56818275057E+02  0.79734256585E+03  0.81672891667E+03  0.00000000000E+00 0.  1.
          3    1    6    6  503    0 -0.63987468996E+01  0.56614676503E+02  0.83315638700E+02  0.10093394478E+03  0.00000000000E+00 0. -1.
         -3    1    6    6    0  503 -0.27814630527E+03  0.70765538202E+03  0.74116165384E+03  0.10618201844E+04  0.00000000000E+00 0.  1.
<mgrwt>
<rscale>  0 0.27390687E+04</rscale>
<asrwt>0</asrwt>
<pdfrwt beam="1">  1        2 0.33800182E+00 0.27390687E+04</pdfrwt>
<pdfrwt beam="2">  1       -1 0.13134093E+00 0.27390687E+04</pdfrwt>
<totfact> 0.25473048E+00</totfact>
</mgrwt>
</event>
<event>
12    7  0.1660832E-007  0.2514261E+04  0.7818608E-02  0.8397923E-01
          2   -1    0    0  501    0  0.00000000000E+00  0.00000000000E+00  0.31160505908E+04  0.31160505908E+04  0.00000000000E+00 0. -1.
         -1   -1    0    0    0  501 -0.00000000000E+00 -0.00000000000E+00 -0.50717291852E+03  0.50717291852E+03  0.00000000000E+00 0.  1.
         24    2    1    2    0    0 -0.42318754626E+03  0.86530488423E+03  0.38983983212E+03  0.10422233036E+04  0.80087938202E+02 0.  0.
        254    2    1    2    0    0  0.42318754626E+03 -0.86530488423E+03  0.22190378401E+04  0.25810002057E+04  0.89977379603E+03 0.  0.
         23    2    4    4    0    0 -0.16120065189E+03  0.60987909483E+02  0.18190775236E+03  0.26623421596E+03  0.89916917825E+02 0.  0.
         23    2    4    4    0    0  0.58438819814E+03 -0.92629279371E+03  0.20371300878E+04  0.23147659898E+04  0.93352487959E+02 0.  0.
          2    1    3    3  502    0 -0.70846395731E+02  0.20385277876E+03  0.64808691313E+02  0.22533382717E+03  0.00000000000E+00 0. -1.
         -1    1    3    3    0  502 -0.35234115053E+03  0.66145210547E+03  0.32503114081E+03  0.81688947641E+03  0.00000000000E+00 0.  1.
         13    1    5    5    0    0 -0.78589568858E+02  0.46373928854E+02  0.15177198896E+03  0.17709206149E+03  0.00000000000E+00 0. -1.
        -13    1    5    5    0    0 -0.82611083027E+02  0.14613980628E+02  0.30135763401E+02  0.89142154475E+02  0.00000000000E+00 0.  1.
          3    1    6    6  503    0  0.60957820559E+02 -0.92446737217E+02  0.15233900136E+03  0.18833328555E+03  0.00000000000E+00 0. -1.
         -3    1    6    6    0  503  0.52343037758E+03 -0.83384605649E+03  0.18847910864E+04  0.21264327042E+04  0.00000000000E+00 0.  1.
<mgrwt>
<rscale>  0 0.25142605E+04</rscale>
<asrwt>0</asrwt>
<pdfrwt beam="1">  1        2 0.47939239E+00 0.25142605E+04</pdfrwt>
<pdfrwt beam="2">  1       -1 0.78026605E-01 0.25142605E+04</pdfrwt>
<totfact> 0.24497608E+00</totfact>
</mgrwt>
</event>
<event>
12    7  0.1660832E-007  0.1530933E+04  0.7818608E-02  0.8864140E-01
          2   -1    0    0  501    0  0.00000000000E+00  0.00000000000E+00  0.17365765255E+04  0.17365765255E+04  0.00000000000E+00 0. -1.
         -1   -1    0    0    0  501 -0.00000000000E+00 -0.00000000000E+00 -0.33741034670E+03  0.33741034670E+03  0.00000000000E+00 0.  1.
         24    2    1    2    0    0 -0.23060006557E+03 -0.44075123409E+03  0.54319138878E+03  0.74077051104E+03  0.79031794843E+02 0.  0.
        254    2    1    2    0    0  0.23060006557E+03  0.44075123409E+03  0.85597479000E+03  0.13332163611E+04  0.89293615891E+03 0.  0.
         23    2    4    4    0    0  0.38950513033E+03  0.34061139856E+03  0.96118059163E+03  0.10953861135E+04  0.90951836425E+02 0.  0.
         23    2    4    4    0    0 -0.15890506477E+03  0.10013983552E+03 -0.10520580163E+03  0.23783024762E+03  0.10107502027E+03 0.  0.
          4    1    3    3  502    0 -0.21577831973E+03 -0.43751277331E+03  0.51953374891E+03  0.71266613945E+03  0.00000000000E+00 0. -1.
         -3    1    3    3    0  502 -0.14821745843E+02 -0.32384607801E+01  0.23657639872E+02  0.28104371588E+02  0.00000000000E+00 0.  1.
         13    1    5    5    0    0 -0.71047330156E+00 -0.43437344393E+01  0.60541012178E+01  0.74849811454E+01  0.00000000000E+00 0.  1.
        -13    1    5    5    0    0  0.39021560364E+03  0.34495513300E+03  0.95512649041E+03  0.10879011324E+04  0.00000000000E+00 0. -1.
          4    1    6    6  503    0  0.93765346075E+01  0.25354646166E+02 -0.25527036131E+02  0.37180735026E+02  0.00000000000E+00 0. -1.
         -4    1    6    6    0  503 -0.16828159937E+03  0.74785189357E+02 -0.79678765497E+02  0.20064951260E+03  0.00000000000E+00 0.  1.
<mgrwt>
<rscale>  0 0.15309329E+04</rscale>
<asrwt>0</asrwt>
<pdfrwt beam="1">  1        2 0.26716561E+00 0.15309329E+04</pdfrwt>
<pdfrwt beam="2">  1       -1 0.51909285E-01 0.15309329E+04</pdfrwt>
<totfact> 0.38392458E+01</totfact>
</mgrwt>
</event>
<event>
12    7  0.1660832E-007  0.1457918E+04  0.7818608E-02  0.8912930E-01
          2   -1    0    0  501    0  0.00000000000E+00  0.00000000000E+00  0.40827424748E+04  0.40827424748E+04  0.00000000000E+00 0. -1.
         -1   -1    0    0    0  501 -0.00000000000E+00 -0.00000000000E+00 -0.13015297435E+03  0.13015297435E+03  0.00000000000E+00 0.  1.
         24    2    1    2    0    0  0.66670513150E+02  0.26713810263E+03  0.21090572239E+04  0.21287388092E+04  0.87171216707E+02 0.  0.
        254    2    1    2    0    0 -0.66670513150E+02 -0.26713810263E+03  0.18435322766E+04  0.20841566400E+04  0.93235718579E+03 0.  0.
         23    2    4    4    0    0 -0.43837912487E+03  0.36983520002E+02  0.11545042418E+04  0.12395148853E+04  0.99865252620E+02 0.  0.
         23    2    4    4    0    0  0.37170861172E+03 -0.30412162263E+03  0.68902803476E+03  0.84464175464E+03  0.89458412759E+02 0.  0.
          4    1    3    3  502    0  0.34618852319E+02  0.25012850573E+03  0.18405256180E+04  0.18577667466E+04  0.00000000000E+00 0. -1.
         -3    1    3    3    0  502  0.32051660831E+02  0.17009596900E+02  0.26853160584E+03  0.27097206255E+03  0.00000000000E+00 0.  1.
         13    1    5    5    0    0 -0.53077495766E+02 -0.26448400339E+02  0.12233971494E+03  0.13595493477E+03  0.00000000000E+00 0. -1.
        -13    1    5    5    0    0 -0.38530162911E+03  0.63431920341E+02  0.10321645269E+04  0.11035599505E+04  0.00000000000E+00 0.  1.
          2    1    6    6  503    0  0.12709243054E+02 -0.91787917748E+01  0.28090399023E+01  0.15926888668E+02  0.00000000000E+00 0. -1.
         -2    1    6    6    0  503  0.35899936867E+03 -0.29494283086E+03  0.68621899486E+03  0.82871486597E+03  0.00000000000E+00 0.  1.
<mgrwt>
<rscale>  0 0.14579178E+04</rscale>
<asrwt>0</asrwt>
<pdfrwt beam="1">  1        2 0.62811413E+00 0.14579178E+04</pdfrwt>
<pdfrwt beam="2">  1       -1 0.20023538E-01 0.14579178E+04</pdfrwt>
<totfact> 0.67751704E+00</totfact>
</mgrwt>
</event>
<event>
12    7  0.1660832E-007  0.2287951E+04  0.7818608E-02  0.8482687E-01
         -1   -1    0    0    0  501 -0.00000000000E+00  0.00000000000E+00  0.13100124650E+04  0.13100124650E+04  0.00000000000E+00 0.  1.
          2   -1    0    0  501    0  0.00000000000E+00 -0.00000000000E+00 -0.99898271825E+03  0.99898271825E+03  0.00000000000E+00 0. -1.
         24    2    1    2    0    0  0.82552287488E+01  0.29944966491E+03 -0.79215113057E+03  0.85070789271E+03  0.80388148693E+02 0.  0.
        254    2    1    2    0    0 -0.82552287488E+01 -0.29944966491E+03  0.11031808773E+04  0.14582872905E+04  0.90545873622E+03 0.  0.
         23    2    4    4    0    0 -0.38994371372E+03 -0.37997385450E+03  0.63347489247E+03  0.84068446498E+03  0.94993159209E+02 0.  0.
         23    2    4    4    0    0  0.38168848497E+03  0.80524189591E+02  0.46970598480E+03  0.61760282550E+03  0.92947798464E+02 0.  0.
          2    1    3    3  502    0  0.13359814945E+02  0.28266224567E+03 -0.67006820218E+03  0.72737048700E+03  0.00000000000E+00 0. -1.
         -1    1    3    3    0  502 -0.51045861960E+01  0.16787419237E+02 -0.12208292839E+03  0.12333740572E+03  0.00000000000E+00 0.  1.
         13    1    5    5    0    0 -0.25480944148E+03 -0.27586065055E+03  0.37283239441E+03  0.52917950103E+03  0.00000000000E+00 0.  1.
        -13    1    5    5    0    0 -0.13513427225E+03 -0.10411320395E+03  0.26064249807E+03  0.31150496396E+03  0.00000000000E+00 0. -1.
          2    1    6    6  503    0  0.73884939791E+02  0.17287945819E+02  0.15655616254E+03  0.17397611741E+03  0.00000000000E+00 0. -1.
         -2    1    6    6    0  503  0.30780354518E+03  0.63236243772E+02  0.31314982226E+03  0.44362670809E+03  0.00000000000E+00 0.  1.
<mgrwt>
<rscale>  0 0.22879509E+04</rscale>
<asrwt>0</asrwt>
<pdfrwt beam="1">  1        2 0.15368965E+00 0.22879509E+04</pdfrwt>
<pdfrwt beam="2">  1       -1 0.20154038E+00 0.22879509E+04</pdfrwt>
<totfact> 0.38340557E+00</totfact>
</mgrwt>
</event>
<event>
12    7  0.1660832E-007  0.3678291E+04  0.7818608E-02  0.8072790E-01
         -1   -1    0    0    0  501 -0.00000000000E+00  0.00000000000E+00  0.12139217732E+04  0.12139217732E+04  0.00000000000E+00 0.  1.
          2   -1    0    0  501    0  0.00000000000E+00 -0.00000000000E+00 -0.27863876925E+04  0.27863876925E+04  0.00000000000E+00 0. -1.
         24    2    1    2    0    0  0.27326050045E+03  0.15212830395E+04 -0.15841382973E+04  0.22147126093E+04  0.80525831959E+02 0.  0.
        254    2    1    2    0    0 -0.27326050045E+03 -0.15212830395E+04  0.11672378004E+02  0.17855968563E+04  0.89400587343E+03 0.  0.
         23    2    4    4    0    0 -0.19136709552E+03 -0.58327842218E+03 -0.41592518444E+03  0.74728632643E+03  0.92779370493E+02 0.  0.
         23    2    4    4    0    0 -0.81893404928E+02 -0.93800461728E+03  0.42759756244E+03  0.10383105299E+04  0.93219575839E+02 0.  0.
          2    1    3    3  502    0  0.10555233922E+03  0.67026178817E+03 -0.64230270275E+03  0.93431521606E+03  0.00000000000E+00 0. -1.
         -1    1    3    3    0  502  0.16770816123E+03  0.85102125129E+03 -0.94183559454E+03  0.12803973932E+04  0.00000000000E+00 0.  1.
         13    1    5    5    0    0 -0.19259438437E+03 -0.58654235364E+03 -0.41350179148E+03  0.74303987851E+03  0.00000000000E+00 0.  1.
        -13    1    5    5    0    0  0.12272888429E+01  0.32639314602E+01 -0.24233929559E+01  0.42464479156E+01  0.00000000000E+00 0. -1.
          1    1    6    6  503    0  0.16695528721E+02 -0.83242971751E+02  0.26136889333E+02  0.88832820563E+02  0.00000000000E+00 0. -1.
         -1    1    6    6    0  503 -0.98588933649E+02 -0.85476164553E+03  0.40146067311E+03  0.94947770935E+03  0.00000000000E+00 0.  1.
<mgrwt>
<rscale>  0 0.36782913E+04</rscale>
<asrwt>0</asrwt>
<pdfrwt beam="1">  1        2 0.42867502E+00 0.36782913E+04</pdfrwt>
<pdfrwt beam="2">  1       -1 0.18675720E+00 0.36782913E+04</pdfrwt>
<totfact> 0.40363424E-01</totfact>
</mgrwt>
</event>
<event>
12    7  0.1660832E-007  0.2611535E+04  0.7818608E-02  0.8364294E-01
         -1   -1    0    0    0  501 -0.00000000000E+00  0.00000000000E+00  0.23318594417E+04  0.23318594417E+04  0.00000000000E+00 0.  1.
          2   -1    0    0  501    0  0.00000000000E+00 -0.00000000000E+00 -0.73118858396E+03  0.73118858396E+03  0.00000000000E+00 0. -1.
         24    2    1    2    0    0 -0.61681817576E+03 -0.95995601448E+03  0.56574362163E+03  0.12756009167E+04  0.71495745843E+02 0.  0.
        254    2    1    2    0    0  0.61681817576E+03  0.95995601448E+03  0.10349272361E+04  0.17874471090E+04  0.90659393974E+03 0.  0.
         23    2    4    4    0    0  0.92176751471E+02  0.53317567903E+03  0.95505356012E+03  0.11018072554E+04  0.95284138350E+02 0.  0.
         23    2    4    4    0    0  0.52464142429E+03  0.42678033545E+03  0.79873676012E+02  0.68563985361E+03  0.79574656367E+02 0.  0.
          2    1    3    3  502    0 -0.34131584867E+03 -0.50116386662E+03  0.33590921317E+03  0.69317871379E+03  0.00000000000E+00 0. -1.
         -3    1    3    3    0  502 -0.27550232709E+03 -0.45879214786E+03  0.22983440846E+03  0.58242220295E+03  0.00000000000E+00 0.  1.
         13    1    5    5    0    0 -0.10600363191E+02  0.32393235156E+02  0.99249086992E+02  0.10493841362E+03  0.00000000000E+00 0.  1.
        -13    1    5    5    0    0  0.10277711466E+03  0.50078244388E+03  0.85580447313E+03  0.99686884174E+03  0.00000000000E+00 0. -1.
          3    1    6    6  503    0  0.16161766708E+03  0.10602067079E+03 -0.73065661854E+01  0.19342708925E+03  0.00000000000E+00 0. -1.
         -3    1    6    6    0  503  0.36302375721E+03  0.32075966465E+03  0.87180242197E+02  0.49221276436E+03  0.00000000000E+00 0.  1.
<mgrwt>
<rscale>  0 0.26115352E+04</rscale>
<asrwt>0</asrwt>
<pdfrwt beam="1">  1        2 0.11249055E+00 0.26115352E+04</pdfrwt>
<pdfrwt beam="2">  1       -1 0.35874760E+00 0.26115352E+04</pdfrwt>
<totfact> 0.53086849E-01</totfact>
</mgrwt>
</event>
<event>
12    7  0.1660832E-007  0.1387987E+04  0.7818608E-02  0.8962560E-01
          2   -1    0    0  501    0  0.00000000000E+00  0.00000000000E+00  0.90434464128E+03  0.90434464128E+03  0.00000000000E+00 0. -1.
         -1   -1    0    0    0  501 -0.00000000000E+00 -0.00000000000E+00 -0.53257045940E+03  0.53257045940E+03  0.00000000000E+00 0.  1.
         24    2    1    2    0    0  0.75946462608E+02  0.92571727625E+02  0.48579605045E+03  0.50736279834E+03  0.84153529765E+02 0.  0.
        254    2    1    2    0    0 -0.75946462608E+02 -0.92571727625E+02 -0.11402186857E+03  0.92955230234E+03  0.91472897972E+03 0.  0.
         23    2    4    4    0    0  0.20574737558E+03 -0.30281000310E+03 -0.33388801316E+03  0.50375265930E+03  0.90882649005E+02 0.  0.
         23    2    4    4    0    0 -0.28169383818E+03  0.21023827548E+03  0.21986614459E+03  0.42579964304E+03  0.97018882322E+02 0.  0.
          2    1    3    3  502    0  0.17543106730E+02  0.35120885210E+02  0.32032748373E+03  0.32272423833E+03  0.00000000000E+00 0. -1.
         -1    1    3    3    0  502  0.58403355878E+02  0.57450842415E+02  0.16546856672E+03  0.18463856001E+03  0.00000000000E+00 0.  1.
         13    1    5    5    0    0  0.20676781268E+03 -0.30556300257E+03 -0.31644695649E+03  0.48606620246E+03  0.00000000000E+00 0. -1.
        -13    1    5    5    0    0 -0.10204371026E+01  0.27529994735E+01 -0.17441056667E+02  0.17686456843E+02  0.00000000000E+00 0.  1.
          2    1    6    6  503    0 -0.18978761876E+03  0.94699689967E+02  0.16336490949E+03  0.26772273935E+03  0.00000000000E+00 0. -1.
         -2    1    6    6    0  503 -0.91906219424E+02  0.11553858551E+03  0.56501235104E+02  0.15807690368E+03  0.00000000000E+00 0.  1.
<mgrwt>
<rscale>  0 0.13879874E+04</rscale>
<asrwt>0</asrwt>
<pdfrwt beam="1">  1        2 0.13912994E+00 0.13879874E+04</pdfrwt>
<pdfrwt beam="2">  1       -1 0.81933917E-01 0.13879874E+04</pdfrwt>
<totfact> 0.48005323E+01</totfact>
</mgrwt>
</event>
<event>
12    7  0.1660832E-007  0.1529564E+04  0.7818608E-02  0.8865028E-01
          2   -1    0    0  501    0  0.00000000000E+00  0.00000000000E+00  0.17254448570E+04  0.17254448570E+04  0.00000000000E+00 0. -1.
         -1   -1    0    0    0  501 -0.00000000000E+00 -0.00000000000E+00 -0.33898022739E+03  0.33898022739E+03  0.00000000000E+00 0.  1.
         24    2    1    2    0    0  0.58406120226E+02 -0.14159418477E+03  0.10893946496E+04  0.11030550520E+04  0.80557787457E+02 0.  0.
        254    2    1    2    0    0 -0.58406120226E+02  0.14159418477E+03  0.29706998001E+03  0.96137003239E+03  0.90139978817E+03 0.  0.
         23    2    4    4    0    0 -0.31680226190E+03  0.41148641513E+03  0.14015010921E+03  0.54594322590E+03  0.93419536587E+02 0.  0.
         23    2    4    4    0    0  0.25839614168E+03 -0.26989223036E+03  0.15691987080E+03  0.41542680649E+03  0.91352086201E+02 0.  0.
          2    1    3    3  502    0  0.77001392090E+01 -0.77190939279E+02  0.74556278700E+03  0.74958762171E+03  0.00000000000E+00 0. -1.
         -1    1    3    3    0  502  0.50705981017E+02 -0.64403245488E+02  0.34383186262E+03  0.35346743031E+03  0.00000000000E+00 0.  1.
         13    1    5    5    0    0 -0.19684833436E+03  0.17913459768E+03  0.71750167275E+02  0.27565659312E+03  0.00000000000E+00 0. -1.
        -13    1    5    5    0    0 -0.11995392754E+03  0.23235181745E+03  0.68399941933E+02  0.27028663279E+03  0.00000000000E+00 0.  1.
          3    1    6    6  503    0  0.17620665673E+03 -0.22695583041E+03  0.14528386493E+03  0.32197070712E+03  0.00000000000E+00 0.  1.
         -3    1    6    6    0  503  0.82189484946E+02 -0.42936399952E+02  0.11636005868E+02  0.93456099369E+02  0.00000000000E+00 0. -1.
<mgrwt>
<rscale>  0 0.15295642E+04</rscale>
<asrwt>0</asrwt>
<pdfrwt beam="1">  1        2 0.26545305E+00 0.15295642E+04</pdfrwt>
<pdfrwt beam="2">  1       -1 0.52150805E-01 0.15295642E+04</pdfrwt>
<totfact> 0.38601743E+01</totfact>
</mgrwt>
</event>
<event>
12    7  0.1660832E-007  0.1396472E+04  0.7818608E-02  0.8956376E-01
         -1   -1    0    0    0  501 -0.00000000000E+00  0.00000000000E+00  0.51112185939E+03  0.51112185939E+03  0.00000000000E+00 0.  1.
          2   -1    0    0  501    0  0.00000000000E+00 -0.00000000000E+00 -0.95385040328E+03  0.95385040328E+03  0.00000000000E+00 0. -1.
         24    2    1    2    0    0  0.35743774434E+03  0.13313952079E+03 -0.22252837755E+03  0.44917844000E+03  0.82185881208E+02 0.  0.
        254    2    1    2    0    0 -0.35743774434E+03 -0.13313952079E+03 -0.22020016633E+03  0.10157938227E+04  0.91534753172E+03 0.  0.
         23    2    4    4    0    0 -0.12407529322E+03 -0.46153986370E+03 -0.33167976147E+03  0.58785408941E+03  0.84541363220E+02 0.  0.
         23    2    4    4    0    0 -0.23336245112E+03  0.32840034290E+03  0.11147959513E+03  0.42793973326E+03  0.91650948470E+02 0.  0.
          4    1    3    3  502    0  0.34342848768E+02 -0.60581843928E+01 -0.39219715663E+02  0.52481605885E+02  0.00000000000E+00 0. -1.
         -3    1    3    3    0  502  0.32309489557E+03  0.13919770518E+03 -0.18330866189E+03  0.39669683412E+03  0.00000000000E+00 0.  1.
         13    1    5    5    0    0 -0.47221687710E+02 -0.32612713036E+03 -0.23122544103E+03  0.40255930932E+03  0.00000000000E+00 0. -1.
        -13    1    5    5    0    0 -0.76853605511E+02 -0.13541273334E+03 -0.10045432044E+03  0.18529478008E+03  0.00000000000E+00 0.  1.
          1    1    6    6  503    0 -0.23074736460E+03  0.28767618932E+03  0.11667812672E+03  0.38680191497E+03  0.00000000000E+00 0. -1.
         -1    1    6    6    0  503 -0.26150865228E+01  0.40724153582E+02 -0.51985315852E+01  0.41137818283E+02  0.00000000000E+00 0.  1.
<mgrwt>
<rscale>  0 0.13964724E+04</rscale>
<asrwt>0</asrwt>
<pdfrwt beam="1">  1        2 0.14674621E+00 0.13964724E+04</pdfrwt>
<pdfrwt beam="2">  1       -1 0.78634133E-01 0.13964724E+04</pdfrwt>
<totfact> 0.48532253E+01</totfact>
</mgrwt>
</event>
<event>
12    7  0.1660832E-007  0.1300549E+04  0.7818608E-02  0.9029130E-01
         -1   -1    0    0    0  501 -0.00000000000E+00  0.00000000000E+00  0.19537262992E+03  0.19537262992E+03  0.00000000000E+00 0.  1.
          2   -1    0    0  501    0  0.00000000000E+00 -0.00000000000E+00 -0.21643612918E+04  0.21643612918E+04  0.00000000000E+00 0. -1.
         24    2    1    2    0    0  0.74906598692E+02  0.20882770395E+03 -0.39038640961E+02  0.23943337014E+03  0.81143790787E+02 0.  0.
        254    2    1    2    0    0 -0.74906598692E+02 -0.20882770395E+03 -0.19299500209E+04  0.21203005516E+04  0.84955714189E+03 0.  0.
         23    2    4    4    0    0 -0.12333521563E+03  0.27640738892E+03 -0.11746897938E+04  0.12167094100E+04  0.94196904413E+02 0.  0.
         23    2    4    4    0    0  0.48428616937E+02 -0.48523509287E+03 -0.75526022713E+03  0.90359114153E+03  0.90887370327E+02 0.  0.
          4    1    3    3  502    0  0.29878336147E+02  0.32399592888E+02 -0.36671342479E+02  0.57334422029E+02  0.00000000000E+00 0. -1.
         -3    1    3    3    0  502  0.45028262545E+02  0.17642811106E+03 -0.23672984827E+01  0.18209894811E+03  0.00000000000E+00 0.  1.
         13    1    5    5    0    0 -0.13599998678E+03  0.22103219370E+03 -0.99251675690E+03  0.10258853444E+04  0.00000000000E+00 0.  1.
        -13    1    5    5    0    0  0.12664771150E+02  0.55375195223E+02 -0.18217303689E+03  0.19082406568E+03  0.00000000000E+00 0. -1.
          2    1    6    6  503    0  0.72887982014E+01  0.12579763449E+01 -0.16440295629E+02  0.18027545703E+02  0.00000000000E+00 0. -1.
         -2    1    6    6    0  503  0.41139818736E+02 -0.48649306922E+03 -0.73881993150E+03  0.88556359583E+03  0.00000000000E+00 0.  1.
<mgrwt>
<rscale>  0 0.13005490E+04</rscale>
<asrwt>0</asrwt>
<pdfrwt beam="1">  1        2 0.33297865E+00 0.13005490E+04</pdfrwt>
<pdfrwt beam="2">  1       -1 0.30057328E-01 0.13005490E+04</pdfrwt>
<totfact> 0.61511414E+01</totfact>
</mgrwt>
</event>
<event>
12    7  0.1660832E-007  0.2284672E+04  0.7818608E-02  0.8483989E-01
          2   -1    0    0  501    0  0.00000000000E+00  0.00000000000E+00  0.27406468044E+04  0.27406468044E+04  0.00000000000E+00 0. -1.
         -1   -1    0    0    0  501 -0.00000000000E+00 -0.00000000000E+00 -0.47614004007E+03  0.47614004007E+03  0.00000000000E+00 0.  1.
         24    2    1    2    0    0  0.57640296890E+03 -0.77263305520E+03  0.93931937160E+03  0.13483227260E+04  0.80318559036E+02 0.  0.
        254    2    1    2    0    0 -0.57640296890E+03  0.77263305520E+03  0.13251873928E+04  0.18684641185E+04  0.89768274786E+03 0.  0.
         23    2    4    4    0    0 -0.29525101063E+03 -0.38056881315E+02  0.80023959051E+03  0.85855474789E+03  0.90063130148E+02 0.  0.
         23    2    4    4    0    0 -0.28115195826E+03  0.81068993652E+03  0.52494780226E+03  0.10099093707E+04  0.89900751061E+02 0.  0.
          4    1    3    3  502    0  0.21894223503E+03 -0.23949487084E+03  0.34344550033E+03  0.47249159478E+03  0.00000000000E+00 0. -1.
         -3    1    3    3    0  502  0.35746073386E+03 -0.53313818436E+03  0.59587387127E+03  0.87583113118E+03  0.00000000000E+00 0.  1.
         13    1    5    5    0    0 -0.23171706324E+03 -0.66864075684E+02  0.62909694916E+03  0.67374073163E+03  0.00000000000E+00 0. -1.
        -13    1    5    5    0    0 -0.63533947394E+02  0.28807194369E+02  0.17114264135E+03  0.18481401626E+03  0.00000000000E+00 0.  1.
          3    1    6    6  503    0 -0.23982363721E+03  0.73191461860E+03  0.44061709948E+03  0.88733185124E+03  0.00000000000E+00 0. -1.
         -3    1    6    6    0  503 -0.41328321051E+02  0.78775317923E+02  0.84330702776E+02  0.12257751941E+03  0.00000000000E+00 0.  1.
<mgrwt>
<rscale>  0 0.22846721E+04</rscale>
<asrwt>0</asrwt>
<pdfrwt beam="1">  1        2 0.42163796E+00 0.22846721E+04</pdfrwt>
<pdfrwt beam="2">  1       -1 0.73252316E-01 0.22846721E+04</pdfrwt>
<totfact> 0.48719812E+00</totfact>
</mgrwt>
</event>
<event>
12    7  0.1660832E-007  0.2943424E+04  0.7818608E-02  0.8260074E-01
          2   -1    0    0  501    0  0.00000000000E+00  0.00000000000E+00  0.17832042238E+04  0.17832042238E+04  0.00000000000E+00 0. -1.
         -1   -1    0    0    0  501 -0.00000000000E+00 -0.00000000000E+00 -0.12146317521E+04  0.12146317521E+04  0.00000000000E+00 0.  1.
         24    2    1    2    0    0 -0.66061261813E+02 -0.11645376742E+04 -0.37651783378E+03  0.12281988771E+04  0.78706529006E+02 0.  0.
        254    2    1    2    0    0  0.66061261813E+02  0.11645376742E+04  0.94509030549E+03  0.17696370989E+04  0.93696728402E+03 0.  0.
         23    2    4    4    0    0  0.30145617612E+03  0.11130939636E+03  0.57372275557E+01  0.33596686761E+03  0.97853014817E+02 0.  0.
         23    2    4    4    0    0 -0.23539491431E+03  0.10532282778E+04  0.93935307793E+03  0.14336702313E+04  0.91244485592E+02 0.  0.
          2    1    3    3  502    0  0.10822716866E+02 -0.29801054903E+03 -0.11755829388E+03  0.32054230765E+03  0.00000000000E+00 0. -1.
         -1    1    3    3    0  502 -0.76883978679E+02 -0.86652712514E+03 -0.25895953991E+03  0.90765656946E+03  0.00000000000E+00 0.  1.
         13    1    5    5    0    0  0.26046679722E+03  0.11933257414E+03 -0.19504381326E+02  0.28716482479E+03  0.00000000000E+00 0. -1.
        -13    1    5    5    0    0  0.40989378906E+02 -0.80231777758E+01  0.25241608882E+02  0.48802042822E+02  0.00000000000E+00 0.  1.
          4    1    6    6  503    0 -0.44318929473E+02  0.28525460575E+03  0.29949720227E+03  0.41597227285E+03  0.00000000000E+00 0. -1.
         -4    1    6    6    0  503 -0.19107598484E+03  0.76797367206E+03  0.63985587566E+03  0.10176979584E+04  0.00000000000E+00 0.  1.
<mgrwt>
<rscale>  0 0.29434242E+04</rscale>
<asrwt>0</asrwt>
<pdfrwt beam="1">  1        2 0.27433911E+00 0.29434242E+04</pdfrwt>
<pdfrwt beam="2">  1       -1 0.18686642E+00 0.29434242E+04</pdfrwt>
<totfact> 0.16042607E+00</totfact>
</mgrwt>
</event>
<event>
12    7  0.1660832E-007  0.2706663E+04  0.7818608E-02  0.8332846E-01
         -1   -1    0    0    0  501 -0.00000000000E+00  0.00000000000E+00  0.80410451893E+03  0.80410451893E+03  0.00000000000E+00 0.  1.
          2   -1    0    0  501    0  0.00000000000E+00 -0.00000000000E+00 -0.22776967314E+04  0.22776967314E+04  0.00000000000E+00 0. -1.
         24    2    1    2    0    0 -0.94320404815E+03  0.63000962238E+03 -0.10930102297E+04  0.15772108496E+04  0.79854249800E+02 0.  0.
        254    2    1    2    0    0  0.94320404815E+03 -0.63000962238E+03 -0.38058198275E+03  0.15045904007E+04  0.91236156623E+03 0.  0.
         23    2    4    4    0    0  0.94013409632E+03 -0.13901360965E+03 -0.25681596410E+03  0.98873786959E+03  0.92039299311E+02 0.  0.
         23    2    4    4    0    0  0.30699518319E+01 -0.49099601273E+03 -0.12376601864E+03  0.51585253111E+03  0.98485010829E+02 0.  0.
          4    1    3    3  502    0 -0.81990892835E+03  0.57232848455E+03 -0.98323099342E+03  0.14023386650E+04  0.00000000000E+00 0. -1.
         -3    1    3    3    0  502 -0.12329511979E+03  0.57681137828E+02 -0.10977923630E+03  0.17487218461E+03  0.00000000000E+00 0.  1.
         13    1    5    5    0    0  0.69249028014E+03 -0.79279629356E+02 -0.15274636819E+03  0.71355413300E+03  0.00000000000E+00 0. -1.
        -13    1    5    5    0    0  0.24764381617E+03 -0.59733980297E+02 -0.10406959591E+03  0.27518373659E+03  0.00000000000E+00 0.  1.
          2    1    6    6  503    0  0.35938627782E+01 -0.48609276028E+03 -0.10615214928E+03  0.49756141957E+03  0.00000000000E+00 0. -1.
         -2    1    6    6    0  503 -0.52391094635E+00 -0.49032524475E+01 -0.17613869365E+02  0.18291111537E+02  0.00000000000E+00 0.  1.
<mgrwt>
<rscale>  0 0.27066631E+04</rscale>
<asrwt>0</asrwt>
<pdfrwt beam="1">  1        2 0.35041488E+00 0.27066631E+04</pdfrwt>
<pdfrwt beam="2">  1       -1 0.12370839E+00 0.27066631E+04</pdfrwt>
<totfact> 0.26724329E+00</totfact>
</mgrwt>
</event>
<event>
12    7  0.1660832E-007  0.1083449E+04  0.7818608E-02  0.9221475E-01
          2   -1    0    0  501    0  0.00000000000E+00  0.00000000000E+00  0.23775681709E+03  0.23775681709E+03  0.00000000000E+00 0. -1.
         -1   -1    0    0    0  501 -0.00000000000E+00 -0.00000000000E+00 -0.12343099687E+04  0.12343099687E+04  0.00000000000E+00 0.  1.
         24    2    1    2    0    0  0.12421228193E+03 -0.39779279609E+02 -0.55357306741E+02  0.15951111959E+03  0.73268573028E+02 0.  0.
        254    2    1    2    0    0 -0.12421228193E+03  0.39779279609E+02 -0.94119584491E+03  0.13125556662E+04  0.90550630944E+03 0.  0.
         23    2    4    4    0    0  0.22214556885E+03 -0.12390281140E+03  0.22186811910E+02  0.27080518456E+03  0.90236538755E+02 0.  0.
         23    2    4    4    0    0 -0.34635785079E+03  0.16368209101E+03 -0.96338265682E+03  0.10417504817E+04  0.10189374324E+03 0.  0.
          4    1    3    3  502    0  0.66726956886E+02 -0.36159206191E+02 -0.66425743822E+02  0.10085809045E+03  0.00000000000E+00 0. -1.
         -3    1    3    3    0  502  0.57485325048E+02 -0.36200734181E+01  0.11068437081E+02  0.58653029136E+02  0.00000000000E+00 0.  1.
         13    1    5    5    0    0  0.18026440416E+03 -0.54303556323E+02  0.22251593989E+02  0.18957654145E+03  0.00000000000E+00 0. -1.
        -13    1    5    5    0    0  0.41881164699E+02 -0.69599255075E+02 -0.64782079209E-01  0.81228643102E+02  0.00000000000E+00 0.  1.
          3    1    6    6  503    0 -0.33982033351E+03  0.17326833400E+03 -0.90294189936E+03  0.98020602337E+03  0.00000000000E+00 0. -1.
         -3    1    6    6    0  503 -0.65375172756E+01 -0.95862429897E+01 -0.60440757463E+02  0.61544458317E+02  0.00000000000E+00 0.  1.
<mgrwt>
<rscale>  0 0.10834493E+04</rscale>
<asrwt>0</asrwt>
<pdfrwt beam="1">  1        2 0.36577972E-01 0.10834493E+04</pdfrwt>
<pdfrwt beam="2">  1       -1 0.18989384E+00 0.10834493E+04</pdfrwt>
<totfact> 0.28748929E+01</totfact>
</mgrwt>
</event>
<event>
12    7  0.1660832E-007  0.1895414E+04  0.7818608E-02  0.8657142E-01
         -1   -1    0    0    0  501 -0.00000000000E+00  0.00000000000E+00  0.64684548699E+03  0.64684548699E+03  0.00000000000E+00 0.  1.
          2   -1    0    0  501    0  0.00000000000E+00 -0.00000000000E+00 -0.13885056041E+04  0.13885056041E+04  0.00000000000E+00 0. -1.
         24    2    1    2    0    0 -0.35343055499E+03  0.38583325311E+03 -0.83872810750E+03  0.99182828118E+03  0.80486300906E+02 0.  0.
        254    2    1    2    0    0  0.35343055499E+03 -0.38583325311E+03  0.97067990369E+02  0.10435228099E+04  0.89762865577E+03 0.  0.
         23    2    4    4    0    0  0.54711358127E+02 -0.61933317387E+03  0.15925539448E+03  0.64890165678E+03  0.95625135507E+02 0.  0.
         23    2    4    4    0    0  0.29871919687E+03  0.23349992076E+03 -0.62187404113E+02  0.39462115314E+03  0.90017829913E+02 0.  0.
          4    1    3    3  502    0 -0.32316058131E+03  0.33166749057E+03 -0.69342814063E+03  0.83383371954E+03  0.00000000000E+00 0. -1.
         -3    1    3    3    0  502 -0.30269973686E+02  0.54165762538E+02 -0.14529996686E+03  0.15799456164E+03  0.00000000000E+00 0.  1.
         13    1    5    5    0    0  0.81480093796E+02 -0.41010468052E+03  0.10643743608E+03  0.43145542350E+03  0.00000000000E+00 0. -1.
        -13    1    5    5    0    0 -0.26768735669E+02 -0.20922849335E+03  0.52817958405E+02  0.21744623328E+03  0.00000000000E+00 0.  1.
          3    1    6    6  503    0  0.24180588433E+03  0.22825510640E+03 -0.54269051988E+02  0.33692077600E+03  0.00000000000E+00 0. -1.
         -3    1    6    6    0  503  0.56913312537E+02  0.52448143545E+01 -0.79183521257E+01  0.57700377139E+02  0.00000000000E+00 0.  1.
<mgrwt>
<rscale>  0 0.18954140E+04</rscale>
<asrwt>0</asrwt>
<pdfrwt beam="1">  1        2 0.21361624E+00 0.18954140E+04</pdfrwt>
<pdfrwt beam="2">  1       -1 0.99514692E-01 0.18954140E+04</pdfrwt>
<totfact> 0.15120690E+01</totfact>
</mgrwt>
</event>
<event>
12    7  0.1660832E-007  0.1364693E+04  0.7818608E-02  0.8979779E-01
          2   -1    0    0  501    0  0.00000000000E+00  0.00000000000E+00  0.15406598815E+04  0.15406598815E+04  0.00000000000E+00 0. -1.
         -1   -1    0    0    0  501 -0.00000000000E+00 -0.00000000000E+00 -0.30220626870E+03  0.30220626870E+03  0.00000000000E+00 0.  1.
         24    2    1    2    0    0  0.26888804028E+03  0.17023096376E+03  0.70989226490E+02  0.33575666967E+03  0.80085652394E+02 0.  0.
        254    2    1    2    0    0 -0.26888804028E+03 -0.17023096376E+03  0.11674643863E+04  0.15071094805E+04  0.89840221156E+03 0.  0.
         23    2    4    4    0    0  0.52550490801E+02 -0.37113217895E+03  0.14203345093E+03  0.41027017926E+03  0.87449816899E+02 0.  0.
         23    2    4    4    0    0 -0.32143853108E+03  0.20090121519E+03  0.10254309353E+04  0.10968393012E+04  0.88678193674E+02 0.  0.
          2    1    3    3  502    0  0.32230918099E+02  0.57635261482E+02  0.11854017256E+02  0.67090783068E+02  0.00000000000E+00 0. -1.
         -1    1    3    3    0  502  0.23665712218E+03  0.11259570228E+03  0.59135209233E+02  0.26866588660E+03  0.00000000000E+00 0.  1.
         13    1    5    5    0    0  0.23416676232E+02 -0.24748636578E+03  0.13537922821E+03  0.28306426374E+03  0.00000000000E+00 0.  1.
        -13    1    5    5    0    0  0.29133814569E+02 -0.12364581317E+03  0.66542227170E+01  0.12720591553E+03  0.00000000000E+00 0. -1.
          4    1    6    6  503    0 -0.17580444833E+03  0.58144859612E+02  0.50504779460E+03  0.53792313911E+03  0.00000000000E+00 0. -1.
         -4    1    6    6    0  503 -0.14563408276E+03  0.14275635557E+03  0.52038314073E+03  0.55891616212E+03  0.00000000000E+00 0.  1.
<mgrwt>
<rscale>  0 0.13646935E+04</rscale>
<asrwt>0</asrwt>
<pdfrwt beam="1">  1        2 0.23702459E+00 0.13646935E+04</pdfrwt>
<pdfrwt beam="2">  1       -1 0.46493273E-01 0.13646935E+04</pdfrwt>
<totfact> 0.61658059E+01</totfact>
</mgrwt>
</event>
<event>
12    7  0.1660832E-007  0.1466632E+04  0.7818608E-02  0.8906950E-01
         -1   -1    0    0    0  501 -0.00000000000E+00  0.00000000000E+00  0.23021591082E+03  0.23021591082E+03  0.00000000000E+00 0.  1.
          2   -1    0    0  501    0  0.00000000000E+00 -0.00000000000E+00 -0.23358617041E+04  0.23358617041E+04  0.00000000000E+00 0. -1.
         24    2    1    2    0    0 -0.22862243856E+03  0.35241825192E+02 -0.13345659648E+04  0.13575311734E+04  0.91183148729E+02 0.  0.
        254    2    1    2    0    0  0.22862243856E+03 -0.35241825192E+02 -0.77107982846E+03  0.12085464415E+04  0.90139347337E+03 0.  0.
         23    2    4    4    0    0 -0.11519253134E+03  0.33424654317E+03 -0.12857303460E+03  0.38656207306E+03  0.88933346957E+02 0.  0.
         23    2    4    4    0    0  0.34381496989E+03 -0.36948836837E+03 -0.64250679386E+03  0.82198436848E+03  0.90071826824E+02 0.  0.
          4    1    3    3  502    0 -0.16844468087E+03 -0.14862369236E+02 -0.84668216122E+03  0.86340325611E+03  0.00000000000E+00 0. -1.
         -3    1    3    3    0  502 -0.60177757686E+02  0.50104194428E+02 -0.48788380358E+03  0.49412791725E+03  0.00000000000E+00 0.  1.
         13    1    5    5    0    0 -0.10336527531E+03  0.17662705347E+03 -0.53218665877E+02  0.21145619536E+03  0.00000000000E+00 0.  1.
        -13    1    5    5    0    0 -0.11827256029E+02  0.15761948970E+03 -0.75354368725E+02  0.17510587770E+03  0.00000000000E+00 0. -1.
          4    1    6    6  503    0  0.20887821526E+03 -0.27727370666E+03 -0.40120912977E+03  0.53054649468E+03  0.00000000000E+00 0. -1.
         -4    1    6    6    0  503  0.13493675464E+03 -0.92214661707E+02 -0.24129766409E+03  0.29143787379E+03  0.00000000000E+00 0.  1.
<mgrwt>
<rscale>  0 0.14666322E+04</rscale>
<asrwt>0</asrwt>
<pdfrwt beam="1">  1        2 0.35936333E+00 0.14666322E+04</pdfrwt>
<pdfrwt beam="2">  1       -1 0.35417834E-01 0.14666322E+04</pdfrwt>
<totfact> 0.36318633E+01</totfact>
</mgrwt>
</event>
<event>
12    7  0.1660832E-007  0.1773458E+04  0.7818608E-02  0.8720543E-01
         -1   -1    0    0    0  501 -0.00000000000E+00  0.00000000000E+00  0.98119887245E+03  0.98119887245E+03  0.00000000000E+00 0.  1.
          2   -1    0    0  501    0  0.00000000000E+00 -0.00000000000E+00 -0.80135479828E+03  0.80135479828E+03  0.00000000000E+00 0. -1.
         24    2    1    2    0    0 -0.21857083070E+03  0.54840384569E+03 -0.20930312729E+03  0.63150853101E+03  0.80468873774E+02 0.  0.
        254    2    1    2    0    0  0.21857083070E+03 -0.54840384569E+03  0.38914720147E+03  0.11510451397E+04  0.90826724221E+03 0.  0.
         23    2    4    4    0    0  0.27453105872E+03 -0.30982553049E+03 -0.22667347364E+03  0.48211319021E+03  0.98453557497E+02 0.  0.
         23    2    4    4    0    0 -0.55960228021E+02 -0.23857831520E+03  0.61582067510E+03  0.66893194951E+03  0.90463747340E+02 0.  0.
          4    1    3    3  502    0 -0.12529906117E+03  0.26567344574E+03 -0.65837209721E+02  0.30102619934E+03  0.00000000000E+00 0. -1.
         -3    1    3    3    0  502 -0.93271769527E+02  0.28273039995E+03 -0.14346591757E+03  0.33048233167E+03  0.00000000000E+00 0.  1.
         13    1    5    5    0    0  0.82855024394E+02 -0.57517577350E+02 -0.17317303574E+02  0.10233824200E+03  0.00000000000E+00 0. -1.
        -13    1    5    5    0    0  0.19167603432E+03 -0.25230795314E+03 -0.20935617006E+03  0.37977494822E+03  0.00000000000E+00 0.  1.
          4    1    6    6  503    0 -0.71334740652E+02 -0.14179664357E+03  0.43834759605E+03  0.46620118866E+03  0.00000000000E+00 0.  1.
         -4    1    6    6    0  503  0.15374512631E+02 -0.96781671632E+02  0.17747307906E+03  0.20273076084E+03  0.00000000000E+00 0. -1.
<mgrwt>
<rscale>  0 0.17734581E+04</rscale>
<asrwt>0</asrwt>
<pdfrwt beam="1">  1        2 0.12328535E+00 0.17734581E+04</pdfrwt>
<pdfrwt beam="2">  1       -1 0.15095367E+00 0.17734581E+04</pdfrwt>
<totfact> 0.12730607E+01</totfact>
</mgrwt>
</event>
<event>
12    7  0.1660832E-007  0.2074440E+04  0.7818608E-02  0.8572587E-01
          2   -1    0    0  501    0  0.00000000000E+00  0.00000000000E+00  0.63489591355E+03  0.63489591355E+03  0.00000000000E+00 0. -1.
         -1   -1    0    0    0  501 -0.00000000000E+00 -0.00000000000E+00 -0.16944906599E+04  0.16944906599E+04  0.00000000000E+00 0.  1.
         24    2    1    2    0    0 -0.80094334923E+03  0.22036804897E+03 -0.29884152689E+03  0.88626007976E+03  0.77963742147E+02 0.  0.
        254    2    1    2    0    0  0.80094334923E+03 -0.22036804897E+03 -0.76075321951E+03  0.14431264937E+04  0.90210658474E+03 0.  0.
         23    2    4    4    0    0  0.66703353939E+03 -0.37759379284E+03 -0.14205022331E+03  0.78468823970E+03  0.89702578140E+02 0.  0.
         23    2    4    4    0    0  0.13390980985E+03  0.15722574387E+03 -0.61870299620E+03  0.65843825403E+03  0.89976470049E+02 0.  0.
          2    1    3    3  502    0 -0.58551576662E+03  0.15186955594E+03 -0.25264630213E+03  0.65553278252E+03  0.00000000000E+00 0. -1.
         -1    1    3    3    0  502 -0.21542758261E+03  0.68498493032E+02 -0.46195224754E+02  0.23072729723E+03  0.00000000000E+00 0.  1.
         13    1    5    5    0    0  0.56104001124E+03 -0.31749150355E+03 -0.15235997529E+03  0.66240494496E+03  0.00000000000E+00 0. -1.
        -13    1    5    5    0    0  0.10599352815E+03 -0.60102289283E+02  0.10309751977E+02  0.12228329474E+03  0.00000000000E+00 0.  1.
          4    1    6    6  503    0  0.35020872414E+02  0.92211421953E+02 -0.37142172888E+03  0.38429612089E+03  0.00000000000E+00 0. -1.
         -4    1    6    6    0  503  0.98888937433E+02  0.65014321913E+02 -0.24728126731E+03  0.27414213314E+03  0.00000000000E+00 0.  1.
<mgrwt>
<rscale>  0 0.20744399E+04</rscale>
<asrwt>0</asrwt>
<pdfrwt beam="1">  1        2 0.97676298E-01 0.20744399E+04</pdfrwt>
<pdfrwt beam="2">  1       -1 0.26069086E+00 0.20744399E+04</pdfrwt>
<totfact> 0.28982140E+00</totfact>
</mgrwt>
</event>
<event>
12    7  0.1660832E-007  0.1871869E+04  0.7818608E-02  0.8668987E-01
         -1   -1    0    0    0  501 -0.00000000000E+00  0.00000000000E+00  0.52629187892E+03  0.52629187892E+03  0.00000000000E+00 0.  1.
          2   -1    0    0  501    0  0.00000000000E+00 -0.00000000000E+00 -0.16644247443E+04  0.16644247443E+04  0.00000000000E+00 0. -1.
         24    2    1    2    0    0  0.21514172858E+03 -0.23257889363E+03  0.31838563200E+03  0.45829813370E+03  0.91043196082E+02 0.  0.
        254    2    1    2    0    0 -0.21514172858E+03  0.23257889363E+03 -0.14565184974E+04  0.17324184895E+04  0.88286396713E+03 0.  0.
         23    2    4    4    0    0  0.32964109138E+03  0.10161315150E+03 -0.71024940951E+03  0.79474412862E+03  0.90418607511E+02 0.  0.
         23    2    4    4    0    0 -0.54478281996E+03  0.13096574213E+03 -0.74626908788E+03  0.93767436090E+03  0.91516714485E+02 0.  0.
          2    1    3    3  502    0  0.10403413070E+03 -0.15691745489E+03  0.13846072079E+03  0.23370399911E+03  0.00000000000E+00 0. -1.
         -1    1    3    3    0  502  0.11110759788E+03 -0.75661438743E+02  0.17992491121E+03  0.22459413459E+03  0.00000000000E+00 0.  1.
         13    1    5    5    0    0  0.11130888250E+03  0.62089836322E+01 -0.30375063834E+03  0.32356246552E+03  0.00000000000E+00 0.  1.
        -13    1    5    5    0    0  0.21833220888E+03  0.95404167865E+02 -0.40649877118E+03  0.47118166310E+03  0.00000000000E+00 0. -1.
          1    1    6    6  503    0 -0.46434633797E+03  0.11133903239E+03 -0.68348237318E+03  0.83376378919E+03  0.00000000000E+00 0. -1.
         -1    1    6    6    0  503 -0.80436481985E+02  0.19626709743E+02 -0.62786714697E+02  0.10391057170E+03  0.00000000000E+00 0.  1.
<mgrwt>
<rscale>  0 0.18718688E+04</rscale>
<asrwt>0</asrwt>
<pdfrwt beam="1">  1        2 0.25606535E+00 0.18718688E+04</pdfrwt>
<pdfrwt beam="2">  1       -1 0.80967981E-01 0.18718688E+04</pdfrwt>
<totfact> 0.16685906E+01</totfact>
</mgrwt>
</event>
<event>
12    7  0.1660832E-007  0.1643454E+04  0.7818608E-02  0.8794289E-01
         -1   -1    0    0    0  501 -0.00000000000E+00  0.00000000000E+00  0.16006099648E+03  0.16006099648E+03  0.00000000000E+00 0.  1.
          2   -1    0    0  501    0  0.00000000000E+00 -0.00000000000E+00 -0.42186096040E+04  0.42186096040E+04  0.00000000000E+00 0. -1.
         24    2    1    2    0    0 -0.47095538063E+03  0.14306989765E+03 -0.65406845273E+03  0.82212265633E+03  0.76237491052E+02 0.  0.
        254    2    1    2    0    0  0.47095538063E+03 -0.14306989765E+03 -0.34044801547E+04  0.35565479441E+04  0.90348225688E+03 0.  0.
         23    2    4    4    0    0  0.59616789543E+03 -0.72855501190E+02 -0.33023615682E+04  0.33577728031E+04  0.91226019251E+02 0.  0.
         23    2    4    4    0    0 -0.12521251480E+03 -0.70214396462E+02 -0.10211858659E+03  0.19877514103E+03  0.92060391232E+02 0.  0.
          4    1    3    3  502    0 -0.21027418757E+03  0.27862676981E+02 -0.25403012836E+03  0.33094239505E+03  0.00000000000E+00 0. -1.
         -3    1    3    3    0  502 -0.26068119306E+03  0.11520722067E+03 -0.40003832436E+03  0.49118026128E+03  0.00000000000E+00 0.  1.
         13    1    5    5    0    0  0.18919836020E+02  0.12315106348E+02 -0.17418185921E+03  0.17563866920E+03  0.00000000000E+00 0. -1.
        -13    1    5    5    0    0  0.57724805941E+03 -0.85170607538E+02 -0.31281797089E+04  0.31821341339E+04  0.00000000000E+00 0.  1.
          3    1    6    6  503    0 -0.43750031810E+02 -0.70735769072E+02 -0.25633534436E+02  0.87032708778E+02  0.00000000000E+00 0. -1.
         -3    1    6    6    0  503 -0.81462482989E+02  0.52137260939E+00 -0.76485052149E+02  0.11174243226E+03  0.00000000000E+00 0.  1.
<mgrwt>
<rscale>  0 0.16434535E+04</rscale>
<asrwt>0</asrwt>
<pdfrwt beam="1">  1        2 0.64901679E+00 0.16434535E+04</pdfrwt>
<pdfrwt beam="2">  1       -1 0.24624771E-01 0.16434535E+04</pdfrwt>
<totfact> 0.35856179E+00</totfact>
</mgrwt>
</event>
<event>
12    7  0.1660832E-007  0.1349206E+04  0.7818608E-02  0.8991429E-01
         -1   -1    0    0    0  501 -0.00000000000E+00  0.00000000000E+00  0.59072292887E+03  0.59072292887E+03  0.00000000000E+00 0.  1.
          2   -1    0    0  501    0  0.00000000000E+00 -0.00000000000E+00 -0.77039379616E+03  0.77039379616E+03  0.00000000000E+00 0. -1.
         24    2    1    2    0    0 -0.22086630791E+02 -0.34639286744E+03 -0.17860272867E+03  0.39935022664E+03  0.84296090977E+02 0.  0.
        254    2    1    2    0    0  0.22086630791E+02  0.34639286744E+03 -0.10681386196E+01  0.96176649839E+03  0.89694917283E+03 0.  0.
         23    2    4    4    0    0 -0.45193970157E+02  0.47438254865E+03  0.33174410295E+03  0.58787565149E+03  0.91990947222E+02 0.  0.
         23    2    4    4    0    0  0.67280600948E+02 -0.12798968121E+03 -0.33281224157E+03  0.37389084691E+03  0.90124022899E+02 0.  0.
          4    1    3    3  502    0  0.12555368820E+01 -0.30648891949E+03 -0.17511186274E+03  0.35298894971E+03  0.00000000000E+00 0. -1.
         -3    1    3    3    0  502 -0.23342167673E+02 -0.39903947949E+02 -0.34908659302E+01  0.46361276929E+02  0.00000000000E+00 0.  1.
         13    1    5    5    0    0  0.23978589021E+01  0.30886007726E+03  0.17500608381E+03  0.35500341748E+03  0.00000000000E+00 0. -1.
        -13    1    5    5    0    0 -0.47591829059E+02  0.16552247139E+03  0.15673801914E+03  0.23287223401E+03  0.00000000000E+00 0.  1.
          1    1    6    6  503    0  0.85887465598E+02 -0.11518520411E+03 -0.25308952501E+03  0.29103023153E+03  0.00000000000E+00 0. -1.
         -1    1    6    6    0  503 -0.18606864650E+02 -0.12804477098E+02 -0.79722716551E+02  0.82860615373E+02  0.00000000000E+00 0.  1.
<mgrwt>
<rscale>  0 0.13492061E+04</rscale>
<asrwt>0</asrwt>
<pdfrwt beam="1">  1        2 0.11852212E+00 0.13492061E+04</pdfrwt>
<pdfrwt beam="2">  1       -1 0.90880450E-01 0.13492061E+04</pdfrwt>
<totfact> 0.47766569E+01</totfact>
</mgrwt>
</event>
<event>
12    7  0.1660832E-007  0.1300391E+04  0.7818608E-02  0.9029255E-01
          2   -1    0    0  501    0  0.00000000000E+00  0.00000000000E+00  0.17343493570E+04  0.17343493570E+04  0.00000000000E+00 0. -1.
         -1   -1    0    0    0  501 -0.00000000000E+00 -0.00000000000E+00 -0.24375376518E+03  0.24375376518E+03  0.00000000000E+00 0.  1.
         24    2    1    2    0    0  0.24301714821E+03 -0.18688543331E+03  0.19002454847E+03  0.36963614973E+03  0.80858238067E+02 0.  0.
        254    2    1    2    0    0 -0.24301714821E+03  0.18688543331E+03  0.13005710433E+04  0.16084669724E+04  0.89537559890E+03 0.  0.
         23    2    4    4    0    0  0.10374227195E+03  0.30959520772E+03  0.10480485471E+03  0.35421577891E+03  0.88730540551E+02 0.  0.
         23    2    4    4    0    0 -0.34675942016E+03 -0.12270977441E+03  0.11957661886E+04  0.12542511935E+04  0.89383971496E+02 0.  0.
          2    1    3    3  502    0  0.25487826076E+02 -0.52788250335E+02  0.17021089147E+02  0.61040528563E+02  0.00000000000E+00 0. -1.
         -1    1    3    3    0  502  0.21752932213E+03 -0.13409718298E+03  0.17300345932E+03  0.30859562117E+03  0.00000000000E+00 0.  1.
         13    1    5    5    0    0  0.53666902508E+02  0.26706447125E+03  0.89815869497E+02  0.28682827379E+03  0.00000000000E+00 0.  1.
        -13    1    5    5    0    0  0.50075369441E+02  0.42530736468E+02  0.14988985213E+02  0.67387505124E+02  0.00000000000E+00 0. -1.
          3    1    6    6  503    0 -0.11060431703E+03 -0.83084723673E+02  0.40058311650E+03  0.42379620041E+03  0.00000000000E+00 0. -1.
         -3    1    6    6    0  503 -0.23615510312E+03 -0.39625050739E+02  0.79518307213E+03  0.83045499310E+03  0.00000000000E+00 0.  1.
<mgrwt>
<rscale>  0 0.13003910E+04</rscale>
<asrwt>0</asrwt>
<pdfrwt beam="1">  1        2 0.26682297E+00 0.13003910E+04</pdfrwt>
<pdfrwt beam="2">  1       -1 0.37500580E-01 0.13003910E+04</pdfrwt>
<totfact> 0.71794810E+01</totfact>
</mgrwt>
</event>
<event>
12    7  0.1660832E-007  0.1399916E+04  0.7818608E-02  0.8953879E-01
         -1   -1    0    0    0  501 -0.00000000000E+00  0.00000000000E+00  0.61128291050E+03  0.61128291050E+03  0.00000000000E+00 0.  1.
          2   -1    0    0  501    0  0.00000000000E+00 -0.00000000000E+00 -0.80149658786E+03  0.80149658786E+03  0.00000000000E+00 0. -1.
         24    2    1    2    0    0 -0.31680088242E+03  0.23614484485E+03 -0.82184318987E+02  0.41141040111E+03  0.79856552675E+02 0.  0.
        254    2    1    2    0    0  0.31680088242E+03 -0.23614484485E+03 -0.10802935838E+03  0.10013690973E+04  0.91375190278E+03 0.  0.
         23    2    4    4    0    0  0.35272510545E+02  0.17791734572E+03 -0.37510102730E+03  0.42650382228E+03  0.91137247203E+02 0.  0.
         23    2    4    4    0    0  0.28152837187E+03 -0.41406219057E+03  0.26707166892E+03  0.57486527498E+03  0.91853612974E+02 0.  0.
          2    1    3    3  502    0 -0.23679199298E+03  0.19430379426E+03 -0.93869646440E+02  0.32036841749E+03  0.00000000000E+00 0. -1.
         -1    1    3    3    0  502 -0.80008889436E+02  0.41841050583E+02  0.11685327453E+02  0.91041983614E+02  0.00000000000E+00 0.  1.
         13    1    5    5    0    0  0.59342758539E+02  0.11949670175E+03 -0.30018658983E+03  0.32850116199E+03  0.00000000000E+00 0. -1.
        -13    1    5    5    0    0 -0.24070247995E+02  0.58420643972E+02 -0.74914437472E+02  0.98002660282E+02  0.00000000000E+00 0.  1.
          1    1    6    6  503    0  0.86549436258E+02 -0.19519417744E+03  0.14039105830E+03  0.25554103599E+03  0.00000000000E+00 0. -1.
         -1    1    6    6    0  503  0.19497893561E+03 -0.21886801313E+03  0.12668061062E+03  0.31932423900E+03  0.00000000000E+00 0.  1.
<mgrwt>
<rscale>  0 0.13999160E+04</rscale>
<asrwt>0</asrwt>
<pdfrwt beam="1">  1        2 0.12330717E+00 0.13999160E+04</pdfrwt>
<pdfrwt beam="2">  1       -1 0.94043525E-01 0.13999160E+04</pdfrwt>
<totfact> 0.41841623E+01</totfact>
</mgrwt>
</event>
<event>
12    7  0.1660832E-007  0.1427433E+04  0.7818608E-02  0.8934197E-01
          2   -1    0    0  501    0  0.00000000000E+00  0.00000000000E+00  0.39279556648E+04  0.39279556648E+04  0.00000000000E+00 0. -1.
         -1   -1    0    0    0  501 -0.00000000000E+00 -0.00000000000E+00 -0.12968347557E+03  0.12968347557E+03  0.00000000000E+00 0.  1.
         24    2    1    2    0    0 -0.95410324476E+01  0.29697796177E+03  0.20568155999E+04  0.20796942461E+04  0.79691931595E+02 0.  0.
        254    2    1    2    0    0  0.95410324476E+01 -0.29697796177E+03  0.17414565893E+04  0.19779448943E+04  0.88955495129E+03 0.  0.
         23    2    4    4    0    0  0.77955296392E+02 -0.59502230897E+03  0.12836158454E+04  0.14199676187E+04  0.92248704075E+02 0.  0.
         23    2    4    4    0    0 -0.68414263945E+02  0.29804434720E+03  0.45784074397E+03  0.55797727558E+03  0.90606560547E+02 0.  0.
          4    1    3    3  502    0  0.31202552243E+02  0.17827704510E+03  0.11249857032E+04  0.11394512436E+04  0.00000000000E+00 0. -1.
         -3    1    3    3    0  502 -0.40743584691E+02  0.11870091666E+03  0.93182989677E+03  0.94024300254E+03  0.00000000000E+00 0.  1.
         13    1    5    5    0    0  0.83197141825E+02 -0.39606532364E+03  0.92881500333E+03  0.10131568563E+04  0.00000000000E+00 0. -1.
        -13    1    5    5    0    0 -0.52418454326E+01 -0.19895698533E+03  0.35480084203E+03  0.40681076247E+03  0.00000000000E+00 0.  1.
          2    1    6    6  503    0 -0.36305975233E+02  0.12183096248E+03  0.11619955146E+03  0.17223020355E+03  0.00000000000E+00 0. -1.
         -2    1    6    6    0  503 -0.32108288712E+02  0.17621338473E+03  0.34164119250E+03  0.38574707202E+03  0.00000000000E+00 0.  1.
<mgrwt>
<rscale>  0 0.14274326E+04</rscale>
<asrwt>0</asrwt>
<pdfrwt beam="1">  1        2 0.60430078E+00 0.14274326E+04</pdfrwt>
<pdfrwt beam="2">  1       -1 0.19951307E-01 0.14274326E+04</pdfrwt>
<totfact> 0.91040021E+00</totfact>
</mgrwt>
</event>
<event>
12    7  0.1660832E-007  0.1512444E+04  0.7818608E-02  0.8876220E-01
         -1   -1    0    0    0  501 -0.00000000000E+00  0.00000000000E+00  0.22819780024E+03  0.22819780024E+03  0.00000000000E+00 0.  1.
          2   -1    0    0  501    0  0.00000000000E+00 -0.00000000000E+00 -0.25060347855E+04  0.25060347855E+04  0.00000000000E+00 0. -1.
         24    2    1    2    0    0  0.20269911166E+03 -0.22265602873E+03 -0.14092779050E+04  0.14433288451E+04  0.80444419718E+02 0.  0.
        254    2    1    2    0    0 -0.20269911166E+03  0.22265602873E+03 -0.86855908024E+03  0.12909037406E+04  0.90629738749E+03 0.  0.
         23    2    4    4    0    0  0.58806141619E+02  0.51911843376E+03 -0.36327737628E+03  0.64280186335E+03  0.91003696868E+02 0.  0.
         23    2    4    4    0    0 -0.26150525328E+03 -0.29646240503E+03 -0.50528170395E+03  0.64810187723E+03  0.91931973935E+02 0.  0.
          2    1    3    3  502    0  0.65643953512E+02 -0.59330285008E+02 -0.59758345932E+03  0.60409866927E+03  0.00000000000E+00 0. -1.
         -1    1    3    3    0  502  0.13705515815E+03 -0.16332574372E+03 -0.81169444566E+03  0.83923017585E+03  0.00000000000E+00 0.  1.
         13    1    5    5    0    0  0.41485343924E+02  0.82312323759E+02 -0.78533260619E+02  0.12109428321E+03  0.00000000000E+00 0. -1.
        -13    1    5    5    0    0  0.17320797695E+02  0.43680611000E+03 -0.28474411566E+03  0.52170758013E+03  0.00000000000E+00 0.  1.
          3    1    6    6  503    0 -0.32094813424E+02 -0.36630085241E+02 -0.12186427935E+03  0.13123544786E+03  0.00000000000E+00 0. -1.
         -3    1    6    6    0  503 -0.22941043986E+03 -0.25983231978E+03 -0.38341742460E+03  0.51686642937E+03  0.00000000000E+00 0.  1.
<mgrwt>
<rscale>  0 0.15124439E+04</rscale>
<asrwt>0</asrwt>
<pdfrwt beam="1">  1        2 0.38554381E+00 0.15124439E+04</pdfrwt>
<pdfrwt beam="2">  1       -1 0.35107355E-01 0.15124439E+04</pdfrwt>
<totfact> 0.29376015E+01</totfact>
</mgrwt>
</event>
<event>
12    7  0.1660832E-007  0.1573537E+04  0.7818608E-02  0.8836972E-01
         -1   -1    0    0    0  501 -0.00000000000E+00  0.00000000000E+00  0.27618254003E+03  0.27618254003E+03  0.00000000000E+00 0.  1.
          2   -1    0    0  501    0  0.00000000000E+00 -0.00000000000E+00 -0.22412875568E+04  0.22412875568E+04  0.00000000000E+00 0. -1.
         24    2    1    2    0    0 -0.40019929598E+03  0.16649953496E+03 -0.11380455752E+04  0.12203508240E+04  0.78910270223E+02 0.  0.
        254    2    1    2    0    0  0.40019929598E+03 -0.16649953496E+03 -0.82705944159E+03  0.12971192729E+04  0.90033855657E+03 0.  0.
         23    2    4    4    0    0  0.54883035387E+03 -0.36508408207E+03 -0.78597528065E+03  0.10299023991E+04  0.91873095013E+02 0.  0.
         23    2    4    4    0    0 -0.14863105788E+03  0.19858454711E+03 -0.41084160943E+02  0.26721687375E+03  0.90498263063E+02 0.  0.
          4    1    3    3  502    0 -0.38206156191E+03  0.16517245427E+03 -0.11195027612E+04  0.11943782521E+04  0.00000000000E+00 0. -1.
         -3    1    3    3    0  502 -0.18137734075E+02  0.13270806884E+01 -0.18542814029E+02  0.25972571930E+02  0.00000000000E+00 0.  1.
         13    1    5    5    0    0  0.17591891677E+03 -0.11287243118E+03 -0.31796897718E+03  0.38051533668E+03  0.00000000000E+00 0. -1.
        -13    1    5    5    0    0  0.37291143710E+03 -0.25221165089E+03 -0.46800630347E+03  0.64938706243E+03  0.00000000000E+00 0.  1.
          3    1    6    6  503    0 -0.18474761935E+02  0.42064544434E+01  0.17791324753E+02  0.25991197048E+02  0.00000000000E+00 0. -1.
         -3    1    6    6    0  503 -0.13015629595E+03  0.19437809267E+03 -0.58875485696E+02  0.24122567670E+03  0.00000000000E+00 0.  1.
<mgrwt>
<rscale>  0 0.15735368E+04</rscale>
<asrwt>0</asrwt>
<pdfrwt beam="1">  1        2 0.34481348E+00 0.15735368E+04</pdfrwt>
<pdfrwt beam="2">  1       -1 0.42489621E-01 0.15735368E+04</pdfrwt>
<totfact> 0.29217378E+01</totfact>
</mgrwt>
</event>
<event>
12    7  0.1660832E-007  0.2023819E+04  0.7818608E-02  0.8595565E-01
          2   -1    0    0  501    0  0.00000000000E+00  0.00000000000E+00  0.11485426449E+04  0.11485426449E+04  0.00000000000E+00 0. -1.
         -1   -1    0    0    0  501 -0.00000000000E+00 -0.00000000000E+00 -0.89153050912E+03  0.89153050912E+03  0.00000000000E+00 0.  1.
         24    2    1    2    0    0  0.24390816494E+03  0.73775823055E+03  0.33137993375E+03  0.84859999406E+03  0.80813920565E+02 0.  0.
        254    2    1    2    0    0 -0.24390816494E+03 -0.73775823055E+03 -0.74367797936E+02  0.11914731600E+04  0.90016627460E+03 0.  0.
         23    2    4    4    0    0  0.96381883463E+02 -0.81255123145E+03 -0.10028501868E+03  0.83085713737E+03  0.10362203703E+03 0.  0.
         23    2    4    4    0    0 -0.34029004840E+03  0.74793000894E+02  0.25917220742E+02  0.36061602262E+03  0.89335902150E+02 0.  0.
          4    1    3    3  502    0  0.16008808311E+03  0.58392617002E+03  0.27033453122E+03  0.66308274382E+03  0.00000000000E+00 0. -1.
         -3    1    3    3    0  502  0.83820081831E+02  0.15383206054E+03  0.61045402537E+02  0.18551725025E+03  0.00000000000E+00 0.  1.
         13    1    5    5    0    0  0.35785846437E+02 -0.77300416159E+02  0.64798196017E+01  0.85428152302E+02  0.00000000000E+00 0. -1.
        -13    1    5    5    0    0  0.60596037026E+02 -0.73525081529E+03 -0.10676483828E+03  0.74542898507E+03  0.00000000000E+00 0.  1.
          3    1    6    6  503    0 -0.64591290020E+02  0.50751490497E+02 -0.41058654905E+01  0.82247228923E+02  0.00000000000E+00 0. -1.
         -3    1    6    6    0  503 -0.27569875838E+03  0.24041510397E+02  0.30023086232E+02  0.27836879369E+03  0.00000000000E+00 0.  1.
<mgrwt>
<rscale>  0 0.20238190E+04</rscale>
<asrwt>0</asrwt>
<pdfrwt beam="1">  1        2 0.17669887E+00 0.20238190E+04</pdfrwt>
<pdfrwt beam="2">  1       -1 0.13715854E+00 0.20238190E+04</pdfrwt>
<totfact> 0.95123704E+00</totfact>
</mgrwt>
</event>
<event>
12    7  0.1660832E-007  0.3142827E+04  0.7818608E-02  0.8204082E-01
          2   -1    0    0  501    0  0.00000000000E+00  0.00000000000E+00  0.41083700616E+04  0.41083700616E+04  0.00000000000E+00 0. -1.
         -1   -1    0    0    0  501 -0.00000000000E+00 -0.00000000000E+00 -0.60105110055E+03  0.60105110055E+03  0.00000000000E+00 0.  1.
         24    2    1    2    0    0 -0.44400987721E+03  0.82230504119E+03  0.32560703136E+04  0.33884523227E+04  0.79277385749E+02 0.  0.
        254    2    1    2    0    0  0.44400987721E+03 -0.82230504119E+03  0.25124864740E+03  0.13209688395E+04  0.89916763741E+03 0.  0.
         23    2    4    4    0    0  0.13114412004E+02  0.27139278030E+02  0.34601371030E+03  0.35944739063E+03  0.92565710182E+02 0.  0.
         23    2    4    4    0    0  0.43089546521E+03 -0.84944431922E+03 -0.94765062897E+02  0.96152144882E+03  0.91194988987E+02 0.  0.
          2    1    3    3  502    0 -0.37010431509E+03  0.62463862424E+03  0.25796008488E+04  0.26798304338E+04  0.00000000000E+00 0. -1.
         -1    1    3    3    0  502 -0.73905562124E+02  0.19766641695E+03  0.67646946486E+03  0.70862188887E+03  0.00000000000E+00 0.  1.
         13    1    5    5    0    0 -0.14045867482E+02 -0.35975332905E+01  0.28818178799E+03  0.28854630750E+03  0.00000000000E+00 0.  1.
        -13    1    5    5    0    0  0.27160279485E+02  0.30736811320E+02  0.57831922307E+02  0.70901083134E+02  0.00000000000E+00 0. -1.
          1    1    6    6  503    0  0.60756095711E+02 -0.63658894191E+02 -0.15014213306E+02  0.89270289441E+02  0.00000000000E+00 0. -1.
         -1    1    6    6    0  503  0.37013936950E+03 -0.78578542503E+03 -0.79750849591E+02  0.87225115938E+03  0.00000000000E+00 0.  1.
<mgrwt>
<rscale>  0 0.31428270E+04</rscale>
<asrwt>0</asrwt>
<pdfrwt beam="1">  1        2 0.63205692E+00 0.31428270E+04</pdfrwt>
<pdfrwt beam="2">  1       -1 0.92469403E-01 0.31428270E+04</pdfrwt>
<totfact> 0.30388866E-01</totfact>
</mgrwt>
</event>
<event>
12    7  0.1660832E-007  0.3733503E+04  0.7818608E-02  0.8060578E-01
          2   -1    0    0  501    0  0.00000000000E+00  0.00000000000E+00  0.29390754003E+04  0.29390754003E+04  0.00000000000E+00 0. -1.
         -1   -1    0    0    0  501 -0.00000000000E+00 -0.00000000000E+00 -0.11856654971E+04  0.11856654971E+04  0.00000000000E+00 0.  1.
         24    2    1    2    0    0 -0.13271615516E+04 -0.45793065783E+03 -0.33237623442E+03  0.14449007112E+04  0.78777106908E+02 0.  0.
        254    2    1    2    0    0  0.13271615516E+04  0.45793065783E+03  0.20857861377E+04  0.26798401863E+04  0.92735178912E+03 0.  0.
         23    2    4    4    0    0  0.78426544204E+03  0.62389412877E+03  0.85231652922E+03  0.13187701703E+04  0.91624934004E+02 0.  0.
         23    2    4    4    0    0  0.54289610951E+03 -0.16596347094E+03  0.12334696084E+04  0.13610700160E+04  0.93724352177E+02 0.  0.
          2    1    3    3  502    0 -0.29416146402E+03 -0.11204194750E+03 -0.10695957969E+03  0.33245257797E+03  0.00000000000E+00 0. -1.
         -1    1    3    3    0  502 -0.10330000875E+04 -0.34588871033E+03 -0.22541665474E+03  0.11124481332E+04  0.00000000000E+00 0.  1.
         13    1    5    5    0    0  0.48885329613E+03  0.35169384141E+03  0.46608551802E+03  0.76151284515E+03  0.00000000000E+00 0.  1.
        -13    1    5    5    0    0  0.29541214591E+03  0.27220028736E+03  0.38623101121E+03  0.55725732513E+03  0.00000000000E+00 0. -1.
          1    1    6    6  503    0  0.40714685497E+03 -0.96904590829E+02  0.97559682764E+03  0.10615781796E+04  0.00000000000E+00 0. -1.
         -1    1    6    6    0  503  0.13574925455E+03 -0.69058880109E+02  0.25787278078E+03  0.29949183645E+03  0.00000000000E+00 0.  1.
<mgrwt>
<rscale>  0 0.37335025E+04</rscale>
<asrwt>0</asrwt>
<pdfrwt beam="1">  1        2 0.45216544E+00 0.37335025E+04</pdfrwt>
<pdfrwt beam="2">  1       -1 0.18241008E+00 0.37335025E+04</pdfrwt>
<totfact> 0.34777697E-01</totfact>
</mgrwt>
</event>
<event>
12    7  0.1660832E-007  0.2915635E+04  0.7818608E-02  0.8268241E-01
         -1   -1    0    0    0  501 -0.00000000000E+00  0.00000000000E+00  0.48227113696E+03  0.48227113696E+03  0.00000000000E+00 0.  1.
          2   -1    0    0  501    0  0.00000000000E+00 -0.00000000000E+00 -0.44067169020E+04  0.44067169020E+04  0.00000000000E+00 0. -1.
         24    2    1    2    0    0 -0.62381202817E+03  0.11467457540E+04 -0.14413767211E+04  0.19462562610E+04  0.78608590470E+02 0.  0.
        254    2    1    2    0    0  0.62381202817E+03 -0.11467457540E+04 -0.24830690440E+04  0.29427317780E+04  0.88874696590E+03 0.  0.
         23    2    4    4    0    0  0.44453021322E+03 -0.96535404095E+03 -0.24478174602E+04  0.26701573957E+04  0.91731480795E+02 0.  0.
         23    2    4    4    0    0  0.17928181495E+03 -0.18139171304E+03 -0.35251583832E+02  0.27257438235E+03  0.89494117242E+02 0.  0.
          4    1    3    3  502    0 -0.36344684590E+03  0.64078961954E+03 -0.86759257973E+03  0.11381659944E+04  0.00000000000E+00 0. -1.
         -3    1    3    3    0  502 -0.26036518227E+03  0.50595613445E+03 -0.57378414134E+03  0.80809026661E+03  0.00000000000E+00 0.  1.
         13    1    5    5    0    0  0.33700240596E+03 -0.81149488592E+03 -0.20421012694E+04  0.22231221662E+04  0.00000000000E+00 0.  1.
        -13    1    5    5    0    0  0.10752780726E+03 -0.15385915504E+03 -0.40571619080E+03  0.44703522949E+03  0.00000000000E+00 0. -1.
          3    1    6    6  503    0  0.12532957351E+03 -0.70281557923E+02  0.15263857780E+01  0.14369874472E+03  0.00000000000E+00 0. -1.
         -3    1    6    6    0  503  0.53952241436E+02 -0.11111015511E+03 -0.36777969610E+02  0.12887563763E+03  0.00000000000E+00 0.  1.
<mgrwt>
<rscale>  0 0.29156353E+04</rscale>
<asrwt>0</asrwt>
<pdfrwt beam="1">  1        2 0.67795644E+00 0.29156353E+04</pdfrwt>
<pdfrwt beam="2">  1       -1 0.74195561E-01 0.29156353E+04</pdfrwt>
<totfact> 0.27096706E-01</totfact>
</mgrwt>
</event>
<event>
12    7  0.1660832E-007  0.1569645E+04  0.7818608E-02  0.8839416E-01
          2   -1    0    0  501    0  0.00000000000E+00  0.00000000000E+00  0.15857277205E+04  0.15857277205E+04  0.00000000000E+00 0. -1.
         -1   -1    0    0    0  501 -0.00000000000E+00 -0.00000000000E+00 -0.38843130030E+03  0.38843130030E+03  0.00000000000E+00 0.  1.
         24    2    1    2    0    0  0.13977966690E+03  0.47408950845E+03  0.58220359176E+03  0.76798903534E+03  0.80913032556E+02 0.  0.
        254    2    1    2    0    0 -0.13977966690E+03 -0.47408950845E+03  0.61509282844E+03  0.12061699855E+04  0.91225414713E+03 0.  0.
         23    2    4    4    0    0 -0.47480624435E+03 -0.16317745794E+03  0.11611741044E+03  0.52323427426E+03  0.90680760367E+02 0.  0.
         23    2    4    4    0    0  0.33502657745E+03 -0.31091205051E+03  0.49897541800E+03  0.68293571121E+03  0.92280047266E+02 0.  0.
          2    1    3    3  502    0  0.49004603169E+02  0.19740550698E+03  0.18115303485E+03  0.27237255250E+03  0.00000000000E+00 0. -1.
         -1    1    3    3    0  502  0.90775063729E+02  0.27668400147E+03  0.40105055691E+03  0.49561648284E+03  0.00000000000E+00 0.  1.
         13    1    5    5    0    0 -0.81989335230E+02 -0.18582703596E+02 -0.13268164805E+02  0.85109412885E+02  0.00000000000E+00 0. -1.
        -13    1    5    5    0    0 -0.39281690912E+03 -0.14459475434E+03  0.12938557524E+03  0.43812486137E+03  0.00000000000E+00 0.  1.
          1    1    6    6  503    0  0.75522411190E+00 -0.21620730840E+02  0.41300499581E+02  0.46623573771E+02  0.00000000000E+00 0. -1.
         -1    1    6    6    0  503  0.33427135334E+03 -0.28929131967E+03  0.45767491842E+03  0.63631213744E+03  0.00000000000E+00 0.  1.
<mgrwt>
<rscale>  0 0.15696449E+04</rscale>
<asrwt>0</asrwt>
<pdfrwt beam="1">  1        2 0.24395811E+00 0.15696449E+04</pdfrwt>
<pdfrwt beam="2">  1       -1 0.59758662E-01 0.15696449E+04</pdfrwt>
<totfact> 0.35315039E+01</totfact>
</mgrwt>
</event>
<event>
12    7  0.1660832E-007  0.1720405E+04  0.7818608E-02  0.8749811E-01
         -3   -1    0    0    0  501 -0.00000000000E+00  0.00000000000E+00  0.84167044224E+03  0.84167044224E+03  0.00000000000E+00 0.  1.
          4   -1    0    0  501    0  0.00000000000E+00 -0.00000000000E+00 -0.87914270649E+03  0.87914270649E+03  0.00000000000E+00 0. -1.
         24    2    1    2    0    0 -0.14283063683E+03  0.31661114651E+03 -0.43940875736E+03  0.56608223870E+03  0.82011194436E+02 0.  0.
        254    2    1    2    0    0  0.14283063683E+03 -0.31661114651E+03  0.40193649310E+03  0.11547309100E+04  0.10252840198E+04 0.  0.
         23    2    4    4    0    0  0.10801847945E+03 -0.54438176331E+02  0.71703322004E+03  0.73306223453E+03  0.92801369117E+02 0.  0.
         23    2    4    4    0    0  0.34812157386E+02 -0.26217297018E+03 -0.31509672693E+03  0.42166867550E+03  0.92584944696E+02 0.  0.
          4    1    3    3  502    0 -0.11287816869E+03  0.17503748119E+03 -0.29948774243E+03  0.36479104793E+03  0.00000000000E+00 0. -1.
         -3    1    3    3    0  502 -0.29952468145E+02  0.14157366532E+03 -0.13992101493E+03  0.20129119077E+03  0.00000000000E+00 0.  1.
         13    1    5    5    0    0  0.95219567023E+02 -0.44810744370E+02  0.34521166429E+03  0.36089591563E+03  0.00000000000E+00 0.  1.
        -13    1    5    5    0    0  0.12798912424E+02 -0.96274319611E+01  0.37182155574E+03  0.37216631890E+03  0.00000000000E+00 0. -1.
          1    1    6    6  503    0  0.34114047890E+02 -0.23619596631E+03 -0.22533005688E+03  0.32821629651E+03  0.00000000000E+00 0. -1.
         -1    1    6    6    0  503  0.69810949573E+00 -0.25977003874E+02 -0.89766670054E+02  0.93452378994E+02  0.00000000000E+00 0.  1.
<mgrwt>
<rscale>  0 0.17204051E+04</rscale>
<asrwt>0</asrwt>
<pdfrwt beam="1">  1        4 0.13525272E+00 0.17204051E+04</pdfrwt>
<pdfrwt beam="2">  1       -3 0.12948776E+00 0.17204051E+04</pdfrwt>
<totfact> 0.39799863E-01</totfact>
</mgrwt>
</event>
<event>
12    7  0.1660832E-007  0.2273111E+04  0.7818608E-02  0.8488599E-01
          2   -1    0    0  501    0  0.00000000000E+00  0.00000000000E+00  0.19725734135E+04  0.19725734135E+04  0.00000000000E+00 0. -1.
         -1   -1    0    0    0  501 -0.00000000000E+00 -0.00000000000E+00 -0.65485964541E+03  0.65485964541E+03  0.00000000000E+00 0.  1.
         24    2    1    2    0    0 -0.85185198658E+03 -0.25085990734E+03  0.96127152844E+03  0.13110979282E+04  0.79701479420E+02 0.  0.
        254    2    1    2    0    0  0.85185198658E+03  0.25085990734E+03  0.35644223968E+03  0.13163351307E+04  0.90393838619E+03 0.  0.
         23    2    4    4    0    0  0.58632540005E+03  0.54557022436E+03  0.51295981877E+02  0.80729015323E+03  0.87531533130E+02 0.  0.
         23    2    4    4    0    0  0.26552658653E+03 -0.29471031702E+03  0.30514625780E+03  0.50904497750E+03  0.93026938888E+02 0.  0.
          2    1    3    3  502    0 -0.50661893470E+03 -0.16055805490E+03  0.51922945643E+03  0.74299452381E+03  0.00000000000E+00 0. -1.
         -1    1    3    3    0  502 -0.34523305188E+03 -0.90301852446E+02  0.44204207201E+03  0.56810340440E+03  0.00000000000E+00 0.  1.
         13    1    5    5    0    0  0.93753146825E+02  0.94317865206E+02  0.41082845201E+02  0.13918804692E+03  0.00000000000E+00 0. -1.
        -13    1    5    5    0    0  0.49257225322E+03  0.45125235916E+03  0.10213136676E+02  0.66810210631E+03  0.00000000000E+00 0.  1.
          4    1    6    6  503    0  0.14825600910E+02 -0.36967518784E+02  0.66436723060E+02  0.77461177750E+02  0.00000000000E+00 0. -1.
         -4    1    6    6    0  503  0.25070098562E+03 -0.25774279824E+03  0.23870953474E+03  0.43158379975E+03  0.00000000000E+00 0.  1.
<mgrwt>
<rscale>  0 0.22731113E+04</rscale>
<asrwt>0</asrwt>
<pdfrwt beam="1">  1        2 0.30347283E+00 0.22731113E+04</pdfrwt>
<pdfrwt beam="2">  1       -1 0.10074764E+00 0.22731113E+04</pdfrwt>
<totfact> 0.67048703E+00</totfact>
</mgrwt>
</event>
<event>
12    7  0.1660832E-007  0.1824759E+04  0.7818608E-02  0.8693243E-01
         -1   -1    0    0    0  501 -0.00000000000E+00  0.00000000000E+00  0.30241665023E+03  0.30241665023E+03  0.00000000000E+00 0.  1.
          2   -1    0    0  501    0  0.00000000000E+00 -0.00000000000E+00 -0.27526141754E+04  0.27526141754E+04  0.00000000000E+00 0. -1.
         24    2    1    2    0    0  0.21828104122E+03  0.31354111738E+03  0.30183476949E+02  0.39171452529E+03  0.81083794921E+02 0.  0.
        254    2    1    2    0    0 -0.21828104122E+03 -0.31354111738E+03 -0.24803810021E+04  0.26633163003E+04  0.89163285871E+03 0.  0.
         23    2    4    4    0    0  0.23524259745E+02 -0.19720098076E+03 -0.23351452559E+04  0.23452716736E+04  0.89186540245E+02 0.  0.
         23    2    4    4    0    0 -0.24180530096E+03 -0.11634013662E+03 -0.14523574615E+03  0.31804462673E+03  0.89744814167E+02 0.  0.
          4    1    3    3  502    0  0.12330994910E+03  0.14915349609E+03 -0.22137249080E+02  0.19478749123E+03  0.00000000000E+00 0. -1.
         -3    1    3    3    0  502  0.94971092123E+02  0.16438762129E+03  0.52320726029E+02  0.19692703406E+03  0.00000000000E+00 0.  1.
         13    1    5    5    0    0  0.15439034484E+02 -0.12733615192E+03 -0.98797024876E+03  0.99626204977E+03  0.00000000000E+00 0. -1.
        -13    1    5    5    0    0  0.80852252613E+01 -0.69864828841E+02 -0.13471750072E+04  0.13490096238E+04  0.00000000000E+00 0.  1.
          4    1    6    6  503    0 -0.12560151291E+03 -0.15435783637E+02 -0.86658340983E+02  0.15337428573E+03  0.00000000000E+00 0. -1.
         -4    1    6    6    0  503 -0.11620378805E+03 -0.10090435298E+03 -0.58577405172E+02  0.16467034100E+03  0.00000000000E+00 0.  1.
<mgrwt>
<rscale>  0 0.18247590E+04</rscale>
<asrwt>0</asrwt>
<pdfrwt beam="1">  1        2 0.42347908E+00 0.18247590E+04</pdfrwt>
<pdfrwt beam="2">  1       -1 0.46525641E-01 0.18247590E+04</pdfrwt>
<totfact> 0.12214743E+01</totfact>
</mgrwt>
</event>
<event>
12    7  0.1660832E-007  0.1804544E+04  0.7818608E-02  0.8703887E-01
         -1   -1    0    0    0  501 -0.00000000000E+00  0.00000000000E+00  0.19181313555E+04  0.19181313555E+04  0.00000000000E+00 0.  1.
          2   -1    0    0  501    0  0.00000000000E+00 -0.00000000000E+00 -0.42442087376E+03  0.42442087376E+03  0.00000000000E+00 0. -1.
         24    2    1    2    0    0  0.27106979970E+03  0.58527109624E+03  0.80218627058E+03  0.10325929250E+04  0.82001486028E+02 0.  0.
        254    2    1    2    0    0 -0.27106979970E+03 -0.58527109624E+03  0.69152421115E+03  0.13099593042E+04  0.90651340406E+03 0.  0.
         23    2    4    4    0    0  0.20755474953E+03  0.10415075744E+03  0.26394915494E+03  0.36338478773E+03  0.91940161162E+02 0.  0.
         23    2    4    4    0    0 -0.47862454923E+03 -0.68942185367E+03  0.42757505622E+03  0.94657451650E+03  0.93802639343E+02 0.  0.
          2    1    3    3  502    0  0.11375114988E+03  0.31279711074E+03  0.36510737484E+03  0.49404934141E+03  0.00000000000E+00 0. -1.
         -1    1    3    3    0  502  0.15731864982E+03  0.27247398550E+03  0.43707889574E+03  0.53854358362E+03  0.00000000000E+00 0.  1.
         13    1    5    5    0    0  0.10327022376E+03  0.89030599840E+02  0.19317539686E+03  0.23644855841E+03  0.00000000000E+00 0. -1.
        -13    1    5    5    0    0  0.10428452577E+03  0.15120157598E+02  0.70773758074E+02  0.12693622932E+03  0.00000000000E+00 0.  1.
          1    1    6    6  503    0 -0.46411932515E+03 -0.62507848673E+03  0.39410041520E+03  0.87260815938E+03  0.00000000000E+00 0. -1.
         -1    1    6    6    0  503 -0.14505224075E+02 -0.64343366942E+02  0.33474641014E+02  0.73966357122E+02  0.00000000000E+00 0.  1.
<mgrwt>
<rscale>  0 0.18045442E+04</rscale>
<asrwt>0</asrwt>
<pdfrwt beam="1">  1        2 0.65295520E-01 0.18045442E+04</pdfrwt>
<pdfrwt beam="2">  1       -1 0.29509713E+00 0.18045442E+04</pdfrwt>
<totfact> 0.28532147E+00</totfact>
</mgrwt>
</event>
<event>
12    7  0.1660832E-007  0.1867602E+04  0.7818608E-02  0.8671153E-01
          2   -1    0    0  501    0  0.00000000000E+00  0.00000000000E+00  0.13809965916E+04  0.13809965916E+04  0.00000000000E+00 0. -1.
         -1   -1    0    0    0  501 -0.00000000000E+00 -0.00000000000E+00 -0.63141684567E+03  0.63141684567E+03  0.00000000000E+00 0.  1.
         24    2    1    2    0    0 -0.42073803114E+03  0.16012326274E+03  0.88309216318E+03  0.99478809894E+03  0.84211893461E+02 0.  0.
        254    2    1    2    0    0  0.42073803114E+03 -0.16012326274E+03 -0.13351241724E+03  0.10176253383E+04  0.90281549253E+03 0.  0.
         23    2    4    4    0    0  0.37476620272E+03 -0.33037123242E+03 -0.42666144657E+03  0.66326678239E+03  0.91038325523E+02 0.  0.
         23    2    4    4    0    0  0.45971828413E+02  0.17024796968E+03  0.29314902932E+03  0.35435855595E+03  0.92389677952E+02 0.  0.
          2    1    3    3  502    0 -0.35799163238E+03  0.14062976456E+03  0.80888635422E+03  0.89567397728E+03  0.00000000000E+00 0. -1.
         -1    1    3    3    0  502 -0.62746398755E+02  0.19493498189E+02  0.74205808961E+02  0.99114121658E+02  0.00000000000E+00 0.  1.
         13    1    5    5    0    0  0.11564224571E+02 -0.23385516483E+02 -0.50804525895E+02  0.57111413242E+02  0.00000000000E+00 0. -1.
        -13    1    5    5    0    0  0.36320197815E+03 -0.30698571594E+03 -0.37585692067E+03  0.60615536914E+03  0.00000000000E+00 0.  1.
          1    1    6    6  503    0  0.55698762035E+00  0.52220470230E+02  0.25030696241E+02  0.57912205109E+02  0.00000000000E+00 0. -1.
         -1    1    6    6    0  503  0.45414840793E+02  0.11802749945E+03  0.26811833308E+03  0.29644635084E+03  0.00000000000E+00 0.  1.
<mgrwt>
<rscale>  0 0.18676022E+04</rscale>
<asrwt>0</asrwt>
<pdfrwt beam="1">  1        2 0.21246101E+00 0.18676022E+04</pdfrwt>
<pdfrwt beam="2">  1       -1 0.97141053E-01 0.18676022E+04</pdfrwt>
<totfact> 0.16170262E+01</totfact>
</mgrwt>
</event>
<event>
12    7  0.1660832E-007  0.2262443E+04  0.7818608E-02  0.8492878E-01
          2   -1    0    0  501    0  0.00000000000E+00  0.00000000000E+00  0.60487447136E+03  0.60487447136E+03  0.00000000000E+00 0. -1.
         -1   -1    0    0    0  501 -0.00000000000E+00 -0.00000000000E+00 -0.21155821866E+04  0.21155821866E+04  0.00000000000E+00 0.  1.
         24    2    1    2    0    0 -0.23553520444E+03 -0.33530350552E+03  0.39544245662E+03  0.57447803134E+03  0.75795769366E+02 0.  0.
        254    2    1    2    0    0  0.23553520444E+03  0.33530350552E+03 -0.19061501719E+04  0.21459786266E+04  0.89661057038E+03 0.  0.
         23    2    4    4    0    0  0.17857295338E+03  0.17892839838E+03 -0.19364785187E+04  0.19548563270E+04  0.87238375218E+02 0.  0.
         23    2    4    4    0    0  0.56962251064E+02  0.15637510714E+03  0.30328346870E+02  0.19112229967E+03  0.88938476640E+02 0.  0.
          2    1    3    3  502    0 -0.21248786575E+03 -0.24917125311E+03  0.30615571251E+03  0.44829535663E+03  0.00000000000E+00 0. -1.
         -1    1    3    3    0  502 -0.23047338691E+02 -0.86132252408E+02  0.89286744106E+02  0.12618267472E+03  0.00000000000E+00 0.  1.
         13    1    5    5    0    0  0.54911925045E+02  0.11426107621E+03 -0.83365051799E+03  0.84323430859E+03  0.00000000000E+00 0.  1.
        -13    1    5    5    0    0  0.12366102833E+03  0.64667322169E+02 -0.11028280008E+04  0.11116220184E+04  0.00000000000E+00 0. -1.
          2    1    6    6  503    0  0.21353081016E+02  0.14753670535E+03  0.10563765257E+02  0.14944773880E+03  0.00000000000E+00 0. -1.
         -2    1    6    6    0  503  0.35609170048E+02  0.88384017917E+01  0.19764581612E+02  0.41674560874E+02  0.00000000000E+00 0.  1.
<mgrwt>
<rscale>  0 0.22624426E+04</rscale>
<asrwt>0</asrwt>
<pdfrwt beam="1">  1        2 0.93057610E-01 0.22624426E+04</pdfrwt>
<pdfrwt beam="2">  1       -1 0.32547419E+00 0.22624426E+04</pdfrwt>
<totfact> 0.11496424E+00</totfact>
</mgrwt>
</event>
<event>
12    7  0.1660832E-007  0.1828343E+04  0.7818608E-02  0.8691370E-01
          2   -1    0    0  501    0  0.00000000000E+00  0.00000000000E+00  0.17174094279E+04  0.17174094279E+04  0.00000000000E+00 0. -1.
         -1   -1    0    0    0  501 -0.00000000000E+00 -0.00000000000E+00 -0.48661072401E+03  0.48661072401E+03  0.00000000000E+00 0.  1.
         24    2    1    2    0    0  0.46893333405E+03 -0.80001965823E+02  0.10905854820E+04  0.11923483123E+04  0.77582329795E+02 0.  0.
        254    2    1    2    0    0 -0.46893333405E+03  0.80001965823E+02  0.14021322184E+03  0.10116718396E+04  0.88177172620E+03 0.  0.
         23    2    4    4    0    0 -0.37680236089E+03  0.41469160416E+03 -0.10475416180E+03  0.57721272572E+03  0.90840247618E+02 0.  0.
         23    2    4    4    0    0 -0.92130973158E+02 -0.33468963833E+03  0.24496738364E+03  0.43445911387E+03  0.90776827181E+02 0.  0.
          4    1    3    3  502    0  0.39612888407E+03 -0.95547439407E+02  0.91529619470E+03  0.10019054496E+04  0.00000000000E+00 0. -1.
         -3    1    3    3    0  502  0.72804449978E+02  0.15545473584E+02  0.17528928730E+03  0.19044286264E+03  0.00000000000E+00 0.  1.
         13    1    5    5    0    0 -0.22405489046E+03  0.28228487197E+03 -0.29833534904E+02  0.36162879128E+03  0.00000000000E+00 0.  1.
        -13    1    5    5    0    0 -0.15274747043E+03  0.13240673219E+03 -0.74920626897E+02  0.21558393444E+03  0.00000000000E+00 0. -1.
          3    1    6    6  503    0 -0.10409927333E+03 -0.31787252401E+03  0.24357067694E+03  0.41377079995E+03  0.00000000000E+00 0. -1.
         -3    1    6    6    0  503  0.11968300168E+02 -0.16817114320E+02  0.13967066982E+01  0.20688313913E+02  0.00000000000E+00 0.  1.
<mgrwt>
<rscale>  0 0.18283433E+04</rscale>
<asrwt>0</asrwt>
<pdfrwt beam="1">  1        2 0.26421683E+00 0.18283433E+04</pdfrwt>
<pdfrwt beam="2">  1       -1 0.74863189E-01 0.18283433E+04</pdfrwt>
<totfact> 0.18466771E+01</totfact>
</mgrwt>
</event>
<event>
12    7  0.1660832E-007  0.2494185E+04  0.7818608E-02  0.8405060E-01
         -1   -1    0    0    0  501 -0.00000000000E+00  0.00000000000E+00  0.18681225344E+04  0.18681225344E+04  0.00000000000E+00 0.  1.
          2   -1    0    0  501    0  0.00000000000E+00 -0.00000000000E+00 -0.83251501419E+03  0.83251501419E+03  0.00000000000E+00 0. -1.
         24    2    1    2    0    0 -0.77249330139E+03 -0.75049634847E+03  0.58646793244E+03  0.12294930879E+04  0.87851850514E+02 0.  0.
        254    2    1    2    0    0  0.77249330139E+03  0.75049634847E+03  0.44913958782E+03  0.14711444607E+04  0.89585098384E+03 0.  0.
         23    2    4    4    0    0 -0.18641906029E+03  0.13231782765E+03  0.14728061324E+02  0.24692615089E+03  0.92171224645E+02 0.  0.
         23    2    4    4    0    0  0.95891236167E+03  0.61817852083E+03  0.43441152649E+03  0.12242183098E+04  0.91320834605E+02 0.  0.
          4    1    3    3  502    0 -0.19822187221E+03 -0.20919489379E+03  0.11554381466E+03  0.31049120328E+03  0.00000000000E+00 0. -1.
         -1    1    3    3    0  502 -0.57427142918E+03 -0.54130145469E+03  0.47092411778E+03  0.91900188462E+03  0.00000000000E+00 0.  1.
         13    1    5    5    0    0 -0.18123080332E+03  0.14211988690E+03  0.25185486286E+02  0.23168291919E+03  0.00000000000E+00 0. -1.
        -13    1    5    5    0    0 -0.51882569687E+01 -0.98020592529E+01 -0.10457424962E+02  0.15243231705E+02  0.00000000000E+00 0.  1.
          2    1    6    6  503    0  0.85805251332E+03  0.57735022959E+03  0.41121926224E+03  0.11129639189E+04  0.00000000000E+00 0. -1.
         -2    1    6    6    0  503  0.10085984835E+03  0.40828291241E+02  0.23192264249E+02  0.11125439091E+03  0.00000000000E+00 0.  1.
<mgrwt>
<rscale>  0 0.24941853E+04</rscale>
<asrwt>0</asrwt>
<pdfrwt beam="1">  1        2 0.12807923E+00 0.24941853E+04</pdfrwt>
<pdfrwt beam="2">  1       -1 0.28740346E+00 0.24941853E+04</pdfrwt>
<totfact> 0.13243039E+00</totfact>
</mgrwt>
</event>
<event>
12    7  0.1660832E-007  0.1549749E+04  0.7818608E-02  0.8852028E-01
          2   -1    0    0  501    0  0.00000000000E+00  0.00000000000E+00  0.19756738702E+04  0.19756738702E+04  0.00000000000E+00 0. -1.
         -1   -1    0    0    0  501 -0.00000000000E+00 -0.00000000000E+00 -0.30391174705E+03  0.30391174705E+03  0.00000000000E+00 0.  1.
         24    2    1    2    0    0  0.66440280357E+02 -0.15434061676E+03 -0.14365295257E+03  0.23474443631E+03  0.78952154891E+02 0.  0.
        254    2    1    2    0    0 -0.66440280357E+02  0.15434061676E+03  0.18154150757E+04  0.20448411809E+04  0.92596340169E+03 0.  0.
         23    2    4    4    0    0 -0.91776756223E+02  0.48224639804E+03  0.59454686872E+03  0.77708781193E+03  0.96927431300E+02 0.  0.
         23    2    4    4    0    0  0.25336475865E+02 -0.32790578128E+03  0.12208682070E+04  0.12677533690E+04  0.92278314635E+02 0.  0.
          2    1    3    3  502    0 -0.41157370242E+01 -0.28140360480E+02  0.32504482906E+01  0.28624894642E+02  0.00000000000E+00 0. -1.
         -1    1    3    3    0  502  0.70556017381E+02 -0.12620025628E+03 -0.14690340086E+03  0.20611954167E+03  0.00000000000E+00 0.  1.
         13    1    5    5    0    0 -0.31843340199E+02  0.38373300347E+03  0.45497086893E+03  0.59603985425E+03  0.00000000000E+00 0. -1.
        -13    1    5    5    0    0 -0.59933416024E+02  0.98513394568E+02  0.13957599979E+03  0.18104795769E+03  0.00000000000E+00 0.  1.
          1    1    6    6  503    0 -0.90564022084E+01 -0.21118134059E+03  0.90248942472E+03  0.92691247632E+03  0.00000000000E+00 0. -1.
         -1    1    6    6    0  503  0.34392878074E+02 -0.11672444069E+03  0.31837878229E+03  0.34084089269E+03  0.00000000000E+00 0.  1.
<mgrwt>
<rscale>  0 0.15497490E+04</rscale>
<asrwt>0</asrwt>
<pdfrwt beam="1">  1        2 0.30394982E+00 0.15497490E+04</pdfrwt>
<pdfrwt beam="2">  1       -1 0.46755655E-01 0.15497490E+04</pdfrwt>
<totfact> 0.34455877E+01</totfact>
</mgrwt>
</event>
<event>
12    7  0.1660832E-007  0.2084208E+04  0.7818608E-02  0.8568232E-01
         -1   -1    0    0    0  501 -0.00000000000E+00  0.00000000000E+00  0.12194889032E+04  0.12194889032E+04  0.00000000000E+00 0.  1.
          2   -1    0    0  501    0  0.00000000000E+00 -0.00000000000E+00 -0.89052150493E+03  0.89052150493E+03  0.00000000000E+00 0. -1.
         24    2    1    2    0    0 -0.26032515411E+03 -0.79972533518E+03  0.37708099001E+02  0.84563212274E+03  0.79636603969E+02 0.  0.
        254    2    1    2    0    0  0.26032515411E+03  0.79972533518E+03  0.29125929929E+03  0.12643782854E+04  0.89804825682E+03 0.  0.
         23    2    4    4    0    0  0.34903617846E+03  0.42479222457E+03  0.55655668007E+03  0.78707866411E+03  0.86387484252E+02 0.  0.
         23    2    4    4    0    0 -0.88711024355E+02  0.37493311061E+03 -0.26529738078E+03  0.47729962129E+03  0.94803718061E+02 0.  0.
          2    1    3    3  502    0 -0.20743645144E+03 -0.54975438592E+03  0.16125401539E+01  0.58759030499E+03  0.00000000000E+00 0. -1.
         -1    1    3    3    0  502 -0.52888702671E+02 -0.24997094926E+03  0.36095558847E+02  0.25804181776E+03  0.00000000000E+00 0.  1.
         13    1    5    5    0    0  0.33480134843E+03  0.38127244744E+03  0.53177569740E+03  0.73501429540E+03  0.00000000000E+00 0. -1.
        -13    1    5    5    0    0  0.14234830033E+02  0.43519777132E+02  0.24780982663E+02  0.52064368713E+02  0.00000000000E+00 0.  1.
          3    1    6    6  503    0 -0.84938622912E+02  0.33547096692E+03 -0.19665032425E+03  0.39802850317E+03  0.00000000000E+00 0. -1.
         -3    1    6    6    0  503 -0.37724014424E+01  0.39462143695E+02 -0.68647056535E+02  0.79271118123E+02  0.00000000000E+00 0.  1.
<mgrwt>
<rscale>  0 0.20842083E+04</rscale>
<asrwt>0</asrwt>
<pdfrwt beam="1">  1        2 0.13700331E+00 0.20842083E+04</pdfrwt>
<pdfrwt beam="2">  1       -1 0.18761368E+00 0.20842083E+04</pdfrwt>
<totfact> 0.57540454E+00</totfact>
</mgrwt>
</event>
<event>
12    7  0.1660832E-007  0.1658875E+04  0.7818608E-02  0.8785173E-01
          2   -1    0    0  501    0  0.00000000000E+00  0.00000000000E+00  0.27086869053E+04  0.27086869053E+04  0.00000000000E+00 0. -1.
         -1   -1    0    0    0  501 -0.00000000000E+00 -0.00000000000E+00 -0.25398532426E+03  0.25398532426E+03  0.00000000000E+00 0.  1.
         24    2    1    2    0    0 -0.48151385449E+03 -0.24187931538E+03  0.48921161318E+03  0.73210067742E+03  0.79260356659E+02 0.  0.
        254    2    1    2    0    0  0.48151385449E+03  0.24187931538E+03  0.19654899679E+04  0.22305715521E+04  0.90660765505E+03 0.  0.
         23    2    4    4    0    0 -0.22063520854E+03 -0.10557931303E+03  0.39530201809E+03  0.47376144273E+03  0.91429385412E+02 0.  0.
         23    2    4    4    0    0  0.70214906303E+03  0.34745862841E+03  0.15701879498E+04  0.17568101094E+04  0.84562153313E+02 0.  0.
          4    1    3    3  502    0 -0.24701443351E+02 -0.32180999966E+01  0.46128325981E+02  0.52424611863E+02  0.00000000000E+00 0. -1.
         -3    1    3    3    0  502 -0.45681241114E+03 -0.23866121539E+03  0.44308328720E+03  0.67967606556E+03  0.00000000000E+00 0.  1.
         13    1    5    5    0    0 -0.69223712380E+02  0.10835845379E+02  0.11087338129E+03  0.13115732758E+03  0.00000000000E+00 0.  1.
        -13    1    5    5    0    0 -0.15141149616E+03 -0.11641515841E+03  0.28442863681E+03  0.34260411514E+03  0.00000000000E+00 0. -1.
          2    1    6    6  503    0  0.61614247458E+03  0.30945162915E+03  0.14360832524E+04  0.15930244717E+04  0.00000000000E+00 0. -1.
         -2    1    6    6    0  503  0.86006588457E+02  0.38006999263E+02  0.13410469738E+03  0.16378563768E+03  0.00000000000E+00 0.  1.
<mgrwt>
<rscale>  0 0.16588752E+04</rscale>
<asrwt>0</asrwt>
<pdfrwt beam="1">  1        2 0.41672104E+00 0.16588752E+04</pdfrwt>
<pdfrwt beam="2">  1       -1 0.39074667E-01 0.16588752E+04</pdfrwt>
<totfact> 0.18188634E+01</totfact>
</mgrwt>
</event>
<event>
12    7  0.1660832E-007  0.4090012E+04  0.7818608E-02  0.7986630E-01
          2   -1    0    0  501    0  0.00000000000E+00  0.00000000000E+00  0.25237963023E+04  0.25237963023E+04  0.00000000000E+00 0. -1.
         -1   -1    0    0    0  501 -0.00000000000E+00 -0.00000000000E+00 -0.16570472240E+04  0.16570472240E+04  0.00000000000E+00 0.  1.
         24    2    1    2    0    0 -0.42386670535E+03  0.12142028245E+04  0.19064899382E+04  0.23010700893E+04  0.79171892624E+02 0.  0.
        254    2    1    2    0    0  0.42386670535E+03 -0.12142028245E+04 -0.10397408599E+04  0.18797734370E+04  0.89360821159E+03 0.  0.
         23    2    4    4    0    0 -0.18088405436E+03 -0.48412061902E+03 -0.68601675099E+03  0.86384006992E+03  0.92243530328E+02 0.  0.
         23    2    4    4    0    0  0.60475075970E+03 -0.73008220549E+03 -0.35372410894E+03  0.10159333671E+04  0.90864476168E+02 0.  0.
          2    1    3    3  502    0 -0.26583122331E+03  0.86966428917E+03  0.13358518065E+04  0.16160081262E+04  0.00000000000E+00 0. -1.
         -1    1    3    3    0  502 -0.15803548203E+03  0.34453853534E+03  0.57063813172E+03  0.68506196310E+03  0.00000000000E+00 0.  1.
         13    1    5    5    0    0 -0.26149605981E+02 -0.30298622350E+02 -0.24828854249E+02  0.47098624317E+02  0.00000000000E+00 0.  1.
        -13    1    5    5    0    0 -0.15473444838E+03 -0.45382199667E+03 -0.66118789674E+03  0.81674144561E+03  0.00000000000E+00 0. -1.
          1    1    6    6  503    0  0.24919787653E+03 -0.35207938697E+03 -0.12726445161E+03  0.44972849258E+03  0.00000000000E+00 0. -1.
         -1    1    6    6    0  503  0.35555288317E+03 -0.37800281852E+03 -0.22645965734E+03  0.56620487453E+03  0.00000000000E+00 0.  1.
<mgrwt>
<rscale>  0 0.40900121E+04</rscale>
<asrwt>0</asrwt>
<pdfrwt beam="1">  1        2 0.38827635E+00 0.40900121E+04</pdfrwt>
<pdfrwt beam="2">  1       -1 0.25493034E+00 0.40900121E+04</pdfrwt>
<totfact> 0.19432912E-01</totfact>
</mgrwt>
</event>
<event>
12    7  0.1660832E-007  0.1636525E+04  0.7818608E-02  0.8798418E-01
         -1   -1    0    0    0  501 -0.00000000000E+00  0.00000000000E+00  0.91456072206E+03  0.91456072206E+03  0.00000000000E+00 0.  1.
          2   -1    0    0  501    0  0.00000000000E+00 -0.00000000000E+00 -0.73210418711E+03  0.73210418711E+03  0.00000000000E+00 0. -1.
         24    2    1    2    0    0 -0.42839459087E+03  0.27388039983E+03 -0.18069558219E+03  0.54592222985E+03  0.82751366863E+02 0.  0.
        254    2    1    2    0    0  0.42839459087E+03 -0.27388039983E+03  0.36315211715E+03  0.11007426793E+04  0.90621332312E+03 0.  0.
         23    2    4    4    0    0  0.70050832565E+03 -0.14211444532E+03  0.29548820848E+03  0.77748880077E+03  0.79165169688E+02 0.  0.
         23    2    4    4    0    0 -0.27211373478E+03 -0.13176595451E+03  0.67663908671E+02  0.32325387856E+03  0.92230765176E+02 0.  0.
          4    1    3    3  502    0 -0.22205584291E+03  0.92963512403E+02 -0.84411453505E+02  0.25510057917E+03  0.00000000000E+00 0. -1.
         -3    1    3    3    0  502 -0.20633874796E+03  0.18091688743E+03 -0.96284128690E+02  0.29082165068E+03  0.00000000000E+00 0.  1.
         13    1    5    5    0    0  0.54826312141E+03 -0.96726034496E+02  0.19693195651E+03  0.59053414088E+03  0.00000000000E+00 0.  1.
        -13    1    5    5    0    0  0.15224520424E+03 -0.45388410821E+02  0.98556251972E+02  0.18695465989E+03  0.00000000000E+00 0. -1.
          1    1    6    6  503    0 -0.13649427004E+02 -0.21254881746E+02  0.30667086829E+02  0.39730933416E+02  0.00000000000E+00 0. -1.
         -1    1    6    6    0  503 -0.25846430778E+03 -0.11051107276E+03  0.36996821843E+02  0.28352294515E+03  0.00000000000E+00 0.  1.
<mgrwt>
<rscale>  0 0.16365253E+04</rscale>
<asrwt>0</asrwt>
<pdfrwt beam="1">  1        2 0.11263141E+00 0.16365253E+04</pdfrwt>
<pdfrwt beam="2">  1       -1 0.14070165E+00 0.16365253E+04</pdfrwt>
<totfact> 0.17480358E+01</totfact>
</mgrwt>
</event>
<event>
12    7  0.1660832E-007  0.2262229E+04  0.7818608E-02  0.8492964E-01
         -1   -1    0    0    0  501 -0.00000000000E+00  0.00000000000E+00  0.92465228063E+03  0.92465228063E+03  0.00000000000E+00 0.  1.
          2   -1    0    0  501    0  0.00000000000E+00 -0.00000000000E+00 -0.13836766037E+04  0.13836766037E+04  0.00000000000E+00 0. -1.
         24    2    1    2    0    0 -0.23491232323E+03  0.87186473338E+03 -0.49643409752E+03  0.10335083164E+04  0.79754083971E+02 0.  0.
        254    2    1    2    0    0  0.23491232323E+03 -0.87186473338E+03  0.37409774444E+02  0.12748205680E+04  0.89913073374E+03 0.  0.
         23    2    4    4    0    0 -0.14365441501E+03  0.92579350678E+02  0.12723815263E+03  0.23170285259E+03  0.91044699417E+02 0.  0.
         23    2    4    4    0    0  0.37856673825E+03 -0.96444408406E+03 -0.89828378185E+02  0.10431177154E+04  0.80995456685E+02 0.  0.
          4    1    3    3  502    0 -0.98684104061E+01  0.98073554853E+02 -0.76715748900E+02  0.12490441872E+03  0.00000000000E+00 0. -1.
         -3    1    3    3    0  502 -0.22504391283E+03  0.77379117852E+03 -0.41971834862E+03  0.90860389766E+03  0.00000000000E+00 0.  1.
         13    1    5    5    0    0 -0.25845260105E+02  0.39610818550E+02  0.82332309196E+02  0.94950532140E+02  0.00000000000E+00 0. -1.
        -13    1    5    5    0    0 -0.11780915491E+03  0.52968532128E+02  0.44905843433E+02  0.13675232045E+03  0.00000000000E+00 0.  1.
          2    1    6    6  503    0  0.37580351184E+03 -0.96301664140E+03 -0.93891983896E+02  0.10380004989E+04  0.00000000000E+00 0.  1.
         -2    1    6    6    0  503  0.27632264026E+01 -0.14274426507E+01  0.40636057110E+01  0.51172164355E+01  0.00000000000E+00 0. -1.
<mgrwt>
<rscale>  0 0.22622287E+04</rscale>
<asrwt>0</asrwt>
<pdfrwt beam="1">  1        2 0.21287332E+00 0.22622287E+04</pdfrwt>
<pdfrwt beam="2">  1       -1 0.14225420E+00 0.22622287E+04</pdfrwt>
<totfact> 0.61586496E+00</totfact>
</mgrwt>
</event>
<event>
12    7  0.1660832E-007  0.4055853E+04  0.7818608E-02  0.7993373E-01
          2   -1    0    0  501    0  0.00000000000E+00  0.00000000000E+00  0.29868228390E+04  0.29868228390E+04  0.00000000000E+00 0. -1.
         -1   -1    0    0    0  501 -0.00000000000E+00 -0.00000000000E+00 -0.13768764321E+04  0.13768764321E+04  0.00000000000E+00 0.  1.
         24    2    1    2    0    0  0.49310453916E+03 -0.11688278368E+04 -0.79245285270E+03  0.14976043435E+04  0.74341424529E+02 0.  0.
        254    2    1    2    0    0 -0.49310453916E+03  0.11688278368E+04  0.24023992596E+04  0.28660949275E+04  0.91305384953E+03 0.  0.
         23    2    4    4    0    0 -0.96227802385E+02  0.63287198832E+02 -0.43750911115E+02  0.15105718788E+03  0.87401786589E+02 0.  0.
         23    2    4    4    0    0 -0.39687673677E+03  0.11055406380E+04  0.24461501707E+04  0.27150377396E+04  0.89710775950E+02 0.  0.
          2    1    3    3  502    0  0.82981150764E+02 -0.23922669664E+03 -0.18775679902E+03  0.31522674276E+03  0.00000000000E+00 0. -1.
         -1    1    3    3    0  502  0.41012338839E+03 -0.92960114017E+03 -0.60469605368E+03  0.11823776008E+04  0.00000000000E+00 0.  1.
         13    1    5    5    0    0 -0.85008165340E+02  0.73535499839E+01 -0.13189777645E+02  0.86339058984E+02  0.00000000000E+00 0. -1.
        -13    1    5    5    0    0 -0.11219637045E+02  0.55933648848E+02 -0.30561133469E+02  0.64718128896E+02  0.00000000000E+00 0.  1.
          3    1    6    6  503    0 -0.25480763642E+03  0.71746777082E+03  0.14848677165E+04  0.16686878286E+04  0.00000000000E+00 0. -1.
         -3    1    6    6    0  503 -0.14206910036E+03  0.38807286716E+03  0.96128245425E+03  0.10463499110E+04  0.00000000000E+00 0.  1.
<mgrwt>
<rscale>  0 0.40558530E+04</rscale>
<asrwt>0</asrwt>
<pdfrwt beam="1">  1        2 0.45951121E+00 0.40558530E+04</pdfrwt>
<pdfrwt beam="2">  1       -1 0.21182714E+00 0.40558530E+04</pdfrwt>
<totfact> 0.19763850E-01</totfact>
</mgrwt>
</event>
<event>
12    7  0.1660832E-007  0.1504636E+04  0.7818608E-02  0.8881376E-01
         -1   -1    0    0    0  501 -0.00000000000E+00  0.00000000000E+00  0.31886642087E+03  0.31886642087E+03  0.00000000000E+00 0.  1.
          2   -1    0    0  501    0  0.00000000000E+00 -0.00000000000E+00 -0.17749833571E+04  0.17749833571E+04  0.00000000000E+00 0. -1.
         24    2    1    2    0    0 -0.52943398300E+02  0.42448022074E+03 -0.76444579171E+03  0.87956744562E+03  0.79215287026E+02 0.  0.
        254    2    1    2    0    0  0.52943398300E+02 -0.42448022074E+03 -0.69167114451E+03  0.12142823324E+04  0.90171289737E+03 0.  0.
         23    2    4    4    0    0 -0.15672957166E+03 -0.48103622523E+03 -0.32960603898E+02  0.51450974995E+03  0.87600643661E+02 0.  0.
         23    2    4    4    0    0  0.20967296996E+03  0.56556004493E+02 -0.65871054061E+03  0.69977258240E+03  0.92848019812E+02 0.  0.
          2    1    3    3  502    0 -0.16999253038E+02  0.23578375657E+03 -0.34489240987E+03  0.41813123401E+03  0.00000000000E+00 0. -1.
         -1    1    3    3    0  502 -0.35944145262E+02  0.18869646416E+03 -0.41955338184E+03  0.46143621161E+03  0.00000000000E+00 0.  1.
         13    1    5    5    0    0 -0.55812413675E+02 -0.27100498458E+03 -0.48763070709E+02  0.28095651665E+03  0.00000000000E+00 0. -1.
        -13    1    5    5    0    0 -0.10091715799E+03 -0.21003124065E+03  0.15802466811E+02  0.23355323330E+03  0.00000000000E+00 0.  1.
          3    1    6    6  503    0  0.30532172821E+02  0.33876046373E+02 -0.66427449500E+02  0.80575468613E+02  0.00000000000E+00 0. -1.
         -3    1    6    6    0  503  0.17914079714E+03  0.22679958120E+02 -0.59228309111E+03  0.61919711379E+03  0.00000000000E+00 0.  1.
<mgrwt>
<rscale>  0 0.15046363E+04</rscale>
<asrwt>0</asrwt>
<pdfrwt beam="1">  1        2 0.27307437E+00 0.15046363E+04</pdfrwt>
<pdfrwt beam="2">  1       -1 0.49056371E-01 0.15046363E+04</pdfrwt>
<totfact> 0.40800771E+01</totfact>
</mgrwt>
</event>
<event>
12    7  0.1660832E-007  0.1152132E+04  0.7818608E-02  0.9155819E-01
         -1   -1    0    0    0  501 -0.00000000000E+00  0.00000000000E+00  0.82050970564E+03  0.82050970564E+03  0.00000000000E+00 0.  1.
          2   -1    0    0  501    0  0.00000000000E+00 -0.00000000000E+00 -0.40444586907E+03  0.40444586907E+03  0.00000000000E+00 0. -1.
         24    2    1    2    0    0  0.61324506484E+02 -0.25495436392E+02 -0.11538533041E+03  0.15631523747E+03  0.81914385923E+02 0.  0.
        254    2    1    2    0    0 -0.61324506484E+02  0.25495436392E+02  0.53144916698E+03  0.10686403372E+04  0.92473955302E+03 0.  0.
         23    2    4    4    0    0 -0.30350655904E+03 -0.29695635691E+03  0.54380748368E+02  0.43730106200E+03  0.89306459689E+02 0.  0.
         23    2    4    4    0    0  0.24218205256E+03  0.32245179331E+03  0.47706841861E+03  0.63133927524E+03  0.91475126833E+02 0.  0.
          4    1    3    3  502    0  0.20604533260E+01 -0.11521198664E+02 -0.89316562660E+02  0.90080141274E+02  0.00000000000E+00 0. -1.
         -3    1    3    3    0  502  0.59264053158E+02 -0.13974237728E+02 -0.26068767748E+02  0.66235096201E+02  0.00000000000E+00 0.  1.
         13    1    5    5    0    0 -0.83163674116E+02 -0.50279542715E+02  0.43210961510E+02  0.10635514234E+03  0.00000000000E+00 0. -1.
        -13    1    5    5    0    0 -0.22034288492E+03 -0.24667681420E+03  0.11169786858E+02  0.33094591966E+03  0.00000000000E+00 0.  1.
          1    1    6    6  503    0  0.15359623928E+03  0.24434125951E+03  0.38722107472E+03  0.48294369913E+03  0.00000000000E+00 0. -1.
         -1    1    6    6    0  503  0.88585813272E+02  0.78110533798E+02  0.89847343893E+02  0.14839557611E+03  0.00000000000E+00 0.  1.
<mgrwt>
<rscale>  0 0.11521315E+04</rscale>
<asrwt>0</asrwt>
<pdfrwt beam="1">  1        2 0.62222441E-01 0.11521315E+04</pdfrwt>
<pdfrwt beam="2">  1       -1 0.12623226E+00 0.11521315E+04</pdfrwt>
<totfact> 0.48596061E+01</totfact>
</mgrwt>
</event>
<event>
12    7  0.1660832E-007  0.2579802E+04  0.7818608E-02  0.8375094E-01
          2   -1    0    0  501    0  0.00000000000E+00  0.00000000000E+00  0.14261243264E+04  0.14261243264E+04  0.00000000000E+00 0. -1.
         -1   -1    0    0    0  501 -0.00000000000E+00 -0.00000000000E+00 -0.11666901295E+04  0.11666901295E+04  0.00000000000E+00 0.  1.
         24    2    1    2    0    0  0.50624442817E+03 -0.31487497977E+03  0.10797376822E+04  0.12360290006E+04  0.80650816208E+02 0.  0.
        254    2    1    2    0    0 -0.50624442817E+03  0.31487497977E+03 -0.82030348534E+03  0.13567854553E+04  0.90140961260E+03 0.  0.
         23    2    4    4    0    0  0.79287971741E+02  0.12923410660E+03  0.13079425128E+03  0.22088287877E+03  0.93242014113E+02 0.  0.
         23    2    4    4    0    0 -0.58553239991E+03  0.18564087318E+03 -0.95109773662E+03  0.11359025765E+04  0.91526136195E+02 0.  0.
          2    1    3    3  502    0  0.49248709773E+03 -0.29043111887E+03  0.10468271396E+04  0.11927870038E+04  0.00000000000E+00 0. -1.
         -1    1    3    3    0  502  0.13757330446E+02 -0.24443860904E+02  0.32910542524E+02  0.43241996787E+02  0.00000000000E+00 0.  1.
         13    1    5    5    0    0 -0.91179731306E+01  0.21648556583E+02 -0.74706833220E+01  0.24649716944E+02  0.00000000000E+00 0. -1.
        -13    1    5    5    0    0  0.88405944871E+02  0.10758555001E+03  0.13826493460E+03  0.19623316182E+03  0.00000000000E+00 0.  1.
          1    1    6    6  503    0 -0.24218686505E+02 -0.58884295198E+01 -0.65200044900E+02  0.69801606237E+02  0.00000000000E+00 0. -1.
         -1    1    6    6    0  503 -0.56131371341E+03  0.19152930270E+03 -0.88589769172E+03  0.10661009703E+04  0.00000000000E+00 0.  1.
<mgrwt>
<rscale>  0 0.25798025E+04</rscale>
<asrwt>0</asrwt>
<pdfrwt beam="1">  1        2 0.21940374E+00 0.25798025E+04</pdfrwt>
<pdfrwt beam="2">  1       -1 0.17949079E+00 0.25798025E+04</pdfrwt>
<totfact> 0.29616798E+00</totfact>
</mgrwt>
</event>
<event>
12    7  0.1660832E-007  0.1335138E+04  0.7818608E-02  0.9002155E-01
          2   -1    0    0  501    0  0.00000000000E+00  0.00000000000E+00  0.28641159632E+04  0.28641159632E+04  0.00000000000E+00 0. -1.
         -1   -1    0    0    0  501 -0.00000000000E+00 -0.00000000000E+00 -0.15559724363E+03  0.15559724363E+03  0.00000000000E+00 0.  1.
         24    2    1    2    0    0  0.25964434993E+03 -0.24994562285E+03  0.62558871925E+03  0.72644955451E+03  0.80496625771E+02 0.  0.
        254    2    1    2    0    0 -0.25964434993E+03  0.24994562285E+03  0.20829300003E+04  0.22932636524E+04  0.88914160292E+03 0.  0.
         23    2    4    4    0    0  0.12392980775E+03 -0.96504930208E+02  0.14913329804E+04  0.15023532816E+04  0.91211433047E+02 0.  0.
         23    2    4    4    0    0 -0.38357415768E+03  0.34645055306E+03  0.59159701998E+03  0.79091037078E+03  0.91624562285E+02 0.  0.
          2    1    3    3  502    0  0.18335296269E+03 -0.21333245829E+03  0.43650134430E+03  0.51929035256E+03  0.00000000000E+00 0. -1.
         -1    1    3    3    0  502  0.76291387238E+02 -0.36613164559E+02  0.18908737495E+03  0.20715920195E+03  0.00000000000E+00 0.  1.
         13    1    5    5    0    0  0.10459410985E+03 -0.11213989521E+03  0.11605968061E+04  0.11706836594E+04  0.00000000000E+00 0. -1.
        -13    1    5    5    0    0  0.19335697902E+02  0.15634965006E+02  0.33073617423E+03  0.33166962220E+03  0.00000000000E+00 0.  1.
          2    1    6    6  503    0 -0.37147990388E+03  0.30690689064E+03  0.52582230339E+03  0.71321683466E+03  0.00000000000E+00 0. -1.
         -2    1    6    6    0  503 -0.12094253800E+02  0.39543662418E+02  0.65774716587E+02  0.77693536117E+02  0.00000000000E+00 0.  1.
<mgrwt>
<rscale>  0 0.13351383E+04</rscale>
<asrwt>0</asrwt>
<pdfrwt beam="1">  1        2 0.44063318E+00 0.13351383E+04</pdfrwt>
<pdfrwt beam="2">  1       -1 0.23938040E-01 0.13351383E+04</pdfrwt>
<totfact> 0.35822640E+01</totfact>
</mgrwt>
</event>
<event>
12    7  0.1660832E-007  0.1048879E+04  0.7818608E-02  0.9256502E-01
          2   -1    0    0  501    0  0.00000000000E+00  0.00000000000E+00  0.18036781843E+03  0.18036781843E+03  0.00000000000E+00 0. -1.
         -1   -1    0    0    0  501 -0.00000000000E+00 -0.00000000000E+00 -0.15248675252E+04  0.15248675252E+04  0.00000000000E+00 0.  1.
         24    2    1    2    0    0 -0.11684480507E+03  0.13935970578E+02 -0.12737681097E+03  0.19070537061E+03  0.79352168587E+02 0.  0.
        254    2    1    2    0    0  0.11684480507E+03 -0.13935970578E+02 -0.12171228958E+04  0.15145299730E+04  0.89362518764E+03 0.  0.
         23    2    4    4    0    0 -0.32842228221E+02  0.38324436774E+03 -0.28623379190E+03  0.48744775623E+03  0.87867366387E+02 0.  0.
         23    2    4    4    0    0  0.14968703330E+03 -0.39718033832E+03 -0.93088910393E+03  0.10270822168E+04  0.90470587489E+02 0.  0.
          2    1    3    3  502    0 -0.12510672689E+03  0.16252723739E+02 -0.96994018905E+02  0.15913416932E+03  0.00000000000E+00 0. -1.
         -1    1    3    3    0  502  0.82619218183E+01 -0.23167531610E+01 -0.30382792064E+02  0.31571201291E+02  0.00000000000E+00 0.  1.
         13    1    5    5    0    0 -0.45766034564E+00  0.34610798219E+01  0.61419909291E+01  0.70648835163E+01  0.00000000000E+00 0. -1.
        -13    1    5    5    0    0 -0.32384567875E+02  0.37978328792E+03 -0.29237578283E+03  0.48038287272E+03  0.00000000000E+00 0.  1.
          4    1    6    6  503    0  0.78132021793E+02 -0.13145567254E+03 -0.25530012216E+03  0.29759596611E+03  0.00000000000E+00 0. -1.
         -4    1    6    6    0  503  0.71555011502E+02 -0.26572466578E+03 -0.67558898177E+03  0.72948625070E+03  0.00000000000E+00 0.  1.
<mgrwt>
<rscale>  0 0.10488795E+04</rscale>
<asrwt>0</asrwt>
<pdfrwt beam="1">  1        2 0.27748896E-01 0.10488795E+04</pdfrwt>
<pdfrwt beam="2">  1       -1 0.23459499E+00 0.10488795E+04</pdfrwt>
<totfact> 0.19653761E+01</totfact>
</mgrwt>
</event>
<event>
12    7  0.1660832E-007  0.2600004E+04  0.7818608E-02  0.8368200E-01
          2   -1    0    0  501    0  0.00000000000E+00  0.00000000000E+00  0.80067198478E+03  0.80067198478E+03  0.00000000000E+00 0. -1.
         -1   -1    0    0    0  501 -0.00000000000E+00 -0.00000000000E+00 -0.21107331053E+04  0.21107331053E+04  0.00000000000E+00 0.  1.
         24    2    1    2    0    0  0.77713181847E+03  0.66736385634E+03 -0.11514515374E+02  0.10275753058E+04  0.80436590138E+02 0.  0.
        254    2    1    2    0    0 -0.77713181847E+03 -0.66736385634E+03 -0.12985466052E+04  0.18838297843E+04  0.90182203917E+03 0.  0.
         23    2    4    4    0    0 -0.77645596490E+03 -0.97108770983E+02 -0.77385236412E+03  0.11046087683E+04  0.94863432250E+02 0.  0.
         23    2    4    4    0    0 -0.67585357002E+00 -0.57025508535E+03 -0.52469424106E+03  0.77922101596E+03  0.81792578944E+02 0.  0.
          2    1    3    3  502    0  0.34570607594E+03  0.32622734632E+03 -0.38705125672E+02  0.47690151937E+03  0.00000000000E+00 0. -1.
         -1    1    3    3    0  502  0.43142574253E+03  0.34113651002E+03  0.27190610298E+02  0.55067378644E+03  0.00000000000E+00 0.  1.
         13    1    5    5    0    0 -0.68743071683E+02  0.18333615530E+02 -0.67517972997E+02  0.98083678767E+02  0.00000000000E+00 0.  1.
        -13    1    5    5    0    0 -0.70771289322E+03 -0.11544238651E+03 -0.70633439112E+03  0.10065250896E+04  0.00000000000E+00 0. -1.
          1    1    6    6  503    0 -0.16920991354E+02 -0.29237327628E+03 -0.21834677994E+03  0.36529956055E+03  0.00000000000E+00 0. -1.
         -1    1    6    6    0  503  0.16245137784E+02 -0.27788180908E+03 -0.30634746111E+03  0.41392145541E+03  0.00000000000E+00 0.  1.
<mgrwt>
<rscale>  0 0.26000037E+04</rscale>
<asrwt>0</asrwt>
<pdfrwt beam="1">  1        2 0.12318031E+00 0.26000037E+04</pdfrwt>
<pdfrwt beam="2">  1       -1 0.32472817E+00 0.26000037E+04</pdfrwt>
<totfact> 0.79123903E-01</totfact>
</mgrwt>
</event>
<event>
12    7  0.1660832E-007  0.2308926E+04  0.7818608E-02  0.8474410E-01
          2   -1    0    0  501    0  0.00000000000E+00  0.00000000000E+00  0.22653324974E+04  0.22653324974E+04  0.00000000000E+00 0. -1.
         -1   -1    0    0    0  501 -0.00000000000E+00 -0.00000000000E+00 -0.58833955365E+03  0.58833955365E+03  0.00000000000E+00 0.  1.
         24    2    1    2    0    0  0.87968532156E+03 -0.41008525827E+03  0.83625547249E+03  0.12836048585E+04  0.79385348131E+02 0.  0.
        254    2    1    2    0    0 -0.87968532156E+03  0.41008525827E+03  0.84073747122E+03  0.15700671925E+04  0.90346848836E+03 0.  0.
         23    2    4    4    0    0 -0.41832177371E+03  0.36012407368E+02 -0.11032309701E+03  0.44442507842E+03  0.95144441483E+02 0.  0.
         23    2    4    4    0    0 -0.46136354785E+03  0.37407285090E+03  0.95106056823E+03  0.11256421141E+04  0.98828859652E+02 0.  0.
          2    1    3    3  502    0  0.86128859706E+03 -0.39855708720E+03  0.83058792533E+03  0.12611669600E+04  0.00000000000E+00 0. -1.
         -1    1    3    3    0  502  0.18396724507E+02 -0.11528171061E+02  0.56675471558E+01  0.22437898550E+02  0.00000000000E+00 0.  1.
         13    1    5    5    0    0 -0.41583425686E+03  0.29275440488E+02 -0.11865869497E+03  0.43342250344E+03  0.00000000000E+00 0. -1.
        -13    1    5    5    0    0 -0.24875168505E+01  0.67369668799E+01  0.83355979577E+01  0.11002574977E+02  0.00000000000E+00 0.  1.
          3    1    6    6  503    0 -0.39610979657E+03  0.36014222618E+03  0.84992579758E+03  0.10044795943E+04  0.00000000000E+00 0. -1.
         -3    1    6    6    0  503 -0.65253751283E+02  0.13930624715E+02  0.10113477065E+03  0.12116251977E+03  0.00000000000E+00 0.  1.
<mgrwt>
<rscale>  0 0.23089259E+04</rscale>
<asrwt>0</asrwt>
<pdfrwt beam="1">  1        2 0.34851269E+00 0.23089259E+04</pdfrwt>
<pdfrwt beam="2">  1       -1 0.90513779E-01 0.23089259E+04</pdfrwt>
<totfact> 0.58319282E+00</totfact>
</mgrwt>
</event>
<event>
12    7  0.1660832E-007  0.1288387E+04  0.7818608E-02  0.9038825E-01
         -1   -1    0    0    0  501 -0.00000000000E+00  0.00000000000E+00  0.69738904081E+03  0.69738904081E+03  0.00000000000E+00 0.  1.
          2   -1    0    0  501    0  0.00000000000E+00 -0.00000000000E+00 -0.59505557799E+03  0.59505557799E+03  0.00000000000E+00 0. -1.
         24    2    1    2    0    0  0.24942782860E+03  0.13201120574E+03 -0.13806081460E+03  0.32453877946E+03  0.81384462416E+02 0.  0.
        254    2    1    2    0    0 -0.24942782860E+03 -0.13201120574E+03  0.24039427742E+03  0.96790583933E+03  0.89409792812E+03 0.  0.
         23    2    4    4    0    0  0.29855281939E+03  0.10937457164E+03  0.65020256592E+02  0.33723604696E+03  0.91672977025E+02 0.  0.
         23    2    4    4    0    0 -0.54798064799E+03 -0.24138577738E+03  0.17537402083E+03  0.63066979237E+03  0.91861067580E+02 0.  0.
          4    1    3    3  502    0  0.10445947500E+03  0.17275007583E+02 -0.28549411869E+02  0.10965982274E+03  0.00000000000E+00 0. -1.
         -3    1    3    3    0  502  0.14496835360E+03  0.11473619816E+03 -0.10951140273E+03  0.21487895672E+03  0.00000000000E+00 0.  1.
         13    1    5    5    0    0  0.29930610105E+03  0.11678877913E+03  0.69255766484E+02  0.32866414810E+03  0.00000000000E+00 0. -1.
        -13    1    5    5    0    0 -0.75328165799E+00 -0.74142074948E+01 -0.42355098920E+01  0.85718988607E+01  0.00000000000E+00 0.  1.
          3    1    6    6  503    0 -0.48483840959E+03 -0.17854615753E+03  0.14689469621E+03  0.53714529278E+03  0.00000000000E+00 0. -1.
         -3    1    6    6    0  503 -0.63142238401E+02 -0.62839619852E+02  0.28479324613E+02  0.93524499591E+02  0.00000000000E+00 0.  1.
<mgrwt>
<rscale>  0 0.12883870E+04</rscale>
<asrwt>0</asrwt>
<pdfrwt beam="1">  1        2 0.91547012E-01 0.12883870E+04</pdfrwt>
<pdfrwt beam="2">  1       -1 0.10729062E+00 0.12883870E+04</pdfrwt>
<totfact> 0.45481027E+01</totfact>
</mgrwt>
</event>
<event>
12    7  0.1660832E-007  0.1600549E+04  0.7818608E-02  0.8820211E-01
          2   -1    0    0  501    0  0.00000000000E+00  0.00000000000E+00  0.37377704094E+03  0.37377704094E+03  0.00000000000E+00 0. -1.
         -1   -1    0    0    0  501 -0.00000000000E+00 -0.00000000000E+00 -0.17134256064E+04  0.17134256064E+04  0.00000000000E+00 0.  1.
         24    2    1    2    0    0  0.88945359783E+02 -0.46215643792E+03 -0.83456436787E+03  0.96143124576E+03  0.79702610171E+02 0.  0.
        254    2    1    2    0    0 -0.88945359783E+02  0.46215643792E+03 -0.50508419757E+03  0.11257714016E+04  0.88924200969E+03 0.  0.
         23    2    4    4    0    0  0.10745781705E+02  0.68004578143E+03 -0.17325591474E+03  0.70784202564E+03  0.91896597388E+02 0.  0.
         23    2    4    4    0    0 -0.99691141488E+02 -0.21788934351E+03 -0.33182828282E+03  0.41792937591E+03  0.84503634624E+02 0.  0.
          4    1    3    3  502    0  0.18749331801E+02 -0.24047846697E+03 -0.36586368324E+03  0.43822102327E+03  0.00000000000E+00 0. -1.
         -3    1    3    3    0  502  0.70196027982E+02 -0.22167797095E+03 -0.46870068463E+03  0.52321022250E+03  0.00000000000E+00 0.  1.
         13    1    5    5    0    0  0.48944288810E+02  0.49094759049E+03 -0.12267520671E+03  0.50840366477E+03  0.00000000000E+00 0.  1.
        -13    1    5    5    0    0 -0.38198507104E+02  0.18909819094E+03 -0.50580708034E+02  0.19943836087E+03  0.00000000000E+00 0. -1.
          3    1    6    6  503    0  0.50531322079E+01 -0.82352428798E+02 -0.98884939613E+02  0.12878543379E+03  0.00000000000E+00 0. -1.
         -3    1    6    6    0  503 -0.10474427370E+03 -0.13553691471E+03 -0.23294334321E+03  0.28914394212E+03  0.00000000000E+00 0.  1.
<mgrwt>
<rscale>  0 0.16005488E+04</rscale>
<asrwt>0</asrwt>
<pdfrwt beam="1">  1        2 0.57504159E-01 0.16005488E+04</pdfrwt>
<pdfrwt beam="2">  1       -1 0.26360394E+00 0.16005488E+04</pdfrwt>
<totfact> 0.53573046E+00</totfact>
</mgrwt>
</event>
<event>
12    7  0.1660832E-007  0.1223657E+04  0.7818608E-02  0.9092398E-01
          2   -1    0    0  501    0  0.00000000000E+00  0.00000000000E+00  0.23138597581E+04  0.23138597581E+04  0.00000000000E+00 0. -1.
         -1   -1    0    0    0  501 -0.00000000000E+00 -0.00000000000E+00 -0.16177904589E+03  0.16177904589E+03  0.00000000000E+00 0.  1.
         24    2    1    2    0    0  0.19097394375E+02 -0.12982114408E+03  0.96432353411E+03  0.97666900668E+03  0.82123262476E+02 0.  0.
        254    2    1    2    0    0 -0.19097394375E+02  0.12982114408E+03  0.11877571781E+04  0.14989697973E+04  0.90494480449E+03 0.  0.
         23    2    4    4    0    0  0.29854822526E+03  0.35615385814E+03  0.42078758612E+03  0.63368255601E+03  0.92275542203E+02 0.  0.
         23    2    4    4    0    0 -0.31764561963E+03 -0.22633271405E+03  0.76696959197E+03  0.86528724129E+03  0.91402504356E+02 0.  0.
          2    1    3    3  502    0  0.99324041478E+01 -0.10763434199E+03  0.49190976483E+03  0.50364572962E+03  0.00000000000E+00 0. -1.
         -1    1    3    3    0  502  0.91649902269E+01 -0.22186802096E+02  0.47241376928E+03  0.47302327706E+03  0.00000000000E+00 0.  1.
         13    1    5    5    0    0  0.17308736185E+03  0.18534519787E+03  0.28729332720E+03  0.38320951588E+03  0.00000000000E+00 0. -1.
        -13    1    5    5    0    0  0.12546086341E+03  0.17080866027E+03  0.13349425893E+03  0.25047304014E+03  0.00000000000E+00 0.  1.
          3    1    6    6  503    0 -0.21548916453E+03 -0.17290790153E+03  0.61778428218E+03  0.67674968914E+03  0.00000000000E+00 0. -1.
         -3    1    6    6    0  503 -0.10215645510E+03 -0.53424812522E+02  0.14918530979E+03  0.18853755215E+03  0.00000000000E+00 0.  1.
<mgrwt>
<rscale>  0 0.12236569E+04</rscale>
<asrwt>0</asrwt>
<pdfrwt beam="1">  1        2 0.35597840E+00 0.12236569E+04</pdfrwt>
<pdfrwt beam="2">  1       -1 0.24889086E-01 0.12236569E+04</pdfrwt>
<totfact> 0.70790444E+01</totfact>
</mgrwt>
</event>
<event>
12    7  0.1660832E-007  0.1600202E+04  0.7818608E-02  0.8820424E-01
          2   -1    0    0  501    0  0.00000000000E+00  0.00000000000E+00  0.71782681514E+03  0.71782681514E+03  0.00000000000E+00 0. -1.
         -1   -1    0    0    0  501 -0.00000000000E+00 -0.00000000000E+00 -0.89180555134E+03  0.89180555134E+03  0.00000000000E+00 0.  1.
         24    2    1    2    0    0  0.44887192069E+03  0.17263080913E+03  0.20369128103E+03  0.52830810742E+03  0.79573368380E+02 0.  0.
        254    2    1    2    0    0 -0.44887192069E+03 -0.17263080913E+03 -0.37767001723E+03  0.10813242591E+04  0.89181843100E+03 0.  0.
         23    2    4    4    0    0 -0.48962062305E+03  0.25595476433E+03 -0.29852986557E+03  0.63393078984E+03  0.86642771010E+02 0.  0.
         23    2    4    4    0    0  0.40748702361E+02 -0.42858557347E+03 -0.79140151654E+02  0.44739346922E+03  0.92475413855E+02 0.  0.
          2    1    3    3  502    0  0.40219282162E+03  0.12904639229E+03  0.18916984426E+03  0.46281450614E+03  0.00000000000E+00 0. -1.
         -1    1    3    3    0  502  0.46679099072E+02  0.43584416848E+02  0.14521436766E+02  0.65493601274E+02  0.00000000000E+00 0.  1.
         13    1    5    5    0    0 -0.25383929637E+03  0.84356166269E+02 -0.14980090862E+03  0.30657896763E+03  0.00000000000E+00 0. -1.
        -13    1    5    5    0    0 -0.23578132668E+03  0.17159859807E+03 -0.14872895696E+03  0.32735182221E+03  0.00000000000E+00 0.  1.
          1    1    6    6  503    0  0.24347066321E+02 -0.39944826742E+03 -0.50491318218E+02  0.40336220844E+03  0.00000000000E+00 0. -1.
         -1    1    6    6    0  503  0.16401636040E+02 -0.29137306048E+02 -0.28648833436E+02  0.44031260779E+02  0.00000000000E+00 0.  1.
<mgrwt>
<rscale>  0 0.16002024E+04</rscale>
<asrwt>0</asrwt>
<pdfrwt beam="1">  1        2 0.11043490E+00 0.16002024E+04</pdfrwt>
<pdfrwt beam="2">  1       -1 0.13720085E+00 0.16002024E+04</pdfrwt>
<totfact> 0.19202406E+01</totfact>
</mgrwt>
</event>
<event>
12    7  0.1688776E-007  0.2704726E+04  0.7818608E-02  0.8333473E-01
         -1   -1    0    0    0  501 -0.00000000000E+00  0.00000000000E+00  0.14915953764E+04  0.14915953764E+04  0.00000000000E+00 0.  1.
          2   -1    0    0  501    0  0.00000000000E+00 -0.00000000000E+00 -0.12261276319E+04  0.12261276319E+04  0.00000000000E+00 0. -1.
         24    2    1    2    0    0  0.10532991834E+04  0.45335066999E+03  0.19250172235E+03  0.11655928083E+04  0.81139890849E+02 0.  0.
        254    2    1    2    0    0 -0.10532991834E+04 -0.45335066999E+03  0.72966022223E+02  0.15521302000E+04  0.10434644784E+04 0.  0.
         23    2    4    4    0    0 -0.26638264528E+03  0.32686680757E+03 -0.47331812131E+02  0.43402127795E+03  0.91282778660E+02 0.  0.
         23    2    4    4    0    0 -0.78691653814E+03 -0.78021747755E+03  0.12029783435E+03  0.11181089221E+04  0.87858080870E+02 0.  0.
          4    1    3    3  502    0  0.15244831720E+03  0.69330357270E+02  0.57365121053E+02  0.17702526647E+03  0.00000000000E+00 0. -1.
         -3    1    3    3    0  502  0.90085086622E+03  0.38402031272E+03  0.13513660130E+03  0.98856754183E+03  0.00000000000E+00 0.  1.
         13    1    5    5    0    0 -0.63618501476E+02  0.82307469613E+02  0.27586801495E+02  0.10762371904E+03  0.00000000000E+00 0. -1.
        -13    1    5    5    0    0 -0.20276414380E+03  0.24455933795E+03 -0.74918613627E+02  0.32639755891E+03  0.00000000000E+00 0.  1.
          2    1    6    6  503    0 -0.20685473747E+02 -0.17909784113E+02  0.17292966325E+02  0.32368130552E+02  0.00000000000E+00 0. -1.
         -2    1    6    6    0  503 -0.76623106439E+03 -0.76230769344E+03  0.10300486803E+03  0.10857407915E+04  0.00000000000E+00 0.  1.
<mgrwt>
<rscale>  0 0.27047265E+04</rscale>
<asrwt>0</asrwt>
<pdfrwt beam="1">  1        2 0.18863502E+00 0.27047265E+04</pdfrwt>
<pdfrwt beam="2">  1       -1 0.22947621E+00 0.27047265E+04</pdfrwt>
<totfact> 0.17373732E+00</totfact>
</mgrwt>
</event>
<event>
12    7  0.1660832E-007  0.1233785E+04  0.7818608E-02  0.9083788E-01
          2   -1    0    0  501    0  0.00000000000E+00  0.00000000000E+00  0.27930269849E+03  0.27930269849E+03  0.00000000000E+00 0. -1.
         -1   -1    0    0    0  501 -0.00000000000E+00 -0.00000000000E+00 -0.13625238524E+04  0.13625238524E+04  0.00000000000E+00 0.  1.
         24    2    1    2    0    0  0.50244728102E+01  0.18166997727E+03  0.32849149987E+02  0.20062164278E+03  0.78362943595E+02 0.  0.
        254    2    1    2    0    0 -0.50244728102E+01 -0.18166997727E+03 -0.11160703039E+04  0.14412049081E+04  0.89354878878E+03 0.  0.
         23    2    4    4    0    0 -0.89805903668E+02  0.28788987393E+03 -0.12769509675E+03  0.33981651514E+03  0.90683771321E+02 0.  0.
         23    2    4    4    0    0  0.84781430858E+02 -0.46955985121E+03 -0.98837520714E+03  0.11013883930E+04  0.92176445832E+02 0.  0.
          2    1    3    3  502    0  0.23291081532E+02  0.10913120929E+03  0.52438291122E+02  0.12329586244E+03  0.00000000000E+00 0. -1.
         -1    1    3    3    0  502 -0.18266608721E+02  0.72538767982E+02 -0.19589141135E+02  0.77325780339E+02  0.00000000000E+00 0.  1.
         13    1    5    5    0    0 -0.61149273647E+02  0.12973163606E+03 -0.10442035344E+03  0.17740671147E+03  0.00000000000E+00 0. -1.
        -13    1    5    5    0    0 -0.28656630021E+02  0.15815823788E+03 -0.23274743308E+02  0.16240980367E+03  0.00000000000E+00 0.  1.
          4    1    6    6  503    0  0.97522595584E+02 -0.31035462396E+03 -0.63001311016E+03  0.70904666153E+03  0.00000000000E+00 0. -1.
         -4    1    6    6    0  503 -0.12741164726E+02 -0.15920522724E+03 -0.35836209699E+03  0.39234173142E+03  0.00000000000E+00 0.  1.
<mgrwt>
<rscale>  0 0.12337854E+04</rscale>
<asrwt>0</asrwt>
<pdfrwt beam="1">  1        2 0.42969646E-01 0.12337854E+04</pdfrwt>
<pdfrwt beam="2">  1       -1 0.20961905E+00 0.12337854E+04</pdfrwt>
<totfact> 0.17359104E+01</totfact>
</mgrwt>
</event>
<event>
12    7  0.1660832E-007  0.2657111E+04  0.7818608E-02  0.8349057E-01
         -1   -1    0    0    0  501 -0.00000000000E+00  0.00000000000E+00  0.89317377519E+03  0.89317377519E+03  0.00000000000E+00 0.  1.
          2   -1    0    0  501    0  0.00000000000E+00 -0.00000000000E+00 -0.19761659051E+04  0.19761659051E+04  0.00000000000E+00 0. -1.
         24    2    1    2    0    0  0.91869684610E+03 -0.65648803320E+03 -0.13297617640E+03  0.11396521355E+04  0.78382994057E+02 0.  0.
        254    2    1    2    0    0 -0.91869684610E+03  0.65648803320E+03 -0.95001595353E+03  0.17296875448E+04  0.90239030239E+03 0.  0.
         23    2    4    4    0    0 -0.10873475564E+04  0.52968824424E+03 -0.74977503392E+03  0.14261227940E+04  0.93644421221E+02 0.  0.
         23    2    4    4    0    0  0.16865071030E+03  0.12679978897E+03 -0.20024091961E+03  0.30356475077E+03  0.86797946172E+02 0.  0.
          4    1    3    3  502    0  0.68078588499E+03 -0.52377245172E+03 -0.86642814188E+02  0.86331568944E+03  0.00000000000E+00 0. -1.
         -1    1    3    3    0  502  0.23791096110E+03 -0.13271558148E+03 -0.46333362207E+02  0.27633644609E+03  0.00000000000E+00 0.  1.
         13    1    5    5    0    0 -0.35677588008E+03  0.12964189374E+03 -0.21420809073E+03  0.43586827753E+03  0.00000000000E+00 0. -1.
        -13    1    5    5    0    0 -0.73057167631E+03  0.40004635050E+03 -0.53556694320E+03  0.99025451649E+03  0.00000000000E+00 0.  1.
          3    1    6    6  503    0  0.12961509732E+03  0.13128612201E+03 -0.18543141626E+03  0.26157394637E+03  0.00000000000E+00 0. -1.
         -3    1    6    6    0  503  0.39035612979E+02 -0.44863330378E+01 -0.14809503348E+02  0.41990804400E+02  0.00000000000E+00 0.  1.
<mgrwt>
<rscale>  0 0.26571109E+04</rscale>
<asrwt>0</asrwt>
<pdfrwt beam="1">  1        2 0.30402552E+00 0.26571109E+04</pdfrwt>
<pdfrwt beam="2">  1       -1 0.13741135E+00 0.26571109E+04</pdfrwt>
<totfact> 0.30364687E+00</totfact>
</mgrwt>
</event>
<event>
12    7  0.1660832E-007  0.1301732E+04  0.7818608E-02  0.9028193E-01
          2   -1    0    0  501    0  0.00000000000E+00  0.00000000000E+00  0.80628857920E+03  0.80628857920E+03  0.00000000000E+00 0. -1.
         -1   -1    0    0    0  501 -0.00000000000E+00 -0.00000000000E+00 -0.52540310681E+03  0.52540310681E+03  0.00000000000E+00 0.  1.
         24    2    1    2    0    0 -0.13380626433E+03  0.28988094845E+03 -0.32752667197E+02  0.33074064077E+03  0.79884626830E+02 0.  0.
        254    2    1    2    0    0  0.13380626433E+03 -0.28988094845E+03  0.31363813958E+03  0.10009510452E+04  0.89532063068E+03 0.  0.
         23    2    4    4    0    0  0.16605010388E+03 -0.31861598551E+03 -0.23768877168E+03  0.44052003838E+03  0.92049816999E+02 0.  0.
         23    2    4    4    0    0 -0.32243839548E+02  0.28735037068E+02  0.55132691126E+03  0.56043100686E+03  0.90863539556E+02 0.  0.
          4    1    3    3  502    0 -0.97124781302E+01  0.10097657651E+02  0.15497978475E+02  0.20892157817E+02  0.00000000000E+00 0. -1.
         -3    1    3    3    0  502 -0.12409378620E+03  0.27978329079E+03 -0.48250645672E+02  0.30984848296E+03  0.00000000000E+00 0.  1.
         13    1    5    5    0    0  0.12906730454E+03 -0.23578722085E+03 -0.12666084178E+03  0.29714802954E+03  0.00000000000E+00 0. -1.
        -13    1    5    5    0    0  0.36982799344E+02 -0.82828764664E+02 -0.11102792990E+03  0.14337200885E+03  0.00000000000E+00 0.  1.
          1    1    6    6  503    0  0.11774776991E+02  0.49861604608E+02  0.25305202489E+03  0.25818627440E+03  0.00000000000E+00 0. -1.
         -1    1    6    6    0  503 -0.44018616539E+02 -0.21126567540E+02  0.29827488637E+03  0.30224473245E+03  0.00000000000E+00 0.  1.
<mgrwt>
<rscale>  0 0.13017320E+04</rscale>
<asrwt>0</asrwt>
<pdfrwt beam="1">  1        2 0.12404440E+00 0.13017320E+04</pdfrwt>
<pdfrwt beam="2">  1       -1 0.80831247E-01 0.13017320E+04</pdfrwt>
<totfact> 0.58220313E+01</totfact>
</mgrwt>
</event>
<event>
12    7  0.1660832E-007  0.1328676E+04  0.7818608E-02  0.9007129E-01
         -1   -1    0    0    0  501 -0.00000000000E+00  0.00000000000E+00  0.35015853367E+03  0.35015853367E+03  0.00000000000E+00 0.  1.
          2   -1    0    0  501    0  0.00000000000E+00 -0.00000000000E+00 -0.12604154889E+04  0.12604154889E+04  0.00000000000E+00 0. -1.
         24    2    1    2    0    0  0.11817761219E+02 -0.20570408448E+03  0.99355296724E+02  0.24264000992E+03  0.80925086176E+02 0.  0.
        254    2    1    2    0    0 -0.11817761219E+02  0.20570408448E+03 -0.10096122520E+04  0.13679340127E+04  0.89970702666E+03 0.  0.
         23    2    4    4    0    0  0.32603636199E+03 -0.12908891240E+03 -0.17445485911E+03  0.40211949655E+03  0.91114954852E+02 0.  0.
         23    2    4    4    0    0 -0.33785412321E+03  0.33479299689E+03 -0.83515739288E+03  0.96581451612E+03  0.95278797962E+02 0.  0.
          2    1    3    3  502    0  0.15366788440E+02 -0.28197930392E+02  0.48123454774E+02  0.57854372045E+02  0.00000000000E+00 0. -1.
         -1    1    3    3    0  502 -0.35490272208E+01 -0.17750615409E+03  0.51231841950E+02  0.18478563787E+03  0.00000000000E+00 0.  1.
         13    1    5    5    0    0  0.21870193777E+01  0.33435927728E+01 -0.18724463814E+02  0.19145971156E+02  0.00000000000E+00 0. -1.
        -13    1    5    5    0    0  0.32384934261E+03 -0.13243250518E+03 -0.15573039529E+03  0.38297352540E+03  0.00000000000E+00 0.  1.
          3    1    6    6  503    0 -0.12116152150E+03  0.91503046531E+02 -0.34885216588E+03  0.38046124042E+03  0.00000000000E+00 0. -1.
         -3    1    6    6    0  503 -0.21669260170E+03  0.24328995036E+03 -0.48630522699E+03  0.58535327571E+03  0.00000000000E+00 0.  1.
<mgrwt>
<rscale>  0 0.13286764E+04</rscale>
<asrwt>0</asrwt>
<pdfrwt beam="1">  1        2 0.19391007E+00 0.13286764E+04</pdfrwt>
<pdfrwt beam="2">  1       -1 0.53870545E-01 0.13286764E+04</pdfrwt>
<totfact> 0.67633969E+01</totfact>
</mgrwt>
</event>
<event>
12    7  0.1660832E-007  0.2381761E+04  0.7818608E-02  0.8446364E-01
         -1   -1    0    0    0  501 -0.00000000000E+00  0.00000000000E+00  0.69140129132E+03  0.69140129132E+03  0.00000000000E+00 0.  1.
          2   -1    0    0  501    0  0.00000000000E+00 -0.00000000000E+00 -0.20511919812E+04  0.20511919812E+04  0.00000000000E+00 0. -1.
         24    2    1    2    0    0 -0.24379101834E+03 -0.15676114291E+03 -0.16916169577E+04  0.17181211212E+04  0.79775553499E+02 0.  0.
        254    2    1    2    0    0  0.24379101834E+03  0.15676114291E+03  0.33182626787E+03  0.10244721513E+04  0.92489264249E+03 0.  0.
         23    2    4    4    0    0  0.15184795939E+03  0.92019377637E+02  0.64699920322E+03  0.67693694969E+03  0.90057183315E+02 0.  0.
         23    2    4    4    0    0  0.91943058953E+02  0.64741765275E+02 -0.31517293534E+03  0.34753520158E+03  0.93817455225E+02 0.  0.
          2    1    3    3  502    0 -0.14144460767E+03 -0.77677775719E+02 -0.11504531664E+04  0.11617154995E+04  0.00000000000E+00 0. -1.
         -1    1    3    3    0  502 -0.10234641067E+03 -0.79083367193E+02 -0.54116379136E+03  0.55640562167E+03  0.00000000000E+00 0.  1.
         13    1    5    5    0    0  0.12061327035E+03  0.22293978743E+02  0.39303866466E+03  0.41173289204E+03  0.00000000000E+00 0. -1.
        -13    1    5    5    0    0  0.31234689037E+02  0.69725398894E+02  0.25396053856E+03  0.26520405765E+03  0.00000000000E+00 0.  1.
          3    1    6    6  503    0  0.93169570528E+01  0.35320469702E+02 -0.24665520863E+02  0.44076401715E+02  0.00000000000E+00 0. -1.
         -3    1    6    6    0  503  0.82626101900E+02  0.29421295573E+02 -0.29050741448E+03  0.30345879987E+03  0.00000000000E+00 0.  1.
<mgrwt>
<rscale>  0 0.23817614E+04</rscale>
<asrwt>0</asrwt>
<pdfrwt beam="1">  1        2 0.31556799E+00 0.23817614E+04</pdfrwt>
<pdfrwt beam="2">  1       -1 0.10636943E+00 0.23817614E+04</pdfrwt>
<totfact> 0.52953203E+00</totfact>
</mgrwt>
</event>
<event>
12    7  0.1660832E-007  0.2975595E+04  0.7818608E-02  0.8250735E-01
         -1   -1    0    0    0  501 -0.00000000000E+00  0.00000000000E+00  0.10948354923E+04  0.10948354923E+04  0.00000000000E+00 0.  1.
          2   -1    0    0  501    0  0.00000000000E+00 -0.00000000000E+00 -0.20218021552E+04  0.20218021552E+04  0.00000000000E+00 0. -1.
         24    2    1    2    0    0 -0.37006917578E+03  0.13518952203E+02  0.94232208629E+03  0.10157409570E+04  0.81393000075E+02 0.  0.
        254    2    1    2    0    0  0.37006917578E+03 -0.13518952203E+02 -0.18692887492E+04  0.21008966905E+04  0.88452954684E+03 0.  0.
         23    2    4    4    0    0  0.93490143309E+02  0.35967688145E+03 -0.38086489184E+03  0.53905050723E+03  0.86078554581E+02 0.  0.
         23    2    4    4    0    0  0.27657903247E+03 -0.37319583366E+03 -0.14884238574E+04  0.15618461832E+04  0.90481100253E+02 0.  0.
          4    1    3    3  502    0 -0.24642066978E+03  0.30688321334E+02  0.70724955512E+03  0.74957778301E+03  0.00000000000E+00 0. -1.
         -3    1    3    3    0  502 -0.12364850600E+03 -0.17169369132E+02  0.23507253117E+03  0.26616317398E+03  0.00000000000E+00 0.  1.
         13    1    5    5    0    0 -0.10874288179E+02  0.10377723246E+03 -0.89563395584E+02  0.13751205747E+03  0.00000000000E+00 0.  1.
        -13    1    5    5    0    0  0.10436443149E+03  0.25589964899E+03 -0.29130149626E+03  0.40153844976E+03  0.00000000000E+00 0. -1.
          4    1    6    6  503    0  0.26821789938E+03 -0.37717923518E+03 -0.14713078140E+04  0.15423850688E+04  0.00000000000E+00 0. -1.
         -4    1    6    6    0  503  0.83611330824E+01  0.39834015242E+01 -0.17116043352E+02  0.19461114412E+02  0.00000000000E+00 0.  1.
<mgrwt>
<rscale>  0 0.29755946E+04</rscale>
<asrwt>0</asrwt>
<pdfrwt beam="1">  1        2 0.31104648E+00 0.29755946E+04</pdfrwt>
<pdfrwt beam="2">  1       -1 0.16843623E+00 0.29755946E+04</pdfrwt>
<totfact> 0.16017505E+00</totfact>
</mgrwt>
</event>
<event>
12    7  0.1660832E-007  0.1377801E+04  0.7818608E-02  0.8970046E-01
          2   -1    0    0  501    0  0.00000000000E+00  0.00000000000E+00  0.51525973508E+03  0.51525973508E+03  0.00000000000E+00 0. -1.
         -1   -1    0    0    0  501 -0.00000000000E+00 -0.00000000000E+00 -0.92105696562E+03  0.92105696562E+03  0.00000000000E+00 0.  1.
         24    2    1    2    0    0  0.76380936731E+02  0.37382925482E+03 -0.19571394186E+03  0.43600326808E+03  0.78819689683E+02 0.  0.
        254    2    1    2    0    0 -0.76380936731E+02 -0.37382925482E+03 -0.21008328868E+03  0.10003134326E+04  0.90050520045E+03 0.  0.
         23    2    4    4    0    0  0.25842409319E+03  0.14794932280E+03  0.60496434666E+02  0.31755086442E+03  0.92231875308E+02 0.  0.
         23    2    4    4    0    0 -0.33480502992E+03 -0.52177857762E+03 -0.27057972334E+03  0.68276256820E+03  0.92757995474E+02 0.  0.
          2    1    3    3  502    0  0.34434102809E+02  0.13239681056E+03 -0.29626953945E+02  0.13997278050E+03  0.00000000000E+00 0. -1.
         -1    1    3    3    0  502  0.41946833922E+02  0.24143244426E+03 -0.16608698792E+03  0.29603048757E+03  0.00000000000E+00 0.  1.
         13    1    5    5    0    0  0.22066789538E+03  0.15329912192E+03  0.71160291765E+02  0.27795454297E+03  0.00000000000E+00 0. -1.
        -13    1    5    5    0    0  0.37756197817E+02 -0.53497991148E+01 -0.10663857099E+02  0.39596321450E+02  0.00000000000E+00 0.  1.
          3    1    6    6  503    0 -0.27905788043E+03 -0.42260218460E+03 -0.18043517421E+03  0.53760836968E+03  0.00000000000E+00 0. -1.
         -3    1    6    6    0  503 -0.55747149495E+02 -0.99176393024E+02 -0.90144549135E+02  0.14515419852E+03  0.00000000000E+00 0.  1.
<mgrwt>
<rscale>  0 0.13778005E+04</rscale>
<asrwt>0</asrwt>
<pdfrwt beam="1">  1        2 0.79270730E-01 0.13778005E+04</pdfrwt>
<pdfrwt beam="2">  1       -1 0.14170107E+00 0.13778005E+04</pdfrwt>
<totfact> 0.26913873E+01</totfact>
</mgrwt>
</event>
<event>
12    7  0.1660832E-007  0.3075140E+04  0.7818608E-02  0.8222594E-01
         -1   -1    0    0    0  501 -0.00000000000E+00  0.00000000000E+00  0.13769668961E+04  0.13769668961E+04  0.00000000000E+00 0.  1.
          2   -1    0    0  501    0  0.00000000000E+00 -0.00000000000E+00 -0.17169050532E+04  0.17169050532E+04  0.00000000000E+00 0. -1.
         24    2    1    2    0    0 -0.10313113865E+04  0.40562086876E+03  0.71761775353E+03  0.13226225051E+04  0.78889707244E+02 0.  0.
        254    2    1    2    0    0  0.10313113865E+04 -0.40562086876E+03 -0.10575559106E+04  0.17712494442E+04  0.88925172166E+03 0.  0.
         23    2    4    4    0    0  0.65192669405E+02  0.23324083587E+03 -0.17653515226E+03  0.31372221316E+03  0.92766348344E+02 0.  0.
         23    2    4    4    0    0  0.96611871706E+03 -0.63886170463E+03 -0.88102075833E+03  0.14575272310E+04  0.81599016361E+02 0.  0.
          2    1    3    3  502    0 -0.81079247850E+03  0.29086534711E+03  0.53269381497E+03  0.10127930657E+04  0.00000000000E+00 0. -1.
         -1    1    3    3    0  502 -0.22051890797E+03  0.11475552165E+03  0.18492393856E+03  0.30982943949E+03  0.00000000000E+00 0.  1.
         13    1    5    5    0    0  0.48686082278E+02  0.78826653372E+02 -0.11250933762E+03  0.14574747662E+03  0.00000000000E+00 0.  1.
        -13    1    5    5    0    0  0.16506587126E+02  0.15441418250E+03 -0.64025814636E+02  0.16797473654E+03  0.00000000000E+00 0. -1.
          1    1    6    6  503    0  0.80198185814E+03 -0.55636392664E+03 -0.76636567290E+03  0.12409802836E+04  0.00000000000E+00 0. -1.
         -1    1    6    6    0  503  0.16413685892E+03 -0.82497777990E+02 -0.11465508543E+03  0.21654694744E+03  0.00000000000E+00 0.  1.
<mgrwt>
<rscale>  0 0.30751399E+04</rscale>
<asrwt>0</asrwt>
<pdfrwt beam="1">  1        2 0.26413924E+00 0.30751399E+04</pdfrwt>
<pdfrwt beam="2">  1       -1 0.21184106E+00 0.30751399E+04</pdfrwt>
<totfact> 0.11607556E+00</totfact>
</mgrwt>
</event>
<event>
12    7  0.1660832E-007  0.2419151E+04  0.7818608E-02  0.8432368E-01
          2   -1    0    0  501    0  0.00000000000E+00  0.00000000000E+00  0.21430400757E+04  0.21430400757E+04  0.00000000000E+00 0. -1.
         -1   -1    0    0    0  501 -0.00000000000E+00 -0.00000000000E+00 -0.68270918973E+03  0.68270918973E+03  0.00000000000E+00 0.  1.
         24    2    1    2    0    0  0.61480498614E+03  0.54027496732E+03 -0.10638453110E+03  0.82928346077E+03  0.80691874152E+02 0.  0.
        254    2    1    2    0    0 -0.61480498614E+03 -0.54027496732E+03  0.15667154171E+04  0.19964658047E+04  0.92811437861E+03 0.  0.
         23    2    4    4    0    0 -0.14039958233E+03  0.13173619922E+03  0.92590897704E+03  0.95007950508E+03  0.90978916852E+02 0.  0.
         23    2    4    4    0    0 -0.47440540381E+03 -0.67201116654E+03  0.64080644007E+03  0.10463862996E+04  0.87360741998E+02 0.  0.
          2    1    3    3  502    0  0.60527610102E+03  0.51647997180E+03 -0.11051488658E+03  0.80332077023E+03  0.00000000000E+00 0. -1.
         -1    1    3    3    0  502  0.95288851222E+01  0.23794995525E+02  0.41303554756E+01  0.25962690540E+02  0.00000000000E+00 0.  1.
         13    1    5    5    0    0 -0.11349230330E+01  0.23935522920E+02  0.38380283730E+02  0.45246474856E+02  0.00000000000E+00 0.  1.
        -13    1    5    5    0    0 -0.13926465930E+03  0.10780067630E+03  0.88752869331E+03  0.90483303022E+03  0.00000000000E+00 0. -1.
          3    1    6    6  503    0 -0.44400960622E+02 -0.67206848134E+02  0.98613323864E+02  0.12732946785E+03  0.00000000000E+00 0.  1.
         -3    1    6    6    0  503 -0.43000444319E+03 -0.60480431841E+03  0.54219311620E+03  0.91905683175E+03  0.00000000000E+00 0. -1.
<mgrwt>
<rscale>  0 0.24191512E+04</rscale>
<asrwt>0</asrwt>
<pdfrwt beam="1">  1        2 0.32969847E+00 0.24191512E+04</pdfrwt>
<pdfrwt beam="2">  1       -1 0.10503218E+00 0.24191512E+04</pdfrwt>
<totfact> 0.48302823E+00</totfact>
</mgrwt>
</event>
<event>
12    7  0.1660832E-007  0.2122922E+04  0.7818608E-02  0.8551213E-01
         -1   -1    0    0    0  501 -0.00000000000E+00  0.00000000000E+00  0.12066755279E+04  0.12066755279E+04  0.00000000000E+00 0.  1.
          2   -1    0    0  501    0  0.00000000000E+00 -0.00000000000E+00 -0.93372232687E+03  0.93372232687E+03  0.00000000000E+00 0. -1.
         24    2    1    2    0    0  0.63030499275E+03 -0.13220339358E+03 -0.47993218894E+03  0.80559532869E+03  0.62344257770E+02 0.  0.
        254    2    1    2    0    0 -0.63030499275E+03  0.13220339358E+03  0.75288538995E+03  0.13348025261E+04  0.89448267285E+03 0.  0.
         23    2    4    4    0    0 -0.17036023955E+01  0.15562537820E+03  0.67007290960E+03  0.69390961206E+03  0.91053198341E+02 0.  0.
         23    2    4    4    0    0 -0.62860139035E+03 -0.23421984618E+02  0.82812480347E+02  0.64089291400E+03  0.90540173409E+02 0.  0.
          2    1    3    3  502    0  0.27082393573E+03 -0.27422545627E+02 -0.21573255016E+03  0.34733000643E+03  0.00000000000E+00 0. -1.
         -1    1    3    3    0  502  0.35948105702E+03 -0.10478084795E+03 -0.26419963878E+03  0.45826532226E+03  0.00000000000E+00 0.  1.
         13    1    5    5    0    0  0.29883761284E+02  0.10033022699E+03  0.52710911665E+03  0.53740414447E+03  0.00000000000E+00 0.  1.
        -13    1    5    5    0    0 -0.31587363680E+02  0.55295151206E+02  0.14296379295E+03  0.15650546759E+03  0.00000000000E+00 0. -1.
          1    1    6    6  503    0 -0.22115181715E+03 -0.47370279977E+02  0.10719842587E+02  0.22642213823E+03  0.00000000000E+00 0. -1.
         -1    1    6    6    0  503 -0.40744957320E+03  0.23948295359E+02  0.72092637760E+02  0.41447077577E+03  0.00000000000E+00 0.  1.
<mgrwt>
<rscale>  0 0.21229224E+04</rscale>
<asrwt>0</asrwt>
<pdfrwt beam="1">  1        2 0.14364959E+00 0.21229224E+04</pdfrwt>
<pdfrwt beam="2">  1       -1 0.18564239E+00 0.21229224E+04</pdfrwt>
<totfact> 0.55388641E+00</totfact>
</mgrwt>
</event>
<event>
12    7  0.1660832E-007  0.1682472E+04  0.7818608E-02  0.8771425E-01
          2   -1    0    0  501    0  0.00000000000E+00  0.00000000000E+00  0.23620759390E+04  0.23620759390E+04  0.00000000000E+00 0. -1.
         -1   -1    0    0    0  501 -0.00000000000E+00 -0.00000000000E+00 -0.29960009271E+03  0.29960009271E+03  0.00000000000E+00 0.  1.
         24    2    1    2    0    0 -0.30253707203E+03  0.21119003453E+03 -0.61401478870E+01  0.37746876476E+03  0.79467328612E+02 0.  0.
        254    2    1    2    0    0  0.30253707203E+03 -0.21119003453E+03  0.20686159942E+04  0.22842072670E+04  0.89571245185E+03 0.  0.
         23    2    4    4    0    0  0.46102952136E+03 -0.16762270286E+02  0.47500648402E+03  0.66835461930E+03  0.90760916780E+02 0.  0.
         23    2    4    4    0    0 -0.15849244933E+03 -0.19442776424E+03  0.15936095102E+04  0.16158526477E+04  0.92013564424E+02 0.  0.
          2    1    3    3  502    0 -0.24673800270E+02  0.46922409206E+02  0.11319739831E+02  0.54209274255E+02  0.00000000000E+00 0. -1.
         -1    1    3    3    0  502 -0.27786327176E+03  0.16426762532E+03 -0.17459887718E+02  0.32325949051E+03  0.00000000000E+00 0.  1.
         13    1    5    5    0    0  0.36841839640E+03 -0.47621388471E+02  0.35715242447E+03  0.51532297227E+03  0.00000000000E+00 0. -1.
        -13    1    5    5    0    0  0.92611124962E+02  0.30859118185E+02  0.11785405955E+03  0.15303164703E+03  0.00000000000E+00 0.  1.
          2    1    6    6  503    0 -0.15591205707E+03 -0.20198732318E+03  0.15759191917E+04  0.15964425285E+04  0.00000000000E+00 0. -1.
         -2    1    6    6    0  503 -0.25803922538E+01  0.75595589403E+01  0.17690318542E+02  0.19410119157E+02  0.00000000000E+00 0.  1.
<mgrwt>
<rscale>  0 0.16824722E+04</rscale>
<asrwt>0</asrwt>
<pdfrwt beam="1">  1        2 0.36339629E+00 0.16824722E+04</pdfrwt>
<pdfrwt beam="2">  1       -1 0.46092323E-01 0.16824722E+04</pdfrwt>
<totfact> 0.21256243E+01</totfact>
</mgrwt>
</event>
<event>
12    7  0.1660832E-007  0.2194190E+04  0.7818608E-02  0.8520850E-01
          2   -1    0    0  501    0  0.00000000000E+00  0.00000000000E+00  0.11355971478E+04  0.11355971478E+04  0.00000000000E+00 0. -1.
         -1   -1    0    0    0  501 -0.00000000000E+00 -0.00000000000E+00 -0.10598985104E+04  0.10598985104E+04  0.00000000000E+00 0.  1.
         24    2    1    2    0    0 -0.90872467300E+02  0.33468315225E+03  0.87194421431E+03  0.94254161998E+03  0.88472452249E+02 0.  0.
        254    2    1    2    0    0  0.90872467300E+02 -0.33468315225E+03 -0.79624557693E+03  0.12529540382E+04  0.90311471327E+03 0.  0.
         23    2    4    4    0    0  0.82503496456E+02  0.15828980970E+02  0.17614953788E+03  0.21548660070E+03  0.91369753297E+02 0.  0.
         23    2    4    4    0    0  0.83689708436E+01 -0.35051213322E+03 -0.97239511482E+03  0.10374674375E+04  0.88643270094E+02 0.  0.
          2    1    3    3  502    0 -0.10305948256E+03  0.27323603015E+03  0.66430750372E+03  0.72566083305E+03  0.00000000000E+00 0. -1.
         -1    1    3    3    0  502  0.12187015261E+02  0.61447122102E+02  0.20763671059E+03  0.21688078693E+03  0.00000000000E+00 0.  1.
         13    1    5    5    0    0  0.49391253386E+02  0.27089978025E+02  0.27329471629E+02  0.62612002363E+02  0.00000000000E+00 0.  1.
        -13    1    5    5    0    0  0.33112243071E+02 -0.11260997055E+02  0.14882006626E+03  0.15287459834E+03  0.00000000000E+00 0. -1.
          1    1    6    6  503    0  0.38622490038E+02 -0.10550690672E+03 -0.25091179774E+03  0.27491841399E+03  0.00000000000E+00 0. -1.
         -1    1    6    6    0  503 -0.30253519194E+02 -0.24500522650E+03 -0.72148331707E+03  0.76254902351E+03  0.00000000000E+00 0.  1.
<mgrwt>
<rscale>  0 0.21941903E+04</rscale>
<asrwt>0</asrwt>
<pdfrwt beam="1">  1        2 0.17470725E+00 0.21941903E+04</pdfrwt>
<pdfrwt beam="2">  1       -1 0.16306131E+00 0.21941903E+04</pdfrwt>
<totfact> 0.59855652E+00</totfact>
</mgrwt>
</event>
<event>
12    7  0.1660832E-007  0.1574577E+04  0.7818608E-02  0.8836320E-01
         -1   -1    0    0    0  501 -0.00000000000E+00  0.00000000000E+00  0.49357589677E+03  0.49357589677E+03  0.00000000000E+00 0.  1.
          2   -1    0    0  501    0  0.00000000000E+00 -0.00000000000E+00 -0.12557805290E+04  0.12557805290E+04  0.00000000000E+00 0. -1.
         24    2    1    2    0    0  0.10133887342E+03 -0.50465571730E+03 -0.39613702625E+03  0.65416881873E+03  0.77880289963E+02 0.  0.
        254    2    1    2    0    0 -0.10133887342E+03  0.50465571730E+03 -0.36606760599E+03  0.10951876070E+04  0.89469740259E+03 0.  0.
         23    2    4    4    0    0  0.62263486604E+02  0.57494704257E+03  0.95096485983E+02  0.59268451268E+03  0.88265204906E+02 0.  0.
         23    2    4    4    0    0 -0.16360236002E+03 -0.70291325272E+02 -0.46116409197E+03  0.50250309437E+03  0.90168938733E+02 0.  0.
          2    1    3    3  502    0  0.73945492600E+02 -0.36013398317E+03 -0.23676169761E+03  0.43728768924E+03  0.00000000000E+00 0. -1.
         -1    1    3    3    0  502  0.27393380821E+02 -0.14452173413E+03 -0.15937532864E+03  0.21688112949E+03  0.00000000000E+00 0.  1.
         13    1    5    5    0    0  0.36994046749E+02  0.10720346966E+03 -0.56487818096E+01  0.11354757654E+03  0.00000000000E+00 0. -1.
        -13    1    5    5    0    0  0.25269439855E+02  0.46774357291E+03  0.10074526779E+03  0.47913693614E+03  0.00000000000E+00 0.  1.
          2    1    6    6  503    0 -0.24810836165E+02 -0.26303963473E+02 -0.28627194241E+02  0.46119327138E+02  0.00000000000E+00 0. -1.
         -2    1    6    6    0  503 -0.13879152386E+03 -0.43987361800E+02 -0.43253689773E+03  0.45638376723E+03  0.00000000000E+00 0.  1.
<mgrwt>
<rscale>  0 0.15745768E+04</rscale>
<asrwt>0</asrwt>
<pdfrwt beam="1">  1        2 0.19319700E+00 0.15745768E+04</pdfrwt>
<pdfrwt beam="2">  1       -1 0.75934756E-01 0.15745768E+04</pdfrwt>
<totfact> 0.33490391E+01</totfact>
</mgrwt>
</event>
<event>
12    7  0.1660832E-007  0.2022555E+04  0.7818608E-02  0.8596147E-01
         -1   -1    0    0    0  501 -0.00000000000E+00  0.00000000000E+00  0.42312824500E+03  0.42312824500E+03  0.00000000000E+00 0.  1.
          2   -1    0    0  501    0  0.00000000000E+00 -0.00000000000E+00 -0.24169556330E+04  0.24169556330E+04  0.00000000000E+00 0. -1.
         24    2    1    2    0    0  0.56471824418E+02 -0.80100539900E+03 -0.84597368746E+03  0.11691868313E+04  0.80793876189E+02 0.  0.
        254    2    1    2    0    0 -0.56471824418E+02  0.80100539900E+03 -0.11478537006E+04  0.16708970467E+04  0.91078543393E+03 0.  0.
         23    2    4    4    0    0  0.27939820983E+03  0.25376658306E+03 -0.44285667799E+02  0.39077854881E+03  0.91026454973E+02 0.  0.
         23    2    4    4    0    0 -0.33587003425E+03  0.54723881594E+03 -0.11035680328E+04  0.12801184979E+04  0.92530882200E+02 0.  0.
          2    1    3    3  502    0 -0.54060516116E+01 -0.40588112706E+02 -0.22936126928E+02  0.46932783910E+02  0.00000000000E+00 0. -1.
         -1    1    3    3    0  502  0.61877876030E+02 -0.76041728630E+03 -0.82303756053E+03  0.11222540474E+04  0.00000000000E+00 0.  1.
         13    1    5    5    0    0  0.19351618830E+03  0.20517492806E+03 -0.66191118954E+02  0.28970076021E+03  0.00000000000E+00 0. -1.
        -13    1    5    5    0    0  0.85882021537E+02  0.48591654996E+02  0.21905451155E+02  0.10107778860E+03  0.00000000000E+00 0.  1.
          2    1    6    6  503    0 -0.13332294467E+03  0.13823089076E+03 -0.31044612877E+03  0.36504737446E+03  0.00000000000E+00 0. -1.
         -2    1    6    6    0  503 -0.20254708958E+03  0.40900792519E+03 -0.79312190399E+03  0.91507112344E+03  0.00000000000E+00 0.  1.
<mgrwt>
<rscale>  0 0.20225550E+04</rscale>
<asrwt>0</asrwt>
<pdfrwt beam="1">  1        2 0.37183932E+00 0.20225550E+04</pdfrwt>
<pdfrwt beam="2">  1       -1 0.65096654E-01 0.20225550E+04</pdfrwt>
<totfact> 0.98211549E+00</totfact>
</mgrwt>
</event>
<event>
12    7  0.1660832E-007  0.1886441E+04  0.7818608E-02  0.8661635E-01
         -1   -1    0    0    0  501 -0.00000000000E+00  0.00000000000E+00  0.39891271632E+03  0.39891271632E+03  0.00000000000E+00 0.  1.
          2   -1    0    0  501    0  0.00000000000E+00 -0.00000000000E+00 -0.22302236935E+04  0.22302236935E+04  0.00000000000E+00 0. -1.
         24    2    1    2    0    0 -0.16062684411E+03 -0.60798364147E+03 -0.12147324428E+04  0.13704119829E+04  0.83719794217E+02 0.  0.
        254    2    1    2    0    0  0.16062684411E+03  0.60798364147E+03 -0.61657853445E+03  0.12587244270E+04  0.89931807643E+03 0.  0.
         23    2    4    4    0    0 -0.71990642487E+02  0.37731122083E+03  0.14829292767E+03  0.42174612350E+03  0.91283023208E+02 0.  0.
         23    2    4    4    0    0  0.23261748659E+03  0.23067242065E+03 -0.76487146211E+03  0.83697830348E+03  0.90463618251E+02 0.  0.
          2    1    3    3  502    0 -0.93689740861E+02 -0.29167589712E+03 -0.67470455995E+03  0.74099854232E+03  0.00000000000E+00 0. -1.
         -3    1    3    3    0  502 -0.66937103245E+02 -0.31630774435E+03 -0.54002788282E+03  0.62941344055E+03  0.00000000000E+00 0.  1.
         13    1    5    5    0    0 -0.32191609289E+02  0.57426916028E+02 -0.24727134972E+01  0.65880685372E+02  0.00000000000E+00 0. -1.
        -13    1    5    5    0    0 -0.39799033199E+02  0.31988430480E+03  0.15076564116E+03  0.35586543813E+03  0.00000000000E+00 0.  1.
          4    1    6    6  503    0  0.20728545796E+03  0.17944116252E+03 -0.54874234900E+03  0.61342037582E+03  0.00000000000E+00 0. -1.
         -4    1    6    6    0  503  0.25332028632E+02  0.51231258128E+02 -0.21612911311E+03  0.22355792766E+03  0.00000000000E+00 0.  1.
<mgrwt>
<rscale>  0 0.18864407E+04</rscale>
<asrwt>0</asrwt>
<pdfrwt beam="1">  1        2 0.34311134E+00 0.18864407E+04</pdfrwt>
<pdfrwt beam="2">  1       -1 0.61371186E-01 0.18864407E+04</pdfrwt>
<totfact> 0.14276229E+01</totfact>
</mgrwt>
</event>
<event>
12    7  0.1660832E-007  0.1813701E+04  0.7818608E-02  0.8699047E-01
         -1   -1    0    0    0  501 -0.00000000000E+00  0.00000000000E+00  0.37017412537E+03  0.37017412537E+03  0.00000000000E+00 0.  1.
          2   -1    0    0  501    0  0.00000000000E+00 -0.00000000000E+00 -0.22215974756E+04  0.22215974756E+04  0.00000000000E+00 0. -1.
         24    2    1    2    0    0  0.87548422061E+02  0.31401371193E+03 -0.15526542803E+04  0.15890073944E+04  0.89105824059E+02 0.  0.
        254    2    1    2    0    0 -0.87548422061E+02 -0.31401371193E+03 -0.29876906998E+03  0.10027642066E+04  0.90000208854E+03 0.  0.
         23    2    4    4    0    0  0.34732035778E+03 -0.56403279578E+02 -0.32566320382E+03  0.48814420891E+03  0.91735955306E+02 0.  0.
         23    2    4    4    0    0 -0.43486877984E+03 -0.25761043235E+03  0.26894133832E+02  0.51461999770E+03  0.92932540392E+02 0.  0.
          4    1    3    3  502    0  0.29642125133E+02  0.24950891306E+03 -0.11565314389E+04  0.11835110149E+04  0.00000000000E+00 0. -1.
         -3    1    3    3    0  502  0.57906296927E+02  0.64504798861E+02 -0.39612284141E+03  0.40549637950E+03  0.00000000000E+00 0.  1.
         13    1    5    5    0    0  0.19689473506E+03 -0.57081793603E+02 -0.13575362475E+03  0.24587581111E+03  0.00000000000E+00 0. -1.
        -13    1    5    5    0    0  0.15042562271E+03  0.67851402468E+00 -0.18990957906E+03  0.24226839779E+03  0.00000000000E+00 0.  1.
          1    1    6    6  503    0 -0.36176371684E+02 -0.10193540552E+02  0.25455799890E+02  0.45394227444E+02  0.00000000000E+00 0. -1.
         -1    1    6    6    0  503 -0.39869240815E+03 -0.24741689179E+03  0.14383339417E+01  0.46922577025E+03  0.00000000000E+00 0.  1.
<mgrwt>
<rscale>  0 0.18137011E+04</rscale>
<asrwt>0</asrwt>
<pdfrwt beam="1">  1        2 0.34178421E+00 0.18137011E+04</pdfrwt>
<pdfrwt beam="2">  1       -1 0.56949868E-01 0.18137011E+04</pdfrwt>
<totfact> 0.16836330E+01</totfact>
</mgrwt>
</event>
<event>
12    7  0.1660832E-007  0.1642696E+04  0.7818608E-02  0.8794739E-01
          4   -1    0    0  501    0  0.00000000000E+00  0.00000000000E+00  0.13943825171E+04  0.13943825171E+04  0.00000000000E+00 0. -1.
         -3   -1    0    0    0  501 -0.00000000000E+00 -0.00000000000E+00 -0.48380711575E+03  0.48380711575E+03  0.00000000000E+00 0.  1.
         24    2    1    2    0    0  0.19048885715E+03 -0.52615501727E+03  0.33550186965E+03  0.65653906980E+03  0.73191111078E+02 0.  0.
        254    2    1    2    0    0 -0.19048885715E+03  0.52615501727E+03  0.57507353171E+03  0.12216505631E+04  0.92119239275E+03 0.  0.
         23    2    4    4    0    0 -0.10994281109E+03  0.62895000482E+03  0.21040206220E+02  0.64504369443E+03  0.89292481042E+02 0.  0.
         23    2    4    4    0    0 -0.80546046059E+02 -0.10279498755E+03  0.55403332549E+03  0.57660686863E+03  0.92022172366E+02 0.  0.
          4    1    3    3  502    0 -0.13079979570E+01 -0.73572538880E+01 -0.30123859210E+01  0.80569542859E+01  0.00000000000E+00 0. -1.
         -3    1    3    3    0  502  0.19179685511E+03 -0.51879776338E+03  0.33851425557E+03  0.64848211552E+03  0.00000000000E+00 0.  1.
         13    1    5    5    0    0 -0.99928592814E+02  0.43818578190E+03 -0.19114597225E+02  0.44984205111E+03  0.00000000000E+00 0. -1.
        -13    1    5    5    0    0 -0.10014218277E+02  0.19076422292E+03  0.40154803445E+02  0.19520164332E+03  0.00000000000E+00 0.  1.
          1    1    6    6  503    0 -0.82065295126E+02 -0.10591924537E+03  0.55646292179E+03  0.57236752400E+03  0.00000000000E+00 0. -1.
         -1    1    6    6    0  503  0.15192490674E+01  0.31242578224E+01 -0.24295963081E+01  0.42393446297E+01  0.00000000000E+00 0.  1.
<mgrwt>
<rscale>  0 0.16426956E+04</rscale>
<asrwt>0</asrwt>
<pdfrwt beam="1">  1        4 0.21452039E+00 0.16426956E+04</pdfrwt>
<pdfrwt beam="2">  1       -3 0.74431865E-01 0.16426956E+04</pdfrwt>
<totfact> 0.39428134E-01</totfact>
</mgrwt>
</event>
<event>
12    7  0.1660832E-007  0.1255086E+04  0.7818608E-02  0.9065961E-01
          2   -1    0    0  501    0  0.00000000000E+00  0.00000000000E+00  0.53363971207E+03  0.53363971207E+03  0.00000000000E+00 0. -1.
         -1   -1    0    0    0  501 -0.00000000000E+00 -0.00000000000E+00 -0.73797002315E+03  0.73797002315E+03  0.00000000000E+00 0.  1.
         24    2    1    2    0    0 -0.97068445456E+02 -0.14084482315E+03 -0.29465736953E+03  0.34988461910E+03  0.79603605148E+02 0.  0.
        254    2    1    2    0    0  0.97068445456E+02  0.14084482315E+03  0.90327058446E+02  0.92172511612E+03  0.90119846032E+03 0.  0.
         23    2    4    4    0    0  0.27029039933E+03  0.39457240369E+03  0.26778950936E+03  0.55537962998E+03  0.89392563193E+02 0.  0.
         23    2    4    4    0    0 -0.17322195387E+03 -0.25372758055E+03 -0.17746245091E+03  0.36634548613E+03  0.91282875143E+02 0.  0.
          4    1    3    3  502    0 -0.77413746357E+02 -0.52571787717E+02 -0.11109439751E+03  0.14525373023E+03  0.00000000000E+00 0. -1.
         -3    1    3    3    0  502 -0.19654699099E+02 -0.88273035428E+02 -0.18356297202E+03  0.20463088886E+03  0.00000000000E+00 0.  1.
         13    1    5    5    0    0  0.88908334322E+02  0.12376456051E+03  0.13444631469E+03  0.20321951157E+03  0.00000000000E+00 0. -1.
        -13    1    5    5    0    0  0.18138206500E+03  0.27080784319E+03  0.13334319467E+03  0.35216011841E+03  0.00000000000E+00 0.  1.
          4    1    6    6  503    0 -0.17388245176E+01 -0.26210790563E+01 -0.26816469057E+02  0.27000307013E+02  0.00000000000E+00 0. -1.
         -4    1    6    6    0  503 -0.17148312935E+03 -0.25110650149E+03 -0.15064598185E+03  0.33934517912E+03  0.00000000000E+00 0.  1.
<mgrwt>
<rscale>  0 0.12550858E+04</rscale>
<asrwt>0</asrwt>
<pdfrwt beam="1">  1        2 0.82098418E-01 0.12550858E+04</pdfrwt>
<pdfrwt beam="2">  1       -1 0.11353385E+00 0.12550858E+04</pdfrwt>
<totfact> 0.45416995E+01</totfact>
</mgrwt>
</event>
<event>
12    7  0.1660832E-007  0.1995212E+04  0.7818608E-02  0.8608862E-01
         -1   -1    0    0    0  501 -0.00000000000E+00  0.00000000000E+00  0.62194872449E+03  0.62194872449E+03  0.00000000000E+00 0.  1.
          2   -1    0    0  501    0  0.00000000000E+00 -0.00000000000E+00 -0.16001611907E+04  0.16001611907E+04  0.00000000000E+00 0. -1.
         24    2    1    2    0    0 -0.37155121841E+03 -0.59023444094E+03 -0.81162673163E+03  0.10734247107E+04  0.84116912400E+02 0.  0.
        254    2    1    2    0    0  0.37155121841E+03  0.59023444094E+03 -0.16658573456E+03  0.11486852044E+04  0.89738502815E+03 0.  0.
         23    2    4    4    0    0 -0.10545315875E+03 -0.98970010512E+02  0.17014534321E+03  0.24079080886E+03  0.90085204935E+02 0.  0.
         23    2    4    4    0    0  0.47700437715E+03  0.68920445145E+03 -0.33673107777E+03  0.90789439556E+03  0.91369924139E+02 0.  0.
          2    1    3    3  502    0 -0.37155134548E+03 -0.58521176661E+03 -0.78905291067E+03  0.10502988670E+04  0.00000000000E+00 0. -1.
         -1    1    3    3    0  502  0.12707326100E-03 -0.50226743281E+01 -0.22573820962E+02  0.23125843774E+02  0.00000000000E+00 0.  1.
         13    1    5    5    0    0 -0.33774866661E+02 -0.55579410565E+02  0.13515639744E+03  0.14999021390E+03  0.00000000000E+00 0.  1.
        -13    1    5    5    0    0 -0.71678292085E+02 -0.43390599947E+02  0.34988945767E+02  0.90800594964E+02  0.00000000000E+00 0. -1.
          1    1    6    6  503    0  0.11855395650E+02  0.19481349917E+02  0.56910218664E+01  0.23504491709E+02  0.00000000000E+00 0. -1.
         -1    1    6    6    0  503  0.46514898150E+03  0.66972310154E+03 -0.34242209963E+03  0.88438990386E+03  0.00000000000E+00 0.  1.
<mgrwt>
<rscale>  0 0.19952125E+04</rscale>
<asrwt>0</asrwt>
<pdfrwt beam="1">  1        2 0.24617864E+00 0.19952125E+04</pdfrwt>
<pdfrwt beam="2">  1       -1 0.95684420E-01 0.19952125E+04</pdfrwt>
<totfact> 0.12437097E+01</totfact>
</mgrwt>
</event>
<event>
12    7  0.1660832E-007  0.2539720E+04  0.7818608E-02  0.8388970E-01
         -1   -1    0    0    0  501 -0.00000000000E+00  0.00000000000E+00  0.99596411599E+03  0.99596411599E+03  0.00000000000E+00 0.  1.
          2   -1    0    0  501    0  0.00000000000E+00 -0.00000000000E+00 -0.16190789027E+04  0.16190789027E+04  0.00000000000E+00 0. -1.
         24    2    1    2    0    0  0.29885466218E+02  0.74588687872E+02 -0.14050117848E+04  0.14095304063E+04  0.79127982427E+02 0.  0.
        254    2    1    2    0    0 -0.29885466218E+02 -0.74588687872E+02  0.78189699807E+03  0.12055126123E+04  0.91402468757E+03 0.  0.
         23    2    4    4    0    0  0.60016220963E+02  0.27103531594E+03  0.78308476793E+03  0.83590784556E+03  0.91967838027E+02 0.  0.
         23    2    4    4    0    0 -0.89901687181E+02 -0.34562400381E+03 -0.11877698669E+01  0.36960476679E+03  0.95226086062E+02 0.  0.
          2    1    3    3  502    0  0.31604773826E+02  0.88859206556E+02 -0.13150476990E+04  0.13184252997E+04  0.00000000000E+00 0. -1.
         -1    1    3    3    0  502 -0.17193076078E+01 -0.14270518684E+02 -0.89964085759E+02  0.91105106600E+02  0.00000000000E+00 0.  1.
         13    1    5    5    0    0  0.49969392572E+02  0.14519742146E+03  0.54757600685E+03  0.56869914250E+03  0.00000000000E+00 0. -1.
        -13    1    5    5    0    0  0.10046828391E+02  0.12583789448E+03  0.23550876108E+03  0.26720870306E+03  0.00000000000E+00 0.  1.
          4    1    6    6  503    0 -0.64169057064E+02 -0.29018326502E+03 -0.35834919473E+02  0.29934618193E+03  0.00000000000E+00 0. -1.
         -4    1    6    6    0  503 -0.25732630117E+02 -0.55440738790E+02  0.34647149606E+02  0.70258584857E+02  0.00000000000E+00 0.  1.
<mgrwt>
<rscale>  0 0.25397201E+04</rscale>
<asrwt>0</asrwt>
<pdfrwt beam="1">  1        2 0.24908906E+00 0.25397201E+04</pdfrwt>
<pdfrwt beam="2">  1       -1 0.15322525E+00 0.25397201E+04</pdfrwt>
<totfact> 0.36275330E+00</totfact>
</mgrwt>
</event>
<event>
12    7  0.1660832E-007  0.1685092E+04  0.7818608E-02  0.8769913E-01
         -1   -1    0    0    0  501 -0.00000000000E+00  0.00000000000E+00  0.39330944307E+03  0.39330944307E+03  0.00000000000E+00 0.  1.
          2   -1    0    0  501    0  0.00000000000E+00 -0.00000000000E+00 -0.18048980525E+04  0.18048980525E+04  0.00000000000E+00 0. -1.
         24    2    1    2    0    0  0.16784591174E+03 -0.39055338904E+03  0.42764586743E+02  0.43956751280E+03  0.10337595780E+03 0.  0.
        254    2    1    2    0    0 -0.16784591174E+03  0.39055338904E+03 -0.14543531961E+04  0.17586399827E+04  0.89273017758E+03 0.  0.
         23    2    4    4    0    0 -0.37187317920E+03  0.76137797399E+02 -0.12742943923E+04  0.13328912304E+04  0.93199829734E+02 0.  0.
         23    2    4    4    0    0  0.20402726746E+03  0.31441559165E+03 -0.18005880386E+03  0.42574875234E+03  0.91414097027E+02 0.  0.
          2    1    3    3  502    0  0.10574964215E+03 -0.21317979745E+03  0.73678673954E+02  0.24911274527E+03  0.00000000000E+00 0. -1.
         -1    1    3    3    0  502  0.62096269588E+02 -0.17737359159E+03 -0.30914087211E+02  0.19045476754E+03  0.00000000000E+00 0.  1.
         13    1    5    5    0    0 -0.85313561033E+02 -0.12791209138E+02 -0.37764489625E+03  0.38737280027E+03  0.00000000000E+00 0. -1.
        -13    1    5    5    0    0 -0.28655961817E+03  0.88929006537E+02 -0.89664949604E+03  0.94551843013E+03  0.00000000000E+00 0.  1.
          4    1    6    6  503    0  0.14725825482E+03  0.28716765548E+03 -0.15432045478E+03  0.35772204116E+03  0.00000000000E+00 0. -1.
         -4    1    6    6    0  503  0.56769012637E+02  0.27247936170E+02 -0.25738349073E+02  0.68026711182E+02  0.00000000000E+00 0.  1.
<mgrwt>
<rscale>  0 0.16850916E+04</rscale>
<asrwt>0</asrwt>
<pdfrwt beam="1">  1        2 0.27767663E+00 0.16850916E+04</pdfrwt>
<pdfrwt beam="2">  1       -1 0.60509144E-01 0.16850916E+04</pdfrwt>
<totfact> 0.25771618E+01</totfact>
</mgrwt>
</event>
<event>
12    7  0.1660832E-007  0.2099316E+04  0.7818608E-02  0.8561545E-01
          2   -1    0    0  501    0  0.00000000000E+00  0.00000000000E+00  0.35213022852E+04  0.35213022852E+04  0.00000000000E+00 0. -1.
         -1   -1    0    0    0  501 -0.00000000000E+00 -0.00000000000E+00 -0.31289051142E+03  0.31289051142E+03  0.00000000000E+00 0.  1.
         24    2    1    2    0    0 -0.23668389067E+03 -0.37461369834E+03 -0.22605510522E+02  0.45109302665E+03  0.81358604355E+02 0.  0.
        254    2    1    2    0    0  0.23668389067E+03  0.37461369834E+03  0.32310172843E+04  0.33830997700E+04  0.89974256041E+03 0.  0.
         23    2    4    4    0    0  0.45352514486E+02  0.56549552784E+03  0.11778712576E+04  0.13105851847E+04  0.91710328806E+02 0.  0.
         23    2    4    4    0    0  0.19133137619E+03 -0.19088182950E+03  0.20531460268E+04  0.20725145853E+04  0.82852463134E+02 0.  0.
          2    1    3    3  502    0 -0.44845498769E+02 -0.31490488117E+02  0.13171514442E+02  0.56358303686E+02  0.00000000000E+00 0. -1.
         -1    1    3    3    0  502 -0.19183839190E+03 -0.34312321022E+03 -0.35777024964E+02  0.39473472297E+03  0.00000000000E+00 0.  1.
         13    1    5    5    0    0  0.37940637742E+02  0.56284751833E+03  0.11404537295E+04  0.12723488240E+04  0.00000000000E+00 0.  1.
        -13    1    5    5    0    0  0.74118767445E+01  0.26480095043E+01  0.37417528093E+02  0.38236360703E+02  0.00000000000E+00 0. -1.
          3    1    6    6  503    0  0.95893975179E+02 -0.39685887073E+02  0.78097572016E+03  0.78784116394E+03  0.00000000000E+00 0. -1.
         -3    1    6    6    0  503  0.95437401009E+02 -0.15119594243E+03  0.12721703066E+04  0.12846734214E+04  0.00000000000E+00 0.  1.
<mgrwt>
<rscale>  0 0.20993161E+04</rscale>
<asrwt>0</asrwt>
<pdfrwt beam="1">  1        2 0.54173879E+00 0.20993161E+04</pdfrwt>
<pdfrwt beam="2">  1       -1 0.48137004E-01 0.20993161E+04</pdfrwt>
<totfact> 0.35706321E+00</totfact>
</mgrwt>
</event>
<event>
12    7  0.3632307E-007  0.2642358E+04  0.7818608E-02  0.8353954E-01
         -1   -1    0    0    0  501 -0.00000000000E+00  0.00000000000E+00  0.12174774666E+04  0.12174774666E+04  0.00000000000E+00 0.  1.
          2   -1    0    0  501    0  0.00000000000E+00 -0.00000000000E+00 -0.14337140807E+04  0.14337140807E+04  0.00000000000E+00 0. -1.
         24    2    1    2    0    0  0.56858821071E+03  0.59664644979E+02  0.92395773813E+03  0.10895580542E+04  0.81156814145E+02 0.  0.
        254    2    1    2    0    0 -0.56858821071E+03 -0.59664644979E+02 -0.11401943521E+04  0.15616334931E+04  0.90100143331E+03 0.  0.
         23    2    4    4    0    0 -0.46925006737E+03 -0.28360354700E+03 -0.20818182085E+03  0.59367796686E+03  0.92126327426E+02 0.  0.
         23    2    4    4    0    0 -0.99338143338E+02  0.22393890202E+03 -0.93201253128E+03  0.96795552621E+03  0.90960671102E+02 0.  0.
          2    1    3    3  502    0  0.35774957480E+02  0.24574499171E+02  0.74089387237E+02  0.85866121919E+02  0.00000000000E+00 0. -1.
         -1    1    3    3    0  502  0.53281325323E+03  0.35090145809E+02  0.84986835089E+03  0.10036919323E+04  0.00000000000E+00 0.  1.
         13    1    5    5    0    0 -0.67372342618E+02 -0.31486119063E+02  0.29022392874E+01  0.74423324545E+02  0.00000000000E+00 0. -1.
        -13    1    5    5    0    0 -0.40187772475E+03 -0.25211742794E+03 -0.21108406014E+03  0.51925464232E+03  0.00000000000E+00 0.  1.
          1    1    6    6  503    0 -0.17108757953E+02 -0.37437986582E+01 -0.39742711912E+02  0.43430505146E+02  0.00000000000E+00 0. -1.
         -1    1    6    6    0  503 -0.82229385385E+02  0.22768270068E+03 -0.89226981937E+03  0.92452502106E+03  0.00000000000E+00 0.  1.
<mgrwt>
<rscale>  0 0.26423585E+04</rscale>
<asrwt>0</asrwt>
<pdfrwt beam="1">  1        2 0.22057140E+00 0.26423585E+04</pdfrwt>
<pdfrwt beam="2">  1       -1 0.18730423E+00 0.26423585E+04</pdfrwt>
<totfact> 0.25657300E+00</totfact>
</mgrwt>
</event>
<event>
12    7  0.1660832E-007  0.1952569E+04  0.7818608E-02  0.8629123E-01
          2   -1    0    0  501    0  0.00000000000E+00  0.00000000000E+00  0.65112683015E+03  0.65112683015E+03  0.00000000000E+00 0. -1.
         -1   -1    0    0    0  501 -0.00000000000E+00 -0.00000000000E+00 -0.14638187495E+04  0.14638187495E+04  0.00000000000E+00 0.  1.
         24    2    1    2    0    0  0.39678379193E+03 -0.49312992138E+03 -0.78961779790E+03  0.10149597008E+04  0.77668722695E+02 0.  0.
        254    2    1    2    0    0 -0.39678379193E+03  0.49312992138E+03 -0.23074121444E+02  0.10999858789E+04  0.89934532956E+03 0.  0.
         23    2    4    4    0    0 -0.81814780357E+02 -0.22011956715E+03 -0.16792002158E+03  0.30244269098E+03  0.90156339523E+02 0.  0.
         23    2    4    4    0    0 -0.31496901158E+03  0.71324948853E+03  0.14484590013E+03  0.79754318792E+03  0.84643314410E+02 0.  0.
          4    1    3    3  502    0  0.21971388477E+03 -0.27920702895E+03 -0.38144971801E+03  0.52128173145E+03  0.00000000000E+00 0. -1.
         -3    1    3    3    0  502  0.17706990716E+03 -0.21392289243E+03 -0.40816807990E+03  0.49367796930E+03  0.00000000000E+00 0.  1.
         13    1    5    5    0    0 -0.12990100620E+02 -0.10773141111E+03 -0.12105510950E+03  0.16257041302E+03  0.00000000000E+00 0. -1.
        -13    1    5    5    0    0 -0.68824679738E+02 -0.11238815603E+03 -0.46864912078E+02  0.13987227796E+03  0.00000000000E+00 0.  1.
          3    1    6    6  503    0 -0.10505918976E+03  0.19007523000E+03  0.73778440800E+02  0.22936713963E+03  0.00000000000E+00 0. -1.
         -3    1    6    6    0  503 -0.20990982181E+03  0.52317425853E+03  0.71067459331E+02  0.56817604830E+03  0.00000000000E+00 0.  1.
<mgrwt>
<rscale>  0 0.19525692E+04</rscale>
<asrwt>0</asrwt>
<pdfrwt beam="1">  1        2 0.10017336E+00 0.19525692E+04</pdfrwt>
<pdfrwt beam="2">  1       -1 0.22520288E+00 0.19525692E+04</pdfrwt>
<totfact> 0.48527610E+00</totfact>
</mgrwt>
</event>
<event>
12    7  0.1660832E-007  0.1473980E+04  0.7818608E-02  0.8901943E-01
         -3   -1    0    0    0  501 -0.00000000000E+00  0.00000000000E+00  0.29758909546E+03  0.29758909546E+03  0.00000000000E+00 0.  1.
          4   -1    0    0  501    0  0.00000000000E+00 -0.00000000000E+00 -0.18251811455E+04  0.18251811455E+04  0.00000000000E+00 0. -1.
         24    2    1    2    0    0  0.13552299798E+02 -0.97754072484E+02 -0.11125919037E+04  0.11196809867E+04  0.78007974714E+02 0.  0.
        254    2    1    2    0    0 -0.13552299798E+02  0.97754072484E+02 -0.41500014632E+03  0.10030892543E+04  0.90786750528E+03 0.  0.
         23    2    4    4    0    0 -0.33877720733E+03  0.34637994954E+03 -0.23973956241E+03  0.54771027773E+03  0.88104624671E+02 0.  0.
         23    2    4    4    0    0  0.32522490754E+03 -0.24862587706E+03 -0.17526058391E+03  0.45537897658E+03  0.95224328891E+02 0.  0.
          2    1    3    3  502    0  0.26397390762E+02 -0.91663761333E+02 -0.65915600898E+03  0.66602230560E+03  0.00000000000E+00 0. -1.
         -1    1    3    3    0  502 -0.12845090964E+02 -0.60903111509E+01 -0.45343589476E+03  0.45365868107E+03  0.00000000000E+00 0.  1.
         13    1    5    5    0    0 -0.11593139700E+03  0.18015530191E+03 -0.96448801698E+02  0.23494338247E+03  0.00000000000E+00 0.  1.
        -13    1    5    5    0    0 -0.22284581033E+03  0.16622464763E+03 -0.14329076071E+03  0.31276689525E+03  0.00000000000E+00 0. -1.
          4    1    6    6  503    0  0.33076965996E+03 -0.24591938107E+03 -0.17756589820E+03  0.44879233298E+03  0.00000000000E+00 0. -1.
         -4    1    6    6    0  503 -0.55447524212E+01 -0.27064959876E+01  0.23053142936E+01  0.65866436017E+01  0.00000000000E+00 0.  1.
<mgrwt>
<rscale>  0 0.14739797E+04</rscale>
<asrwt>0</asrwt>
<pdfrwt beam="1">  1        4 0.28079710E+00 0.14739797E+04</pdfrwt>
<pdfrwt beam="2">  1       -3 0.45782938E-01 0.14739797E+04</pdfrwt>
<totfact> 0.42911883E-01</totfact>
</mgrwt>
</event>
<event>
12    7  0.1660832E-007  0.1464089E+04  0.7818608E-02  0.8908691E-01
          2   -1    0    0  501    0  0.00000000000E+00  0.00000000000E+00  0.48151485067E+03  0.48151485067E+03  0.00000000000E+00 0. -1.
         -1   -1    0    0    0  501 -0.00000000000E+00 -0.00000000000E+00 -0.11129230906E+04  0.11129230906E+04  0.00000000000E+00 0.  1.
         24    2    1    2    0    0 -0.13060521075E+03  0.34175433090E+03  0.98130782068E+02  0.38709075484E+03  0.79723637196E+02 0.  0.
        254    2    1    2    0    0  0.13060521075E+03 -0.34175433090E+03 -0.72953902198E+03  0.12073471864E+04  0.88972259732E+03 0.  0.
         23    2    4    4    0    0  0.40149697606E+03 -0.13484860143E+03 -0.42732497904E+02  0.43514962744E+03  0.90250566711E+02 0.  0.
         23    2    4    4    0    0 -0.27089176531E+03 -0.20690572947E+03 -0.68680652408E+03  0.77219755897E+03  0.91616260387E+02 0.  0.
          4    1    3    3  502    0 -0.13606373607E+03  0.26877484943E+03  0.80047461812E+02  0.31170636198E+03  0.00000000000E+00 0. -1.
         -3    1    3    3    0  502  0.54585253191E+01  0.72979481470E+02  0.18083320256E+02  0.75384392853E+02  0.00000000000E+00 0.  1.
         13    1    5    5    0    0  0.16692011327E+03 -0.10201827203E+03 -0.83635825566E+01  0.19580603044E+03  0.00000000000E+00 0. -1.
        -13    1    5    5    0    0  0.23457686279E+03 -0.32830329399E+02 -0.34368915347E+02  0.23934359701E+03  0.00000000000E+00 0.  1.
          4    1    6    6  503    0 -0.22105647614E+03 -0.12703338720E+03 -0.44742132679E+03  0.51496532968E+03  0.00000000000E+00 0. -1.
         -4    1    6    6    0  503 -0.49835289172E+02 -0.79872342271E+02 -0.23938519728E+03  0.25723222929E+03  0.00000000000E+00 0.  1.
<mgrwt>
<rscale>  0 0.14640888E+04</rscale>
<asrwt>0</asrwt>
<pdfrwt beam="1">  1        2 0.74079208E-01 0.14640888E+04</pdfrwt>
<pdfrwt beam="2">  1       -1 0.17121894E+00 0.14640888E+04</pdfrwt>
<totfact> 0.17176424E+01</totfact>
</mgrwt>
</event>
<event>
12    7  0.1660832E-007  0.1417612E+04  0.7818608E-02  0.8941168E-01
         -1   -1    0    0    0  501 -0.00000000000E+00  0.00000000000E+00  0.55180929521E+03  0.55180929521E+03  0.00000000000E+00 0.  1.
          2   -1    0    0  501    0  0.00000000000E+00 -0.00000000000E+00 -0.91047029703E+03  0.91047029703E+03  0.00000000000E+00 0. -1.
         24    2    1    2    0    0  0.17829036685E+03 -0.36231499532E+03 -0.23518196802E+02  0.41221331576E+03  0.79417261139E+02 0.  0.
        254    2    1    2    0    0 -0.17829036685E+03  0.36231499532E+03 -0.33514280502E+03  0.10500662765E+04  0.90953772571E+03 0.  0.
         23    2    4    4    0    0  0.10454433904E+03  0.80743025056E+02  0.27389229882E+03  0.31597203213E+03  0.85862557707E+02 0.  0.
         23    2    4    4    0    0 -0.28283470589E+03  0.28157197026E+03 -0.60903510384E+03  0.73409424434E+03  0.93232808444E+02 0.  0.
          2    1    3    3  502    0  0.78595386461E+02 -0.90265576867E+02 -0.25920374870E+02  0.12246213690E+03  0.00000000000E+00 0. -1.
         -1    1    3    3    0  502  0.99694980393E+02 -0.27204941845E+03  0.24021780675E+01  0.28975117886E+03  0.00000000000E+00 0.  1.
         13    1    5    5    0    0  0.10243929825E+03  0.30275258271E+02  0.17808640346E+03  0.20766600152E+03  0.00000000000E+00 0. -1.
        -13    1    5    5    0    0  0.21050407858E+01  0.50467766786E+02  0.95805895364E+02  0.10830603061E+03  0.00000000000E+00 0.  1.
          3    1    6    6  503    0 -0.20940391104E+03  0.25879673247E+03 -0.49000455617E+03  0.59239362907E+03  0.00000000000E+00 0. -1.
         -3    1    6    6    0  503 -0.73430794853E+02  0.22775237790E+02 -0.11903054767E+03  0.14170061527E+03  0.00000000000E+00 0.  1.
<mgrwt>
<rscale>  0 0.14176120E+04</rscale>
<asrwt>0</asrwt>
<pdfrwt beam="1">  1        2 0.14007235E+00 0.14176120E+04</pdfrwt>
<pdfrwt beam="2">  1       -1 0.84893739E-01 0.14176120E+04</pdfrwt>
<totfact> 0.43948274E+01</totfact>
</mgrwt>
</event>
<event>
12    7  0.1660832E-007  0.2336610E+04  0.7818608E-02  0.8463625E-01
          2   -1    0    0  501    0  0.00000000000E+00  0.00000000000E+00  0.36256401620E+04  0.36256401620E+04  0.00000000000E+00 0. -1.
         -1   -1    0    0    0  501 -0.00000000000E+00 -0.00000000000E+00 -0.37646781091E+03  0.37646781091E+03  0.00000000000E+00 0.  1.
         24    2    1    2    0    0 -0.46444473182E+03  0.84189382412E+02  0.28867167691E+04  0.29261402714E+04  0.79789862073E+02 0.  0.
        254    2    1    2    0    0  0.46444473182E+03 -0.84189382412E+02  0.36245558197E+03  0.10759677015E+04  0.89640151977E+03 0.  0.
         23    2    4    4    0    0 -0.91334734430E+02  0.30352933028E+03  0.14330439142E+03  0.35865625691E+03  0.87327395277E+02 0.  0.
         23    2    4    4    0    0  0.55577946625E+03 -0.38771871270E+03  0.21915119055E+03  0.71731144454E+03  0.85392323266E+02 0.  0.
          2    1    3    3  502    0 -0.24529594781E+03  0.63981125855E+02  0.13299906687E+04  0.13539345868E+04  0.00000000000E+00 0. -1.
         -1    1    3    3    0  502 -0.21914878401E+03  0.20208256557E+02  0.15567261004E+04  0.15722056846E+04  0.00000000000E+00 0.  1.
         13    1    5    5    0    0 -0.11440098216E+00  0.43649715607E+01  0.23229294996E+02  0.23636120881E+02  0.00000000000E+00 0. -1.
        -13    1    5    5    0    0 -0.91220333448E+02  0.29916435872E+03  0.12007509642E+03  0.33502013603E+03  0.00000000000E+00 0.  1.
          2    1    6    6  503    0  0.19958225459E+03 -0.18988293460E+03  0.82840017308E+02  0.28766486346E+03  0.00000000000E+00 0. -1.
         -2    1    6    6    0  503  0.35619721165E+03 -0.19783577810E+03  0.13631117325E+03  0.42964658108E+03  0.00000000000E+00 0.  1.
<mgrwt>
<rscale>  0 0.23366102E+04</rscale>
<asrwt>0</asrwt>
<pdfrwt beam="1">  1        2 0.55779077E+00 0.23366102E+04</pdfrwt>
<pdfrwt beam="2">  1       -1 0.57918127E-01 0.23366102E+04</pdfrwt>
<totfact> 0.20607439E+00</totfact>
</mgrwt>
</event>
<event>
12    7  0.1660832E-007  0.2623301E+04  0.7818608E-02  0.8360329E-01
         -1   -1    0    0    0  501 -0.00000000000E+00  0.00000000000E+00  0.16434882271E+04  0.16434882271E+04  0.00000000000E+00 0.  1.
          2   -1    0    0  501    0  0.00000000000E+00 -0.00000000000E+00 -0.10468144026E+04  0.10468144026E+04  0.00000000000E+00 0. -1.
         24    2    1    2    0    0 -0.70229172923E+03 -0.26170893175E+03 -0.63604331875E+03  0.98631664349E+03  0.81019627126E+02 0.  0.
        254    2    1    2    0    0  0.70229172923E+03  0.26170893175E+03  0.12327171432E+04  0.17039859862E+04  0.90679184397E+03 0.  0.
         23    2    4    4    0    0  0.77721755825E+03 -0.86404152919E+02  0.68106063993E+03  0.10412121741E+04  0.93522113596E+02 0.  0.
         23    2    4    4    0    0 -0.74925829019E+02  0.34811308467E+03  0.55165650325E+03  0.66277381214E+03  0.90264217194E+02 0.  0.
          2    1    3    3  502    0 -0.51633407866E+03 -0.22166216753E+03 -0.44556340719E+03  0.71712045510E+03  0.00000000000E+00 0. -1.
         -1    1    3    3    0  502 -0.18595765057E+03 -0.40046764224E+02 -0.19047991156E+03  0.26919618838E+03  0.00000000000E+00 0.  1.
         13    1    5    5    0    0  0.26941464833E+03 -0.74148523509E+02  0.25284170595E+03  0.37684371368E+03  0.00000000000E+00 0. -1.
        -13    1    5    5    0    0  0.50780290992E+03 -0.12255629410E+02  0.42821893398E+03  0.66436846042E+03  0.00000000000E+00 0.  1.
          4    1    6    6  503    0 -0.74647152660E+02  0.15846990708E+03  0.22621695183E+03  0.28611015037E+03  0.00000000000E+00 0.  1.
         -4    1    6    6    0  503 -0.27867635888E+00  0.18964317759E+03  0.32543955142E+03  0.37666366177E+03  0.00000000000E+00 0. -1.
<mgrwt>
<rscale>  0 0.26233011E+04</rscale>
<asrwt>0</asrwt>
<pdfrwt beam="1">  1        2 0.16104837E+00 0.26233011E+04</pdfrwt>
<pdfrwt beam="2">  1       -1 0.25284434E+00 0.26233011E+04</pdfrwt>
<totfact> 0.15808195E+00</totfact>
</mgrwt>
</event>
<event>
12    7  0.1660832E-007  0.1527123E+04  0.7818608E-02  0.8866614E-01
         -1   -1    0    0    0  501 -0.00000000000E+00  0.00000000000E+00  0.27069710954E+03  0.27069710954E+03  0.00000000000E+00 0.  1.
          2   -1    0    0  501    0  0.00000000000E+00 -0.00000000000E+00 -0.21537944330E+04  0.21537944330E+04  0.00000000000E+00 0. -1.
         24    2    1    2    0    0  0.48780403501E+03  0.80155516833E+02 -0.64673769060E+03  0.81809007941E+03  0.81388292439E+02 0.  0.
        254    2    1    2    0    0 -0.48780403501E+03 -0.80155516833E+02 -0.12363596329E+04  0.16064014631E+04  0.89864499971E+03 0.  0.
         23    2    4    4    0    0  0.23324091313E+03 -0.76135549465E+02 -0.15561481511E+03  0.30398918188E+03  0.89417596517E+02 0.  0.
         23    2    4    4    0    0 -0.72104494814E+03 -0.40199673677E+01 -0.10807448178E+04  0.13024122813E+04  0.91358698933E+02 0.  0.
          2    1    3    3  502    0  0.48726565482E+03  0.71708547659E+02 -0.63678765789E+03  0.80502699049E+03  0.00000000000E+00 0. -1.
         -1    1    3    3    0  502  0.53838019285E+00  0.84469691730E+01 -0.99500327096E+01  0.13063088929E+02  0.00000000000E+00 0.  1.
         13    1    5    5    0    0  0.20302460110E+03 -0.61420508017E+02 -0.90297292609E+02  0.23053214203E+03  0.00000000000E+00 0. -1.
        -13    1    5    5    0    0  0.30216312032E+02 -0.14715041447E+02 -0.65317522502E+02  0.73457039849E+02  0.00000000000E+00 0.  1.
          3    1    6    6  503    0 -0.49694712214E+03 -0.93634351473E+01 -0.66673866753E+03  0.83161563652E+03  0.00000000000E+00 0. -1.
         -3    1    6    6    0  503 -0.22409782600E+03  0.53434677796E+01 -0.41400615024E+03  0.47079664474E+03  0.00000000000E+00 0.  1.
<mgrwt>
<rscale>  0 0.15271227E+04</rscale>
<asrwt>0</asrwt>
<pdfrwt beam="1">  1        2 0.33135300E+00 0.15271227E+04</pdfrwt>
<pdfrwt beam="2">  1       -1 0.41645707E-01 0.15271227E+04</pdfrwt>
<totfact> 0.34076483E+01</totfact>
</mgrwt>
</event>
<event>
12    7  0.1660832E-007  0.1289277E+04  0.7818608E-02  0.9038112E-01
          2   -1    0    0  501    0  0.00000000000E+00  0.00000000000E+00  0.10956991638E+04  0.10956991638E+04  0.00000000000E+00 0. -1.
         -1   -1    0    0    0  501 -0.00000000000E+00 -0.00000000000E+00 -0.37926357710E+03  0.37926357710E+03  0.00000000000E+00 0.  1.
         24    2    1    2    0    0  0.20794079917E+03  0.10513331679E+03  0.43847102608E+03  0.50292568676E+03  0.79906291547E+02 0.  0.
        254    2    1    2    0    0 -0.20794079917E+03 -0.10513331679E+03  0.27796456063E+03  0.97203705415E+03  0.90183110803E+03 0.  0.
         23    2    4    4    0    0  0.23064530978E+03 -0.32973397432E+03  0.22052941122E+03  0.46772606378E+03  0.90623930481E+02 0.  0.
         23    2    4    4    0    0 -0.43858610895E+03  0.22460065753E+03  0.57435149402E+02  0.50431099037E+03  0.90705833843E+02 0.  0.
          4    1    3    3  502    0  0.95273698342E+02  0.84237553256E+02  0.18209849512E+03  0.22211011886E+03  0.00000000000E+00 0. -1.
         -3    1    3    3    0  502  0.11266710083E+03  0.20895763532E+02  0.25637253096E+03  0.28081556790E+03  0.00000000000E+00 0.  1.
         13    1    5    5    0    0  0.78767170803E+02 -0.18216827529E+03  0.82377441883E+02  0.21488506381E+03  0.00000000000E+00 0.  1.
        -13    1    5    5    0    0  0.15187813898E+03 -0.14756569903E+03  0.13815196934E+03  0.25284099996E+03  0.00000000000E+00 0. -1.
          4    1    6    6  503    0 -0.34812862787E+01  0.18335211416E+01 -0.10111259208E+02  0.10849825653E+02  0.00000000000E+00 0.  1.
         -4    1    6    6    0  503 -0.43510482267E+03  0.22276713639E+03  0.67546408610E+02  0.49346116472E+03  0.00000000000E+00 0. -1.
<mgrwt>
<rscale>  0 0.12892770E+04</rscale>
<asrwt>0</asrwt>
<pdfrwt beam="1">  1        2 0.16856910E+00 0.12892770E+04</pdfrwt>
<pdfrwt beam="2">  1       -1 0.58348243E-01 0.12892770E+04</pdfrwt>
<totfact> 0.72977876E+01</totfact>
</mgrwt>
</event>
<event>
12    7  0.1660832E-007  0.1295893E+04  0.7818608E-02  0.9032829E-01
         -1   -1    0    0    0  501 -0.00000000000E+00  0.00000000000E+00  0.43944620625E+03  0.43944620625E+03  0.00000000000E+00 0.  1.
          2   -1    0    0  501    0  0.00000000000E+00 -0.00000000000E+00 -0.95537151590E+03  0.95537151590E+03  0.00000000000E+00 0. -1.
         24    2    1    2    0    0  0.26907034859E+03  0.18743694216E+03 -0.16174914947E+03  0.37408192519E+03  0.79012907917E+02 0.  0.
        254    2    1    2    0    0 -0.26907034859E+03 -0.18743694216E+03 -0.35417616018E+03  0.10207357970E+04  0.89940500054E+03 0.  0.
         23    2    4    4    0    0 -0.19832284195E+03  0.34304525722E+03 -0.21658659016E+03  0.46088050663E+03  0.92136269793E+02 0.  0.
         23    2    4    4    0    0 -0.70747506645E+02 -0.53048219938E+03 -0.13758957002E+03  0.55985529034E+03  0.89947111072E+02 0.  0.
          4    1    3    3  502    0  0.25423415657E+03  0.16236202486E+03 -0.12339930482E+03  0.32591996243E+03  0.00000000000E+00 0. -1.
         -3    1    3    3    0  502  0.14836192024E+02  0.25074917301E+02 -0.38349844650E+02  0.48161962752E+02  0.00000000000E+00 0.  1.
         13    1    5    5    0    0 -0.69880096413E+02  0.15623698823E+03 -0.14148167188E+03  0.22205919896E+03  0.00000000000E+00 0.  1.
        -13    1    5    5    0    0 -0.12844274553E+03  0.18680826899E+03 -0.75104918274E+02  0.23882130766E+03  0.00000000000E+00 0. -1.
          2    1    6    6  503    0 -0.52424387943E+02 -0.38985413019E+03 -0.59132803439E+02  0.39778291532E+03  0.00000000000E+00 0.  1.
         -2    1    6    6    0  503 -0.18323118702E+02 -0.14062806919E+03 -0.78456766583E+02  0.16207237503E+03  0.00000000000E+00 0. -1.
<mgrwt>
<rscale>  0 0.12958926E+04</rscale>
<asrwt>0</asrwt>
<pdfrwt beam="1">  1        2 0.14698023E+00 0.12958926E+04</pdfrwt>
<pdfrwt beam="2">  1       -1 0.67607109E-01 0.12958926E+04</pdfrwt>
<totfact> 0.66758229E+01</totfact>
</mgrwt>
</event>
<event>
12    7  0.1660832E-007  0.2194545E+04  0.7818608E-02  0.8520702E-01
          2   -1    0    0  501    0  0.00000000000E+00  0.00000000000E+00  0.16990848777E+04  0.16990848777E+04  0.00000000000E+00 0. -1.
         -1   -1    0    0    0  501 -0.00000000000E+00 -0.00000000000E+00 -0.70862107437E+03  0.70862107437E+03  0.00000000000E+00 0.  1.
         24    2    1    2    0    0  0.27050480528E+03  0.33622798587E+03 -0.46794276756E+03  0.64146565788E+03  0.79282080946E+02 0.  0.
        254    2    1    2    0    0 -0.27050480528E+03 -0.33622798587E+03  0.14584065709E+04  0.17662402942E+04  0.89801611491E+03 0.  0.
         23    2    4    4    0    0 -0.36130158938E+03 -0.12043271214E+03  0.14635212925E+04  0.15148829762E+04  0.89067284441E+02 0.  0.
         23    2    4    4    0    0  0.90796784094E+02 -0.21579527373E+03 -0.51147216060E+01  0.25135731805E+03  0.91338298622E+02 0.  0.
          4    1    3    3  502    0  0.20444427279E+02  0.69915373315E+02 -0.65701889918E+02  0.98096240353E+02  0.00000000000E+00 0. -1.
         -3    1    3    3    0  502  0.25006037800E+03  0.26631261255E+03 -0.40224087764E+03  0.54336941752E+03  0.00000000000E+00 0.  1.
         13    1    5    5    0    0 -0.32970348361E+03 -0.10991638489E+03  0.12015386541E+04  0.12507922034E+04  0.00000000000E+00 0. -1.
        -13    1    5    5    0    0 -0.31598105763E+02 -0.10516327249E+02  0.26198263839E+03  0.26409077274E+03  0.00000000000E+00 0.  1.
          2    1    6    6  503    0  0.30859324622E+02 -0.91967962355E+02 -0.46666579353E+02  0.10764837966E+03  0.00000000000E+00 0. -1.
         -2    1    6    6    0  503  0.59937459472E+02 -0.12382731137E+03  0.41551857747E+02  0.14370893839E+03  0.00000000000E+00 0.  1.
<mgrwt>
<rscale>  0 0.21945454E+04</rscale>
<asrwt>0</asrwt>
<pdfrwt beam="1">  1        2 0.26139767E+00 0.21945454E+04</pdfrwt>
<pdfrwt beam="2">  1       -1 0.10901863E+00 0.21945454E+04</pdfrwt>
<totfact> 0.79700021E+00</totfact>
</mgrwt>
</event>
<event>
12    7  0.1660832E-007  0.1165319E+04  0.7818608E-02  0.9143766E-01
         -1   -1    0    0    0  501 -0.00000000000E+00  0.00000000000E+00  0.29014507553E+03  0.29014507553E+03  0.00000000000E+00 0.  1.
          2   -1    0    0  501    0  0.00000000000E+00 -0.00000000000E+00 -0.11700773284E+04  0.11700773284E+04  0.00000000000E+00 0. -1.
         24    2    1    2    0    0  0.15749442857E+02 -0.68220894385E+02  0.86727984208E+02  0.13708184397E+03  0.79796950569E+02 0.  0.
        254    2    1    2    0    0 -0.15749442857E+02  0.68220894385E+02 -0.96666023713E+03  0.13231405600E+04  0.90075900889E+03 0.  0.
         23    2    4    4    0    0  0.10387012175E+03  0.46239108147E+03 -0.49728677944E+03  0.69215190880E+03  0.84767974113E+02 0.  0.
         23    2    4    4    0    0 -0.11961956461E+03 -0.39417018709E+03 -0.46937345769E+03  0.63098865120E+03  0.90312006612E+02 0.  0.
          4    1    3    3  502    0 -0.11400745266E+02 -0.53151772949E+01 -0.11684342456E+02  0.17168341822E+02  0.00000000000E+00 0. -1.
         -3    1    3    3    0  502  0.27150188123E+02 -0.62905717091E+02  0.98412326664E+02  0.11991350215E+03  0.00000000000E+00 0.  1.
         13    1    5    5    0    0  0.58017183911E+02  0.38095933397E+03 -0.36984786756E+03  0.53411932460E+03  0.00000000000E+00 0. -1.
        -13    1    5    5    0    0  0.45852937840E+02  0.81431747503E+02 -0.12743891188E+03  0.15803258421E+03  0.00000000000E+00 0.  1.
          1    1    6    6  503    0 -0.49500980310E+02 -0.29179594982E+03 -0.30446496264E+03  0.42461057083E+03  0.00000000000E+00 0. -1.
         -1    1    6    6    0  503 -0.70118584298E+02 -0.10237423726E+03 -0.16490849505E+03  0.20637808037E+03  0.00000000000E+00 0.  1.
<mgrwt>
<rscale>  0 0.11653191E+04</rscale>
<asrwt>0</asrwt>
<pdfrwt beam="1">  1        2 0.18001190E+00 0.11653191E+04</pdfrwt>
<pdfrwt beam="2">  1       -1 0.44637704E-01 0.11653191E+04</pdfrwt>
<totfact> 0.11060471E+02</totfact>
</mgrwt>
</event>
<event>
12    7  0.1660832E-007  0.1899965E+04  0.7818608E-02  0.8654874E-01
         -1   -1    0    0    0  501 -0.00000000000E+00  0.00000000000E+00  0.23929360154E+04  0.23929360154E+04  0.00000000000E+00 0.  1.
          2   -1    0    0  501    0  0.00000000000E+00 -0.00000000000E+00 -0.37713780669E+03  0.37713780669E+03  0.00000000000E+00 0. -1.
         24    2    1    2    0    0 -0.27252698841E+03  0.51512702371E+03  0.13560322954E+03  0.60430095034E+03  0.84643917390E+02 0.  0.
        254    2    1    2    0    0  0.27252698841E+03 -0.51512702371E+03  0.18801949792E+04  0.21657728717E+04  0.90322320737E+03 0.  0.
         23    2    4    4    0    0 -0.21543048994E+03 -0.28751146817E+03  0.25137342978E+03  0.44786594327E+03  0.91225882395E+02 0.  0.
         23    2    4    4    0    0  0.48795747835E+03 -0.22761555554E+03  0.16288215494E+04  0.17179069285E+04  0.90737166377E+02 0.  0.
          4    1    3    3  502    0 -0.27562036762E+03  0.48741033290E+03  0.13671201016E+03  0.57639013991E+03  0.00000000000E+00 0. -1.
         -3    1    3    3    0  502  0.30933792055E+01  0.27716690813E+02 -0.11087806218E+01  0.27910810432E+02  0.00000000000E+00 0.  1.
         13    1    5    5    0    0 -0.15032225788E+03 -0.13080568437E+03  0.11425398385E+03  0.22969736852E+03  0.00000000000E+00 0.  1.
        -13    1    5    5    0    0 -0.65108232054E+02 -0.15670578379E+03  0.13711944593E+03  0.21816857475E+03  0.00000000000E+00 0. -1.
          3    1    6    6  503    0  0.35443687428E+03 -0.11895610598E+03  0.11207165477E+04  0.11814320265E+04  0.00000000000E+00 0. -1.
         -3    1    6    6    0  503  0.13352060407E+03 -0.10865944957E+03  0.50810500169E+03  0.53647490196E+03  0.00000000000E+00 0.  1.
<mgrwt>
<rscale>  0 0.18999649E+04</rscale>
<asrwt>0</asrwt>
<pdfrwt beam="1">  1        2 0.58021202E-01 0.18999649E+04</pdfrwt>
<pdfrwt beam="2">  1       -1 0.36814399E+00 0.18999649E+04</pdfrwt>
<totfact> 0.10723270E+00</totfact>
</mgrwt>
</event>
<event>
12    7  0.1660832E-007  0.1729744E+04  0.7818608E-02  0.8744580E-01
         -1   -1    0    0    0  501 -0.00000000000E+00  0.00000000000E+00  0.19389903713E+03  0.19389903713E+03  0.00000000000E+00 0.  1.
          2   -1    0    0  501    0  0.00000000000E+00 -0.00000000000E+00 -0.38576974265E+04  0.38576974265E+04  0.00000000000E+00 0. -1.
         24    2    1    2    0    0  0.33989774772E+02 -0.16710836745E+03  0.74836854380E+02  0.20167207867E+03  0.77398716271E+02 0.  0.
        254    2    1    2    0    0 -0.33989774772E+02  0.16710836745E+03 -0.37386352437E+04  0.38499243849E+04  0.90301925390E+03 0.  0.
         23    2    4    4    0    0  0.10494478878E+03 -0.22439332277E+01 -0.35332063080E+04  0.35359375158E+04  0.91043156987E+02 0.  0.
         23    2    4    4    0    0 -0.13893456355E+03  0.16935230067E+03 -0.20542893571E+03  0.31398686919E+03  0.91671651567E+02 0.  0.
          4    1    3    3  502    0  0.50371517277E+02 -0.66474376981E+02  0.19452192946E+02  0.85641814309E+02  0.00000000000E+00 0. -1.
         -3    1    3    3    0  502 -0.16381742505E+02 -0.10063399047E+03  0.55384661434E+02  0.11603026436E+03  0.00000000000E+00 0.  1.
         13    1    5    5    0    0  0.75402224766E+02  0.41564317773E+02 -0.22126822346E+04  0.22143567372E+04  0.00000000000E+00 0. -1.
        -13    1    5    5    0    0  0.29542564015E+02 -0.43808251001E+02 -0.13205240734E+04  0.13215807786E+04  0.00000000000E+00 0.  1.
          1    1    6    6  503    0 -0.24054324701E+02  0.54458546472E+02 -0.11128099770E+03  0.12620540507E+03  0.00000000000E+00 0. -1.
         -1    1    6    6    0  503 -0.11488023885E+03  0.11489375420E+03 -0.94147938015E+02  0.18778146412E+03  0.00000000000E+00 0.  1.
<mgrwt>
<rscale>  0 0.17297443E+04</rscale>
<asrwt>0</asrwt>
<pdfrwt beam="1">  1        2 0.59349192E+00 0.17297443E+04</pdfrwt>
<pdfrwt beam="2">  1       -1 0.29830621E-01 0.17297443E+04</pdfrwt>
<totfact> 0.50108490E+00</totfact>
</mgrwt>
</event>
<event>
12    7  0.1660832E-007  0.2499751E+04  0.7818608E-02  0.8403074E-01
         -1   -1    0    0    0  501 -0.00000000000E+00  0.00000000000E+00  0.73079977585E+03  0.73079977585E+03  0.00000000000E+00 0.  1.
          2   -1    0    0  501    0  0.00000000000E+00 -0.00000000000E+00 -0.21376429139E+04  0.21376429139E+04  0.00000000000E+00 0. -1.
         24    2    1    2    0    0 -0.77452611520E+03 -0.63684905746E+03 -0.10894065252E+04  0.14827014735E+04  0.78292127254E+02 0.  0.
        254    2    1    2    0    0  0.77452611520E+03  0.63684905746E+03 -0.31743661277E+03  0.13857412162E+04  0.90224458438E+03 0.  0.
         23    2    4    4    0    0  0.20328837511E+02  0.56587925253E+03 -0.43275806305E+02  0.57504048710E+03  0.90366898310E+02 0.  0.
         23    2    4    4    0    0  0.75419727769E+03  0.70969804931E+02 -0.27416080646E+03  0.81070072911E+03  0.90671260553E+02 0.  0.
          4    1    3    3  502    0 -0.13268979064E+03 -0.12212106722E+03 -0.15588690292E+03  0.23837126945E+03  0.00000000000E+00 0. -1.
         -1    1    3    3    0  502 -0.64183632456E+03 -0.51472799024E+03 -0.93351962233E+03  0.12443302041E+04  0.00000000000E+00 0.  1.
         13    1    5    5    0    0  0.11075286614E+02  0.12926578394E+03  0.27524873895E+02  0.13262700915E+03  0.00000000000E+00 0.  1.
        -13    1    5    5    0    0  0.92535508971E+01  0.43661346859E+03 -0.70800680200E+02  0.44241347795E+03  0.00000000000E+00 0. -1.
          4    1    6    6  503    0  0.60853120045E+03  0.83209598093E+02 -0.19467110669E+03  0.64430652558E+03  0.00000000000E+00 0. -1.
         -4    1    6    6    0  503  0.14566607724E+03 -0.12239793161E+02 -0.79489699776E+02  0.16639420353E+03  0.00000000000E+00 0.  1.
<mgrwt>
<rscale>  0 0.24997512E+04</rscale>
<asrwt>0</asrwt>
<pdfrwt beam="1">  1        2 0.32886815E+00 0.24997512E+04</pdfrwt>
<pdfrwt beam="2">  1       -1 0.11243073E+00 0.24997512E+04</pdfrwt>
<totfact> 0.41148321E+00</totfact>
</mgrwt>
</event>
<event>
12    7  0.1660832E-007  0.2457730E+04  0.7818608E-02  0.8418201E-01
          2   -1    0    0  501    0  0.00000000000E+00  0.00000000000E+00  0.14377263145E+04  0.14377263145E+04  0.00000000000E+00 0. -1.
         -1   -1    0    0    0  501 -0.00000000000E+00 -0.00000000000E+00 -0.10503450192E+04  0.10503450192E+04  0.00000000000E+00 0.  1.
         24    2    1    2    0    0  0.25545030697E+03  0.70088558007E+03  0.96465443946E+03  0.12220797874E+04  0.80158364971E+02 0.  0.
        254    2    1    2    0    0 -0.25545030697E+03 -0.70088558007E+03 -0.57727314417E+03  0.12659915462E+04  0.84439022761E+03 0.  0.
         23    2    4    4    0    0 -0.51878650450E+03 -0.58049146784E+03 -0.55690361487E+03  0.96169872453E+03  0.92806352304E+02 0.  0.
         23    2    4    4    0    0  0.26333619752E+03 -0.12039411224E+03 -0.20369529305E+02  0.30429282171E+03  0.91315433717E+02 0.  0.
          4    1    3    3  502    0  0.24642432767E+03  0.61324362619E+03  0.87290433911E+03  0.10948765591E+04  0.00000000000E+00 0. -1.
         -3    1    3    3    0  502  0.90259793011E+01  0.87641953887E+02  0.91750100347E+02  0.12720322833E+03  0.00000000000E+00 0.  1.
         13    1    5    5    0    0 -0.22405277330E+03 -0.29703569417E+03 -0.30781779569E+03  0.48288885283E+03  0.00000000000E+00 0.  1.
        -13    1    5    5    0    0 -0.29473373119E+03 -0.28345577366E+03 -0.24908581918E+03  0.47880987170E+03  0.00000000000E+00 0. -1.
          4    1    6    6  503    0  0.13303127404E+03 -0.93046732024E+02 -0.45937155578E+02  0.16871643807E+03  0.00000000000E+00 0. -1.
         -4    1    6    6    0  503  0.13030492348E+03 -0.27347380214E+02  0.25567626273E+02  0.13557638364E+03  0.00000000000E+00 0.  1.
<mgrwt>
<rscale>  0 0.24577296E+04</rscale>
<asrwt>0</asrwt>
<pdfrwt beam="1">  1        2 0.22118867E+00 0.24577296E+04</pdfrwt>
<pdfrwt beam="2">  1       -1 0.16159154E+00 0.24577296E+04</pdfrwt>
<totfact> 0.39907683E+00</totfact>
</mgrwt>
</event>
<event>
12    7  0.1660832E-007  0.1930831E+04  0.7818608E-02  0.8639660E-01
         -1   -1    0    0    0  501 -0.00000000000E+00  0.00000000000E+00  0.67487147333E+03  0.67487147333E+03  0.00000000000E+00 0.  1.
          2   -1    0    0  501    0  0.00000000000E+00 -0.00000000000E+00 -0.13810437329E+04  0.13810437329E+04  0.00000000000E+00 0. -1.
         24    2    1    2    0    0  0.14290274364E+03 -0.34937414374E+03  0.41876433074E+03  0.57174075264E+03  0.95081213028E+02 0.  0.
        254    2    1    2    0    0 -0.14290274364E+03  0.34937414374E+03 -0.11249365903E+04  0.14841744536E+04  0.89152004466E+03 0.  0.
         23    2    4    4    0    0 -0.29592713373E+03 -0.16999298258E+03 -0.72117479731E+03  0.80306762142E+03  0.91400403174E+02 0.  0.
         23    2    4    4    0    0  0.15302439010E+03  0.51936712632E+03 -0.40376179299E+03  0.68110683216E+03  0.87887743611E+02 0.  0.
          2    1    3    3  502    0  0.37659688514E+02 -0.70661395229E+02  0.39001168813E+02  0.89063887651E+02  0.00000000000E+00 0. -1.
         -1    1    3    3    0  502  0.10524305512E+03 -0.27871274851E+03  0.37976316193E+03  0.48267686498E+03  0.00000000000E+00 0.  1.
         13    1    5    5    0    0 -0.22073080792E+02 -0.49335762093E+02 -0.10981074748E+03  0.12239133376E+03  0.00000000000E+00 0. -1.
        -13    1    5    5    0    0 -0.27385405294E+03 -0.12065722049E+03 -0.61136404983E+03  0.68067628767E+03  0.00000000000E+00 0.  1.
          3    1    6    6  503    0  0.15410440749E+03  0.47096460001E+03 -0.33963388444E+03  0.60075535648E+03  0.00000000000E+00 0.  1.
         -3    1    6    6    0  503 -0.10800173952E+01  0.48402526302E+02 -0.64127908549E+02  0.80351475685E+02  0.00000000000E+00 0. -1.
<mgrwt>
<rscale>  0 0.19308309E+04</rscale>
<asrwt>0</asrwt>
<pdfrwt beam="1">  1        2 0.21246827E+00 0.19308309E+04</pdfrwt>
<pdfrwt beam="2">  1       -1 0.10382638E+00 0.19308309E+04</pdfrwt>
<totfact> 0.13807874E+01</totfact>
</mgrwt>
</event>
<event>
12    7  0.1660832E-007  0.3143240E+04  0.7818608E-02  0.8203970E-01
          2   -1    0    0  501    0  0.00000000000E+00  0.00000000000E+00  0.19578184621E+04  0.19578184621E+04  0.00000000000E+00 0. -1.
         -1   -1    0    0    0  501 -0.00000000000E+00 -0.00000000000E+00 -0.12616031347E+04  0.12616031347E+04  0.00000000000E+00 0.  1.
         24    2    1    2    0    0  0.38504067048E+03 -0.71508462391E+03  0.15430184765E+04  0.17456812343E+04  0.83033823420E+02 0.  0.
        254    2    1    2    0    0 -0.38504067048E+03  0.71508462391E+03 -0.84680314911E+03  0.14737403625E+04  0.89175823264E+03 0.  0.
         23    2    4    4    0    0 -0.64944212443E+03  0.51654076102E+03 -0.44817452884E+03  0.94754285431E+03  0.91583959667E+02 0.  0.
         23    2    4    4    0    0  0.26440145395E+03  0.19854386289E+03 -0.39862862027E+03  0.52619750820E+03  0.93012076644E+02 0.  0.
          4    1    3    3  502    0  0.34571482498E+03 -0.57824224054E+03  0.12915021124E+04  0.14566607482E+04  0.00000000000E+00 0. -1.
         -3    1    3    3    0  502  0.39325845508E+02 -0.13684238337E+03  0.25151636410E+03  0.28902048616E+03  0.00000000000E+00 0.  1.
         13    1    5    5    0    0 -0.57386745437E+03  0.45172585709E+03 -0.42617462766E+03  0.84557963458E+03  0.00000000000E+00 0.  1.
        -13    1    5    5    0    0 -0.75574670060E+02  0.64814903931E+02 -0.21999901183E+02  0.10196321973E+03  0.00000000000E+00 0. -1.
          1    1    6    6  503    0  0.10234396481E+03  0.13494343068E+03 -0.19331595094E+03  0.25701181589E+03  0.00000000000E+00 0. -1.
         -1    1    6    6    0  503  0.16205748914E+03  0.63600432215E+02 -0.20531266932E+03  0.26918569232E+03  0.00000000000E+00 0.  1.
<mgrwt>
<rscale>  0 0.31432403E+04</rscale>
<asrwt>0</asrwt>
<pdfrwt beam="1">  1        2 0.30120284E+00 0.31432403E+04</pdfrwt>
<pdfrwt beam="2">  1       -1 0.19409279E+00 0.31432403E+04</pdfrwt>
<totfact> 0.11226471E+00</totfact>
</mgrwt>
</event>
<event>
12    7  0.1660832E-007  0.2725820E+04  0.7818608E-02  0.8326676E-01
          2   -1    0    0  501    0  0.00000000000E+00  0.00000000000E+00  0.24924801536E+04  0.24924801536E+04  0.00000000000E+00 0. -1.
         -1   -1    0    0    0  501 -0.00000000000E+00 -0.00000000000E+00 -0.74525127680E+03  0.74525127680E+03  0.00000000000E+00 0.  1.
         24    2    1    2    0    0  0.69541534944E+03  0.66084013912E+03 -0.10335394181E+03  0.96820465240E+03  0.80162422255E+02 0.  0.
        254    2    1    2    0    0 -0.69541534944E+03 -0.66084013912E+03  0.18505828186E+04  0.22695267780E+04  0.89765407022E+03 0.  0.
         23    2    4    4    0    0 -0.86993597344E+02 -0.67820355321E+03  0.11059033468E+04  0.13034398753E+04  0.91680698421E+02 0.  0.
         23    2    4    4    0    0 -0.60842175210E+03  0.17363414096E+02  0.74467947184E+03  0.96608690273E+03  0.91092652128E+02 0.  0.
          2    1    3    3  502    0  0.28026199151E+03  0.22706732664E+03 -0.12285145383E+02  0.36091173368E+03  0.00000000000E+00 0. -1.
         -1    1    3    3    0  502  0.41515335793E+03  0.43377281248E+03 -0.91068796428E+02  0.60729291872E+03  0.00000000000E+00 0.  1.
         13    1    5    5    0    0 -0.89430241851E+02 -0.41801429676E+03  0.73710574525E+03  0.85209072295E+03  0.00000000000E+00 0. -1.
        -13    1    5    5    0    0  0.24366445074E+01 -0.26018925645E+03  0.36879760153E+03  0.45134915232E+03  0.00000000000E+00 0.  1.
          3    1    6    6  503    0 -0.46523637276E+03  0.29738605446E+02  0.51057677165E+03  0.69138839080E+03  0.00000000000E+00 0. -1.
         -3    1    6    6    0  503 -0.14318537934E+03 -0.12375191350E+02  0.23410270019E+03  0.27469851193E+03  0.00000000000E+00 0.  1.
<mgrwt>
<rscale>  0 0.27258203E+04</rscale>
<asrwt>0</asrwt>
<pdfrwt beam="1">  1        2 0.38345848E+00 0.27258203E+04</pdfrwt>
<pdfrwt beam="2">  1       -1 0.11465404E+00 0.27258203E+04</pdfrwt>
<totfact> 0.24192159E+00</totfact>
</mgrwt>
</event>
<event>
12    7  0.1660832E-007  0.1439891E+04  0.7818608E-02  0.8925439E-01
          2   -1    0    0  501    0  0.00000000000E+00  0.00000000000E+00  0.51697697745E+03  0.51697697745E+03  0.00000000000E+00 0. -1.
         -1   -1    0    0    0  501 -0.00000000000E+00 -0.00000000000E+00 -0.10026008716E+04  0.10026008716E+04  0.00000000000E+00 0.  1.
         24    2    1    2    0    0 -0.14191391677E+01  0.11443956355E+02  0.34534345822E+03  0.35494598670E+03  0.81188492107E+02 0.  0.
        254    2    1    2    0    0  0.14191391677E+01 -0.11443956355E+02 -0.83096735240E+03  0.11646318624E+04  0.81592135406E+03 0.  0.
         23    2    4    4    0    0  0.39341280795E+03 -0.88782565433E+00 -0.32853226453E+03  0.52069886414E+03  0.91757466096E+02 0.  0.
         23    2    4    4    0    0 -0.39199366879E+03 -0.10556130700E+02 -0.50243508787E+03  0.64393299823E+03  0.91859786774E+02 0.  0.
          2    1    3    3  502    0  0.64002409296E+01  0.16902112291E+01  0.34192067572E+03  0.34198474876E+03  0.00000000000E+00 0. -1.
         -1    1    3    3    0  502 -0.78193800972E+01  0.97537451257E+01  0.34227824977E+01  0.12961237947E+02  0.00000000000E+00 0.  1.
         13    1    5    5    0    0  0.27800305014E+03 -0.33818375213E+02 -0.19555825639E+03  0.34157343286E+03  0.00000000000E+00 0. -1.
        -13    1    5    5    0    0  0.11540975781E+03  0.32930549559E+02 -0.13297400814E+03  0.17912543128E+03  0.00000000000E+00 0.  1.
          1    1    6    6  503    0 -0.30555197081E+03 -0.35028179772E+02 -0.42925155390E+03  0.52805859217E+03  0.00000000000E+00 0. -1.
         -1    1    6    6    0  503 -0.86441697982E+02  0.24472049071E+02 -0.73183533971E+02  0.11587440606E+03  0.00000000000E+00 0.  1.
<mgrwt>
<rscale>  0 0.14398911E+04</rscale>
<asrwt>0</asrwt>
<pdfrwt beam="1">  1        2 0.79534921E-01 0.14398911E+04</pdfrwt>
<pdfrwt beam="2">  1       -1 0.15424629E+00 0.14398911E+04</pdfrwt>
<totfact> 0.21252159E+01</totfact>
</mgrwt>
</event>
<event>
12    7  0.1660832E-007  0.1740917E+04  0.7818608E-02  0.8738366E-01
          2   -1    0    0  501    0  0.00000000000E+00  0.00000000000E+00  0.14857918188E+04  0.14857918188E+04  0.00000000000E+00 0. -1.
         -1   -1    0    0    0  501 -0.00000000000E+00 -0.00000000000E+00 -0.50996256325E+03  0.50996256325E+03  0.00000000000E+00 0.  1.
         24    2    1    2    0    0 -0.25566147896E+03 -0.19416664752E+03  0.97670979716E+03  0.10311414744E+04  0.78912821921E+02 0.  0.
        254    2    1    2    0    0  0.25566147896E+03  0.19416664752E+03 -0.88054159667E+00  0.96461290769E+03  0.90962289301E+03 0.  0.
         23    2    4    4    0    0 -0.30806382661E+03  0.22535616324E+03 -0.20693195486E+02  0.39244231522E+03  0.88848415105E+02 0.  0.
         23    2    4    4    0    0  0.56372530557E+03 -0.31189515715E+02  0.19812653889E+02  0.57217059247E+03  0.90706337159E+02 0.  0.
          2    1    3    3  502    0 -0.23637369736E+03 -0.20013152937E+03  0.89915918323E+03  0.95100598875E+03  0.00000000000E+00 0. -1.
         -1    1    3    3    0  502 -0.19287781605E+02  0.59648818505E+01  0.77550613929E+02  0.80135485619E+02  0.00000000000E+00 0.  1.
         13    1    5    5    0    0 -0.11899771423E+03  0.14190292433E+03 -0.12476302380E+02  0.18561399205E+03  0.00000000000E+00 0.  1.
        -13    1    5    5    0    0 -0.18906611238E+03  0.83453238911E+02 -0.82168931056E+01  0.20682832317E+03  0.00000000000E+00 0. -1.
          1    1    6    6  503    0  0.67003517036E+02  0.91992052847E+01  0.29331465592E+02  0.73718597021E+02  0.00000000000E+00 0. -1.
         -1    1    6    6    0  503  0.49672178853E+03 -0.40388721000E+02 -0.95188117028E+01  0.49845199544E+03  0.00000000000E+00 0.  1.
<mgrwt>
<rscale>  0 0.17409172E+04</rscale>
<asrwt>0</asrwt>
<pdfrwt beam="1">  1        2 0.22858335E+00 0.17409172E+04</pdfrwt>
<pdfrwt beam="2">  1       -1 0.78455780E-01 0.17409172E+04</pdfrwt>
<totfact> 0.22724357E+01</totfact>
</mgrwt>
</event>
<event>
12    7  0.1660832E-007  0.1267652E+04  0.7818608E-02  0.9055618E-01
          2   -1    0    0  501    0  0.00000000000E+00  0.00000000000E+00  0.11910121740E+04  0.11910121740E+04  0.00000000000E+00 0. -1.
         -1   -1    0    0    0  501 -0.00000000000E+00 -0.00000000000E+00 -0.33730607422E+03  0.33730607422E+03  0.00000000000E+00 0.  1.
         24    2    1    2    0    0 -0.21967678360E+03 -0.14816331053E+03  0.41397529756E+03  0.49785949635E+03  0.79235568255E+02 0.  0.
        254    2    1    2    0    0  0.21967678360E+03  0.14816331053E+03  0.43973080222E+03  0.10304587519E+04  0.89346057834E+03 0.  0.
         23    2    4    4    0    0  0.48032132385E+03 -0.11402084666E+03  0.83235176161E+02  0.50889429068E+03  0.91301571268E+02 0.  0.
         23    2    4    4    0    0 -0.26064454026E+03  0.26218415719E+03  0.35649562606E+03  0.52156446119E+03  0.90907904682E+02 0.  0.
          2    1    3    3  502    0 -0.10647843384E+03 -0.58071741729E+02  0.25819040455E+03  0.28525824977E+03  0.00000000000E+00 0. -1.
         -1    1    3    3    0  502 -0.11319834976E+03 -0.90091568803E+02  0.15578489301E+03  0.21260124658E+03  0.00000000000E+00 0.  1.
         13    1    5    5    0    0  0.30425824292E+03 -0.28398897868E+02  0.37773471259E+02  0.30790649703E+03  0.00000000000E+00 0.  1.
        -13    1    5    5    0    0  0.17606308093E+03 -0.85621948789E+02  0.45461704902E+02  0.20098779365E+03  0.00000000000E+00 0. -1.
          2    1    6    6  503    0 -0.36360359859E+01  0.35553628657E+02  0.18439539232E+02  0.40215642174E+02  0.00000000000E+00 0. -1.
         -2    1    6    6    0  503 -0.25700850427E+03  0.22663052853E+03  0.33805608683E+03  0.48134881902E+03  0.00000000000E+00 0.  1.
<mgrwt>
<rscale>  0 0.12676524E+04</rscale>
<asrwt>0</asrwt>
<pdfrwt beam="1">  1        2 0.18323264E+00 0.12676524E+04</pdfrwt>
<pdfrwt beam="2">  1       -1 0.51893243E-01 0.12676524E+04</pdfrwt>
<totfact> 0.80273369E+01</totfact>
</mgrwt>
</event>
<event>
12    7  0.1660832E-007  0.1837775E+04  0.7818608E-02  0.8686465E-01
          4   -1    0    0  501    0  0.00000000000E+00  0.00000000000E+00  0.77477701312E+03  0.77477701312E+03  0.00000000000E+00 0. -1.
         -3   -1    0    0    0  501 -0.00000000000E+00 -0.00000000000E+00 -0.10898034319E+04  0.10898034319E+04  0.00000000000E+00 0.  1.
         24    2    1    2    0    0  0.51020868984E+02 -0.47533500988E+03  0.38971530223E+03  0.62207812412E+03  0.80973298224E+02 0.  0.
        254    2    1    2    0    0 -0.51020868984E+02  0.47533500988E+03 -0.70474172103E+03  0.12425023209E+04  0.90476771796E+03 0.  0.
         23    2    4    4    0    0  0.84835445280E+02  0.55581960883E+03 -0.59631081071E+02  0.57198191651E+03  0.86457831668E+02 0.  0.
         23    2    4    4    0    0 -0.13585631426E+03 -0.80484598948E+02 -0.64511063996E+03  0.67052040441E+03  0.92169225620E+02 0.  0.
          4    1    3    3  502    0  0.60829120794E+02 -0.26859398849E+03  0.25347221690E+03  0.37428742609E+03  0.00000000000E+00 0. -1.
         -3    1    3    3    0  502 -0.98082518099E+01 -0.20674102139E+03  0.13624308533E+03  0.24779069803E+03  0.00000000000E+00 0.  1.
         13    1    5    5    0    0  0.33781280883E+02  0.22710578734E+03 -0.67214785451E+02  0.23924055042E+03  0.00000000000E+00 0.  1.
        -13    1    5    5    0    0  0.51054164397E+02  0.32871382148E+03  0.75837043801E+01  0.33274136609E+03  0.00000000000E+00 0. -1.
          1    1    6    6  503    0 -0.10111338150E+03 -0.23173858169E+02 -0.50046463785E+03  0.51110253117E+03  0.00000000000E+00 0. -1.
         -1    1    6    6    0  503 -0.34742932763E+02 -0.57310740779E+02 -0.14464600210E+03  0.15941787325E+03  0.00000000000E+00 0.  1.
<mgrwt>
<rscale>  0 0.18377754E+04</rscale>
<asrwt>0</asrwt>
<pdfrwt beam="1">  1        4 0.11919646E+00 0.18377754E+04</pdfrwt>
<pdfrwt beam="2">  1       -3 0.16766206E+00 0.18377754E+04</pdfrwt>
<totfact> 0.27838992E-01</totfact>
</mgrwt>
</event>
<event>
12    7  0.1660832E-007  0.1423368E+04  0.7818608E-02  0.8937075E-01
         -1   -1    0    0    0  501 -0.00000000000E+00  0.00000000000E+00  0.36304546116E+03  0.36304546116E+03  0.00000000000E+00 0.  1.
          2   -1    0    0  501    0  0.00000000000E+00 -0.00000000000E+00 -0.13951255568E+04  0.13951255568E+04  0.00000000000E+00 0. -1.
         24    2    1    2    0    0 -0.59769552697E+01 -0.40260688941E+02  0.20635679235E+03  0.22446767189E+03  0.78396191907E+02 0.  0.
        254    2    1    2    0    0  0.59769552697E+01  0.40260688941E+02 -0.12384368880E+04  0.15337033461E+04  0.90380494642E+03 0.  0.
         23    2    4    4    0    0  0.12019627196E+03 -0.16135908005E+03  0.45821447591E+02  0.22541775453E+03  0.90717487245E+02 0.  0.
         23    2    4    4    0    0 -0.11421931669E+03  0.20161976899E+03 -0.12842583356E+04  0.13082855916E+04  0.92709939982E+02 0.  0.
          4    1    3    3  502    0  0.11852315559E+02  0.20484892147E+02  0.75103789792E+02  0.78744443813E+02  0.00000000000E+00 0. -1.
         -3    1    3    3    0  502 -0.17829270829E+02 -0.60745581088E+02  0.13125300256E+03  0.14572322808E+03  0.00000000000E+00 0.  1.
         13    1    5    5    0    0  0.11897362983E+03 -0.14866089848E+03  0.13750490968E+02  0.19090275884E+03  0.00000000000E+00 0.  1.
        -13    1    5    5    0    0  0.12226421301E+01 -0.12698181573E+02  0.32070956623E+02  0.34514995694E+02  0.00000000000E+00 0. -1.
          4    1    6    6  503    0  0.10877902816E+02  0.11665064367E+01 -0.10639295946E+03  0.10695396827E+03  0.00000000000E+00 0. -1.
         -4    1    6    6    0  503 -0.12509721950E+03  0.20045326255E+03 -0.11778653762E+04  0.12013316233E+04  0.00000000000E+00 0.  1.
<mgrwt>
<rscale>  0 0.14233678E+04</rscale>
<asrwt>0</asrwt>
<pdfrwt beam="1">  1        2 0.21463470E+00 0.14233678E+04</pdfrwt>
<pdfrwt beam="2">  1       -1 0.55853148E-01 0.14233678E+04</pdfrwt>
<totfact> 0.52290626E+01</totfact>
</mgrwt>
</event>
<event>
12    7  0.1660832E-007  0.2325278E+04  0.7818608E-02  0.8468020E-01
          2   -1    0    0  501    0  0.00000000000E+00  0.00000000000E+00  0.21357534757E+04  0.21357534757E+04  0.00000000000E+00 0. -1.
         -1   -1    0    0    0  501 -0.00000000000E+00 -0.00000000000E+00 -0.63290527122E+03  0.63290527122E+03  0.00000000000E+00 0.  1.
         24    2    1    2    0    0  0.17055143221E+03  0.18596316232E+03 -0.50212043983E+03  0.56773489954E+03  0.80795366780E+02 0.  0.
        254    2    1    2    0    0 -0.17055143221E+03 -0.18596316232E+03  0.20049686443E+04  0.22009238473E+04  0.87206446350E+03 0.  0.
         23    2    4    4    0    0 -0.28299695117E+03 -0.71700760864E+02  0.19912722097E+04  0.20144915409E+04  0.88220641930E+02 0.  0.
         23    2    4    4    0    0  0.11244551896E+03 -0.11426240145E+03  0.13696434563E+02  0.18643230645E+03  0.94178136789E+02 0.  0.
          4    1    3    3  502    0  0.23345248607E+02  0.91757669271E+01 -0.15528021772E+02  0.29501098139E+02  0.00000000000E+00 0. -1.
         -3    1    3    3    0  502  0.14720618360E+03  0.17678739539E+03 -0.48659241806E+03  0.53823380140E+03  0.00000000000E+00 0.  1.
         13    1    5    5    0    0 -0.25903420075E+03 -0.52149490758E+02  0.18960490296E+04  0.19143720143E+04  0.00000000000E+00 0.  1.
        -13    1    5    5    0    0 -0.23962750422E+02 -0.19551270105E+02  0.95223180067E+02  0.10011952653E+03  0.00000000000E+00 0. -1.
          4    1    6    6  503    0  0.91087183759E+02 -0.53791708027E+02  0.45132464831E+02  0.11501027032E+03  0.00000000000E+00 0. -1.
         -4    1    6    6    0  503  0.21358335202E+02 -0.60470693428E+02 -0.31436030268E+02  0.71422036132E+02  0.00000000000E+00 0.  1.
<mgrwt>
<rscale>  0 0.23252782E+04</rscale>
<asrwt>0</asrwt>
<pdfrwt beam="1">  1        2 0.32857745E+00 0.23252782E+04</pdfrwt>
<pdfrwt beam="2">  1       -1 0.97370043E-01 0.23252782E+04</pdfrwt>
<totfact> 0.58502089E+00</totfact>
</mgrwt>
</event>
<event>
12    7  0.1660832E-007  0.1938930E+04  0.7818608E-02  0.8635717E-01
          2   -1    0    0  501    0  0.00000000000E+00  0.00000000000E+00  0.10193198336E+04  0.10193198336E+04  0.00000000000E+00 0. -1.
         -1   -1    0    0    0  501 -0.00000000000E+00 -0.00000000000E+00 -0.92204894198E+03  0.92204894198E+03  0.00000000000E+00 0.  1.
         24    2    1    2    0    0  0.51646816889E+03 -0.87756184251E+02  0.57985166531E+03  0.78555792502E+03  0.80204628558E+02 0.  0.
        254    2    1    2    0    0 -0.51646816889E+03  0.87756184251E+02 -0.48258077372E+03  0.11558108505E+04  0.91026040323E+03 0.  0.
         23    2    4    4    0    0 -0.10744058107E+03  0.18627196384E+03  0.22709202138E+03  0.32582500443E+03  0.91380656401E+02 0.  0.
         23    2    4    4    0    0 -0.40902758782E+03 -0.98515779588E+02 -0.70967279510E+03  0.82998584610E+03  0.90730932948E+02 0.  0.
          2    1    3    3  502    0  0.49643825970E+03 -0.78561220315E+02  0.52678752986E+03  0.72809883439E+03  0.00000000000E+00 0. -1.
         -1    1    3    3    0  502  0.20029909194E+02 -0.91949639362E+01  0.53064135458E+02  0.57459090629E+02  0.00000000000E+00 0.  1.
         13    1    5    5    0    0  0.15042953490E+02  0.29558239093E+02  0.20212499295E+02  0.38839735783E+02  0.00000000000E+00 0. -1.
        -13    1    5    5    0    0 -0.12248353456E+03  0.15671372475E+03  0.20687952209E+03  0.28698526865E+03  0.00000000000E+00 0.  1.
          4    1    6    6  503    0 -0.13361567170E+03 -0.69307498356E+02 -0.20518659821E+03  0.25447635870E+03  0.00000000000E+00 0. -1.
         -4    1    6    6    0  503 -0.27541191612E+03 -0.29208281232E+02 -0.50448619689E+03  0.57550948740E+03  0.00000000000E+00 0.  1.
<mgrwt>
<rscale>  0 0.19389304E+04</rscale>
<asrwt>0</asrwt>
<pdfrwt beam="1">  1        2 0.15681844E+00 0.19389304E+04</pdfrwt>
<pdfrwt beam="2">  1       -1 0.14185368E+00 0.19389304E+04</pdfrwt>
<totfact> 0.10558046E+01</totfact>
</mgrwt>
</event>
<event>
12    7  0.1660832E-007  0.2202811E+04  0.7818608E-02  0.8517259E-01
          2   -1    0    0  501    0  0.00000000000E+00  0.00000000000E+00  0.11580673322E+04  0.11580673322E+04  0.00000000000E+00 0. -1.
         -1   -1    0    0    0  501 -0.00000000000E+00 -0.00000000000E+00 -0.10475157841E+04  0.10475157841E+04  0.00000000000E+00 0.  1.
         24    2    1    2    0    0 -0.72374428843E+03 -0.38424596335E+03  0.44871258880E+03  0.93777298689E+03  0.81390615032E+02 0.  0.
        254    2    1    2    0    0  0.72374428843E+03  0.38424596335E+03 -0.33816104071E+03  0.12678101294E+04  0.90638781948E+03 0.  0.
         23    2    4    4    0    0  0.87260687711E+03  0.92663080827E+02 -0.25841190005E+03  0.91936054954E+03  0.91749122248E+02 0.  0.
         23    2    4    4    0    0 -0.14886258868E+03  0.29158288252E+03 -0.79749140659E+02  0.34844957984E+03  0.88749853877E+02 0.  0.
          2    1    3    3  502    0 -0.63419770806E+03 -0.31283821187E+03  0.36419491889E+03  0.79543222128E+03  0.00000000000E+00 0. -1.
         -1    1    3    3    0  502 -0.89546580376E+02 -0.71407751479E+02  0.84517669906E+02  0.14234076561E+03  0.00000000000E+00 0.  1.
         13    1    5    5    0    0  0.82078702515E+03  0.67060903234E+02 -0.25194993698E+03  0.86120106603E+03  0.00000000000E+00 0.  1.
        -13    1    5    5    0    0  0.51819851963E+02  0.25602177593E+02 -0.64619630693E+01  0.58159483506E+02  0.00000000000E+00 0. -1.
          3    1    6    6  503    0 -0.61772715024E+02  0.17919683458E+03 -0.81338375753E+02  0.20626028511E+03  0.00000000000E+00 0.  1.
         -3    1    6    6    0  503 -0.87089873654E+02  0.11238604794E+03  0.15892350942E+01  0.14218929472E+03  0.00000000000E+00 0. -1.
<mgrwt>
<rscale>  0 0.22028108E+04</rscale>
<asrwt>0</asrwt>
<pdfrwt beam="1">  1        2 0.17816420E+00 0.22028108E+04</pdfrwt>
<pdfrwt beam="2">  1       -1 0.16115627E+00 0.22028108E+04</pdfrwt>
<totfact> 0.59904871E+00</totfact>
</mgrwt>
</event>
<event>
12    7  0.1660832E-007  0.1575791E+04  0.7818608E-02  0.8835560E-01
         -1   -1    0    0    0  501 -0.00000000000E+00  0.00000000000E+00  0.67624982960E+03  0.67624982960E+03  0.00000000000E+00 0.  1.
          2   -1    0    0  501    0  0.00000000000E+00 -0.00000000000E+00 -0.91797351335E+03  0.91797351335E+03  0.00000000000E+00 0. -1.
         24    2    1    2    0    0 -0.50365145771E+03 -0.10820568167E+03 -0.97979298198E+02  0.53042448114E+03  0.79855663031E+02 0.  0.
        254    2    1    2    0    0  0.50365145771E+03  0.10820568167E+03 -0.14374438556E+03  0.10637988618E+04  0.91958268231E+03 0.  0.
         23    2    4    4    0    0  0.41130423434E+03  0.48206522496E+03  0.72797421667E+01  0.64016756806E+03  0.90572988540E+02 0.  0.
         23    2    4    4    0    0  0.92347223374E+02 -0.37385954329E+03 -0.15102412773E+03  0.42363129374E+03  0.91412352084E+02 0.  0.
          2    1    3    3  502    0 -0.56220451763E+02 -0.28804901682E+02  0.83755445672E+01  0.63722926048E+02  0.00000000000E+00 0. -1.
         -1    1    3    3    0  502 -0.44743100595E+03 -0.79400779992E+02 -0.10635484277E+03  0.46670155509E+03  0.00000000000E+00 0.  1.
         13    1    5    5    0    0  0.12284754156E+03  0.94864617337E+02  0.23916728065E+02  0.15704401921E+03  0.00000000000E+00 0. -1.
        -13    1    5    5    0    0  0.28845669278E+03  0.38720060762E+03 -0.16636985898E+02  0.48312354885E+03  0.00000000000E+00 0.  1.
          1    1    6    6  503    0  0.66377887746E+02 -0.35579568433E+03 -0.15054033394E+03  0.39199360341E+03  0.00000000000E+00 0. -1.
         -1    1    6    6    0  503  0.25969335627E+02 -0.18063858956E+02 -0.48379378035E+00  0.31637690335E+02  0.00000000000E+00 0.  1.
<mgrwt>
<rscale>  0 0.15757911E+04</rscale>
<asrwt>0</asrwt>
<pdfrwt beam="1">  1        2 0.14122669E+00 0.15757911E+04</pdfrwt>
<pdfrwt beam="2">  1       -1 0.10403844E+00 0.15757911E+04</pdfrwt>
<totfact> 0.27199646E+01</totfact>
</mgrwt>
</event>
<event>
12    7  0.1660832E-007  0.1773692E+04  0.7818608E-02  0.8720416E-01
          2   -1    0    0  501    0  0.00000000000E+00  0.00000000000E+00  0.13354192045E+04  0.13354192045E+04  0.00000000000E+00 0. -1.
         -1   -1    0    0    0  501 -0.00000000000E+00 -0.00000000000E+00 -0.58895030990E+03  0.58895030990E+03  0.00000000000E+00 0.  1.
         24    2    1    2    0    0  0.62638778764E+03  0.95660958640E+02  0.14255766031E+03  0.65428599108E+03  0.79087243584E+02 0.  0.
        254    2    1    2    0    0 -0.62638778764E+03 -0.95660958640E+02  0.60391123434E+03  0.12700835234E+04  0.92026664496E+03 0.  0.
         23    2    4    4    0    0 -0.71355059228E+03  0.10530956348E+03  0.12678102232E+03  0.73762315443E+03  0.88147254225E+02 0.  0.
         23    2    4    4    0    0  0.87162804639E+02 -0.20097052213E+03  0.47713021201E+03  0.53246036893E+03  0.88737252516E+02 0.  0.
          2    1    3    3  502    0  0.56144605350E+03  0.86277884618E+02  0.15193074882E+03  0.58800382380E+03  0.00000000000E+00 0. -1.
         -1    1    3    3    0  502  0.64941734140E+02  0.93830740219E+01 -0.93730885110E+01  0.66282167281E+02  0.00000000000E+00 0.  1.
         13    1    5    5    0    0 -0.25190127202E+03  0.39745526801E+02  0.23671369985E+01  0.25502854955E+03  0.00000000000E+00 0.  1.
        -13    1    5    5    0    0 -0.46164932026E+03  0.65564036684E+02  0.12441388532E+03  0.48259460489E+03  0.00000000000E+00 0. -1.
          1    1    6    6  503    0  0.68448238703E+02 -0.51462387148E+02  0.16834047564E+03  0.18887046993E+03  0.00000000000E+00 0. -1.
         -1    1    6    6    0  503  0.18714565936E+02 -0.14950813498E+03  0.30878973637E+03  0.34358989900E+03  0.00000000000E+00 0.  1.
<mgrwt>
<rscale>  0 0.17736917E+04</rscale>
<asrwt>0</asrwt>
<pdfrwt beam="1">  1        2 0.20544911E+00 0.17736917E+04</pdfrwt>
<pdfrwt beam="2">  1       -1 0.90607740E-01 0.17736917E+04</pdfrwt>
<totfact> 0.20233909E+01</totfact>
</mgrwt>
</event>
<event>
12    7  0.1660832E-007  0.2529023E+04  0.7818608E-02  0.8392718E-01
         -1   -1    0    0    0  501 -0.00000000000E+00  0.00000000000E+00  0.68404742175E+03  0.68404742175E+03  0.00000000000E+00 0.  1.
          2   -1    0    0  501    0  0.00000000000E+00 -0.00000000000E+00 -0.23375409437E+04  0.23375409437E+04  0.00000000000E+00 0. -1.
         24    2    1    2    0    0  0.72139767743E+03  0.26429765176E+03 -0.16676695653E+04  0.18378883725E+04  0.80274732857E+02 0.  0.
        254    2    1    2    0    0 -0.72139767743E+03 -0.26429765176E+03  0.14176043378E+02  0.11836999930E+04  0.90037595232E+03 0.  0.
         23    2    4    4    0    0 -0.86269786281E+03 -0.21911556584E+03 -0.19002021099E+03  0.91474104061E+03  0.91565589047E+02 0.  0.
         23    2    4    4    0    0  0.14130018538E+03 -0.45182085924E+02  0.20419625437E+03  0.26895895240E+03  0.92928168512E+02 0.  0.
          2    1    3    3  502    0  0.61593492817E+03  0.25485757377E+03 -0.14362987887E+04  0.15834400617E+04  0.00000000000E+00 0. -1.
         -1    1    3    3    0  502  0.10546274926E+03  0.94400779885E+01 -0.23137077665E+03  0.25444831074E+03  0.00000000000E+00 0.  1.
         13    1    5    5    0    0 -0.96779755973E+01  0.69422712383E+01  0.58875682791E+00  0.11924972797E+02  0.00000000000E+00 0. -1.
        -13    1    5    5    0    0 -0.85301988721E+03 -0.22605783708E+03 -0.19060896782E+03  0.90281606781E+03  0.00000000000E+00 0.  1.
          1    1    6    6  503    0 -0.88552201942E+01  0.10365085375E+02  0.82945388988E+01  0.15957734647E+02  0.00000000000E+00 0. -1.
         -1    1    6    6    0  503  0.15015540557E+03 -0.55547171299E+02  0.19590171547E+03  0.25300121776E+03  0.00000000000E+00 0.  1.
<mgrwt>
<rscale>  0 0.25290226E+04</rscale>
<asrwt>0</asrwt>
<pdfrwt beam="1">  1        2 0.35962168E+00 0.25290226E+04</pdfrwt>
<pdfrwt beam="2">  1       -1 0.10523807E+00 0.25290226E+04</pdfrwt>
<totfact> 0.36984869E+00</totfact>
</mgrwt>
</event>
<event>
12    7  0.1660832E-007  0.3047026E+04  0.7818608E-02  0.8230428E-01
          2   -1    0    0  501    0  0.00000000000E+00  0.00000000000E+00  0.49287521814E+04  0.49287521814E+04  0.00000000000E+00 0. -1.
         -1   -1    0    0    0  501 -0.00000000000E+00 -0.00000000000E+00 -0.47092891184E+03  0.47092891184E+03  0.00000000000E+00 0.  1.
         24    2    1    2    0    0  0.13165367095E+04  0.11699958521E+03  0.28051036385E+04  0.31019234958E+04  0.79781832748E+02 0.  0.
        254    2    1    2    0    0 -0.13165367095E+04 -0.11699958521E+03  0.16527196311E+04  0.22977575974E+04  0.89512568223E+03 0.  0.
         23    2    4    4    0    0 -0.73631840348E+03  0.10341857959E+03  0.30120029532E+03  0.80772450057E+03  0.94005622235E+02 0.  0.
         23    2    4    4    0    0 -0.58021830605E+03 -0.22041816480E+03  0.13515193357E+04  0.14900330968E+04  0.91414794744E+02 0.  0.
          2    1    3    3  502    0  0.85519856719E+03  0.80243318714E+02  0.19100329081E+04  0.20942849113E+04  0.00000000000E+00 0. -1.
         -1    1    3    3    0  502  0.46133814234E+03  0.36756266492E+02  0.89507073033E+03  0.10076385845E+04  0.00000000000E+00 0.  1.
         13    1    5    5    0    0  0.24637057799E+01 -0.18803088555E+01  0.36845355275E+00  0.31210840397E+01  0.00000000000E+00 0. -1.
        -13    1    5    5    0    0 -0.73878210926E+03  0.10529888845E+03  0.30083184177E+03  0.80460341653E+03  0.00000000000E+00 0.  1.
          3    1    6    6  503    0 -0.30573005454E+01 -0.10696069135E+02  0.45609868083E+02  0.46946917344E+02  0.00000000000E+00 0. -1.
         -3    1    6    6    0  503 -0.57716100551E+03 -0.20972209566E+03  0.13059094676E+04  0.14430861795E+04  0.00000000000E+00 0.  1.
<mgrwt>
<rscale>  0 0.30470260E+04</rscale>
<asrwt>0</asrwt>
<pdfrwt beam="1">  1        2 0.75826953E+00 0.30470260E+04</pdfrwt>
<pdfrwt beam="2">  1       -1 0.72450605E-01 0.30470260E+04</pdfrwt>
<totfact> 0.78207049E-02</totfact>
</mgrwt>
</event>
<event>
12    7  0.1660832E-007  0.3845087E+04  0.7818608E-02  0.8036548E-01
         -1   -1    0    0    0  501 -0.00000000000E+00  0.00000000000E+00  0.21636957830E+04  0.21636957830E+04  0.00000000000E+00 0.  1.
          2   -1    0    0  501    0  0.00000000000E+00 -0.00000000000E+00 -0.17082684844E+04  0.17082684844E+04  0.00000000000E+00 0. -1.
         24    2    1    2    0    0  0.89648189182E+03  0.13610123550E+04 -0.59188560864E+03  0.17357760331E+04  0.80965737096E+02 0.  0.
        254    2    1    2    0    0 -0.89648189182E+03 -0.13610123550E+04  0.10473129073E+04  0.21361882344E+04  0.90022299143E+03 0.  0.
         23    2    4    4    0    0 -0.92261928138E+03 -0.97951960429E+03  0.45119096831E+03  0.14219540732E+04  0.87721736051E+02 0.  0.
         23    2    4    4    0    0  0.26137389562E+02 -0.38149275068E+03  0.59612193895E+03  0.71423416114E+03  0.92461823985E+02 0.  0.
          4    1    3    3  502    0  0.84174096285E+03  0.13086187310E+04 -0.56306145572E+03  0.16547051201E+04  0.00000000000E+00 0. -1.
         -3    1    3    3    0  502  0.54740928970E+02  0.52393624006E+02 -0.28824152917E+02  0.81070912986E+02  0.00000000000E+00 0.  1.
         13    1    5    5    0    0 -0.34003616551E+01  0.98415596232E+00  0.43632800916E+01  0.56186506833E+01  0.00000000000E+00 0. -1.
        -13    1    5    5    0    0 -0.91921891972E+03 -0.98050376026E+03  0.44682768822E+03  0.14163354226E+04  0.00000000000E+00 0.  1.
          3    1    6    6  503    0  0.41322538377E+02 -0.26437478120E+03  0.34395798178E+03  0.43578511946E+03  0.00000000000E+00 0. -1.
         -3    1    6    6    0  503 -0.15185148815E+02 -0.11711796948E+03  0.25216395717E+03  0.27844904168E+03  0.00000000000E+00 0.  1.
<mgrwt>
<rscale>  0 0.38450869E+04</rscale>
<asrwt>0</asrwt>
<pdfrwt beam="1">  1        2 0.26281054E+00 0.38450869E+04</pdfrwt>
<pdfrwt beam="2">  1       -1 0.33287628E+00 0.38450869E+04</pdfrwt>
<totfact> 0.17780528E-01</totfact>
</mgrwt>
</event>
<event>
12    7  0.1660832E-007  0.1576665E+04  0.7818608E-02  0.8835013E-01
         -1   -1    0    0    0  501 -0.00000000000E+00  0.00000000000E+00  0.24713474686E+03  0.24713474686E+03  0.00000000000E+00 0.  1.
          2   -1    0    0  501    0  0.00000000000E+00 -0.00000000000E+00 -0.25146950199E+04  0.25146950199E+04  0.00000000000E+00 0. -1.
         24    2    1    2    0    0 -0.44338251399E+03 -0.85146804655E+02 -0.12351287064E+04  0.13175078396E+04  0.80286698615E+02 0.  0.
        254    2    1    2    0    0  0.44338251399E+03  0.85146804655E+02 -0.10324315666E+04  0.14443219271E+04  0.90350033612E+03 0.  0.
         23    2    4    4    0    0 -0.24421657635E+03 -0.44686814832E+02 -0.47964553875E+03  0.54796562922E+03  0.92562629542E+02 0.  0.
         23    2    4    4    0    0  0.68759909034E+03  0.12983361949E+03 -0.55278602783E+03  0.89635629787E+03  0.90735562908E+02 0.  0.
          4    1    3    3  502    0 -0.96326657862E+02 -0.30964239557E+02 -0.37523314347E+03  0.38863546043E+03  0.00000000000E+00 0. -1.
         -3    1    3    3    0  502 -0.34705585613E+03 -0.54182565098E+02 -0.85989556296E+03  0.92887237920E+03  0.00000000000E+00 0.  1.
         13    1    5    5    0    0 -0.11683708162E+03 -0.58407034293E+02 -0.30108079824E+03  0.32819496090E+03  0.00000000000E+00 0.  1.
        -13    1    5    5    0    0 -0.12737949474E+03  0.13720219460E+02 -0.17856474051E+03  0.21977066832E+03  0.00000000000E+00 0. -1.
          2    1    6    6  503    0  0.29147536027E+03  0.16296186519E+02 -0.25919450202E+03  0.39039113876E+03  0.00000000000E+00 0. -1.
         -2    1    6    6    0  503  0.39612373007E+03  0.11353743297E+03 -0.29359152581E+03  0.50596515911E+03  0.00000000000E+00 0.  1.
<mgrwt>
<rscale>  0 0.15766655E+04</rscale>
<asrwt>0</asrwt>
<pdfrwt beam="1">  1        2 0.38687615E+00 0.15766655E+04</pdfrwt>
<pdfrwt beam="2">  1       -1 0.38020731E-01 0.15766655E+04</pdfrwt>
<totfact> 0.25011244E+01</totfact>
</mgrwt>
</event>
<event>
12    7  0.1660832E-007  0.2903524E+04  0.7818608E-02  0.8271830E-01
          4   -1    0    0  501    0  0.00000000000E+00  0.00000000000E+00  0.22476156274E+04  0.22476156274E+04  0.00000000000E+00 0. -1.
         -3   -1    0    0    0  501 -0.00000000000E+00 -0.00000000000E+00 -0.93771053338E+03  0.93771053338E+03  0.00000000000E+00 0.  1.
         24    2    1    2    0    0 -0.11339490639E+04  0.21300559693E+03 -0.87559558097E+02  0.11599101152E+04  0.80702759276E+02 0.  0.
        254    2    1    2    0    0  0.11339490639E+04 -0.21300559693E+03  0.13974646521E+04  0.20254160455E+04  0.90453902057E+03 0.  0.
         23    2    4    4    0    0  0.27677186443E+03  0.27124983299E+03  0.13165567169E+03  0.41936015948E+03  0.91381566156E+02 0.  0.
         23    2    4    4    0    0  0.85717719948E+03 -0.48425542992E+03  0.12658089804E+04  0.16060558860E+04  0.88809129718E+02 0.  0.
          2    1    3    3  502    0 -0.30734162747E+03  0.42133576750E+02  0.88222697985E+01  0.31034166126E+03  0.00000000000E+00 0. -1.
         -1    1    3    3    0  502 -0.82660743644E+03  0.17087202018E+03 -0.96381827895E+02  0.84956845398E+03  0.00000000000E+00 0.  1.
         13    1    5    5    0    0  0.23231826547E+03  0.22380570598E+03  0.14385982779E+03  0.35320874926E+03  0.00000000000E+00 0. -1.
        -13    1    5    5    0    0  0.44453598962E+02  0.47444127010E+02 -0.12204156099E+02  0.66151410223E+02  0.00000000000E+00 0.  1.
          1    1    6    6  503    0  0.24542499465E+03 -0.18246789657E+03  0.36752996194E+03  0.47812784295E+03  0.00000000000E+00 0. -1.
         -1    1    6    6    0  503  0.61175220483E+03 -0.30178753335E+03  0.89827901844E+03  0.11279280431E+04  0.00000000000E+00 0.  1.
<mgrwt>
<rscale>  0 0.29035240E+04</rscale>
<asrwt>0</asrwt>
<pdfrwt beam="1">  1        4 0.34578702E+00 0.29035240E+04</pdfrwt>
<pdfrwt beam="2">  1       -3 0.14426316E+00 0.29035240E+04</pdfrwt>
<totfact> 0.11002063E-02</totfact>
</mgrwt>
</event>
<event>
12    7  0.1660832E-007  0.1228386E+04  0.7818608E-02  0.9088367E-01
          2   -1    0    0  501    0  0.00000000000E+00  0.00000000000E+00  0.49700143507E+03  0.49700143507E+03  0.00000000000E+00 0. -1.
         -1   -1    0    0    0  501 -0.00000000000E+00 -0.00000000000E+00 -0.75901806527E+03  0.75901806527E+03  0.00000000000E+00 0.  1.
         24    2    1    2    0    0 -0.66027395032E+02  0.29705446470E+03 -0.23241928451E+02  0.31529210553E+03  0.79170402777E+02 0.  0.
        254    2    1    2    0    0  0.66027395032E+02 -0.29705446470E+03 -0.23877470175E+03  0.94072739481E+03  0.85752766793E+03 0.  0.
         23    2    4    4    0    0  0.43616218992E+03 -0.19836113416E+03 -0.14430430836E+02  0.48770026705E+03  0.89770360883E+02 0.  0.
         23    2    4    4    0    0 -0.37013479488E+03 -0.98693330545E+02 -0.22434427092E+03  0.45302712776E+03  0.90349801974E+02 0.  0.
          4    1    3    3  502    0 -0.80963391828E+02  0.27284120436E+03 -0.29616711223E+02  0.28613728034E+03  0.00000000000E+00 0. -1.
         -3    1    3    3    0  502  0.14935996796E+02  0.24213260339E+02  0.63747827720E+01  0.29154825191E+02  0.00000000000E+00 0.  1.
         13    1    5    5    0    0  0.22029526888E+02 -0.23177168274E+01 -0.19455247122E+02  0.29481833504E+02  0.00000000000E+00 0. -1.
        -13    1    5    5    0    0  0.41413266303E+03 -0.19604341733E+03  0.50248162861E+01  0.45821843355E+03  0.00000000000E+00 0.  1.
          2    1    6    6  503    0 -0.52949046515E+02 -0.43127400971E+02 -0.18181053128E+02  0.70669122919E+02  0.00000000000E+00 0. -1.
         -2    1    6    6    0  503 -0.31718574837E+03 -0.55565929574E+02 -0.20616321779E+03  0.38235800484E+03  0.00000000000E+00 0.  1.
<mgrwt>
<rscale>  0 0.12283860E+04</rscale>
<asrwt>0</asrwt>
<pdfrwt beam="1">  1        2 0.76461759E-01 0.12283860E+04</pdfrwt>
<pdfrwt beam="2">  1       -1 0.11677201E+00 0.12283860E+04</pdfrwt>
<totfact> 0.46229859E+01</totfact>
</mgrwt>
</event>
<event>
12    7  0.1660832E-007  0.1437756E+04  0.7818608E-02  0.8926933E-01
          2   -1    0    0  501    0  0.00000000000E+00  0.00000000000E+00  0.50697474731E+03  0.50697474731E+03  0.00000000000E+00 0. -1.
         -1   -1    0    0    0  501 -0.00000000000E+00 -0.00000000000E+00 -0.10193522334E+04  0.10193522334E+04  0.00000000000E+00 0.  1.
         24    2    1    2    0    0  0.45123890278E+02  0.52510323085E+02  0.28615458392E+03  0.30492889661E+03  0.79395759244E+02 0.  0.
        254    2    1    2    0    0 -0.45123890278E+02 -0.52510323085E+02 -0.79853207004E+03  0.12213980841E+04  0.92161071690E+03 0.  0.
         23    2    4    4    0    0 -0.41334977618E+03 -0.20516724401E+03 -0.61379604248E+03  0.77279397242E+03  0.86679331806E+02 0.  0.
         23    2    4    4    0    0  0.36822588590E+03  0.15265692093E+03 -0.18473602756E+03  0.44860411170E+03  0.90685228146E+02 0.  0.
          2    1    3    3  502    0  0.73814936392E+01  0.64571380736E+02  0.15992188404E+03  0.17262374881E+03  0.00000000000E+00 0. -1.
         -1    1    3    3    0  502  0.37742396639E+02 -0.12061057651E+02  0.12623269988E+03  0.13230514780E+03  0.00000000000E+00 0.  1.
         13    1    5    5    0    0 -0.63729012003E+02 -0.47832915674E+02 -0.15984526166E+03  0.17860538197E+03  0.00000000000E+00 0.  1.
        -13    1    5    5    0    0 -0.34962076418E+03 -0.15733432834E+03 -0.45395078082E+03  0.59418859045E+03  0.00000000000E+00 0. -1.
          2    1    6    6  503    0  0.35181432354E+03  0.12190233855E+03 -0.17953143374E+03  0.41335823942E+03  0.00000000000E+00 0. -1.
         -2    1    6    6    0  503  0.16411562358E+02  0.30754582379E+02 -0.52045938202E+01  0.35245872286E+02  0.00000000000E+00 0.  1.
<mgrwt>
<rscale>  0 0.14377564E+04</rscale>
<asrwt>0</asrwt>
<pdfrwt beam="1">  1        2 0.77996115E-01 0.14377564E+04</pdfrwt>
<pdfrwt beam="2">  1       -1 0.15682342E+00 0.14377564E+04</pdfrwt>
<totfact> 0.20778364E+01</totfact>
</mgrwt>
</event>
<event>
12    7  0.1660832E-007  0.1232258E+04  0.7818608E-02  0.9085081E-01
         -1   -1    0    0    0  501 -0.00000000000E+00  0.00000000000E+00  0.34094442180E+03  0.34094442180E+03  0.00000000000E+00 0.  1.
          2   -1    0    0  501    0  0.00000000000E+00 -0.00000000000E+00 -0.11134213481E+04  0.11134213481E+04  0.00000000000E+00 0. -1.
         24    2    1    2    0    0 -0.42549641117E+02 -0.31729520163E+02  0.14129747714E+03  0.17011755932E+03  0.78471475942E+02 0.  0.
        254    2    1    2    0    0  0.42549641117E+02  0.31729520163E+02 -0.91377440342E+03  0.12842482106E+04  0.90082882481E+03 0.  0.
         23    2    4    4    0    0  0.27998808524E+03  0.28545532988E+03 -0.81541350404E+03  0.91259826755E+03  0.89768269108E+02 0.  0.
         23    2    4    4    0    0 -0.23743844412E+03 -0.25372580971E+03 -0.98360899383E+02  0.37164994302E+03  0.87721219535E+02 0.  0.
          2    1    3    3  502    0 -0.53923396146E+02 -0.14120771180E+01  0.51175558821E+02  0.74354989303E+02  0.00000000000E+00 0. -1.
         -1    1    3    3    0  502  0.11373755029E+02 -0.30317443045E+02  0.90121918315E+02  0.95762570021E+02  0.00000000000E+00 0.  1.
         13    1    5    5    0    0  0.61109827499E+02  0.38823225473E+02 -0.22474915378E+03  0.23612250206E+03  0.00000000000E+00 0. -1.
        -13    1    5    5    0    0  0.21887825774E+03  0.24663210440E+03 -0.59066435026E+03  0.67647576549E+03  0.00000000000E+00 0.  1.
          1    1    6    6  503    0 -0.88084943230E+01 -0.47984674802E+02 -0.17970456681E+00  0.48786790034E+02  0.00000000000E+00 0. -1.
         -1    1    6    6    0  503 -0.22862994980E+03 -0.20574113491E+03 -0.98181194816E+02  0.32286315299E+03  0.00000000000E+00 0.  1.
<mgrwt>
<rscale>  0 0.12322578E+04</rscale>
<asrwt>0</asrwt>
<pdfrwt beam="1">  1        2 0.17129559E+00 0.12322578E+04</pdfrwt>
<pdfrwt beam="2">  1       -1 0.52452989E-01 0.12322578E+04</pdfrwt>
<totfact> 0.87870176E+01</totfact>
</mgrwt>
</event>
<event>
12    7  0.1660832E-007  0.2278803E+04  0.7818608E-02  0.8486326E-01
         -1   -1    0    0    0  501 -0.00000000000E+00  0.00000000000E+00  0.83555377589E+03  0.83555377589E+03  0.00000000000E+00 0.  1.
          2   -1    0    0  501    0  0.00000000000E+00 -0.00000000000E+00 -0.15537432065E+04  0.15537432065E+04  0.00000000000E+00 0. -1.
         24    2    1    2    0    0 -0.82855219716E+03  0.41277790859E+03 -0.59431624958E+03  0.11031339659E+04  0.82513010849E+02 0.  0.
        254    2    1    2    0    0  0.82855219716E+03 -0.41277790859E+03 -0.12387318107E+03  0.12861630165E+04  0.88429994621E+03 0.  0.
         23    2    4    4    0    0  0.66475799780E+03 -0.67524408105E+03 -0.45251351852E+02  0.95319567172E+03  0.93147942023E+02 0.  0.
         23    2    4    4    0    0  0.16379419936E+03  0.26246617246E+03 -0.78621829214E+02  0.33296734481E+03  0.94703903043E+02 0.  0.
          2    1    3    3  502    0 -0.45687285833E+03  0.22159930624E+03 -0.27744256977E+03  0.57863066003E+03  0.00000000000E+00 0. -1.
         -1    1    3    3    0  502 -0.37167933884E+03  0.19117860234E+03 -0.31687367981E+03  0.52450330587E+03  0.00000000000E+00 0.  1.
         13    1    5    5    0    0  0.58776475464E+03 -0.56613565734E+03 -0.62905322964E+02  0.81849500241E+03  0.00000000000E+00 0.  1.
        -13    1    5    5    0    0  0.76993243167E+02 -0.10910842371E+03  0.17653971112E+02  0.13470066931E+03  0.00000000000E+00 0. -1.
          4    1    6    6  503    0  0.10971553621E+03  0.11397495392E+03 -0.74539304678E+02  0.17488252328E+03  0.00000000000E+00 0. -1.
         -4    1    6    6    0  503  0.54078663147E+02  0.14849121854E+03 -0.40825245364E+01  0.15808482153E+03  0.00000000000E+00 0.  1.
<mgrwt>
<rscale>  0 0.22788032E+04</rscale>
<asrwt>0</asrwt>
<pdfrwt beam="1">  1        2 0.23903741E+00 0.22788032E+04</pdfrwt>
<pdfrwt beam="2">  1       -1 0.12854674E+00 0.22788032E+04</pdfrwt>
<totfact> 0.63896267E+00</totfact>
</mgrwt>
</event>
<event>
12    7  0.1660832E-007  0.1209288E+04  0.7818608E-02  0.9104765E-01
          2   -1    0    0  501    0  0.00000000000E+00  0.00000000000E+00  0.17687138334E+04  0.17687138334E+04  0.00000000000E+00 0. -1.
         -1   -1    0    0    0  501 -0.00000000000E+00 -0.00000000000E+00 -0.20670085449E+03  0.20670085449E+03  0.00000000000E+00 0.  1.
         24    2    1    2    0    0  0.22802607010E+03  0.12667171275E+03  0.38713829732E+03  0.47369469643E+03  0.80430048565E+02 0.  0.
        254    2    1    2    0    0 -0.22802607010E+03 -0.12667171275E+03  0.11748746816E+04  0.15017199915E+04  0.89821534382E+03 0.  0.
         23    2    4    4    0    0  0.33709104938E+03 -0.99414901843E+02  0.47608886941E+03  0.59861487321E+03  0.90362915900E+02 0.  0.
         23    2    4    4    0    0 -0.56511711948E+03 -0.27256810907E+02  0.69878581222E+03  0.90310511829E+03  0.84834844536E+02 0.  0.
          4    1    3    3  502    0  0.14258778071E+03  0.73016927511E+02  0.16632871343E+03  0.23092853402E+03  0.00000000000E+00 0. -1.
         -3    1    3    3    0  502  0.85438289389E+02  0.53654785239E+02  0.22080958389E+03  0.24276616241E+03  0.00000000000E+00 0.  1.
         13    1    5    5    0    0  0.15133404540E+03 -0.61481941600E+02  0.29069031511E+03  0.33344097190E+03  0.00000000000E+00 0. -1.
        -13    1    5    5    0    0  0.18575700398E+03 -0.37932960243E+02  0.18539855430E+03  0.26517390131E+03  0.00000000000E+00 0.  1.
          2    1    6    6  503    0 -0.44083260991E+03  0.14099751891E+02  0.53342403195E+03  0.69215127742E+03  0.00000000000E+00 0. -1.
         -2    1    6    6    0  503 -0.12428450957E+03 -0.41356562798E+02  0.16536178027E+03  0.21095384087E+03  0.00000000000E+00 0.  1.
<mgrwt>
<rscale>  0 0.12092885E+04</rscale>
<asrwt>0</asrwt>
<pdfrwt beam="1">  1        2 0.27210981E+00 0.12092885E+04</pdfrwt>
<pdfrwt beam="2">  1       -1 0.31800133E-01 0.12092885E+04</pdfrwt>
<totfact> 0.92904154E+01</totfact>
</mgrwt>
</event>
<event>
12    7  0.1660832E-007  0.1672783E+04  0.7818608E-02  0.8777041E-01
         -3   -1    0    0    0  501 -0.00000000000E+00  0.00000000000E+00  0.32351844750E+03  0.32351844750E+03  0.00000000000E+00 0.  1.
          2   -1    0    0  501    0  0.00000000000E+00 -0.00000000000E+00 -0.21623214755E+04  0.21623214755E+04  0.00000000000E+00 0. -1.
         24    2    1    2    0    0  0.31886174576E+02 -0.65253735748E+01  0.22145040758E+03  0.23779330899E+03  0.80287397231E+02 0.  0.
        254    2    1    2    0    0 -0.31886174576E+02  0.65253735748E+01 -0.20602534355E+04  0.22480466140E+04  0.89889379310E+03 0.  0.
         23    2    4    4    0    0  0.25890921264E+03 -0.25697000783E+03 -0.44069810194E+03  0.57914298087E+03  0.90134399235E+02 0.  0.
         23    2    4    4    0    0 -0.29079538721E+03  0.26349538141E+03 -0.16195553336E+04  0.16689036331E+04  0.91038918697E+02 0.  0.
          4    1    3    3  502    0 -0.16344342177E+02  0.23517498004E+02  0.56760908871E+02  0.63576811885E+02  0.00000000000E+00 0. -1.
         -3    1    3    3    0  502  0.48230516753E+02 -0.30042871579E+02  0.16468949871E+03  0.17421649711E+03  0.00000000000E+00 0.  1.
         13    1    5    5    0    0  0.25696035699E+03 -0.26382959466E+03 -0.42855775503E+03  0.56506320839E+03  0.00000000000E+00 0.  1.
        -13    1    5    5    0    0  0.19488556475E+01  0.68595868343E+01 -0.12140346910E+02  0.14079772475E+02  0.00000000000E+00 0. -1.
          3    1    6    6  503    0 -0.15728056127E+02 -0.66724044536E+01 -0.80078845348E+02  0.81881097959E+02  0.00000000000E+00 0. -1.
         -3    1    6    6    0  503 -0.27506733109E+03  0.27016778586E+03 -0.15394764883E+04  0.15870225351E+04  0.00000000000E+00 0.  1.
<mgrwt>
<rscale>  0 0.16727832E+04</rscale>
<asrwt>0</asrwt>
<pdfrwt beam="1">  1        2 0.33266485E+00 0.16727832E+04</pdfrwt>
<pdfrwt beam="2">  1       -3 0.49772068E-01 0.16727832E+04</pdfrwt>
<totfact> 0.13322734E+01</totfact>
</mgrwt>
</event>
<event>
12    7  0.1660832E-007  0.4167899E+04  0.7818608E-02  0.7971507E-01
          2   -1    0    0  501    0  0.00000000000E+00  0.00000000000E+00  0.98931686445E+03  0.98931686445E+03  0.00000000000E+00 0. -1.
         -1   -1    0    0    0  501 -0.00000000000E+00 -0.00000000000E+00 -0.43897427432E+04  0.43897427432E+04  0.00000000000E+00 0.  1.
         24    2    1    2    0    0  0.33497345955E+03  0.18622957598E+04 -0.82316158296E+03  0.20652564691E+04  0.85653813149E+02 0.  0.
        254    2    1    2    0    0 -0.33497345955E+03 -0.18622957598E+04 -0.25772642957E+04  0.33138031385E+04  0.87100360226E+03 0.  0.
         23    2    4    4    0    0  0.25723749037E+03 -0.40200121232E+03 -0.43036233430E+03  0.64904882077E+03  0.90975446160E+02 0.  0.
         23    2    4    4    0    0 -0.59221094991E+03 -0.14602945475E+04 -0.21469019615E+04  0.26647543178E+04  0.92485497713E+02 0.  0.
          2    1    3    3  502    0  0.56680272062E+01  0.87751412925E+01 -0.10441378407E+02  0.14769970215E+02  0.00000000000E+00 0. -1.
         -1    1    3    3    0  502  0.32930543234E+03  0.18535206185E+04 -0.81272020456E+03  0.20504864989E+04  0.00000000000E+00 0.  1.
         13    1    5    5    0    0  0.22195961635E+03 -0.29941804699E+03 -0.36870339905E+03  0.52427038313E+03  0.00000000000E+00 0. -1.
        -13    1    5    5    0    0  0.35277874012E+02 -0.10258316533E+03 -0.61658935244E+02  0.12477843764E+03  0.00000000000E+00 0.  1.
          3    1    6    6  503    0 -0.51248647785E+03 -0.11715957379E+04 -0.17212312002E+04  0.21442751241E+04  0.00000000000E+00 0. -1.
         -3    1    6    6    0  503 -0.79724472064E+02 -0.28869880965E+03 -0.42567076121E+03  0.52047919371E+03  0.00000000000E+00 0.  1.
<mgrwt>
<rscale>  0 0.41678995E+04</rscale>
<asrwt>0</asrwt>
<pdfrwt beam="1">  1        2 0.15220259E+00 0.41678995E+04</pdfrwt>
<pdfrwt beam="2">  1       -1 0.67534504E+00 0.41678995E+04</pdfrwt>
<totfact> 0.55082007E-03</totfact>
</mgrwt>
</event>
<event>
12    7  0.1660832E-007  0.1788977E+04  0.7818608E-02  0.8712183E-01
         -1   -1    0    0    0  501 -0.00000000000E+00  0.00000000000E+00  0.35956372735E+03  0.35956372735E+03  0.00000000000E+00 0.  1.
          2   -1    0    0  501    0  0.00000000000E+00 -0.00000000000E+00 -0.22252237062E+04  0.22252237062E+04  0.00000000000E+00 0. -1.
         24    2    1    2    0    0 -0.48027127294E+03 -0.43194160409E+03 -0.44515235057E+03  0.78847545249E+03  0.79365477443E+02 0.  0.
        254    2    1    2    0    0  0.48027127294E+03  0.43194160409E+03 -0.14205076283E+04  0.17963119810E+04  0.88975320531E+03 0.  0.
         23    2    4    4    0    0 -0.88851866256E+01 -0.22453359415E+03 -0.16502458234E+03  0.29449829847E+03  0.94878098550E+02 0.  0.
         23    2    4    4    0    0  0.48915645956E+03  0.65647519824E+03 -0.12554830459E+04  0.15018136826E+04  0.94725554773E+02 0.  0.
          4    1    3    3  502    0 -0.19345636524E+03 -0.18016710531E+03 -0.13579660345E+03  0.29719735631E+03  0.00000000000E+00 0. -1.
         -3    1    3    3    0  502 -0.28681490770E+03 -0.25177449878E+03 -0.30935574712E+03  0.49127809619E+03  0.00000000000E+00 0.  1.
         13    1    5    5    0    0 -0.16522362581E+02 -0.23050234900E+03 -0.14657569944E+03  0.27365810243E+03  0.00000000000E+00 0. -1.
        -13    1    5    5    0    0  0.76371759553E+01  0.59687548486E+01 -0.18448882893E+02  0.20840196040E+02  0.00000000000E+00 0.  1.
          1    1    6    6  503    0  0.46305480365E+03  0.57964998094E+03 -0.11535745028E+04  0.13715494833E+04  0.00000000000E+00 0. -1.
         -1    1    6    6    0  503  0.26101655907E+02  0.76825217306E+02 -0.10190854313E+03  0.13026419930E+03  0.00000000000E+00 0.  1.
<mgrwt>
<rscale>  0 0.17889771E+04</rscale>
<asrwt>0</asrwt>
<pdfrwt beam="1">  1        2 0.34234212E+00 0.17889771E+04</pdfrwt>
<pdfrwt beam="2">  1       -1 0.55317495E-01 0.17889771E+04</pdfrwt>
<totfact> 0.17772502E+01</totfact>
</mgrwt>
</event>
<event>
12    7  0.1660832E-007  0.1748694E+04  0.7818608E-02  0.8734070E-01
          2   -1    0    0  501    0  0.00000000000E+00  0.00000000000E+00  0.20203578827E+04  0.20203578827E+04  0.00000000000E+00 0. -1.
         -1   -1    0    0    0  501 -0.00000000000E+00 -0.00000000000E+00 -0.37838967455E+03  0.37838967455E+03  0.00000000000E+00 0.  1.
         24    2    1    2    0    0  0.16699601183E+02  0.48240526518E+03  0.31270859052E+02  0.48959241836E+03  0.75691168145E+02 0.  0.
        254    2    1    2    0    0 -0.16699601183E+02 -0.48240526518E+03  0.16106973491E+04  0.19091551389E+04  0.90417568947E+03 0.  0.
         23    2    4    4    0    0 -0.11282201703E+03 -0.67104480386E+03  0.74405435971E+03  0.10124035815E+04  0.91182154920E+02 0.  0.
         23    2    4    4    0    0  0.96122415846E+02  0.18863953868E+03  0.86664298943E+03  0.89675155740E+03  0.90933438262E+02 0.  0.
          2    1    3    3  502    0 -0.25619387246E+02  0.13028105729E+03  0.23562016905E+02  0.13485056742E+03  0.00000000000E+00 0. -1.
         -1    1    3    3    0  502  0.42318988429E+02  0.35212420789E+03  0.77088421474E+01  0.35474185094E+03  0.00000000000E+00 0.  1.
         13    1    5    5    0    0 -0.12950608479E+02 -0.34589376171E+03  0.38935172691E+03  0.52096543062E+03  0.00000000000E+00 0.  1.
        -13    1    5    5    0    0 -0.99871408550E+02 -0.32515104214E+03  0.35470263280E+03  0.49143815091E+03  0.00000000000E+00 0. -1.
          1    1    6    6  503    0  0.81061054122E+02  0.16810021458E+03  0.83752683718E+03  0.85806746800E+03  0.00000000000E+00 0. -1.
         -1    1    6    6    0  503  0.15061361724E+02  0.20539324093E+02  0.29116152249E+02  0.38684089404E+02  0.00000000000E+00 0.  1.
<mgrwt>
<rscale>  0 0.17486939E+04</rscale>
<asrwt>0</asrwt>
<pdfrwt beam="1">  1        2 0.31082428E+00 0.17486939E+04</pdfrwt>
<pdfrwt beam="2">  1       -1 0.58213797E-01 0.17486939E+04</pdfrwt>
<totfact> 0.21011462E+01</totfact>
</mgrwt>
</event>
<event>
12    7  0.1660832E-007  0.3085330E+04  0.7818608E-02  0.8219775E-01
          2   -1    0    0  501    0  0.00000000000E+00  0.00000000000E+00  0.16574881291E+04  0.16574881291E+04  0.00000000000E+00 0. -1.
         -1   -1    0    0    0  501 -0.00000000000E+00 -0.00000000000E+00 -0.14357966917E+04  0.14357966917E+04  0.00000000000E+00 0.  1.
         24    2    1    2    0    0 -0.99362581608E+03 -0.13299327157E+03 -0.89299932717E+03  0.13445008464E+04  0.72493137813E+02 0.  0.
        254    2    1    2    0    0  0.99362581608E+03  0.13299327157E+03  0.11146907646E+04  0.17487839745E+04  0.90040569525E+03 0.  0.
         23    2    4    4    0    0  0.71176321280E+03 -0.27716512006E+03  0.93738105596E+03  0.12126253568E+04  0.91376347926E+02 0.  0.
         23    2    4    4    0    0  0.28186260328E+03  0.41015839163E+03  0.17730970861E+03  0.53615861768E+03  0.91383243509E+02 0.  0.
          4    1    3    3  502    0 -0.38846937961E+03 -0.42296108630E+02 -0.30297896814E+03  0.49446301665E+03  0.00000000000E+00 0. -1.
         -3    1    3    3    0  502 -0.60515643647E+03 -0.90697162942E+02 -0.59002035903E+03  0.85003782977E+03  0.00000000000E+00 0.  1.
         13    1    5    5    0    0  0.23630163945E+03 -0.60122453868E+02  0.34744259480E+03  0.42446381583E+03  0.00000000000E+00 0. -1.
        -13    1    5    5    0    0  0.47546157335E+03 -0.21704266619E+03  0.58993846116E+03  0.78816154095E+03  0.00000000000E+00 0.  1.
          2    1    6    6  503    0  0.62405929968E+02  0.64459351067E+02  0.67326545712E+02  0.11217117184E+03  0.00000000000E+00 0. -1.
         -2    1    6    6    0  503  0.21945667331E+03  0.34569904056E+03  0.10998316290E+03  0.42398744584E+03  0.00000000000E+00 0.  1.
<mgrwt>
<rscale>  0 0.30853304E+04</rscale>
<asrwt>0</asrwt>
<pdfrwt beam="1">  1        2 0.25499818E+00 0.30853304E+04</pdfrwt>
<pdfrwt beam="2">  1       -1 0.22089180E+00 0.30853304E+04</pdfrwt>
<totfact> 0.10877553E+00</totfact>
</mgrwt>
</event>
<event>
12    7  0.1660832E-007  0.2588754E+04  0.7818608E-02  0.8372031E-01
         -1   -1    0    0    0  501 -0.00000000000E+00  0.00000000000E+00  0.87273085389E+03  0.87273085389E+03  0.00000000000E+00 0.  1.
          2   -1    0    0  501    0  0.00000000000E+00 -0.00000000000E+00 -0.19197352772E+04  0.19197352772E+04  0.00000000000E+00 0. -1.
         24    2    1    2    0    0  0.10200307274E+04  0.25290293839E+03  0.14350461594E+02  0.10536904130E+04  0.75066434831E+02 0.  0.
        254    2    1    2    0    0 -0.10200307274E+04 -0.25290293839E+03 -0.10613548849E+04  0.17387757181E+04  0.89019336384E+03 0.  0.
         23    2    4    4    0    0 -0.60369797742E+03 -0.18359248836E+03 -0.50928218568E+02  0.63985959431E+03  0.93108363037E+02 0.  0.
         23    2    4    4    0    0 -0.41633274997E+03 -0.69310450027E+02 -0.10104266663E+04  0.10989161238E+04  0.92291396493E+02 0.  0.
          2    1    3    3  502    0  0.28978176597E+02  0.59766121771E+01  0.13051153724E+02  0.32338633637E+02  0.00000000000E+00 0. -1.
         -1    1    3    3    0  502  0.99105255079E+03  0.24692632621E+03  0.12993078698E+01  0.10213517794E+04  0.00000000000E+00 0.  1.
         13    1    5    5    0    0 -0.14323237616E+03 -0.82074000130E+02 -0.30636352580E+02  0.16789949725E+03  0.00000000000E+00 0.  1.
        -13    1    5    5    0    0 -0.46046560125E+03 -0.10151848823E+03 -0.20291865989E+02  0.47196009706E+03  0.00000000000E+00 0. -1.
          4    1    6    6  503    0 -0.30698056223E+03 -0.65011384663E+02 -0.64204178282E+03  0.71461961673E+03  0.00000000000E+00 0. -1.
         -4    1    6    6    0  503 -0.10935218774E+03 -0.42990653641E+01 -0.36838488349E+03  0.38429650703E+03  0.00000000000E+00 0.  1.
<mgrwt>
<rscale>  0 0.25887543E+04</rscale>
<asrwt>0</asrwt>
<pdfrwt beam="1">  1        2 0.29534389E+00 0.25887543E+04</pdfrwt>
<pdfrwt beam="2">  1       -1 0.13426628E+00 0.25887543E+04</pdfrwt>
<totfact> 0.34846639E+00</totfact>
</mgrwt>
</event>
<event>
12    7  0.1660832E-007  0.1473295E+04  0.7818608E-02  0.8902408E-01
          2   -1    0    0  501    0  0.00000000000E+00  0.00000000000E+00  0.47014926458E+03  0.47014926458E+03  0.00000000000E+00 0. -1.
         -1   -1    0    0    0  501 -0.00000000000E+00 -0.00000000000E+00 -0.11542075005E+04  0.11542075005E+04  0.00000000000E+00 0.  1.
         24    2    1    2    0    0 -0.10854723032E+03  0.40977268867E+03 -0.38783328061E+03  0.57985308996E+03  0.78222725582E+02 0.  0.
        254    2    1    2    0    0  0.10854723032E+03 -0.40977268867E+03 -0.29622495527E+03  0.10445036751E+04  0.90749244930E+03 0.  0.
         23    2    4    4    0    0 -0.36332999252E+03 -0.85640941856E+01 -0.90187378511E+02  0.38556645552E+03  0.91900496261E+02 0.  0.
         23    2    4    4    0    0  0.47187722283E+03 -0.40120859449E+03 -0.20603757676E+03  0.65893721956E+03  0.90057351538E+02 0.  0.
          4    1    3    3  502    0 -0.81826751372E+02  0.37880742248E+03 -0.36787420598E+03  0.53434269153E+03  0.00000000000E+00 0. -1.
         -3    1    3    3    0  502 -0.26720478943E+02  0.30965266186E+02 -0.19959074634E+02  0.45510398429E+02  0.00000000000E+00 0.  1.
         13    1    5    5    0    0 -0.11687009763E+03  0.66953037741E+01  0.13322282075E+02  0.11781735870E+03  0.00000000000E+00 0.  1.
        -13    1    5    5    0    0 -0.24645989489E+03 -0.15259397960E+02 -0.10350966059E+03  0.26774909682E+03  0.00000000000E+00 0. -1.
          4    1    6    6  503    0  0.32540255396E+03 -0.26981859215E+03 -0.95962281631E+02  0.43347163032E+03  0.00000000000E+00 0. -1.
         -4    1    6    6    0  503  0.14647466887E+03 -0.13139000234E+03 -0.11007529512E+03  0.22546558924E+03  0.00000000000E+00 0.  1.
<mgrwt>
<rscale>  0 0.14732954E+04</rscale>
<asrwt>0</asrwt>
<pdfrwt beam="1">  1        2 0.72330656E-01 0.14732954E+04</pdfrwt>
<pdfrwt beam="2">  1       -1 0.17757038E+00 0.14732954E+04</pdfrwt>
<totfact> 0.15862004E+01</totfact>
</mgrwt>
</event>
<event>
12    7  0.1660832E-007  0.1901745E+04  0.7818608E-02  0.8653988E-01
         -1   -1    0    0    0  501 -0.00000000000E+00  0.00000000000E+00  0.19145388955E+04  0.19145388955E+04  0.00000000000E+00 0.  1.
          2   -1    0    0  501    0  0.00000000000E+00 -0.00000000000E+00 -0.47225927609E+03  0.47225927609E+03  0.00000000000E+00 0. -1.
         24    2    1    2    0    0 -0.41823523059E+03 -0.18527708653E+02  0.13196597526E+04  0.13878378874E+04  0.96582373923E+02 0.  0.
        254    2    1    2    0    0  0.41823523059E+03  0.18527708653E+02  0.12261986678E+03  0.99896028418E+03  0.89867793650E+03 0.  0.
         23    2    4    4    0    0  0.26804276455E+03  0.42217629886E+03  0.21111866551E+03  0.54978514315E+03  0.87251714937E+02 0.  0.
         23    2    4    4    0    0  0.15019246604E+03 -0.40364859021E+03 -0.88498798729E+02  0.44917514103E+03  0.91849380563E+02 0.  0.
          2    1    3    3  502    0 -0.24935550117E+03 -0.36588039766E+02  0.65478165412E+03  0.70160948197E+03  0.00000000000E+00 0. -1.
         -1    1    3    3    0  502 -0.16887972942E+03  0.18060331113E+02  0.66487809851E+03  0.68622840545E+03  0.00000000000E+00 0.  1.
         13    1    5    5    0    0  0.24727977279E+03  0.36715544397E+03  0.15646434735E+03  0.46950132913E+03  0.00000000000E+00 0.  1.
        -13    1    5    5    0    0  0.20762991757E+02  0.55020854892E+02  0.54654318164E+02  0.80283814021E+02  0.00000000000E+00 0. -1.
          3    1    6    6  503    0  0.15576554649E+02 -0.16890867367E+03 -0.28489751875E+02  0.17200126470E+03  0.00000000000E+00 0. -1.
         -3    1    6    6    0  503  0.13461591139E+03 -0.23473991653E+03 -0.60009046854E+02  0.27717387633E+03  0.00000000000E+00 0.  1.
<mgrwt>
<rscale>  0 0.19017453E+04</rscale>
<asrwt>0</asrwt>
<pdfrwt beam="1">  1        2 0.72655274E-01 0.19017453E+04</pdfrwt>
<pdfrwt beam="2">  1       -1 0.29454444E+00 0.19017453E+04</pdfrwt>
<totfact> 0.25242742E+00</totfact>
</mgrwt>
</event>
<event>
12    7  0.1660832E-007  0.2951216E+04  0.7818608E-02  0.8257800E-01
         -1   -1    0    0    0  501 -0.00000000000E+00  0.00000000000E+00  0.14400597141E+04  0.14400597141E+04  0.00000000000E+00 0.  1.
          2   -1    0    0  501    0  0.00000000000E+00 -0.00000000000E+00 -0.15120335370E+04  0.15120335370E+04  0.00000000000E+00 0. -1.
         24    2    1    2    0    0  0.12009376490E+04  0.57640157856E+03  0.91665084328E+02  0.13376902369E+04  0.80763020682E+02 0.  0.
        254    2    1    2    0    0 -0.12009376490E+04 -0.57640157856E+03 -0.16363890729E+03  0.16144030142E+04  0.89723429699E+03 0.  0.
         23    2    4    4    0    0 -0.71885522378E+03 -0.35673275758E+03  0.34116570982E+03  0.87644754734E+03  0.88063435071E+02 0.  0.
         23    2    4    4    0    0 -0.48208242527E+03 -0.21966882098E+03 -0.50480461711E+03  0.73795546688E+03  0.95355723405E+02 0.  0.
          4    1    3    3  502    0  0.10872374259E+04  0.51564146249E+03  0.10601203329E+03  0.12079776030E+04  0.00000000000E+00 0. -1.
         -3    1    3    3    0  502  0.11370022318E+03  0.60760116067E+02 -0.14346948964E+02  0.12971263393E+03  0.00000000000E+00 0.  1.
         13    1    5    5    0    0 -0.33650612141E+03 -0.20920607894E+03  0.14324030778E+03  0.42133281262E+03  0.00000000000E+00 0.  1.
        -13    1    5    5    0    0 -0.38234910237E+03 -0.14752667864E+03  0.19792540204E+03  0.45511473472E+03  0.00000000000E+00 0. -1.
          4    1    6    6  503    0 -0.29347577825E+02  0.37066279211E+01 -0.51866605135E+02  0.59708995495E+02  0.00000000000E+00 0. -1.
         -4    1    6    6    0  503 -0.45273484744E+03 -0.22337544890E+03 -0.45293801198E+03  0.67824647139E+03  0.00000000000E+00 0.  1.
<mgrwt>
<rscale>  0 0.29512157E+04</rscale>
<asrwt>0</asrwt>
<pdfrwt beam="1">  1        2 0.23262054E+00 0.29512157E+04</pdfrwt>
<pdfrwt beam="2">  1       -1 0.22154765E+00 0.29512157E+04</pdfrwt>
<totfact> 0.13141281E+00</totfact>
</mgrwt>
</event>
<event>
12    7  0.1660832E-007  0.1251556E+04  0.7818608E-02  0.9068889E-01
          4   -1    0    0  501    0  0.00000000000E+00  0.00000000000E+00  0.42915241001E+03  0.42915241001E+03  0.00000000000E+00 0. -1.
         -3   -1    0    0    0  501 -0.00000000000E+00 -0.00000000000E+00 -0.91249164669E+03  0.91249164669E+03  0.00000000000E+00 0.  1.
         24    2    1    2    0    0 -0.26568574833E+03 -0.11163737918E+03 -0.10999846060E+03  0.31846487178E+03  0.79173176787E+02 0.  0.
        254    2    1    2    0    0  0.26568574833E+03  0.11163737918E+03 -0.37334077608E+03  0.10231791849E+04  0.90799806611E+03 0.  0.
         23    2    4    4    0    0  0.40324295332E+03 -0.26550793823E+03 -0.39804207595E+02  0.49307115412E+03  0.91844670042E+02 0.  0.
         23    2    4    4    0    0 -0.13755720499E+03  0.37714531742E+03 -0.33353656849E+03  0.53010803080E+03  0.92775571717E+02 0.  0.
          4    1    3    3  502    0 -0.12237271357E+03 -0.30902931687E+02 -0.11494637649E+02  0.12673673070E+03  0.00000000000E+00 0. -1.
         -3    1    3    3    0  502 -0.14331303477E+03 -0.80734447496E+02 -0.98503822950E+02  0.19172814108E+03  0.00000000000E+00 0.  1.
         13    1    5    5    0    0  0.36643905195E+03 -0.22083677322E+03 -0.59446506192E+02  0.43194947192E+03  0.00000000000E+00 0.  1.
        -13    1    5    5    0    0  0.36803901371E+02 -0.44671165017E+02  0.19642298597E+02  0.61121682194E+02  0.00000000000E+00 0. -1.
          1    1    6    6  503    0  0.70549414573E+01  0.20964243480E+02 -0.42622334419E+02  0.48020153009E+02  0.00000000000E+00 0. -1.
         -1    1    6    6    0  503 -0.14461214644E+03  0.35618107394E+03 -0.29091423407E+03  0.48208787779E+03  0.00000000000E+00 0.  1.
<mgrwt>
<rscale>  0 0.12515558E+04</rscale>
<asrwt>0</asrwt>
<pdfrwt beam="1">  1        4 0.66023447E-01 0.12515558E+04</pdfrwt>
<pdfrwt beam="2">  1       -3 0.14038333E+00 0.12515558E+04</pdfrwt>
<totfact> 0.18322998E+00</totfact>
</mgrwt>
</event>
<event>
12    7  0.1660832E-007  0.1613724E+04  0.7818608E-02  0.8812161E-01
         -1   -1    0    0    0  501 -0.00000000000E+00  0.00000000000E+00  0.30017522206E+03  0.30017522206E+03  0.00000000000E+00 0.  1.
          2   -1    0    0  501    0  0.00000000000E+00 -0.00000000000E+00 -0.21688220024E+04  0.21688220024E+04  0.00000000000E+00 0. -1.
         24    2    1    2    0    0  0.34249126416E+03  0.37520777192E+03 -0.33261458278E+03  0.61230112435E+03  0.78734160713E+02 0.  0.
        254    2    1    2    0    0 -0.34249126416E+03 -0.37520777192E+03 -0.15360321975E+04  0.18566961001E+04  0.91095793432E+03 0.  0.
         23    2    4    4    0    0 -0.50868564127E+03 -0.37619283597E+03 -0.15399996056E+04  0.16673612095E+04  0.90622767934E+02 0.  0.
         23    2    4    4    0    0  0.16619437710E+03  0.98506405071E+00  0.39674081181E+01  0.18933489059E+03  0.90611363176E+02 0.  0.
          4    1    3    3  502    0  0.23693684473E+02  0.37676923579E+02 -0.66157089188E+01  0.44996764982E+02  0.00000000000E+00 0. -1.
         -3    1    3    3    0  502  0.31879757969E+03  0.33753084834E+03 -0.32599887386E+03  0.56730435937E+03  0.00000000000E+00 0.  1.
         13    1    5    5    0    0 -0.21282736946E+02  0.24281409541E+00 -0.31731658302E+02  0.38208794658E+02  0.00000000000E+00 0. -1.
        -13    1    5    5    0    0 -0.48740290432E+03 -0.37643565007E+03 -0.15082679473E+04  0.16291524148E+04  0.00000000000E+00 0.  1.
          1    1    6    6  503    0  0.10155147402E+03  0.31948279026E+01 -0.42045080491E+02  0.10995770820E+03  0.00000000000E+00 0. -1.
         -1    1    6    6    0  503  0.64642903089E+02 -0.22097638519E+01  0.46012488610E+02  0.79377182390E+02  0.00000000000E+00 0.  1.
<mgrwt>
<rscale>  0 0.16137244E+04</rscale>
<asrwt>0</asrwt>
<pdfrwt beam="1">  1        2 0.33366492E+00 0.16137244E+04</pdfrwt>
<pdfrwt beam="2">  1       -1 0.46180804E-01 0.16137244E+04</pdfrwt>
<totfact> 0.27383224E+01</totfact>
</mgrwt>
</event>
<event>
12    7  0.1660832E-007  0.1405975E+04  0.7818608E-02  0.8949505E-01
         -1   -1    0    0    0  501 -0.00000000000E+00  0.00000000000E+00  0.17783972592E+03  0.17783972592E+03  0.00000000000E+00 0.  1.
          2   -1    0    0  501    0  0.00000000000E+00 -0.00000000000E+00 -0.27788571716E+04  0.27788571716E+04  0.00000000000E+00 0. -1.
         24    2    1    2    0    0 -0.56104177940E+02  0.37905621964E+03 -0.10583444609E+04  0.11284095359E+04  0.79898600268E+02 0.  0.
        254    2    1    2    0    0  0.56104177940E+02 -0.37905621964E+03 -0.15426729847E+04  0.18282873616E+04  0.90330694800E+03 0.  0.
         23    2    4    4    0    0  0.42700205910E+03 -0.16166816019E+03 -0.43655006874E+03  0.63793881889E+03  0.89009109835E+02 0.  0.
         23    2    4    4    0    0 -0.37089788116E+03 -0.21738805945E+03 -0.11061229160E+04  0.11903485427E+04  0.92730476075E+02 0.  0.
          4    1    3    3  502    0 -0.50443729753E+02  0.38120078265E+03 -0.10302355287E+04  0.10996562423E+04  0.00000000000E+00 0. -1.
         -1    1    3    3    0  502 -0.56604481867E+01 -0.21445630141E+01 -0.28108932199E+02  0.28753293613E+02  0.00000000000E+00 0.  1.
         13    1    5    5    0    0  0.23830868290E+03 -0.83427040855E+02 -0.18041679808E+03  0.31032454064E+03  0.00000000000E+00 0. -1.
        -13    1    5    5    0    0  0.18869337620E+03 -0.78241119336E+02 -0.25613327066E+03  0.32761427825E+03  0.00000000000E+00 0.  1.
          4    1    6    6  503    0 -0.21823990760E+03 -0.17320005349E+03 -0.76074859686E+03  0.81016377568E+03  0.00000000000E+00 0. -1.
         -4    1    6    6    0  503 -0.15265797356E+03 -0.44188005961E+02 -0.34537431915E+03  0.38018476704E+03  0.00000000000E+00 0.  1.
<mgrwt>
<rscale>  0 0.14059747E+04</rscale>
<asrwt>0</asrwt>
<pdfrwt beam="1">  1        2 0.42751645E+00 0.14059747E+04</pdfrwt>
<pdfrwt beam="2">  1       -1 0.27359960E-01 0.14059747E+04</pdfrwt>
<totfact> 0.31828331E+01</totfact>
</mgrwt>
</event>
<event>
12    7  0.1660832E-007  0.2629956E+04  0.7818608E-02  0.8358096E-01
          2   -1    0    0  501    0  0.00000000000E+00  0.00000000000E+00  0.10392296059E+04  0.10392296059E+04  0.00000000000E+00 0. -1.
         -1   -1    0    0    0  501 -0.00000000000E+00 -0.00000000000E+00 -0.16638933602E+04  0.16638933602E+04  0.00000000000E+00 0.  1.
         24    2    1    2    0    0  0.29750126226E+03  0.74783086236E+03  0.58192736400E+03  0.99803518845E+03  0.98370629004E+02 0.  0.
        254    2    1    2    0    0 -0.29750126226E+03 -0.74783086236E+03 -0.12065911184E+04  0.17050877777E+04  0.89649551200E+03 0.  0.
         23    2    4    4    0    0  0.20777466675E+03 -0.86808944801E+02 -0.69732969085E+01  0.24228648247E+03  0.89151599420E+02 0.  0.
         23    2    4    4    0    0 -0.50527592901E+03 -0.66102191756E+03 -0.11996178214E+04  0.14628012952E+04  0.91929167688E+02 0.  0.
          4    1    3    3  502    0  0.28275050440E+03  0.62100327110E+03  0.47366977834E+03  0.83063588254E+03  0.00000000000E+00 0. -1.
         -3    1    3    3    0  502  0.14750757861E+02  0.12682759127E+03  0.10825758566E+03  0.16739930591E+03  0.00000000000E+00 0.  1.
         13    1    5    5    0    0  0.56907079358E+02 -0.64670241834E+02 -0.22447843540E+02  0.89020006400E+02  0.00000000000E+00 0. -1.
        -13    1    5    5    0    0  0.15086758739E+03 -0.22138702967E+02  0.15474546632E+02  0.15326647607E+03  0.00000000000E+00 0.  1.
          3    1    6    6  503    0 -0.19784170181E+03 -0.32054452706E+03 -0.49531348473E+03  0.62227452219E+03  0.00000000000E+00 0. -1.
         -3    1    6    6    0  503 -0.30743422720E+03 -0.34047739050E+03 -0.70430433671E+03  0.84052677304E+03  0.00000000000E+00 0.  1.
<mgrwt>
<rscale>  0 0.26299561E+04</rscale>
<asrwt>0</asrwt>
<pdfrwt beam="1">  1        2 0.15988148E+00 0.26299561E+04</pdfrwt>
<pdfrwt beam="2">  1       -1 0.25598359E+00 0.26299561E+04</pdfrwt>
<totfact> 0.15239407E+00</totfact>
</mgrwt>
</event>
<event>
12    7  0.1660832E-007  0.1121791E+04  0.7818608E-02  0.9184210E-01
         -1   -1    0    0    0  501 -0.00000000000E+00  0.00000000000E+00  0.80280333301E+02  0.80280333301E+02  0.00000000000E+00 0.  1.
          2   -1    0    0  501    0  0.00000000000E+00 -0.00000000000E+00 -0.39188114839E+04  0.39188114839E+04  0.00000000000E+00 0. -1.
         24    2    1    2    0    0  0.23661716593E+03 -0.15480554139E+03 -0.11142343823E+04  0.11520168424E+04  0.75313396903E+02 0.  0.
        254    2    1    2    0    0 -0.23661716593E+03  0.15480554139E+03 -0.27242967684E+04  0.28470749748E+04  0.77723264933E+03 0.  0.
         23    2    4    4    0    0 -0.38169555443E+03  0.31441249577E+03 -0.11459802094E+04  0.12513102589E+04  0.89218888751E+02 0.  0.
         23    2    4    4    0    0  0.14507838850E+03 -0.15960695438E+03 -0.15783165590E+04  0.15957647159E+04  0.94126241191E+02 0.  0.
          2    1    3    3  502    0  0.28400004366E+01 -0.16790620043E+02 -0.12698413767E+03  0.12812088722E+03  0.00000000000E+00 0. -1.
         -1    1    3    3    0  502  0.23377716550E+03 -0.13801492135E+03 -0.98725024462E+03  0.10238959552E+04  0.00000000000E+00 0.  1.
         13    1    5    5    0    0 -0.13788599078E+03  0.16489515903E+03 -0.54078414056E+03  0.58193680636E+03  0.00000000000E+00 0. -1.
        -13    1    5    5    0    0 -0.24380956366E+03  0.14951733675E+03 -0.60519606880E+03  0.66937345257E+03  0.00000000000E+00 0.  1.
          3    1    6    6  503    0  0.17731746537E+02 -0.86778641630E+02 -0.57667857310E+03  0.58344076319E+03  0.00000000000E+00 0. -1.
         -3    1    6    6    0  503  0.12734664196E+03 -0.72828312753E+02 -0.10016379859E+04  0.10123239527E+04  0.00000000000E+00 0.  1.
<mgrwt>
<rscale>  0 0.11217905E+04</rscale>
<asrwt>0</asrwt>
<pdfrwt beam="1">  1        2 0.60289417E+00 0.11217905E+04</pdfrwt>
<pdfrwt beam="2">  1       -1 0.12350819E-01 0.11217905E+04</pdfrwt>
<totfact> 0.21114613E+01</totfact>
</mgrwt>
</event>
<event>
12    7  0.1660832E-007  0.1685224E+04  0.7818608E-02  0.8769837E-01
          2   -1    0    0  501    0  0.00000000000E+00  0.00000000000E+00  0.98804771852E+03  0.98804771852E+03  0.00000000000E+00 0. -1.
         -1   -1    0    0    0  501 -0.00000000000E+00 -0.00000000000E+00 -0.71858327640E+03  0.71858327640E+03  0.00000000000E+00 0.  1.
         24    2    1    2    0    0 -0.96734409465E+02 -0.32987933401E+03  0.58757401028E+03  0.68520555025E+03  0.78009663301E+02 0.  0.
        254    2    1    2    0    0  0.96734409465E+02  0.32987933401E+03 -0.31810956816E+03  0.10214254447E+04  0.90771048284E+03 0.  0.
         23    2    4    4    0    0 -0.18088517350E+03  0.19500641335E+03 -0.55434642990E+03  0.62164716269E+03  0.91642148039E+02 0.  0.
         23    2    4    4    0    0  0.27761958296E+03  0.13487292065E+03  0.23623686174E+03  0.39977828197E+03  0.93549357667E+02 0.  0.
          4    1    3    3  502    0 -0.72950500129E+02 -0.31450565863E+03  0.52196192993E+03  0.61374248759E+03  0.00000000000E+00 0. -1.
         -3    1    3    3    0  502 -0.23783909336E+02 -0.15373675380E+02  0.65612080346E+02  0.71463062664E+02  0.00000000000E+00 0.  1.
         13    1    5    5    0    0 -0.89654530101E+02  0.10564652775E+03 -0.38756565108E+03  0.41158991422E+03  0.00000000000E+00 0.  1.
        -13    1    5    5    0    0 -0.91230643395E+02  0.89359885605E+02 -0.16678077882E+03  0.21005724847E+03  0.00000000000E+00 0. -1.
          2    1    6    6  503    0  0.18189815319E+03  0.80205474468E+02  0.20419595658E+03  0.28498393806E+03  0.00000000000E+00 0.  1.
         -2    1    6    6    0  503  0.95721429772E+02  0.54667446185E+02  0.32040905160E+02  0.11479434391E+03  0.00000000000E+00 0. -1.
<mgrwt>
<rscale>  0 0.16852235E+04</rscale>
<asrwt>0</asrwt>
<pdfrwt beam="1">  1        2 0.15200734E+00 0.16852235E+04</pdfrwt>
<pdfrwt beam="2">  1       -1 0.11055127E+00 0.16852235E+04</pdfrwt>
<totfact> 0.21022316E+01</totfact>
</mgrwt>
</event>
<event>
12    7  0.1660832E-007  0.1603290E+04  0.7818608E-02  0.8818529E-01
         -1   -1    0    0    0  501 -0.00000000000E+00  0.00000000000E+00  0.85145848097E+03  0.85145848097E+03  0.00000000000E+00 0.  1.
          2   -1    0    0  501    0  0.00000000000E+00 -0.00000000000E+00 -0.75474607903E+03  0.75474607903E+03  0.00000000000E+00 0. -1.
         24    2    1    2    0    0  0.24396956971E+03 -0.13818809283E+03  0.47991820679E+03  0.56149335984E+03  0.79600301439E+02 0.  0.
        254    2    1    2    0    0 -0.24396956971E+03  0.13818809283E+03 -0.38320580485E+03  0.10447112002E+04  0.93056848374E+03 0.  0.
         23    2    4    4    0    0 -0.16030650117E+01  0.45818589033E+03  0.21474411883E+02  0.46753535258E+03  0.90505666304E+02 0.  0.
         23    2    4    4    0    0 -0.24236650470E+03 -0.31999779751E+03 -0.40468021673E+03  0.57717584758E+03  0.90696020907E+02 0.  0.
          2    1    3    3  502    0 -0.36168685279E+01  0.37988793158E+01  0.15719565136E+02  0.16571600710E+02  0.00000000000E+00 0. -1.
         -1    1    3    3    0  502  0.24758643824E+03 -0.14198697214E+03  0.46419864166E+03  0.54492175913E+03  0.00000000000E+00 0.  1.
         13    1    5    5    0    0 -0.16473593818E+02  0.23694889324E+02 -0.12531239133E+02  0.31462025166E+02  0.00000000000E+00 0. -1.
        -13    1    5    5    0    0  0.14870528806E+02  0.43449100101E+03  0.34005651015E+02  0.43607332742E+03  0.00000000000E+00 0.  1.
          4    1    6    6  503    0 -0.14653398372E+03 -0.20582208446E+03 -0.31271042808E+03  0.40202332105E+03  0.00000000000E+00 0. -1.
         -4    1    6    6    0  503 -0.95832520980E+02 -0.11417571304E+03 -0.91969788654E+02  0.17515252653E+03  0.00000000000E+00 0.  1.
<mgrwt>
<rscale>  0 0.16032903E+04</rscale>
<asrwt>0</asrwt>
<pdfrwt beam="1">  1        2 0.11611478E+00 0.16032903E+04</pdfrwt>
<pdfrwt beam="2">  1       -1 0.13099361E+00 0.16032903E+04</pdfrwt>
<totfact> 0.20257851E+01</totfact>
</mgrwt>
</event>
<event>
12    7  0.1660832E-007  0.4521445E+04  0.7818608E-02  0.7906893E-01
         -1   -1    0    0    0  501 -0.00000000000E+00  0.00000000000E+00  0.12532771013E+04  0.12532771013E+04  0.00000000000E+00 0.  1.
          2   -1    0    0  501    0  0.00000000000E+00 -0.00000000000E+00 -0.40780016291E+04  0.40780016291E+04  0.00000000000E+00 0. -1.
         24    2    1    2    0    0  0.27087166096E+03  0.92249636263E+03 -0.36437448011E+04  0.37698914605E+04  0.10408867891E+03 0.  0.
        254    2    1    2    0    0 -0.27087166096E+03 -0.92249636263E+03  0.81902027336E+03  0.15613872699E+04  0.91802233228E+03 0.  0.
         23    2    4    4    0    0  0.17636759794E+03 -0.48577150002E+03  0.76405976318E+03  0.92705889624E+03  0.92581831680E+02 0.  0.
         23    2    4    4    0    0 -0.44723925890E+03 -0.43672486261E+03  0.54960510185E+02  0.63432837363E+03  0.92737627681E+02 0.  0.
          2    1    3    3  502    0  0.17135109747E+03  0.71339799012E+03 -0.28642614083E+04  0.29567365973E+04  0.00000000000E+00 0. -1.
         -1    1    3    3    0  502  0.99520563485E+02  0.20909837251E+03 -0.77948339280E+03  0.81315486323E+03  0.00000000000E+00 0.  1.
         13    1    5    5    0    0  0.10352894950E+03 -0.35364342389E+03  0.60045806470E+03  0.70450819875E+03  0.00000000000E+00 0. -1.
        -13    1    5    5    0    0  0.72838648440E+02 -0.13212807613E+03  0.16360169848E+03  0.22255069749E+03  0.00000000000E+00 0.  1.
          3    1    6    6  503    0 -0.21266288752E+03 -0.22547675101E+03 -0.17515721018E+02  0.31043851155E+03  0.00000000000E+00 0. -1.
         -3    1    6    6    0  503 -0.23457637139E+03 -0.21124811161E+03  0.72476231203E+02  0.32388986208E+03  0.00000000000E+00 0.  1.
<mgrwt>
<rscale>  0 0.45214449E+04</rscale>
<asrwt>0</asrwt>
<pdfrwt beam="1">  1        2 0.62738487E+00 0.45214449E+04</pdfrwt>
<pdfrwt beam="2">  1       -1 0.19281186E+00 0.45214449E+04</pdfrwt>
<totfact> 0.42567148E-02</totfact>
</mgrwt>
</event>
<event>
12    7  0.1660832E-007  0.1888532E+04  0.7818608E-02  0.8660586E-01
          2   -1    0    0  501    0  0.00000000000E+00  0.00000000000E+00  0.84325187216E+03  0.84325187216E+03  0.00000000000E+00 0. -1.
         -1   -1    0    0    0  501 -0.00000000000E+00 -0.00000000000E+00 -0.10573805291E+04  0.10573805291E+04  0.00000000000E+00 0.  1.
         24    2    1    2    0    0  0.72894912934E+02 -0.60435450460E+03  0.30989316392E+03  0.69146344282E+03  0.10737729813E+03 0.  0.
        254    2    1    2    0    0 -0.72894912934E+02  0.60435450460E+03 -0.52402182085E+03  0.12091689584E+04  0.90384327499E+03 0.  0.
         23    2    4    4    0    0  0.21167188080E+03  0.64393870816E+03 -0.10311610473E+03  0.69100462227E+03  0.85979136720E+02 0.  0.
         23    2    4    4    0    0 -0.28456679374E+03 -0.39584203564E+02 -0.42090571613E+03  0.51816433616E+03  0.93741603018E+02 0.  0.
          4    1    3    3  502    0  0.32257922507E+02 -0.28042313152E+03  0.84156906567E+02  0.29455065978E+03  0.00000000000E+00 0. -1.
         -3    1    3    3    0  502  0.40636990427E+02 -0.32393137308E+03  0.22573625735E+03  0.39691278304E+03  0.00000000000E+00 0.  1.
         13    1    5    5    0    0  0.16589812875E+03  0.58775609499E+03 -0.95390885076E+02  0.61812526018E+03  0.00000000000E+00 0.  1.
        -13    1    5    5    0    0  0.45773752048E+02  0.56182613178E+02 -0.77252196530E+01  0.72879362091E+02  0.00000000000E+00 0. -1.
          1    1    6    6  503    0 -0.33191295425E+02 -0.16575029262E+02 -0.14680553729E+02  0.39898776231E+02  0.00000000000E+00 0. -1.
         -1    1    6    6    0  503 -0.25137549831E+03 -0.23009174302E+02 -0.40622516240E+03  0.47826555993E+03  0.00000000000E+00 0.  1.
<mgrwt>
<rscale>  0 0.18885318E+04</rscale>
<asrwt>0</asrwt>
<pdfrwt beam="1">  1        2 0.12973106E+00 0.18885318E+04</pdfrwt>
<pdfrwt beam="2">  1       -1 0.16267393E+00 0.18885318E+04</pdfrwt>
<totfact> 0.95760388E+00</totfact>
</mgrwt>
</event>
<event>
12    7  0.1660832E-007  0.2138615E+04  0.7818608E-02  0.8544421E-01
         -1   -1    0    0    0  501 -0.00000000000E+00  0.00000000000E+00  0.13951430672E+04  0.13951430672E+04  0.00000000000E+00 0.  1.
          2   -1    0    0  501    0  0.00000000000E+00 -0.00000000000E+00 -0.81957080307E+03  0.81957080307E+03  0.00000000000E+00 0. -1.
         24    2    1    2    0    0 -0.55864556574E+03  0.29013572797E+03 -0.40644191845E+03  0.75345535394E+03  0.78970428275E+02 0.  0.
        254    2    1    2    0    0  0.55864556574E+03 -0.29013572797E+03  0.98201418257E+03  0.14612585163E+04  0.88014827614E+03 0.  0.
         23    2    4    4    0    0 -0.86863949456E+02  0.28341549540E+02 -0.93579105079E+02  0.16383115517E+03  0.98666150988E+02 0.  0.
         23    2    4    4    0    0  0.64550951519E+03 -0.31847727751E+03  0.10755932876E+04  0.12974273612E+04  0.91140147831E+02 0.  0.
          2    1    3    3  502    0 -0.55596751615E+03  0.28686492515E+03 -0.39170021914E+03  0.73811952012E+03  0.00000000000E+00 0. -1.
         -1    1    3    3    0  502 -0.26780495872E+01  0.32708028155E+01 -0.14741699303E+02  0.15335833821E+02  0.00000000000E+00 0.  1.
         13    1    5    5    0    0 -0.52333246673E+02  0.58976854990E+02 -0.28078235214E+02  0.83698419487E+02  0.00000000000E+00 0. -1.
        -13    1    5    5    0    0 -0.34530702784E+02 -0.30635305450E+02 -0.65500869865E+02  0.80132735681E+02  0.00000000000E+00 0.  1.
          3    1    6    6  503    0  0.32510811159E+03 -0.13298980061E+03  0.59240363977E+03  0.68871158238E+03  0.00000000000E+00 0. -1.
         -3    1    6    6    0  503  0.32040140360E+03 -0.18548747690E+03  0.48318964788E+03  0.60871577878E+03  0.00000000000E+00 0.  1.
<mgrwt>
<rscale>  0 0.21386150E+04</rscale>
<asrwt>0</asrwt>
<pdfrwt beam="1">  1        2 0.12608782E+00 0.21386150E+04</pdfrwt>
<pdfrwt beam="2">  1       -1 0.21463739E+00 0.21386150E+04</pdfrwt>
<totfact> 0.41797653E+00</totfact>
</mgrwt>
</event>
<event>
12    7  0.2038959E-007  0.2146037E+04  0.7818608E-02  0.8541231E-01
          2   -1    0    0  501    0  0.00000000000E+00  0.00000000000E+00  0.21861751514E+04  0.21861751514E+04  0.00000000000E+00 0. -1.
         -1   -1    0    0    0  501 -0.00000000000E+00 -0.00000000000E+00 -0.52665888320E+03  0.52665888320E+03  0.00000000000E+00 0.  1.
         24    2    1    2    0    0 -0.61794280727E+03  0.22827351357E+02  0.14805085428E+04  0.16065293908E+04  0.81588829753E+02 0.  0.
        254    2    1    2    0    0  0.61794280727E+03 -0.22827351357E+02  0.17900772536E+03  0.11063046438E+04  0.89971762130E+03 0.  0.
         23    2    4    4    0    0  0.11263132179E+03 -0.39841226462E+03 -0.57332421235E+02  0.42756562348E+03  0.90040038920E+02 0.  0.
         23    2    4    4    0    0  0.50531148548E+03  0.37558491327E+03  0.23634014660E+03  0.67873902029E+03  0.91794707614E+02 0.  0.
          4    1    3    3  502    0 -0.60019651080E+03  0.86478938586E+01  0.14397419991E+04  0.15598614238E+04  0.00000000000E+00 0. -1.
         -3    1    3    3    0  502 -0.17746296473E+02  0.14179457498E+02  0.40766543781E+02  0.46667967015E+02  0.00000000000E+00 0.  1.
         13    1    5    5    0    0  0.12457503276E+02 -0.41037219506E+01 -0.12757049615E+02  0.18296782138E+02  0.00000000000E+00 0. -1.
        -13    1    5    5    0    0  0.10017381852E+03 -0.39430854267E+03 -0.44575371620E+02  0.40926884134E+03  0.00000000000E+00 0.  1.
          2    1    6    6  503    0  0.28709373556E+02 -0.10993612015E+01  0.12364152367E+02  0.31277931338E+02  0.00000000000E+00 0. -1.
         -2    1    6    6    0  503  0.47660211192E+03  0.37668427447E+03  0.22397599423E+03  0.64746108896E+03  0.00000000000E+00 0.  1.
<mgrwt>
<rscale>  0 0.21460369E+04</rscale>
<asrwt>0</asrwt>
<pdfrwt beam="1">  1        2 0.33633463E+00 0.21460369E+04</pdfrwt>
<pdfrwt beam="2">  1       -1 0.81024445E-01 0.21460369E+04</pdfrwt>
<totfact> 0.83389183E+00</totfact>
</mgrwt>
</event>
<event>
12    7  0.1660832E-007  0.1649119E+04  0.7818608E-02  0.8790928E-01
          2   -1    0    0  501    0  0.00000000000E+00  0.00000000000E+00  0.26970723694E+04  0.26970723694E+04  0.00000000000E+00 0. -1.
         -1   -1    0    0    0  501 -0.00000000000E+00 -0.00000000000E+00 -0.25208766530E+03  0.25208766530E+03  0.00000000000E+00 0.  1.
         24    2    1    2    0    0  0.42360659347E+03 -0.33227325327E+03  0.50355630663E+03  0.74310712475E+03  0.93761314162E+02 0.  0.
        254    2    1    2    0    0 -0.42360659347E+03  0.33227325327E+03  0.19414283975E+04  0.22060529099E+04  0.89870860578E+03 0.  0.
         23    2    4    4    0    0 -0.13367882219E+03  0.45570726043E+03  0.17722947652E+04  0.18370848690E+04  0.91175360970E+02 0.  0.
         23    2    4    4    0    0 -0.28992777128E+03 -0.12343400715E+03  0.16913363231E+03  0.36896804098E+03  0.90758817792E+02 0.  0.
          2    1    3    3  502    0  0.89289438526E+02 -0.26665425026E+02  0.96027550183E+02  0.13380933868E+03  0.00000000000E+00 0. -1.
         -1    1    3    3    0  502  0.33431715495E+03 -0.30560782825E+03  0.40752875644E+03  0.60929778607E+03  0.00000000000E+00 0.  1.
         13    1    5    5    0    0 -0.11672223991E+03  0.23701839272E+03  0.97964642794E+03  0.10146471917E+04  0.00000000000E+00 0. -1.
        -13    1    5    5    0    0 -0.16956582284E+02  0.21868886770E+03  0.79264833722E+03  0.82243767729E+03  0.00000000000E+00 0.  1.
          1    1    6    6  503    0 -0.33481062607E+02  0.63071771725E+01 -0.26006429935E+01  0.34169070535E+02  0.00000000000E+00 0. -1.
         -1    1    6    6    0  503 -0.25644670867E+03 -0.12974118433E+03  0.17173427530E+03  0.33479897045E+03  0.00000000000E+00 0.  1.
<mgrwt>
<rscale>  0 0.16491194E+04</rscale>
<asrwt>0</asrwt>
<pdfrwt beam="1">  1        2 0.41493419E+00 0.16491194E+04</pdfrwt>
<pdfrwt beam="2">  1       -1 0.38782720E-01 0.16491194E+04</pdfrwt>
<totfact> 0.18749899E+01</totfact>
</mgrwt>
</event>
<event>
12    7  0.1660832E-007  0.1889454E+04  0.7818608E-02  0.8660124E-01
         -1   -1    0    0    0  501 -0.00000000000E+00  0.00000000000E+00  0.29372294390E+03  0.29372294390E+03  0.00000000000E+00 0.  1.
          2   -1    0    0  501    0  0.00000000000E+00 -0.00000000000E+00 -0.30386088797E+04  0.30386088797E+04  0.00000000000E+00 0. -1.
         24    2    1    2    0    0  0.36246393308E+03  0.13446205533E+03 -0.21520702998E+04  0.21880594270E+04  0.82081263188E+02 0.  0.
        254    2    1    2    0    0 -0.36246393308E+03 -0.13446205533E+03 -0.59281563599E+03  0.11442723966E+04  0.89914892658E+03 0.  0.
         23    2    4    4    0    0 -0.15076450487E+03 -0.50694183425E+03 -0.38224483878E+03  0.65888432619E+03  0.91090500504E+02 0.  0.
         23    2    4    4    0    0 -0.21169942821E+03  0.37247977892E+03 -0.21057079720E+03  0.48538807038E+03  0.87770636434E+02 0.  0.
          2    1    3    3  502    0  0.32036535564E+03  0.13591689486E+03 -0.17872874612E+04  0.18208525016E+04  0.00000000000E+00 0. -1.
         -1    1    3    3    0  502  0.42098577435E+02 -0.14548395301E+01 -0.36478283857E+03  0.36720692545E+03  0.00000000000E+00 0.  1.
         13    1    5    5    0    0 -0.11512228042E+03 -0.27441299108E+03 -0.25226178256E+03  0.39011746444E+03  0.00000000000E+00 0.  1.
        -13    1    5    5    0    0 -0.35642224451E+02 -0.23252884317E+03 -0.12998305623E+03  0.26876686175E+03  0.00000000000E+00 0. -1.
          2    1    6    6  503    0 -0.15970113016E+03  0.23013189238E+03 -0.17306970067E+03  0.32926928213E+03  0.00000000000E+00 0. -1.
         -2    1    6    6    0  503 -0.51998298048E+02  0.14234788653E+03 -0.37501096535E+02  0.15611878824E+03  0.00000000000E+00 0.  1.
<mgrwt>
<rscale>  0 0.18894540E+04</rscale>
<asrwt>0</asrwt>
<pdfrwt beam="1">  1        2 0.46747832E+00 0.18894540E+04</pdfrwt>
<pdfrwt beam="2">  1       -1 0.45188142E-01 0.18894540E+04</pdfrwt>
<totfact> 0.85655936E+00</totfact>
</mgrwt>
</event>
<event>
12    7  0.1660832E-007  0.1644340E+04  0.7818608E-02  0.8793762E-01
          2   -1    0    0  501    0  0.00000000000E+00  0.00000000000E+00  0.20242750035E+04  0.20242750035E+04  0.00000000000E+00 0. -1.
         -1   -1    0    0    0  501 -0.00000000000E+00 -0.00000000000E+00 -0.33392877531E+03  0.33392877531E+03  0.00000000000E+00 0.  1.
         24    2    1    2    0    0  0.11775714867E+03 -0.56134079854E+03  0.67128845493E+03  0.88669286497E+03  0.81399071846E+02 0.  0.
        254    2    1    2    0    0 -0.11775714867E+03  0.56134079854E+03  0.10190577732E+04  0.14715109138E+04  0.89324990126E+03 0.  0.
         23    2    4    4    0    0 -0.22857213212E+03  0.27330738584E+03  0.10826509985E+04  0.11435510417E+04  0.92917456785E+02 0.  0.
         23    2    4    4    0    0  0.11081498345E+03  0.28803341270E+03 -0.63593225205E+02  0.32795987213E+03  0.90941585882E+02 0.  0.
          4    1    3    3  502    0  0.30657784105E+02 -0.14608884547E+03  0.12305519762E+03  0.19345395359E+03  0.00000000000E+00 0. -1.
         -3    1    3    3    0  502  0.87099364568E+02 -0.41525195307E+03  0.54823325730E+03  0.69323891138E+03  0.00000000000E+00 0.  1.
         13    1    5    5    0    0 -0.22977121621E+03  0.26682528950E+03  0.99165502295E+03  0.10523166023E+04  0.00000000000E+00 0.  1.
        -13    1    5    5    0    0  0.11990840911E+01  0.64820963367E+01  0.90995975500E+02  0.91234439401E+02  0.00000000000E+00 0. -1.
          4    1    6    6  503    0  0.37322176477E+02  0.88116235226E+02 -0.63709111152E+02  0.11496202247E+03  0.00000000000E+00 0. -1.
         -4    1    6    6    0  503  0.73492806970E+02  0.19991717748E+03  0.11588594760E+00  0.21299784965E+03  0.00000000000E+00 0.  1.
<mgrwt>
<rscale>  0 0.16443402E+04</rscale>
<asrwt>0</asrwt>
<pdfrwt beam="1">  1        2 0.31142692E+00 0.16443402E+04</pdfrwt>
<pdfrwt beam="2">  1       -1 0.51373659E-01 0.16443402E+04</pdfrwt>
<totfact> 0.26873231E+01</totfact>
</mgrwt>
</event>
<event>
12    7  0.1660832E-007  0.3005950E+04  0.7818608E-02  0.8242034E-01
         -1   -1    0    0    0  501 -0.00000000000E+00  0.00000000000E+00  0.60180309837E+03  0.60180309837E+03  0.00000000000E+00 0.  1.
          2   -1    0    0  501    0  0.00000000000E+00 -0.00000000000E+00 -0.37536105345E+04  0.37536105345E+04  0.00000000000E+00 0. -1.
         24    2    1    2    0    0 -0.11691659723E+04 -0.62260075924E+03 -0.19304644870E+04  0.23426104507E+04  0.80930906549E+02 0.  0.
        254    2    1    2    0    0  0.11691659723E+04  0.62260075924E+03 -0.12213429491E+04  0.20128031823E+04  0.89728327469E+03 0.  0.
         23    2    4    4    0    0  0.56225971610E+03  0.43828065848E+03 -0.10567606381E+03  0.72634817997E+03  0.90489359291E+02 0.  0.
         23    2    4    4    0    0  0.60690625617E+03  0.18432010077E+03 -0.11156668853E+04  0.12864550023E+04  0.89133442708E+02 0.  0.
          4    1    3    3  502    0 -0.60324800338E+03 -0.32344143095E+03 -0.10687477702E+04  0.12691510190E+04  0.00000000000E+00 0. -1.
         -3    1    3    3    0  502 -0.56591796888E+03 -0.29915932830E+03 -0.86171671689E+03  0.10734594316E+04  0.00000000000E+00 0.  1.
         13    1    5    5    0    0  0.48846452149E+03  0.40921509780E+03 -0.76326314503E+02  0.64177900503E+03  0.00000000000E+00 0. -1.
        -13    1    5    5    0    0  0.73795194613E+02  0.29065560680E+02 -0.29349749307E+02  0.84569174940E+02  0.00000000000E+00 0.  1.
          1    1    6    6  503    0  0.57442998352E+03  0.19451768221E+03 -0.10565217577E+04  0.12182139218E+04  0.00000000000E+00 0. -1.
         -1    1    6    6    0  503  0.32476272645E+02 -0.10197581444E+02 -0.59145127585E+02  0.68241080511E+02  0.00000000000E+00 0.  1.
<mgrwt>
<rscale>  0 0.30059504E+04</rscale>
<asrwt>0</asrwt>
<pdfrwt beam="1">  1        2 0.57747855E+00 0.30059504E+04</pdfrwt>
<pdfrwt beam="2">  1       -1 0.92585091E-01 0.30059504E+04</pdfrwt>
<totfact> 0.58656302E-01</totfact>
</mgrwt>
</event>
<event>
12    7  0.1660832E-007  0.1883808E+04  0.7818608E-02  0.8662958E-01
         -1   -1    0    0    0  501 -0.00000000000E+00  0.00000000000E+00  0.90125136188E+03  0.90125136188E+03  0.00000000000E+00 0.  1.
          2   -1    0    0  501    0  0.00000000000E+00 -0.00000000000E+00 -0.98439021743E+03  0.98439021743E+03  0.00000000000E+00 0. -1.
         24    2    1    2    0    0 -0.15279788131E+03  0.70693775106E+03  0.57051339571E+01  0.72762066472E+03  0.79316497453E+02 0.  0.
        254    2    1    2    0    0  0.15279788131E+03 -0.70693775106E+03 -0.88843989509E+02  0.11580209146E+04  0.90000611539E+03 0.  0.
         23    2    4    4    0    0  0.46666552540E+03 -0.49813513112E+03  0.14787319217E+03  0.70383221883E+03  0.87166449108E+02 0.  0.
         23    2    4    4    0    0 -0.31386764409E+03 -0.20880261994E+03 -0.23671718168E+03  0.45418869576E+03  0.90227020051E+02 0.  0.
          4    1    3    3  502    0 -0.99294286145E+02  0.31282819145E+03 -0.21905165734E+02  0.32893870084E+03  0.00000000000E+00 0. -1.
         -3    1    3    3    0  502 -0.53503595164E+02  0.39410955961E+03  0.27610299691E+02  0.39868196388E+03  0.00000000000E+00 0.  1.
         13    1    5    5    0    0  0.26571338355E+03 -0.31325267150E+03  0.12708891369E+03  0.42997956973E+03  0.00000000000E+00 0.  1.
        -13    1    5    5    0    0  0.20095214185E+03 -0.18488245962E+03  0.20784278478E+02  0.27385264910E+03  0.00000000000E+00 0. -1.
          3    1    6    6  503    0 -0.22314796348E+02 -0.46385608918E+02 -0.15377253160E+02  0.53721827645E+02  0.00000000000E+00 0. -1.
         -3    1    6    6    0  503 -0.29155284774E+03 -0.16241701102E+03 -0.22133992852E+03  0.40046686811E+03  0.00000000000E+00 0.  1.
<mgrwt>
<rscale>  0 0.18838079E+04</rscale>
<asrwt>0</asrwt>
<pdfrwt beam="1">  1        2 0.15144465E+00 0.18838079E+04</pdfrwt>
<pdfrwt beam="2">  1       -1 0.13865406E+00 0.18838079E+04</pdfrwt>
<totfact> 0.11857611E+01</totfact>
</mgrwt>
</event>
<event>
12    7  0.1660832E-007  0.1861585E+04  0.7818608E-02  0.8674218E-01
          2   -1    0    0  501    0  0.00000000000E+00  0.00000000000E+00  0.62964341172E+03  0.62964341172E+03  0.00000000000E+00 0. -1.
         -1   -1    0    0    0  501 -0.00000000000E+00 -0.00000000000E+00 -0.13759766797E+04  0.13759766797E+04  0.00000000000E+00 0.  1.
         24    2    1    2    0    0 -0.13993933108E+03 -0.28612405981E+03  0.39710378143E+03  0.51555187413E+03  0.81561802983E+02 0.  0.
        254    2    1    2    0    0  0.13993933108E+03  0.28612405981E+03 -0.11434370494E+04  0.14900682173E+04  0.90078022415E+03 0.  0.
         23    2    4    4    0    0 -0.16895210963E+03  0.29585358611E+03 -0.11115058661E+04  0.11662414768E+04  0.92734740526E+02 0.  0.
         23    2    4    4    0    0  0.30889144071E+03 -0.97295262954E+01 -0.31931183250E+02  0.32382674042E+03  0.91299351175E+02 0.  0.
          2    1    3    3  502    0 -0.93423342326E+02 -0.25480564424E+03  0.34549681340E+03  0.43934256031E+03  0.00000000000E+00 0. -1.
         -1    1    3    3    0  502 -0.46515988757E+02 -0.31318415569E+02  0.51606968029E+02  0.76209313820E+02  0.00000000000E+00 0.  1.
         13    1    5    5    0    0 -0.16917971883E+03  0.30241507819E+03 -0.10899273757E+04  0.11436862949E+04  0.00000000000E+00 0. -1.
        -13    1    5    5    0    0  0.22760920104E+00 -0.65614920844E+01 -0.21578490395E+02  0.22555181933E+02  0.00000000000E+00 0.  1.
          2    1    6    6  503    0  0.18297524632E+03 -0.36650358881E+02  0.13960549810E+02  0.18713120136E+03  0.00000000000E+00 0. -1.
         -2    1    6    6    0  503  0.12591619439E+03  0.26920832586E+02 -0.45891733060E+02  0.13669553907E+03  0.00000000000E+00 0.  1.
<mgrwt>
<rscale>  0 0.18615850E+04</rscale>
<asrwt>0</asrwt>
<pdfrwt beam="1">  1        2 0.96868217E-01 0.18615850E+04</pdfrwt>
<pdfrwt beam="2">  1       -1 0.21168872E+00 0.18615850E+04</pdfrwt>
<totfact> 0.62807989E+00</totfact>
</mgrwt>
</event>
<event>
12    7  0.1660832E-007  0.1989571E+04  0.7818608E-02  0.8611512E-01
         -1   -1    0    0    0  501 -0.00000000000E+00  0.00000000000E+00  0.17884100778E+04  0.17884100778E+04  0.00000000000E+00 0.  1.
          2   -1    0    0  501    0  0.00000000000E+00 -0.00000000000E+00 -0.55333946043E+03  0.55333946043E+03  0.00000000000E+00 0. -1.
         24    2    1    2    0    0 -0.13506809168E+03  0.34195766813E+02  0.13214299473E+04  0.13311226230E+04  0.79357368713E+02 0.  0.
        254    2    1    2    0    0  0.13506809168E+03 -0.34195766813E+02 -0.86359329907E+02  0.10106269153E+04  0.99724424697E+03 0.  0.
         23    2    4    4    0    0 -0.10547074790E+03 -0.22894994833E+02 -0.50232906240E+03  0.52153852910E+03  0.89552727213E+02 0.  0.
         23    2    4    4    0    0  0.24053883958E+03 -0.11300771981E+02  0.41596973250E+03  0.48908838616E+03  0.90498565346E+02 0.  0.
          2    1    3    3  502    0 -0.37230856331E+02  0.41822790396E+01  0.12958547797E+03  0.13489263962E+03  0.00000000000E+00 0. -1.
         -1    1    3    3    0  502 -0.97837235347E+02  0.30013487774E+02  0.11918444693E+04  0.11962299834E+04  0.00000000000E+00 0.  1.
         13    1    5    5    0    0 -0.44232873513E+02 -0.16120264785E+02 -0.39489669612E+03  0.39769311113E+03  0.00000000000E+00 0. -1.
        -13    1    5    5    0    0 -0.61237874385E+02 -0.67747300481E+01 -0.10743236628E+03  0.12384541797E+03  0.00000000000E+00 0.  1.
          1    1    6    6  503    0  0.12797313220E+03 -0.35842594089E+02  0.28623257437E+03  0.31558026039E+03  0.00000000000E+00 0. -1.
         -1    1    6    6    0  503  0.11256570738E+03  0.24541822108E+02  0.12973715812E+03  0.17350812577E+03  0.00000000000E+00 0.  1.
<mgrwt>
<rscale>  0 0.19895707E+04</rscale>
<asrwt>0</asrwt>
<pdfrwt beam="1">  1        2 0.85129149E-01 0.19895707E+04</pdfrwt>
<pdfrwt beam="2">  1       -1 0.27514001E+00 0.19895707E+04</pdfrwt>
<totfact> 0.27785493E+00</totfact>
</mgrwt>
</event>
<event>
12    7  0.1660832E-007  0.1428476E+04  0.7818608E-02  0.8933461E-01
          2   -1    0    0  501    0  0.00000000000E+00  0.00000000000E+00  0.16266423396E+04  0.16266423396E+04  0.00000000000E+00 0. -1.
         -1   -1    0    0    0  501 -0.00000000000E+00 -0.00000000000E+00 -0.31361264145E+03  0.31361264145E+03  0.00000000000E+00 0.  1.
         24    2    1    2    0    0 -0.30801471919E+03 -0.28560398371E+03  0.50756750112E+03  0.66366019975E+03  0.79858561131E+02 0.  0.
        254    2    1    2    0    0  0.30801471919E+03  0.28560398371E+03  0.80546219701E+03  0.12765947813E+04  0.89692930715E+03 0.  0.
         23    2    4    4    0    0  0.59876782517E+03  0.26552243280E+03  0.41391761338E+03  0.78018232473E+03  0.91277589720E+02 0.  0.
         23    2    4    4    0    0 -0.29075310598E+03  0.20081550912E+02  0.39154458363E+03  0.49641245655E+03  0.90429689399E+02 0.  0.
          2    1    3    3  502    0 -0.15915237182E+03 -0.13010021513E+03  0.30679406481E+03  0.36929411265E+03  0.00000000000E+00 0. -1.
         -1    1    3    3    0  502 -0.14886234737E+03 -0.15550376858E+03  0.20077343631E+03  0.29436608710E+03  0.00000000000E+00 0.  1.
         13    1    5    5    0    0  0.58836811822E+03  0.27281879956E+03  0.40761646250E+03  0.76600151464E+03  0.00000000000E+00 0. -1.
        -13    1    5    5    0    0  0.10399706946E+02 -0.72963667599E+01  0.63011508828E+01  0.14180810094E+02  0.00000000000E+00 0.  1.
          1    1    6    6  503    0 -0.17712706017E+03  0.37030294056E+02  0.17745957964E+03  0.25345046958E+03  0.00000000000E+00 0. -1.
         -1    1    6    6    0  503 -0.11362604580E+03 -0.16948743144E+02  0.21408500399E+03  0.24296198697E+03  0.00000000000E+00 0.  1.
<mgrwt>
<rscale>  0 0.14284756E+04</rscale>
<asrwt>0</asrwt>
<pdfrwt beam="1">  1        2 0.25025266E+00 0.14284756E+04</pdfrwt>
<pdfrwt beam="2">  1       -1 0.48248100E-01 0.14284756E+04</pdfrwt>
<totfact> 0.51216911E+01</totfact>
</mgrwt>
</event>
<event>
12    7  0.1660832E-007  0.1456969E+04  0.7818608E-02  0.8913583E-01
         -1   -1    0    0    0  501 -0.00000000000E+00  0.00000000000E+00  0.70271455806E+03  0.70271455806E+03  0.00000000000E+00 0.  1.
          2   -1    0    0  501    0  0.00000000000E+00 -0.00000000000E+00 -0.75519958618E+03  0.75519958618E+03  0.00000000000E+00 0. -1.
         24    2    1    2    0    0 -0.23472636359E+02 -0.86359559803E+02 -0.45174961199E+03  0.46922753088E+03  0.89932338890E+02 0.  0.
        254    2    1    2    0    0  0.23472636359E+02  0.86359559803E+02  0.39926458386E+03  0.98868661336E+03  0.90004448405E+03 0.  0.
         23    2    4    4    0    0 -0.39557980740E+02  0.34390351070E+03 -0.13712464028E+03  0.38342150718E+03  0.91511893658E+02 0.  0.
         23    2    4    4    0    0  0.63030617099E+02 -0.25754395090E+03  0.53638922414E+03  0.60526510618E+03  0.91272688387E+02 0.  0.
          2    1    3    3  502    0 -0.53038920897E+02 -0.80886493740E+02 -0.35152782732E+03  0.36459232764E+03  0.00000000000E+00 0. -1.
         -1    1    3    3    0  502  0.29566284539E+02 -0.54730660631E+01 -0.10022178468E+03  0.10463520324E+03  0.00000000000E+00 0.  1.
         13    1    5    5    0    0 -0.43281434446E+02  0.81734800240E+02 -0.13231573667E+02  0.93428767945E+02  0.00000000000E+00 0.  1.
        -13    1    5    5    0    0  0.37234537062E+01  0.26216871046E+03 -0.12389306661E+03  0.28999273923E+03  0.00000000000E+00 0. -1.
          4    1    6    6  503    0  0.29043608372E+02 -0.19661685719E+03  0.46377082362E+03  0.50456426406E+03  0.00000000000E+00 0. -1.
         -4    1    6    6    0  503  0.33987008727E+02 -0.60927093713E+02  0.72618400517E+02  0.10070084212E+03  0.00000000000E+00 0.  1.
<mgrwt>
<rscale>  0 0.14569691E+04</rscale>
<asrwt>0</asrwt>
<pdfrwt beam="1">  1        2 0.11618455E+00 0.14569691E+04</pdfrwt>
<pdfrwt beam="2">  1       -1 0.10810993E+00 0.14569691E+04</pdfrwt>
<totfact> 0.32717531E+01</totfact>
</mgrwt>
</event>
<event>
12    7  0.1660832E-007  0.2367823E+04  0.7818608E-02  0.8451649E-01
         -1   -1    0    0    0  501 -0.00000000000E+00  0.00000000000E+00  0.13117915955E+04  0.13117915955E+04  0.00000000000E+00 0.  1.
          2   -1    0    0  501    0  0.00000000000E+00 -0.00000000000E+00 -0.10684975993E+04  0.10684975993E+04  0.00000000000E+00 0. -1.
         24    2    1    2    0    0 -0.71682178865E+03  0.71642804073E+03  0.10613122841E+03  0.10221040355E+04  0.79562600983E+02 0.  0.
        254    2    1    2    0    0  0.71682178865E+03 -0.71642804073E+03  0.13716276775E+03  0.13581851593E+04  0.89372853143E+03 0.  0.
         23    2    4    4    0    0  0.44014455097E+03 -0.17266019883E+03 -0.33041110293E+03  0.58406576576E+03  0.91774461488E+02 0.  0.
         23    2    4    4    0    0  0.27667723768E+03 -0.54376784190E+03  0.46757387068E+03  0.77411939355E+03  0.91661066940E+02 0.  0.
          2    1    3    3  502    0 -0.55168993618E+03  0.53633857471E+03  0.11292951087E+03  0.77767212039E+03  0.00000000000E+00 0. -1.
         -1    1    3    3    0  502 -0.16513185247E+03  0.18008946601E+03 -0.67982824598E+01  0.24443191509E+03  0.00000000000E+00 0.  1.
         13    1    5    5    0    0  0.42378152202E+03 -0.17878024443E+03 -0.30045377184E+03  0.54938658813E+03  0.00000000000E+00 0. -1.
        -13    1    5    5    0    0  0.16363028952E+02  0.61200456064E+01 -0.29957331096E+02  0.34679177631E+02  0.00000000000E+00 0.  1.
          3    1    6    6  503    0  0.23496500726E+03 -0.50876899355E+03  0.40659576080E+03  0.69236880067E+03  0.00000000000E+00 0. -1.
         -3    1    6    6    0  503  0.41712230419E+02 -0.34998848350E+02  0.60978109879E+02  0.81750592883E+02  0.00000000000E+00 0.  1.
<mgrwt>
<rscale>  0 0.23678228E+04</rscale>
<asrwt>0</asrwt>
<pdfrwt beam="1">  1        2 0.16438425E+00 0.23678228E+04</pdfrwt>
<pdfrwt beam="2">  1       -1 0.20181409E+00 0.23678228E+04</pdfrwt>
<totfact> 0.34257861E+00</totfact>
</mgrwt>
</event>
<event>
12    7  0.1660832E-007  0.2017513E+04  0.7818608E-02  0.8598476E-01
         -1   -1    0    0    0  501 -0.00000000000E+00  0.00000000000E+00  0.47836442267E+03  0.47836442267E+03  0.00000000000E+00 0.  1.
          2   -1    0    0  501    0  0.00000000000E+00 -0.00000000000E+00 -0.21272275438E+04  0.21272275438E+04  0.00000000000E+00 0. -1.
         24    2    1    2    0    0  0.13115937805E+03  0.75862450742E+03 -0.36248420745E+03  0.85462579939E+03  0.79224558231E+02 0.  0.
        254    2    1    2    0    0 -0.13115937805E+03 -0.75862450742E+03 -0.12863789137E+04  0.17509661671E+04  0.90465346016E+03 0.  0.
         23    2    4    4    0    0 -0.45750188313E+03 -0.68241392616E+03 -0.77731146055E+03  0.11347028730E+04  0.91327780970E+02 0.  0.
         23    2    4    4    0    0  0.32634250508E+03 -0.76210581259E+02 -0.50906745310E+03  0.61626329407E+03  0.91232080381E+02 0.  0.
          2    1    3    3  502    0  0.80596766225E+02  0.53606707133E+03 -0.29215291938E+03  0.61580603439E+03  0.00000000000E+00 0. -1.
         -1    1    3    3    0  502  0.50562611830E+02  0.22255743609E+03 -0.70331288072E+02  0.23881976500E+03  0.00000000000E+00 0.  1.
         13    1    5    5    0    0 -0.17564009702E+03 -0.32192151619E+03 -0.38826261765E+03  0.53407000153E+03  0.00000000000E+00 0.  1.
        -13    1    5    5    0    0 -0.28186178611E+03 -0.36049240996E+03 -0.38904884290E+03  0.60063287146E+03  0.00000000000E+00 0. -1.
          3    1    6    6  503    0  0.16153830188E+03 -0.77895350057E+02 -0.22359489017E+03  0.28663039518E+03  0.00000000000E+00 0. -1.
         -3    1    6    6    0  503  0.16480420320E+03  0.16847687976E+01 -0.28547256294E+03  0.32963289889E+03  0.00000000000E+00 0.  1.
<mgrwt>
<rscale>  0 0.20175133E+04</rscale>
<asrwt>0</asrwt>
<pdfrwt beam="1">  1        2 0.32726578E+00 0.20175133E+04</pdfrwt>
<pdfrwt beam="2">  1       -1 0.73594526E-01 0.20175133E+04</pdfrwt>
<totfact> 0.11145038E+01</totfact>
</mgrwt>
</event>
<event>
12    7  0.1660832E-007  0.1271143E+04  0.7818608E-02  0.9052767E-01
          2   -1    0    0  501    0  0.00000000000E+00  0.00000000000E+00  0.14589436808E+04  0.14589436808E+04  0.00000000000E+00 0. -1.
         -1   -1    0    0    0  501 -0.00000000000E+00 -0.00000000000E+00 -0.27687924091E+03  0.27687924091E+03  0.00000000000E+00 0.  1.
         24    2    1    2    0    0 -0.28016263037E+02  0.82551702648E+02  0.71195045855E+03  0.72172664634E+03  0.80101198500E+02 0.  0.
        254    2    1    2    0    0  0.28016263037E+02 -0.82551702648E+02  0.47011398131E+03  0.10140962754E+04  0.89430666198E+03 0.  0.
         23    2    4    4    0    0 -0.96145246785E+02 -0.21997109135E+02  0.71000558003E+03  0.72263758958E+03  0.91484320578E+02 0.  0.
         23    2    4    4    0    0  0.12416150982E+03 -0.60554593513E+02 -0.23989159872E+03  0.29145868577E+03  0.91198942203E+02 0.  0.
          2    1    3    3  502    0  0.11701077007E+02  0.65718884448E+02  0.55344886256E+03  0.55745989133E+03  0.00000000000E+00 0. -1.
         -1    1    3    3    0  502 -0.39717340044E+02  0.16832818200E+02  0.15850159599E+03  0.16426675501E+03  0.00000000000E+00 0.  1.
         13    1    5    5    0    0 -0.58889816745E+02 -0.31665964272E+02  0.63326928738E+03  0.63678939544E+03  0.00000000000E+00 0.  1.
        -13    1    5    5    0    0 -0.37255430039E+02  0.96688551371E+01  0.76736292650E+02  0.85848194138E+02  0.00000000000E+00 0. -1.
          4    1    6    6  503    0 -0.63450457021E+01  0.47207682218E+01  0.27047717733E+01  0.83582921647E+01  0.00000000000E+00 0. -1.
         -4    1    6    6    0  503  0.13050655552E+03 -0.65275361735E+02 -0.24259637049E+03  0.28310039361E+03  0.00000000000E+00 0.  1.
<mgrwt>
<rscale>  0 0.12711431E+04</rscale>
<asrwt>0</asrwt>
<pdfrwt beam="1">  1        2 0.22445287E+00 0.12711431E+04</pdfrwt>
<pdfrwt beam="2">  1       -1 0.42596807E-01 0.12711431E+04</pdfrwt>
<totfact> 0.81266982E+01</totfact>
</mgrwt>
</event>
<event>
12    7  0.1660832E-007  0.1567540E+04  0.7818608E-02  0.8840741E-01
          2   -1    0    0  501    0  0.00000000000E+00  0.00000000000E+00  0.12198148487E+04  0.12198148487E+04  0.00000000000E+00 0. -1.
         -1   -1    0    0    0  501 -0.00000000000E+00 -0.00000000000E+00 -0.50359743393E+03  0.50359743393E+03  0.00000000000E+00 0.  1.
         24    2    1    2    0    0  0.29698894124E+03  0.84976462044E+02  0.73248273328E+03  0.79917561602E+03  0.82019999795E+02 0.  0.
        254    2    1    2    0    0 -0.29698894124E+03 -0.84976462044E+02 -0.16265318521E+02  0.92423666660E+03  0.87093365130E+03 0.  0.
         23    2    4    4    0    0 -0.54857644483E+03 -0.15329295451E+03 -0.17816756233E+03  0.60476933866E+03  0.97813225036E+02 0.  0.
         23    2    4    4    0    0  0.25158750359E+03  0.68316492469E+02  0.16190224381E+03  0.31946732794E+03  0.88789762734E+02 0.  0.
          2    1    3    3  502    0  0.25318742295E+03  0.73851701967E+02  0.53356263948E+03  0.59518655501E+03  0.00000000000E+00 0. -1.
         -1    1    3    3    0  502  0.43801518290E+02  0.11124760077E+02  0.19892009381E+03  0.20398906101E+03  0.00000000000E+00 0.  1.
         13    1    5    5    0    0 -0.98891712245E+02 -0.68357872942E+02 -0.33106510541E+02  0.12469326599E+03  0.00000000000E+00 0. -1.
        -13    1    5    5    0    0 -0.44968473258E+03 -0.84935081570E+02 -0.14506105179E+03  0.48007607267E+03  0.00000000000E+00 0.  1.
          2    1    6    6  503    0  0.14000245463E+02  0.74533329818E+01  0.45115057732E+02  0.47821830577E+02  0.00000000000E+00 0. -1.
         -2    1    6    6    0  503  0.23758725812E+03  0.60863159487E+02  0.11678718607E+03  0.27164549736E+03  0.00000000000E+00 0.  1.
<mgrwt>
<rscale>  0 0.15675403E+04</rscale>
<asrwt>0</asrwt>
<pdfrwt beam="1">  1        2 0.18766382E+00 0.15675403E+04</pdfrwt>
<pdfrwt beam="2">  1       -1 0.77476528E-01 0.15675403E+04</pdfrwt>
<totfact> 0.33737304E+01</totfact>
</mgrwt>
</event>
<event>
12    7  0.1660832E-007  0.2325705E+04  0.7818608E-02  0.8467854E-01
         -1   -1    0    0    0  501 -0.00000000000E+00  0.00000000000E+00  0.17426455706E+04  0.17426455706E+04  0.00000000000E+00 0.  1.
          2   -1    0    0  501    0  0.00000000000E+00 -0.00000000000E+00 -0.77596141699E+03  0.77596141699E+03  0.00000000000E+00 0. -1.
         24    2    1    2    0    0 -0.84903492035E+03  0.29720657673E+03  0.36304487153E+02  0.90383171049E+03  0.80010623484E+02 0.  0.
        254    2    1    2    0    0  0.84903492035E+03 -0.29720657673E+03  0.93037966646E+03  0.16147752771E+04  0.96576437424E+03 0.  0.
         23    2    4    4    0    0 -0.85409149995E+02  0.21631649673E+03  0.18902400284E+03  0.31299725650E+03  0.90275463262E+02 0.  0.
         23    2    4    4    0    0  0.93444407034E+03 -0.51352307346E+03  0.74135566363E+03  0.13017780206E+04  0.90145035193E+02 0.  0.
          4    1    3    3  502    0 -0.48959635213E+03  0.15422780741E+03  0.56864755475E+02  0.51645368138E+03  0.00000000000E+00 0. -1.
         -3    1    3    3    0  502 -0.35943856821E+03  0.14297876932E+03 -0.20560268321E+02  0.38737802910E+03  0.00000000000E+00 0.  1.
         13    1    5    5    0    0 -0.44052240605E+02  0.19910690619E+03  0.14522984457E+03  0.25035148841E+03  0.00000000000E+00 0. -1.
        -13    1    5    5    0    0 -0.41356909390E+02  0.17209590533E+02  0.43794158271E+02  0.62645768087E+02  0.00000000000E+00 0.  1.
          1    1    6    6  503    0  0.61901760893E+03 -0.30382829427E+03  0.44281214975E+03  0.81949803693E+03  0.00000000000E+00 0. -1.
         -1    1    6    6    0  503  0.31542646141E+03 -0.20969477918E+03  0.29854351387E+03  0.48227998367E+03  0.00000000000E+00 0.  1.
<mgrwt>
<rscale>  0 0.23257048E+04</rscale>
<asrwt>0</asrwt>
<pdfrwt beam="1">  1        2 0.11937868E+00 0.23257048E+04</pdfrwt>
<pdfrwt beam="2">  1       -1 0.26809932E+00 0.23257048E+04</pdfrwt>
<totfact> 0.19679357E+00</totfact>
</mgrwt>
</event>
<event>
12    7  0.1660832E-007  0.1305089E+04  0.7818608E-02  0.9025540E-01
          2   -1    0    0  501    0  0.00000000000E+00  0.00000000000E+00  0.18211059168E+04  0.18211059168E+04  0.00000000000E+00 0. -1.
         -1   -1    0    0    0  501 -0.00000000000E+00 -0.00000000000E+00 -0.23382168684E+03  0.23382168684E+03  0.00000000000E+00 0.  1.
         24    2    1    2    0    0  0.17008420623E+03  0.27178496205E+03  0.28003597160E+03  0.43298992442E+03  0.79148129811E+02 0.  0.
        254    2    1    2    0    0 -0.17008420623E+03 -0.27178496205E+03  0.13072482583E+04  0.16219376792E+04  0.90497962601E+03 0.  0.
         23    2    4    4    0    0  0.33851933614E+03 -0.26073288622E+03  0.50450849101E+03  0.66721991199E+03  0.89869986968E+02 0.  0.
         23    2    4    4    0    0 -0.50860354237E+03 -0.11052075822E+02  0.80273976731E+03  0.95471776720E+03  0.91077819932E+02 0.  0.
          4    1    3    3  502    0  0.10044513031E+03  0.10801191281E+03  0.90743096436E+02  0.17317651995E+03  0.00000000000E+00 0. -1.
         -3    1    3    3    0  502  0.69639075919E+02  0.16377304924E+03  0.18929287516E+03  0.25981340447E+03  0.00000000000E+00 0.  1.
         13    1    5    5    0    0  0.31146906243E+03 -0.24926975754E+03  0.42714868542E+03  0.58446932198E+03  0.00000000000E+00 0. -1.
        -13    1    5    5    0    0  0.27050273714E+02 -0.11463128683E+02  0.77359805593E+02  0.82750590019E+02  0.00000000000E+00 0.  1.
          3    1    6    6  503    0 -0.42359760881E+03 -0.40839832307E+02  0.63683858639E+03  0.76594138888E+03  0.00000000000E+00 0. -1.
         -3    1    6    6    0  503 -0.85005933568E+02  0.29787756484E+02  0.16590118093E+03  0.18877637832E+03  0.00000000000E+00 0.  1.
<mgrwt>
<rscale>  0 0.13050886E+04</rscale>
<asrwt>0</asrwt>
<pdfrwt beam="1">  1        2 0.28017013E+00 0.13050886E+04</pdfrwt>
<pdfrwt beam="2">  1       -1 0.35972568E-01 0.13050886E+04</pdfrwt>
<totfact> 0.69263756E+01</totfact>
</mgrwt>
</event>
<event>
12    7  0.1660832E-007  0.1422810E+04  0.7818608E-02  0.8937471E-01
         -1   -1    0    0    0  501 -0.00000000000E+00  0.00000000000E+00  0.95584196837E+03  0.95584196837E+03  0.00000000000E+00 0.  1.
          2   -1    0    0  501    0  0.00000000000E+00 -0.00000000000E+00 -0.52947786101E+03  0.52947786101E+03  0.00000000000E+00 0. -1.
         24    2    1    2    0    0  0.24865765286E+03  0.15043033828E+03  0.44062343286E+03  0.53626213443E+03  0.94700328634E+02 0.  0.
        254    2    1    2    0    0 -0.24865765286E+03 -0.15043033828E+03 -0.14259325499E+02  0.94905769495E+03  0.90335334448E+03 0.  0.
         23    2    4    4    0    0 -0.51369147399E+03  0.99386222614E+02  0.13011082003E+03  0.54676651691E+03  0.90929900628E+02 0.  0.
         23    2    4    4    0    0  0.26503382114E+03 -0.24981656090E+03 -0.14437014553E+03  0.40229117804E+03  0.91346661496E+02 0.  0.
          4    1    3    3  502    0  0.67865684343E+02  0.36645433845E+00  0.13150932238E+03  0.14798847007E+03  0.00000000000E+00 0. -1.
         -3    1    3    3    0  502  0.18079196851E+03  0.15006388394E+03  0.30911411048E+03  0.38827366437E+03  0.00000000000E+00 0.  1.
         13    1    5    5    0    0 -0.42960083928E+03  0.59050901432E+02  0.13262681419E+03  0.45346858977E+03  0.00000000000E+00 0. -1.
        -13    1    5    5    0    0 -0.84090634718E+02  0.40335321182E+02 -0.25159941635E+01  0.93297927141E+02  0.00000000000E+00 0.  1.
          4    1    6    6  503    0  0.18847723069E+03 -0.11935697997E+03 -0.70586349294E+02  0.23399185427E+03  0.00000000000E+00 0. -1.
         -4    1    6    6    0  503  0.76556590441E+02 -0.13045958093E+03 -0.73783796231E+02  0.16829932377E+03  0.00000000000E+00 0.  1.
<mgrwt>
<rscale>  0 0.14228101E+04</rscale>
<asrwt>0</asrwt>
<pdfrwt beam="1">  1        2 0.81458133E-01 0.14228101E+04</pdfrwt>
<pdfrwt beam="2">  1       -1 0.14705261E+00 0.14228101E+04</pdfrwt>
<totfact> 0.23543268E+01</totfact>
</mgrwt>
</event>
<event>
12    7  0.1660832E-007  0.1889826E+04  0.7818608E-02  0.8659937E-01
         -1   -1    0    0    0  501 -0.00000000000E+00  0.00000000000E+00  0.48124648035E+03  0.48124648035E+03  0.00000000000E+00 0.  1.
          2   -1    0    0  501    0  0.00000000000E+00 -0.00000000000E+00 -0.18553075039E+04  0.18553075039E+04  0.00000000000E+00 0. -1.
         24    2    1    2    0    0  0.14522698307E+03  0.53128992507E+03  0.52301972952E+02  0.56041844773E+03  0.89294339638E+02 0.  0.
        254    2    1    2    0    0 -0.14522698307E+03 -0.53128992507E+03 -0.14263629965E+04  0.17761355365E+04  0.90376223932E+03 0.  0.
         23    2    4    4    0    0  0.46184840306E+02 -0.70921493419E+03 -0.12604915070E+04  0.14499827292E+04  0.92153206061E+02 0.  0.
         23    2    4    4    0    0 -0.19141182337E+03  0.17792500912E+03 -0.16587148948E+03  0.32615280731E+03  0.10279351973E+03 0.  0.
          4    1    3    3  502    0  0.96148599744E+02  0.39911443189E+03  0.14492417262E+01  0.41053499641E+03  0.00000000000E+00 0. -1.
         -3    1    3    3    0  502  0.49078383322E+02  0.13217549318E+03  0.50852731226E+02  0.14988345132E+03  0.00000000000E+00 0.  1.
         13    1    5    5    0    0  0.63880883819E+02 -0.29021664652E+03 -0.50914705837E+03  0.58952285475E+03  0.00000000000E+00 0.  1.
        -13    1    5    5    0    0 -0.17696043513E+02 -0.41899828767E+03 -0.75134444866E+03  0.86045987446E+03  0.00000000000E+00 0. -1.
          4    1    6    6  503    0 -0.11232299166E+03  0.16568954654E+03 -0.12813657500E+03  0.23767301518E+03  0.00000000000E+00 0. -1.
         -4    1    6    6    0  503 -0.79088831710E+02  0.12235462577E+02 -0.37734914476E+02  0.88479792135E+02  0.00000000000E+00 0.  1.
<mgrwt>
<rscale>  0 0.18898256E+04</rscale>
<asrwt>0</asrwt>
<pdfrwt beam="1">  1        2 0.28543193E+00 0.18898256E+04</pdfrwt>
<pdfrwt beam="2">  1       -1 0.74037919E-01 0.18898256E+04</pdfrwt>
<totfact> 0.15763243E+01</totfact>
</mgrwt>
</event>
<event>
12    7  0.1936565E-007  0.2499398E+04  0.7818608E-02  0.8403200E-01
          2   -1    0    0  501    0  0.00000000000E+00  0.00000000000E+00  0.20212569725E+04  0.20212569725E+04  0.00000000000E+00 0. -1.
         -1   -1    0    0    0  501 -0.00000000000E+00 -0.00000000000E+00 -0.77266150582E+03  0.77266150582E+03  0.00000000000E+00 0.  1.
         24    2    1    2    0    0  0.59885637521E+03  0.71488137127E+03 -0.19244641090E+02  0.93605864939E+03  0.78428985532E+02 0.  0.
        254    2    1    2    0    0 -0.59885637521E+03 -0.71488137127E+03  0.12678401078E+04  0.18578598289E+04  0.98718806312E+03 0.  0.
         23    2    4    4    0    0 -0.12264142450E+03  0.29604979507E+02 -0.12899314472E+03  0.20230103108E+03  0.91482796074E+02 0.  0.
         23    2    4    4    0    0 -0.47621495071E+03 -0.74448635078E+03  0.13968332525E+04  0.16555587979E+04  0.93226563163E+02 0.  0.
          2    1    3    3  502    0  0.19983262314E+01 -0.21138551678E+01  0.43219731333E+00  0.29408308206E+01  0.00000000000E+00 0. -1.
         -1    1    3    3    0  502  0.59685804898E+03  0.71699522644E+03 -0.19676838404E+02  0.93311781857E+03  0.00000000000E+00 0.  1.
         13    1    5    5    0    0 -0.95651350056E+02  0.23503473018E+02 -0.35338694924E+02  0.10464424194E+03  0.00000000000E+00 0. -1.
        -13    1    5    5    0    0 -0.26990074444E+02  0.61015064887E+01 -0.93654449795E+02  0.97656789146E+02  0.00000000000E+00 0.  1.
          4    1    6    6  503    0 -0.23201092930E+02 -0.61928393252E+02  0.14676130725E+03  0.16097297261E+03  0.00000000000E+00 0. -1.
         -4    1    6    6    0  503 -0.45301385778E+03 -0.68255795752E+03  0.12500719453E+04  0.14945858253E+04  0.00000000000E+00 0.  1.
<mgrwt>
<rscale>  0 0.24993979E+04</rscale>
<asrwt>0</asrwt>
<pdfrwt beam="1">  1        2 0.31096261E+00 0.24993979E+04</pdfrwt>
<pdfrwt beam="2">  1       -1 0.11887100E+00 0.24993979E+04</pdfrwt>
<totfact> 0.41803411E+00</totfact>
</mgrwt>
</event>
<event>
12    7  0.1660832E-007  0.1751548E+04  0.7818608E-02  0.8732499E-01
          2   -1    0    0  501    0  0.00000000000E+00  0.00000000000E+00  0.22705170354E+04  0.22705170354E+04  0.00000000000E+00 0. -1.
         -1   -1    0    0    0  501 -0.00000000000E+00 -0.00000000000E+00 -0.33779974203E+03  0.33779974203E+03  0.00000000000E+00 0.  1.
         24    2    1    2    0    0 -0.50469891129E+03  0.18975679021E+03  0.19150775217E+03  0.57766997801E+03  0.79364689008E+02 0.  0.
        254    2    1    2    0    0  0.50469891129E+03 -0.18975679021E+03  0.17412095412E+04  0.20306467994E+04  0.89497884171E+03 0.  0.
         23    2    4    4    0    0  0.61393518318E+03 -0.43361279575E+03  0.13488341777E+04  0.15473161454E+04  0.99484416029E+02 0.  0.
         23    2    4    4    0    0 -0.10923627189E+03  0.24385600554E+03  0.39237536348E+03  0.48333065401E+03  0.90839312571E+02 0.  0.
          4    1    3    3  502    0 -0.10085903491E+03  0.13797380273E+02  0.59012074435E+02  0.11766621246E+03  0.00000000000E+00 0. -1.
         -3    1    3    3    0  502 -0.40383987638E+03  0.17595940993E+03  0.13249567774E+03  0.46000376555E+03  0.00000000000E+00 0.  1.
         13    1    5    5    0    0  0.44302372232E+03 -0.30864015959E+03  0.10550888933E+04  0.11852178447E+04  0.00000000000E+00 0.  1.
        -13    1    5    5    0    0  0.17091146086E+03 -0.12497263616E+03  0.29374528441E+03  0.36209830068E+03  0.00000000000E+00 0. -1.
          4    1    6    6  503    0  0.14779746536E+02  0.38861129345E+02  0.73950190923E+02  0.84836660821E+02  0.00000000000E+00 0. -1.
         -4    1    6    6    0  503 -0.12401601843E+03  0.20499487620E+03  0.31842517255E+03  0.39849399319E+03  0.00000000000E+00 0.  1.
<mgrwt>
<rscale>  0 0.17515480E+04</rscale>
<asrwt>0</asrwt>
<pdfrwt beam="1">  1        2 0.34931030E+00 0.17515480E+04</pdfrwt>
<pdfrwt beam="2">  1       -1 0.51969192E-01 0.17515480E+04</pdfrwt>
<totfact> 0.18965610E+01</totfact>
</mgrwt>
</event>
<event>
12    7  0.1660832E-007  0.2481212E+04  0.7818608E-02  0.8409710E-01
         -1   -1    0    0    0  501 -0.00000000000E+00  0.00000000000E+00  0.11720603959E+04  0.11720603959E+04  0.00000000000E+00 0.  1.
          2   -1    0    0  501    0  0.00000000000E+00 -0.00000000000E+00 -0.13131598344E+04  0.13131598344E+04  0.00000000000E+00 0. -1.
         24    2    1    2    0    0  0.78606452765E+03  0.40939450273E+03 -0.66916287750E+03  0.11133197515E+04  0.78743964987E+02 0.  0.
        254    2    1    2    0    0 -0.78606452765E+03 -0.40939450273E+03  0.52806343893E+03  0.13719004788E+04  0.90430007612E+03 0.  0.
         23    2    4    4    0    0 -0.76970433251E+03  0.27785912858E+02  0.50419462701E+03  0.92507059508E+03  0.91250027609E+02 0.  0.
         23    2    4    4    0    0 -0.16360195136E+02 -0.43718041558E+03  0.23868811921E+02  0.44682988370E+03  0.87708910783E+02 0.  0.
          4    1    3    3  502    0  0.75838236433E+03  0.37647542461E+03 -0.63357914609E+03  0.10574970876E+04  0.00000000000E+00 0. -1.
         -3    1    3    3    0  502  0.27682163324E+02  0.32919078115E+02 -0.35583731402E+02  0.55822663952E+02  0.00000000000E+00 0.  1.
         13    1    5    5    0    0 -0.38503520915E+03 -0.27073700653E+02  0.22725827454E+03  0.44791898921E+03  0.00000000000E+00 0.  1.
        -13    1    5    5    0    0 -0.38466912337E+03  0.54859613510E+02  0.27693635247E+03  0.47715160587E+03  0.00000000000E+00 0. -1.
          2    1    6    6  503    0 -0.10388620262E+02 -0.17912909634E+03  0.52941407408E+02  0.18707738827E+03  0.00000000000E+00 0. -1.
         -2    1    6    6    0  503 -0.59715748743E+01 -0.25805131925E+03 -0.29072595487E+02  0.25975249543E+03  0.00000000000E+00 0.  1.
<mgrwt>
<rscale>  0 0.24812115E+04</rscale>
<asrwt>0</asrwt>
<pdfrwt beam="1">  1        2 0.20202459E+00 0.24812115E+04</pdfrwt>
<pdfrwt beam="2">  1       -1 0.18031698E+00 0.24812115E+04</pdfrwt>
<totfact> 0.34224830E+00</totfact>
</mgrwt>
</event>
<event>
12    7  0.1660832E-007  0.1853497E+04  0.7818608E-02  0.8678356E-01
         -1   -1    0    0    0  501 -0.00000000000E+00  0.00000000000E+00  0.79997324761E+03  0.79997324761E+03  0.00000000000E+00 0.  1.
          2   -1    0    0  501    0  0.00000000000E+00 -0.00000000000E+00 -0.10736148004E+04  0.10736148004E+04  0.00000000000E+00 0. -1.
         24    2    1    2    0    0 -0.28206495589E+03  0.15753166102E+03 -0.74460280954E+03  0.81555700068E+03  0.79517380615E+02 0.  0.
        254    2    1    2    0    0  0.28206495589E+03 -0.15753166102E+03  0.47096125680E+03  0.10580310473E+04  0.89064489448E+03 0.  0.
         23    2    4    4    0    0 -0.39622298771E+02 -0.21597244297E+02  0.64815279287E+03  0.65604403002E+03  0.90859005564E+02 0.  0.
         23    2    4    4    0    0  0.32168725466E+03 -0.13593441672E+03 -0.17719153608E+03  0.40198701727E+03  0.90751672909E+02 0.  0.
          2    1    3    3  502    0 -0.13488036470E+03  0.99625210632E+02 -0.46511293531E+03  0.49441676546E+03  0.00000000000E+00 0. -1.
         -1    1    3    3    0  502 -0.14718459119E+03  0.57906450388E+02 -0.27948987422E+03  0.32114023522E+03  0.00000000000E+00 0.  1.
         13    1    5    5    0    0  0.29543882571E+02 -0.72617276574E+01  0.16976986539E+03  0.17247429049E+03  0.00000000000E+00 0. -1.
        -13    1    5    5    0    0 -0.69166181342E+02 -0.14335516639E+02  0.47838292748E+03  0.48356973953E+03  0.00000000000E+00 0.  1.
          2    1    6    6  503    0  0.24881918417E+03 -0.73965398914E+02 -0.96818830640E+02  0.27704828571E+03  0.00000000000E+00 0.  1.
         -2    1    6    6    0  503  0.72868070494E+02 -0.61969017810E+02 -0.80372705436E+02  0.12493873156E+03  0.00000000000E+00 0. -1.
<mgrwt>
<rscale>  0 0.18534974E+04</rscale>
<asrwt>0</asrwt>
<pdfrwt beam="1">  1        2 0.16517151E+00 0.18534974E+04</pdfrwt>
<pdfrwt beam="2">  1       -1 0.12307281E+00 0.18534974E+04</pdfrwt>
<totfact> 0.14111383E+01</totfact>
</mgrwt>
</event>
<event>
12    7  0.1660832E-007  0.2137802E+04  0.7818608E-02  0.8544772E-01
         -1   -1    0    0    0  501 -0.00000000000E+00  0.00000000000E+00  0.74532824516E+03  0.74532824516E+03  0.00000000000E+00 0.  1.
          2   -1    0    0  501    0  0.00000000000E+00 -0.00000000000E+00 -0.15329474982E+04  0.15329474982E+04  0.00000000000E+00 0. -1.
         24    2    1    2    0    0  0.10763830611E+03  0.84867649944E+03 -0.11062617015E+03  0.86641656363E+03  0.81250886566E+02 0.  0.
        254    2    1    2    0    0 -0.10763830611E+03 -0.84867649944E+03 -0.67699308290E+03  0.14118591797E+04  0.89620806930E+03 0.  0.
         23    2    4    4    0    0 -0.26904813004E+03 -0.94821506559E+03 -0.68372977804E+03  0.12028126952E+04  0.88166112441E+02 0.  0.
         23    2    4    4    0    0  0.16140982393E+03  0.99538566154E+02  0.67366951439E+01  0.20904648457E+03  0.87715404782E+02 0.  0.
          2    1    3    3  502    0  0.87151848412E+02  0.77731071888E+03 -0.12087048248E+03  0.79146514257E+03  0.00000000000E+00 0. -1.
         -1    1    3    3    0  502  0.20486457696E+02  0.71365780553E+02  0.10244312332E+02  0.74951421054E+02  0.00000000000E+00 0.  1.
         13    1    5    5    0    0 -0.59049822026E+02 -0.11738858138E+03 -0.71197455977E+02  0.14945246153E+03  0.00000000000E+00 0. -1.
        -13    1    5    5    0    0 -0.20999830802E+03 -0.83082648421E+03 -0.61253232206E+03  0.10533602336E+04  0.00000000000E+00 0.  1.
          3    1    6    6  503    0  0.64630973006E+01  0.41058929794E+02 -0.95032870841E+01  0.42637070818E+02  0.00000000000E+00 0. -1.
         -3    1    6    6    0  503  0.15494672663E+03  0.58479636360E+02  0.16239982228E+02  0.16640941375E+03  0.00000000000E+00 0.  1.
<mgrwt>
<rscale>  0 0.21378017E+04</rscale>
<asrwt>0</asrwt>
<pdfrwt beam="1">  1        2 0.23583808E+00 0.21378017E+04</pdfrwt>
<pdfrwt beam="2">  1       -1 0.11466588E+00 0.21378017E+04</pdfrwt>
<totfact> 0.87983472E+00</totfact>
</mgrwt>
</event>
<event>
12    7  0.1660832E-007  0.2428162E+04  0.7818608E-02  0.8429035E-01
          2   -1    0    0  501    0  0.00000000000E+00  0.00000000000E+00  0.14614475846E+04  0.14614475846E+04  0.00000000000E+00 0. -1.
         -1   -1    0    0    0  501 -0.00000000000E+00 -0.00000000000E+00 -0.10085836612E+04  0.10085836612E+04  0.00000000000E+00 0.  1.
         24    2    1    2    0    0 -0.91629059448E+03 -0.18812117509E+03  0.67451628308E+03  0.11563940688E+04  0.85422457513E+02 0.  0.
        254    2    1    2    0    0  0.91629059448E+03  0.18812117509E+03 -0.22165235968E+03  0.13136371770E+04  0.89528477825E+03 0.  0.
         23    2    4    4    0    0  0.49224609702E+03  0.43864001684E+03 -0.40574257766E+03  0.77985254495E+03  0.93976955371E+02 0.  0.
         23    2    4    4    0    0  0.42404449746E+03 -0.25051884175E+03  0.18409021798E+03  0.53378463204E+03  0.91996734407E+02 0.  0.
          4    1    3    3  502    0 -0.62673320157E+03 -0.13737838127E+03  0.50929369631E+03  0.81917482547E+03  0.00000000000E+00 0. -1.
         -3    1    3    3    0  502 -0.28955739291E+03 -0.50742793812E+02  0.16522258677E+03  0.33721924336E+03  0.00000000000E+00 0.  1.
         13    1    5    5    0    0  0.38431542496E+03  0.28740683235E+03 -0.30285461585E+03  0.56746978024E+03  0.00000000000E+00 0. -1.
        -13    1    5    5    0    0  0.10793067206E+03  0.15123318449E+03 -0.10288796181E+03  0.21238276471E+03  0.00000000000E+00 0.  1.
          3    1    6    6  503    0  0.22035828181E+03 -0.14780610719E+03  0.14489784580E+03  0.30232400401E+03  0.00000000000E+00 0. -1.
         -3    1    6    6    0  503  0.20368621565E+03 -0.10271273457E+03  0.39192372180E+02  0.23146062803E+03  0.00000000000E+00 0.  1.
<mgrwt>
<rscale>  0 0.24281616E+04</rscale>
<asrwt>0</asrwt>
<pdfrwt beam="1">  1        2 0.22483809E+00 0.24281616E+04</pdfrwt>
<pdfrwt beam="2">  1       -1 0.15516672E+00 0.24281616E+04</pdfrwt>
<totfact> 0.43409456E+00</totfact>
</mgrwt>
</event>
<event>
12    7  0.1660832E-007  0.1208147E+04  0.7818608E-02  0.9105755E-01
         -1   -1    0    0    0  501 -0.00000000000E+00  0.00000000000E+00  0.53192982965E+03  0.53192982965E+03  0.00000000000E+00 0.  1.
          2   -1    0    0  501    0  0.00000000000E+00 -0.00000000000E+00 -0.68600194082E+03  0.68600194082E+03  0.00000000000E+00 0. -1.
         24    2    1    2    0    0 -0.19209868541E+03 -0.33116724023E+02 -0.11982408526E+03  0.24258010902E+03  0.80552315515E+02 0.  0.
        254    2    1    2    0    0  0.19209868541E+03  0.33116724023E+02 -0.34248025912E+02  0.97535166146E+03  0.95505984832E+03 0.  0.
         23    2    4    4    0    0  0.45282640428E+03 -0.24540304805E+03 -0.18637717003E+03  0.55502716885E+03  0.89690023103E+02 0.  0.
         23    2    4    4    0    0 -0.26072771887E+03  0.27851977207E+03  0.15212914412E+03  0.42032449261E+03  0.89315148619E+02 0.  0.
          2    1    3    3  502    0 -0.15571616921E+03  0.80687915062E+01 -0.90689878679E+02  0.18038094369E+03  0.00000000000E+00 0. -1.
         -1    1    3    3    0  502 -0.36382516195E+02 -0.41185515530E+02 -0.29134206585E+02  0.62199165328E+02  0.00000000000E+00 0.  1.
         13    1    5    5    0    0  0.33817356841E+03 -0.22449450801E+03 -0.13627840244E+03  0.42817163553E+03  0.00000000000E+00 0. -1.
        -13    1    5    5    0    0  0.11465283587E+03 -0.20908540036E+02 -0.50098767587E+02  0.12685553332E+03  0.00000000000E+00 0.  1.
          2    1    6    6  503    0 -0.23166264225E+03  0.19900008870E+03  0.13518113244E+03  0.33397987018E+03  0.00000000000E+00 0. -1.
         -2    1    6    6    0  503 -0.29065076626E+02  0.79519683370E+02  0.16948011670E+02  0.86344622427E+02  0.00000000000E+00 0.  1.
<mgrwt>
<rscale>  0 0.12081472E+04</rscale>
<asrwt>0</asrwt>
<pdfrwt beam="1">  1        2 0.10553876E+00 0.12081472E+04</pdfrwt>
<pdfrwt beam="2">  1       -1 0.81835359E-01 0.12081472E+04</pdfrwt>
<totfact> 0.70399739E+01</totfact>
</mgrwt>
</event>
<event>
12    7  0.1660832E-007  0.2343150E+04  0.7818608E-02  0.8461099E-01
         -1   -1    0    0    0  501 -0.00000000000E+00  0.00000000000E+00  0.97181416341E+03  0.97181416341E+03  0.00000000000E+00 0.  1.
          2   -1    0    0  501    0  0.00000000000E+00 -0.00000000000E+00 -0.14123980044E+04  0.14123980044E+04  0.00000000000E+00 0. -1.
         24    2    1    2    0    0  0.11967794146E+03  0.56249315890E+03 -0.10148606568E+04  0.11692140291E+04  0.79987059060E+02 0.  0.
        254    2    1    2    0    0 -0.11967794146E+03 -0.56249315890E+03  0.57427681580E+03  0.12149981387E+04  0.90316402304E+03 0.  0.
         23    2    4    4    0    0  0.36277056352E+03 -0.39140515477E+03  0.21026959325E+03  0.58049952660E+03  0.89252011732E+02 0.  0.
         23    2    4    4    0    0 -0.48244850498E+03 -0.17108800412E+03  0.36400722255E+03  0.63449861214E+03  0.89775083569E+02 0.  0.
          2    1    3    3  502    0  0.72564265638E+02  0.37290117632E+03 -0.59203327207E+03  0.70343745649E+03  0.00000000000E+00 0. -1.
         -1    1    3    3    0  502  0.47113675827E+02  0.18959198258E+03 -0.42282738476E+03  0.46577657263E+03  0.00000000000E+00 0.  1.
         13    1    5    5    0    0  0.13893698430E+03 -0.13777232595E+03  0.12311719631E+03  0.23117643356E+03  0.00000000000E+00 0.  1.
        -13    1    5    5    0    0  0.22383357921E+03 -0.25363282882E+03  0.87152396943E+02  0.34932309304E+03  0.00000000000E+00 0. -1.
          1    1    6    6  503    0 -0.29657154112E+03 -0.13036175563E+03  0.27262724665E+03  0.42340817417E+03  0.00000000000E+00 0. -1.
         -1    1    6    6    0  503 -0.18587696386E+03 -0.40726248495E+02  0.91379975897E+02  0.21109043798E+03  0.00000000000E+00 0.  1.
<mgrwt>
<rscale>  0 0.23431503E+04</rscale>
<asrwt>0</asrwt>
<pdfrwt beam="1">  1        2 0.21729200E+00 0.23431503E+04</pdfrwt>
<pdfrwt beam="2">  1       -1 0.14950987E+00 0.23431503E+04</pdfrwt>
<totfact> 0.51581072E+00</totfact>
</mgrwt>
</event>
<event>
12    7  0.1660832E-007  0.2626665E+04  0.7818608E-02  0.8359200E-01
          2   -1    0    0  501    0  0.00000000000E+00  0.00000000000E+00  0.44000969009E+04  0.44000969009E+04  0.00000000000E+00 0. -1.
         -3   -1    0    0    0  501 -0.00000000000E+00 -0.00000000000E+00 -0.39200084889E+03  0.39200084889E+03  0.00000000000E+00 0.  1.
         24    2    1    2    0    0  0.62701091370E+02 -0.64735165345E+03  0.35190193317E+04  0.35795037311E+04  0.79713950448E+02 0.  0.
        254    2    1    2    0    0 -0.62701091370E+02  0.64735165345E+03  0.48907672032E+03  0.12125940187E+04  0.89899534246E+03 0.  0.
         23    2    4    4    0    0  0.14950556426E+03  0.61197500259E+03  0.66611541330E+03  0.92123938505E+03  0.90038565044E+02 0.  0.
         23    2    4    4    0    0 -0.21220665563E+03  0.35376650863E+02 -0.17703869298E+03  0.29135463366E+03  0.85215325054E+02 0.  0.
          4    1    3    3  502    0  0.74731976307E+02 -0.50555638362E+03  0.26344428249E+04  0.26835538234E+04  0.00000000000E+00 0. -1.
         -3    1    3    3    0  502 -0.12030884937E+02 -0.14179526983E+03  0.88457650682E+03  0.89594990773E+03  0.00000000000E+00 0.  1.
         13    1    5    5    0    0  0.33130972129E+02  0.12993426508E+03  0.92028426438E+02  0.16263396272E+03  0.00000000000E+00 0. -1.
        -13    1    5    5    0    0  0.11637459213E+03  0.48204073751E+03  0.57408698686E+03  0.75860542233E+03  0.00000000000E+00 0.  1.
          3    1    6    6  503    0 -0.32261587476E+02  0.17106369785E+02  0.23749259502E+01  0.36593417263E+02  0.00000000000E+00 0. -1.
         -3    1    6    6    0  503 -0.17994506816E+03  0.18270281079E+02 -0.17941361893E+03  0.25476121640E+03  0.00000000000E+00 0.  1.
<mgrwt>
<rscale>  0 0.26266646E+04</rscale>
<asrwt>0</asrwt>
<pdfrwt beam="1">  1        2 0.67693795E+00 0.26266646E+04</pdfrwt>
<pdfrwt beam="2">  1       -3 0.60307826E-01 0.26266646E+04</pdfrwt>
<totfact> 0.23593190E-01</totfact>
</mgrwt>
</event>
<event>
12    7  0.1660832E-007  0.1255112E+04  0.7818608E-02  0.9065939E-01
          2   -1    0    0  501    0  0.00000000000E+00  0.00000000000E+00  0.18449015365E+04  0.18449015365E+04  0.00000000000E+00 0. -1.
         -1   -1    0    0    0  501 -0.00000000000E+00 -0.00000000000E+00 -0.21346749038E+03  0.21346749038E+03  0.00000000000E+00 0.  1.
         24    2    1    2    0    0 -0.16999282201E+02 -0.21999465095E+03  0.74084138589E+02  0.24160796968E+03  0.64802232841E+02 0.  0.
        254    2    1    2    0    0  0.16999282201E+02  0.21999465095E+03  0.15573499075E+04  0.18167610572E+04  0.90917291118E+03 0.  0.
         23    2    4    4    0    0 -0.24795039477E+03  0.42250377871E+03  0.51198268508E+03  0.71557406256E+03  0.99655044467E+02 0.  0.
         23    2    4    4    0    0  0.26494967697E+03 -0.20250912777E+03  0.10453672224E+04  0.11011869946E+04  0.92800265349E+02 0.  0.
          4    1    3    3  502    0  0.21740836713E+02 -0.46654921723E+02  0.25637526142E+02  0.57503290764E+02  0.00000000000E+00 0. -1.
         -3    1    3    3    0  502 -0.38740118914E+02 -0.17333972922E+03  0.48446612447E+02  0.18410467891E+03  0.00000000000E+00 0.  1.
         13    1    5    5    0    0 -0.16632758344E+03  0.18662190297E+03  0.24318825439E+03  0.34875941099E+03  0.00000000000E+00 0. -1.
        -13    1    5    5    0    0 -0.81622811333E+02  0.23588187574E+03  0.26879443069E+03  0.36681465157E+03  0.00000000000E+00 0.  1.
          1    1    6    6  503    0  0.13804004211E+03 -0.48204263072E+02  0.42602714612E+03  0.45041961928E+03  0.00000000000E+00 0. -1.
         -1    1    6    6    0  503  0.12690963487E+03 -0.15430486469E+03  0.61934007630E+03  0.65076737534E+03  0.00000000000E+00 0.  1.
<mgrwt>
<rscale>  0 0.12551119E+04</rscale>
<asrwt>0</asrwt>
<pdfrwt beam="1">  1        2 0.28383099E+00 0.12551119E+04</pdfrwt>
<pdfrwt beam="2">  1       -1 0.32841154E-01 0.12551119E+04</pdfrwt>
<totfact> 0.79370056E+01</totfact>
</mgrwt>
</event>
<event>
12    7  0.1660832E-007  0.1576807E+04  0.7818608E-02  0.8834924E-01
          2   -1    0    0  501    0  0.00000000000E+00  0.00000000000E+00  0.14242919303E+04  0.14242919303E+04  0.00000000000E+00 0. -1.
         -1   -1    0    0    0  501 -0.00000000000E+00 -0.00000000000E+00 -0.43641365899E+03  0.43641365899E+03  0.00000000000E+00 0.  1.
         24    2    1    2    0    0 -0.41391015221E+03  0.30316182335E+03  0.47441266080E+03  0.70373985573E+03  0.83388887570E+02 0.  0.
        254    2    1    2    0    0  0.41391015221E+03 -0.30316182335E+03  0.51346561055E+03  0.11569657336E+04  0.90094065856E+03 0.  0.
         23    2    4    4    0    0  0.30888166478E+03 -0.42273485388E+02 -0.20199238483E+03  0.38279911886E+03  0.92408395002E+02 0.  0.
         23    2    4    4    0    0  0.10502848744E+03 -0.26088833797E+03  0.71545799538E+03  0.77416661474E+03  0.91433561420E+02 0.  0.
          2    1    3    3  502    0 -0.32222876544E+03  0.26002262498E+03  0.41524590608E+03  0.58640626301E+03  0.00000000000E+00 0. -1.
         -1    1    3    3    0  502 -0.91681386771E+02  0.43139198375E+02  0.59166754721E+02  0.11733359272E+03  0.00000000000E+00 0.  1.
         13    1    5    5    0    0  0.55271148022E+02 -0.30378578220E+02 -0.86207026501E+01  0.63655905716E+02  0.00000000000E+00 0. -1.
        -13    1    5    5    0    0  0.25361051675E+03 -0.11894907168E+02 -0.19337168218E+03  0.31914321314E+03  0.00000000000E+00 0.  1.
          4    1    6    6  503    0  0.41969569630E+02 -0.68553888271E+02  0.11342698951E+03  0.13902072623E+03  0.00000000000E+00 0. -1.
         -4    1    6    6    0  503  0.63058917805E+02 -0.19233444969E+03  0.60203100587E+03  0.63514588850E+03  0.00000000000E+00 0.  1.
<mgrwt>
<rscale>  0 0.15768075E+04</rscale>
<asrwt>0</asrwt>
<pdfrwt beam="1">  1        2 0.21912183E+00 0.15768075E+04</pdfrwt>
<pdfrwt beam="2">  1       -1 0.67140564E-01 0.15768075E+04</pdfrwt>
<totfact> 0.34477871E+01</totfact>
</mgrwt>
</event>
<event>
12    7  0.1660832E-007  0.1849684E+04  0.7818608E-02  0.8680315E-01
          2   -1    0    0  501    0  0.00000000000E+00  0.00000000000E+00  0.12450456869E+04  0.12450456869E+04  0.00000000000E+00 0. -1.
         -1   -1    0    0    0  501 -0.00000000000E+00 -0.00000000000E+00 -0.68698938401E+03  0.68698938401E+03  0.00000000000E+00 0.  1.
         24    2    1    2    0    0 -0.57707778148E+03 -0.27865756259E+03 -0.88783627335E+02  0.65212084480E+03  0.81916180796E+02 0.  0.
        254    2    1    2    0    0  0.57707778148E+03  0.27865756259E+03  0.64683993024E+03  0.12799142261E+04  0.89950526836E+03 0.  0.
         23    2    4    4    0    0  0.45944626543E+03 -0.19910332524E+03  0.66246202247E+02  0.51317435550E+03  0.90699255229E+02 0.  0.
         23    2    4    4    0    0  0.11763151606E+03  0.47776088782E+03  0.58059372800E+03  0.76673987062E+03  0.93318340687E+02 0.  0.
          4    1    3    3  502    0 -0.10850424270E+03 -0.36435563752E+02 -0.44438879994E+02  0.12278247043E+03  0.00000000000E+00 0. -1.
         -3    1    3    3    0  502 -0.46857353879E+03 -0.24222199883E+03 -0.44344747340E+02  0.52933837437E+03  0.00000000000E+00 0.  1.
         13    1    5    5    0    0  0.10699278108E+03 -0.62839737107E+02  0.53383959759E+02  0.13507825481E+03  0.00000000000E+00 0. -1.
        -13    1    5    5    0    0  0.35245348434E+03 -0.13626358813E+03  0.12862242488E+02  0.37809610069E+03  0.00000000000E+00 0.  1.
          4    1    6    6  503    0  0.19813992189E+02  0.23703914708E+02  0.69872036108E+02  0.76397456037E+02  0.00000000000E+00 0. -1.
         -4    1    6    6    0  503  0.97817523870E+02  0.45405697311E+03  0.51072169189E+03  0.69034241458E+03  0.00000000000E+00 0.  1.
<mgrwt>
<rscale>  0 0.18496845E+04</rscale>
<asrwt>0</asrwt>
<pdfrwt beam="1">  1        2 0.19154549E+00 0.18496845E+04</pdfrwt>
<pdfrwt beam="2">  1       -1 0.10569067E+00 0.18496845E+04</pdfrwt>
<totfact> 0.16007686E+01</totfact>
</mgrwt>
</event>
<event>
12    7  0.1660832E-007  0.1450222E+04  0.7818608E-02  0.8918246E-01
         -1   -1    0    0    0  501 -0.00000000000E+00  0.00000000000E+00  0.14005496134E+03  0.14005496134E+03  0.00000000000E+00 0.  1.
          2   -1    0    0  501    0  0.00000000000E+00 -0.00000000000E+00 -0.37541410423E+04  0.37541410423E+04  0.00000000000E+00 0. -1.
         24    2    1    2    0    0  0.79402527852E+02  0.41610202284E+03 -0.11960241642E+04  0.12715134396E+04  0.82625484880E+02 0.  0.
        254    2    1    2    0    0 -0.79402527852E+02 -0.41610202284E+03 -0.24180619167E+04  0.26226825641E+04  0.92303561354E+03 0.  0.
         23    2    4    4    0    0  0.19043188671E+02 -0.65322147780E+03 -0.21081859858E+04  0.22088568028E+04  0.86829043492E+02 0.  0.
         23    2    4    4    0    0 -0.98445716522E+02  0.23711945495E+03 -0.30987593097E+03  0.41382576122E+03  0.96495974219E+02 0.  0.
          2    1    3    3  502    0  0.26619111818E+02  0.30289594567E+03 -0.90841186760E+03  0.95794919084E+03  0.00000000000E+00 0. -1.
         -1    1    3    3    0  502  0.52783416034E+02  0.11320607717E+03 -0.28761229664E+03  0.31356424875E+03  0.00000000000E+00 0.  1.
         13    1    5    5    0    0  0.37387279596E+02 -0.44441452241E+03 -0.13216600210E+04  0.13948789509E+04  0.00000000000E+00 0.  1.
        -13    1    5    5    0    0 -0.18344090925E+02 -0.20880695539E+03 -0.78652596475E+03  0.81397785198E+03  0.00000000000E+00 0. -1.
          2    1    6    6  503    0 -0.88807030527E+02  0.18497857081E+03 -0.17781653871E+03  0.27151884238E+03  0.00000000000E+00 0. -1.
         -2    1    6    6    0  503 -0.96386859954E+01  0.52140884147E+02 -0.13205939226E+03  0.14230691884E+03  0.00000000000E+00 0.  1.
<mgrwt>
<rscale>  0 0.14502222E+04</rscale>
<asrwt>0</asrwt>
<pdfrwt beam="1">  1        2 0.57756016E+00 0.14502222E+04</pdfrwt>
<pdfrwt beam="2">  1       -1 0.21546917E-01 0.14502222E+04</pdfrwt>
<totfact> 0.10818909E+01</totfact>
</mgrwt>
</event>
<event>
12    7  0.1660832E-007  0.3215825E+04  0.7818608E-02  0.8184650E-01
          2   -1    0    0  501    0  0.00000000000E+00  0.00000000000E+00  0.12510511528E+04  0.12510511528E+04  0.00000000000E+00 0. -1.
         -1   -1    0    0    0  501 -0.00000000000E+00 -0.00000000000E+00 -0.20665687511E+04  0.20665687511E+04  0.00000000000E+00 0.  1.
         24    2    1    2    0    0 -0.14678925556E+04 -0.10966187216E+03 -0.51342245661E+03  0.15609870672E+04  0.79647498691E+02 0.  0.
        254    2    1    2    0    0  0.14678925556E+04  0.10966187216E+03 -0.30209514165E+03  0.17566328368E+04  0.90981490847E+03 0.  0.
         23    2    4    4    0    0  0.90739244295E+03 -0.36296279372E+03 -0.79609925790E+02  0.98497261103E+03  0.93435908784E+02 0.  0.
         23    2    4    4    0    0  0.56050011261E+03  0.47262466588E+03 -0.22248521586E+03  0.77166022572E+03  0.91789877688E+02 0.  0.
          2    1    3    3  502    0 -0.10886727774E+04 -0.66506794104E+02 -0.34654634530E+03  0.11444325841E+04  0.00000000000E+00 0. -1.
         -1    1    3    3    0  502 -0.37921977812E+03 -0.43155078061E+02 -0.16687611131E+03  0.41655448311E+03  0.00000000000E+00 0.  1.
         13    1    5    5    0    0  0.73321069238E+03 -0.28441625613E+03 -0.10017580723E+03  0.79279613932E+03  0.00000000000E+00 0. -1.
        -13    1    5    5    0    0  0.17418175057E+03 -0.78546537591E+02  0.20565881439E+02  0.19217647171E+03  0.00000000000E+00 0.  1.
          4    1    6    6  503    0  0.35307384292E+03  0.31366633941E+03 -0.98641648913E+02  0.48247060629E+03  0.00000000000E+00 0. -1.
         -4    1    6    6    0  503  0.20742626969E+03  0.15895832648E+03 -0.12384356695E+03  0.28918961943E+03  0.00000000000E+00 0.  1.
<mgrwt>
<rscale>  0 0.32158254E+04</rscale>
<asrwt>0</asrwt>
<pdfrwt beam="1">  1        2 0.19246941E+00 0.32158254E+04</pdfrwt>
<pdfrwt beam="2">  1       -1 0.31793365E+00 0.32158254E+04</pdfrwt>
<totfact> 0.42706151E-01</totfact>
</mgrwt>
</event>
<event>
12    7  0.1660832E-007  0.1680104E+04  0.7818608E-02  0.8772794E-01
          2   -1    0    0  501    0  0.00000000000E+00  0.00000000000E+00  0.87855818488E+03  0.87855818488E+03  0.00000000000E+00 0. -1.
         -1   -1    0    0    0  501 -0.00000000000E+00 -0.00000000000E+00 -0.80323349451E+03  0.80323349451E+03  0.00000000000E+00 0.  1.
         24    2    1    2    0    0  0.52438709313E+03  0.28618100852E+03  0.39522354419E+02  0.60421815780E+03  0.81462707048E+02 0.  0.
        254    2    1    2    0    0 -0.52438709313E+03 -0.28618100852E+03  0.35802335956E+02  0.10775735216E+04  0.89610350634E+03 0.  0.
         23    2    4    4    0    0 -0.66526148535E+02 -0.11234920201E+03  0.41938634869E+03  0.44901429187E+03  0.93171096406E+02 0.  0.
         23    2    4    4    0    0 -0.45786094459E+03 -0.17383180651E+03 -0.38358401273E+03  0.62855922971E+03  0.89977046479E+02 0.  0.
          4    1    3    3  502    0  0.44787513556E+03  0.27359797370E+03  0.25733284579E+02  0.52546188273E+03  0.00000000000E+00 0. -1.
         -3    1    3    3    0  502  0.76511957571E+02  0.12583034823E+02  0.13789069840E+02  0.78756275075E+02  0.00000000000E+00 0.  1.
         13    1    5    5    0    0 -0.65851064960E+02 -0.12557233743E+03  0.40657563489E+03  0.43059089815E+03  0.00000000000E+00 0.  1.
        -13    1    5    5    0    0 -0.67508357484E+00  0.13223135419E+02  0.12810713804E+02  0.18423393724E+02  0.00000000000E+00 0. -1.
          3    1    6    6  503    0 -0.91661521480E+02 -0.65349798776E+01 -0.44097135997E+02  0.10192692424E+03  0.00000000000E+00 0. -1.
         -3    1    6    6    0  503 -0.36619942311E+03 -0.16729682663E+03 -0.33948687674E+03  0.52663230547E+03  0.00000000000E+00 0.  1.
<mgrwt>
<rscale>  0 0.16801040E+04</rscale>
<asrwt>0</asrwt>
<pdfrwt beam="1">  1        2 0.13516280E+00 0.16801040E+04</pdfrwt>
<pdfrwt beam="2">  1       -1 0.12357438E+00 0.16801040E+04</pdfrwt>
<totfact> 0.18997608E+01</totfact>
</mgrwt>
</event>
<event>
12    7  0.1660832E-007  0.2862164E+04  0.7818608E-02  0.8284224E-01
          2   -1    0    0  501    0  0.00000000000E+00  0.00000000000E+00  0.26564943272E+04  0.26564943272E+04  0.00000000000E+00 0. -1.
         -1   -1    0    0    0  501 -0.00000000000E+00 -0.00000000000E+00 -0.77093945996E+03  0.77093945996E+03  0.00000000000E+00 0.  1.
         24    2    1    2    0    0  0.38568845904E+03 -0.35556966904E+03  0.22555625685E+04  0.23171418840E+04  0.79991457472E+02 0.  0.
        254    2    1    2    0    0 -0.38568845904E+03  0.35556966904E+03 -0.37000770129E+03  0.11102919031E+04  0.90590122758E+03 0.  0.
         23    2    4    4    0    0 -0.49868071397E+03 -0.11104487515E+03 -0.41580895329E+02  0.52162067758E+03  0.96673376060E+02 0.  0.
         23    2    4    4    0    0  0.11299225493E+03  0.46661454419E+03 -0.32842680596E+03  0.58867122554E+03  0.90406097024E+02 0.  0.
          4    1    3    3  502    0  0.28928721635E+03 -0.21944673349E+03  0.16012421461E+04  0.16418953599E+04  0.00000000000E+00 0. -1.
         -3    1    3    3    0  502  0.96401242689E+02 -0.13612293555E+03  0.65432042241E+03  0.67524652413E+03  0.00000000000E+00 0.  1.
         13    1    5    5    0    0 -0.39665426598E+03 -0.12739412721E+03 -0.35259939991E+02  0.41809943044E+03  0.00000000000E+00 0. -1.
        -13    1    5    5    0    0 -0.10202644799E+03  0.16349252061E+02 -0.63209553385E+01  0.10352124714E+03  0.00000000000E+00 0.  1.
          3    1    6    6  503    0 -0.10963788379E+02  0.59538541950E+02 -0.22505604724E+02  0.64587497839E+02  0.00000000000E+00 0. -1.
         -3    1    6    6    0  503  0.12395604330E+03  0.40707600224E+03 -0.30592120124E+03  0.52408372770E+03  0.00000000000E+00 0.  1.
<mgrwt>
<rscale>  0 0.28621644E+04</rscale>
<asrwt>0</asrwt>
<pdfrwt beam="1">  1        2 0.40869143E+00 0.28621644E+04</pdfrwt>
<pdfrwt beam="2">  1       -1 0.11860607E+00 0.28621644E+04</pdfrwt>
<totfact> 0.17662122E+00</totfact>
</mgrwt>
</event>
<event>
12    7  0.1660832E-007  0.1399735E+04  0.7818608E-02  0.8954010E-01
          2   -1    0    0  501    0  0.00000000000E+00  0.00000000000E+00  0.86114658130E+03  0.86114658130E+03  0.00000000000E+00 0. -1.
         -1   -1    0    0    0  501 -0.00000000000E+00 -0.00000000000E+00 -0.56879345344E+03  0.56879345344E+03  0.00000000000E+00 0.  1.
         24    2    1    2    0    0 -0.40252383312E+03  0.15169557973E+02  0.35774362277E+02  0.41188310830E+03  0.78181443998E+02 0.  0.
        254    2    1    2    0    0  0.40252383312E+03 -0.15169557973E+02  0.25657876559E+03  0.10180569264E+04  0.89908380634E+03 0.  0.
         23    2    4    4    0    0  0.67982747793E+03  0.29226035419E+02  0.21869818693E+03  0.72116486442E+03  0.96074470115E+02 0.  0.
         23    2    4    4    0    0 -0.27730364481E+03 -0.44395593392E+02  0.37880578655E+02  0.29689206203E+03  0.88553250167E+02 0.  0.
          4    1    3    3  502    0 -0.30368624347E+03  0.73671807608E+01  0.60407928298E+02  0.30972363105E+03  0.00000000000E+00 0. -1.
         -3    1    3    3    0  502 -0.98837589648E+02  0.78023772122E+01 -0.24633566020E+02  0.10215947725E+03  0.00000000000E+00 0.  1.
         13    1    5    5    0    0  0.56511625603E+03  0.28981863084E+02  0.21814619702E+03  0.60645205457E+03  0.00000000000E+00 0. -1.
        -13    1    5    5    0    0  0.11471122191E+03  0.24417233503E+00  0.55198990799E+00  0.11471280985E+03  0.00000000000E+00 0.  1.
          1    1    6    6  503    0 -0.19479457619E+03 -0.62614925194E+02  0.52263271834E+02  0.21118003067E+03  0.00000000000E+00 0. -1.
         -1    1    6    6    0  503 -0.82509068623E+02  0.18219331802E+02 -0.14382693179E+02  0.85712031357E+02  0.00000000000E+00 0.  1.
<mgrwt>
<rscale>  0 0.13997350E+04</rscale>
<asrwt>0</asrwt>
<pdfrwt beam="1">  1        2 0.13248409E+00 0.13997350E+04</pdfrwt>
<pdfrwt beam="2">  1       -1 0.87506685E-01 0.13997350E+04</pdfrwt>
<totfact> 0.44524612E+01</totfact>
</mgrwt>
</event>
<event>
12    7  0.1660832E-007  0.1929138E+04  0.7818608E-02  0.8640487E-01
          2   -1    0    0  501    0  0.00000000000E+00  0.00000000000E+00  0.64103770097E+03  0.64103770097E+03  0.00000000000E+00 0. -1.
         -1   -1    0    0    0  501 -0.00000000000E+00 -0.00000000000E+00 -0.14513867031E+04  0.14513867031E+04  0.00000000000E+00 0.  1.
         24    2    1    2    0    0 -0.29864515116E+03  0.53978113203E+03  0.14715605354E+03  0.63914487392E+03  0.79364154091E+02 0.  0.
        254    2    1    2    0    0  0.29864515116E+03 -0.53978113203E+03 -0.95750505563E+03  0.14532795301E+04  0.90258122307E+03 0.  0.
         23    2    4    4    0    0 -0.13160657162E+03 -0.52728797152E+03 -0.21847378655E+03  0.59310961209E+03  0.93248710090E+02 0.  0.
         23    2    4    4    0    0  0.43025172278E+03 -0.12493160511E+02 -0.73903126908E+03  0.86016991802E+03  0.91937191390E+02 0.  0.
          2    1    3    3  502    0 -0.28462998152E+03  0.45978408738E+03  0.12866564822E+03  0.55585113333E+03  0.00000000000E+00 0. -1.
         -1    1    3    3    0  502 -0.14015169640E+02  0.79997044653E+02  0.18490405324E+02  0.83293740595E+02  0.00000000000E+00 0.  1.
         13    1    5    5    0    0 -0.14128722276E+03 -0.52103272567E+03 -0.21479107964E+03  0.58100980063E+03  0.00000000000E+00 0.  1.
        -13    1    5    5    0    0  0.96806511391E+01 -0.62552458575E+01 -0.36827069100E+01  0.12099811461E+02  0.00000000000E+00 0. -1.
          4    1    6    6  503    0  0.18485875255E+03  0.12102331819E+02 -0.40110839416E+03  0.44182255340E+03  0.00000000000E+00 0. -1.
         -4    1    6    6    0  503  0.24539297024E+03 -0.24595492330E+02 -0.33792287492E+03  0.41834736461E+03  0.00000000000E+00 0.  1.
<mgrwt>
<rscale>  0 0.19291382E+04</rscale>
<asrwt>0</asrwt>
<pdfrwt beam="1">  1        2 0.98621186E-01 0.19291382E+04</pdfrwt>
<pdfrwt beam="2">  1       -1 0.22329026E+00 0.19291382E+04</pdfrwt>
<totfact> 0.51047878E+00</totfact>
</mgrwt>
</event>
<event>
12    7  0.1660832E-007  0.1718433E+04  0.7818608E-02  0.8750921E-01
          2   -1    0    0  501    0  0.00000000000E+00  0.00000000000E+00  0.21231575405E+04  0.21231575405E+04  0.00000000000E+00 0. -1.
         -1   -1    0    0    0  501 -0.00000000000E+00 -0.00000000000E+00 -0.34771451857E+03  0.34771451857E+03  0.00000000000E+00 0.  1.
         24    2    1    2    0    0  0.55127144821E+03  0.20514664078E+03  0.38462863457E+03  0.70779597881E+03  0.83967894156E+02 0.  0.
        254    2    1    2    0    0 -0.55127144821E+03 -0.20514664078E+03  0.13908143873E+04  0.17630760802E+04  0.90999299496E+03 0.  0.
         23    2    4    4    0    0 -0.78975310290E+03 -0.84990402907E+02  0.10785768143E+04  0.13428636186E+04  0.94981165422E+02 0.  0.
         23    2    4    4    0    0  0.23848165469E+03 -0.12015623788E+03  0.31223757303E+03  0.42021246160E+03  0.88177036395E+02 0.  0.
          2    1    3    3  502    0  0.58214429803E+02  0.48507664169E+02  0.63734924534E+02  0.99015422666E+02  0.00000000000E+00 0. -1.
         -1    1    3    3    0  502  0.49305701840E+03  0.15663897661E+03  0.32089371004E+03  0.60878055614E+03  0.00000000000E+00 0.  1.
         13    1    5    5    0    0 -0.22789740880E+03 -0.68113448814E+02  0.31873598615E+03  0.39770504109E+03  0.00000000000E+00 0.  1.
        -13    1    5    5    0    0 -0.56185569410E+03 -0.16876954093E+02  0.75984082814E+03  0.94515857753E+03  0.00000000000E+00 0. -1.
          4    1    6    6  503    0  0.23236823870E+03 -0.88021369991E+02  0.27390140619E+03  0.36981717137E+03  0.00000000000E+00 0. -1.
         -4    1    6    6    0  503  0.61134159974E+01 -0.32134867885E+02  0.38336166845E+02  0.50395290232E+02  0.00000000000E+00 0.  1.
<mgrwt>
<rscale>  0 0.17184327E+04</rscale>
<asrwt>0</asrwt>
<pdfrwt beam="1">  1        2 0.32663961E+00 0.17184327E+04</pdfrwt>
<pdfrwt beam="2">  1       -1 0.53494543E-01 0.17184327E+04</pdfrwt>
<totfact> 0.21765188E+01</totfact>
</mgrwt>
</event>
<event>
12    7  0.1660832E-007  0.1435848E+04  0.7818608E-02  0.8928271E-01
          2   -1    0    0  501    0  0.00000000000E+00  0.00000000000E+00  0.18378345390E+04  0.18378345390E+04  0.00000000000E+00 0. -1.
         -1   -1    0    0    0  501 -0.00000000000E+00 -0.00000000000E+00 -0.28044689847E+03  0.28044689847E+03  0.00000000000E+00 0.  1.
         24    2    1    2    0    0  0.29584385937E+03 -0.11569898483E+03  0.47090763593E+02  0.33094967648E+03  0.80001900779E+02 0.  0.
        254    2    1    2    0    0 -0.29584385937E+03  0.11569898483E+03  0.15102968770E+04  0.17873317610E+04  0.90147009000E+03 0.  0.
         23    2    4    4    0    0  0.12742999826E+03 -0.24854992062E+03  0.18929674634E+03  0.35026135354E+03  0.93990904422E+02 0.  0.
         23    2    4    4    0    0 -0.42327385763E+03  0.36424890544E+03  0.13210001306E+04  0.14370704075E+04  0.91060349561E+02 0.  0.
          4    1    3    3  502    0  0.87354217886E+02 -0.38371199219E+02  0.51733504177E+02  0.10853323807E+03  0.00000000000E+00 0. -1.
         -3    1    3    3    0  502  0.20848964148E+03 -0.77327785608E+02 -0.46427405834E+01  0.22241643841E+03  0.00000000000E+00 0.  1.
         13    1    5    5    0    0 -0.12424538506E+02 -0.20073521989E+02  0.31479504550E+02  0.39348121287E+02  0.00000000000E+00 0. -1.
        -13    1    5    5    0    0  0.13985453677E+03 -0.22847639863E+03  0.15781724179E+03  0.31091323225E+03  0.00000000000E+00 0.  1.
          4    1    6    6  503    0 -0.25998420614E+03  0.26893412629E+03  0.94134617718E+03  0.10129412505E+04  0.00000000000E+00 0. -1.
         -4    1    6    6    0  503 -0.16328965149E+03  0.95314779148E+02  0.37965395347E+03  0.42412915697E+03  0.00000000000E+00 0.  1.
<mgrwt>
<rscale>  0 0.14358482E+04</rscale>
<asrwt>0</asrwt>
<pdfrwt beam="1">  1        2 0.28274377E+00 0.14358482E+04</pdfrwt>
<pdfrwt beam="2">  1       -1 0.43145678E-01 0.14358482E+04</pdfrwt>
<totfact> 0.48165997E+01</totfact>
</mgrwt>
</event>
<event>
12    7  0.1660832E-007  0.1789068E+04  0.7818608E-02  0.8712135E-01
          2   -1    0    0  501    0  0.00000000000E+00  0.00000000000E+00  0.28289271639E+04  0.28289271639E+04  0.00000000000E+00 0. -1.
         -1   -1    0    0    0  501 -0.00000000000E+00 -0.00000000000E+00 -0.28286023660E+03  0.28286023660E+03  0.00000000000E+00 0.  1.
         24    2    1    2    0    0 -0.33152412104E+02  0.40471222253E+03  0.35590399914E+02  0.41543142654E+03  0.80159391836E+02 0.  0.
        254    2    1    2    0    0  0.33152412104E+02 -0.40471222253E+03  0.25104765274E+04  0.26963559740E+04  0.89607593334E+03 0.  0.
         23    2    4    4    0    0  0.18009249156E+03  0.56685102815E+02  0.19055889705E+04  0.19171315787E+04  0.92074205279E+02 0.  0.
         23    2    4    4    0    0 -0.14694007945E+03 -0.46139732534E+03  0.60488755692E+03  0.77922439527E+03  0.82600380651E+02 0.  0.
          2    1    3    3  502    0  0.64802495276E+00  0.23764780648E+02  0.22546924528E+02  0.32765050607E+02  0.00000000000E+00 0. -1.
         -1    1    3    3    0  502 -0.33800437057E+02  0.38094744188E+03  0.13043475385E+02  0.38266637593E+03  0.00000000000E+00 0.  1.
         13    1    5    5    0    0  0.17645423306E+03  0.71973214945E+02  0.18319012007E+04  0.18417867003E+04  0.00000000000E+00 0.  1.
        -13    1    5    5    0    0  0.36382584962E+01 -0.15288112131E+02  0.73687769779E+02  0.75344878475E+02  0.00000000000E+00 0. -1.
          4    1    6    6  503    0 -0.15194360377E+03 -0.42098990094E+03  0.52759975834E+03  0.69186766106E+03  0.00000000000E+00 0.  1.
         -4    1    6    6    0  503  0.50035243163E+01 -0.40407424399E+02  0.77287798577E+02  0.87356734205E+02  0.00000000000E+00 0. -1.
<mgrwt>
<rscale>  0 0.17890679E+04</rscale>
<asrwt>0</asrwt>
<pdfrwt beam="1">  1        2 0.43521955E+00 0.17890679E+04</pdfrwt>
<pdfrwt beam="2">  1       -1 0.43516961E-01 0.17890679E+04</pdfrwt>
<totfact> 0.12490413E+01</totfact>
</mgrwt>
</event>
<event>
12    7  0.1660832E-007  0.1230284E+04  0.7818608E-02  0.9086754E-01
          2   -1    0    0  501    0  0.00000000000E+00  0.00000000000E+00  0.31348301444E+04  0.31348301444E+04  0.00000000000E+00 0. -1.
         -1   -1    0    0    0  501 -0.00000000000E+00 -0.00000000000E+00 -0.12070821760E+03  0.12070821760E+03  0.00000000000E+00 0.  1.
         24    2    1    2    0    0  0.50101591065E+01  0.13093362606E+03  0.13308954394E+04  0.13396973458E+04  0.79608991395E+02 0.  0.
        254    2    1    2    0    0 -0.50101591065E+01 -0.13093362606E+03  0.16832264873E+04  0.19158410162E+04  0.90555324274E+03 0.  0.
         23    2    4    4    0    0 -0.43819672475E+03 -0.43215023713E+02  0.66852669771E+03  0.80524003769E+03  0.87176056951E+02 0.  0.
         23    2    4    4    0    0  0.43318656564E+03 -0.87718602348E+02  0.10146997896E+04  0.11106009785E+04  0.92052791709E+02 0.  0.
          4    1    3    3  502    0  0.14279501296E+01  0.11610589994E+03  0.13006511853E+04  0.13058239257E+04  0.00000000000E+00 0. -1.
         -3    1    3    3    0  502  0.35822089769E+01  0.14827726118E+02  0.30244254151E+02  0.33873420142E+02  0.00000000000E+00 0.  1.
         13    1    5    5    0    0 -0.25278010170E+03 -0.28959790888E+02  0.46123177639E+03  0.52675535199E+03  0.00000000000E+00 0. -1.
        -13    1    5    5    0    0 -0.18541662305E+03 -0.14255232825E+02  0.20729492132E+03  0.27848468570E+03  0.00000000000E+00 0.  1.
          2    1    6    6  503    0  0.19500732733E+03 -0.54626568341E+02  0.35874454262E+03  0.41195820970E+03  0.00000000000E+00 0. -1.
         -2    1    6    6    0  503  0.23817923831E+03 -0.33092034007E+02  0.65595524701E+03  0.69864276878E+03  0.00000000000E+00 0.  1.
<mgrwt>
<rscale>  0 0.12302841E+04</rscale>
<asrwt>0</asrwt>
<pdfrwt beam="1">  1        2 0.48228150E+00 0.12302841E+04</pdfrwt>
<pdfrwt beam="2">  1       -1 0.18570497E-01 0.12302841E+04</pdfrwt>
<totfact> 0.37716640E+01</totfact>
</mgrwt>
</event>
<event>
12    7  0.1660832E-007  0.1216061E+04  0.7818608E-02  0.9098914E-01
         -1   -1    0    0    0  501 -0.00000000000E+00  0.00000000000E+00  0.29113957538E+03  0.29113957538E+03  0.00000000000E+00 0.  1.
          2   -1    0    0  501    0  0.00000000000E+00 -0.00000000000E+00 -0.12698406762E+04  0.12698406762E+04  0.00000000000E+00 0. -1.
         24    2    1    2    0    0  0.19069273692E+03  0.55200916409E+02 -0.45931770922E+03  0.50585772582E+03  0.74218728608E+02 0.  0.
        254    2    1    2    0    0 -0.19069273692E+03 -0.55200916409E+02 -0.51938339158E+03  0.10551225257E+04  0.89672380129E+03 0.  0.
         23    2    4    4    0    0 -0.15252628939E+03  0.40633723126E+03 -0.28410057004E+03  0.52780043573E+03  0.97395849960E+02 0.  0.
         23    2    4    4    0    0 -0.38166447538E+02 -0.46153814767E+03 -0.23528282154E+03  0.52732209002E+03  0.90754840319E+02 0.  0.
          4    1    3    3  502    0  0.12471233048E+03  0.66422493670E+02 -0.35298918013E+03  0.38021898207E+03  0.00000000000E+00 0. -1.
         -3    1    3    3    0  502  0.65980406448E+02 -0.11221577261E+02 -0.10632852909E+03  0.12563874374E+03  0.00000000000E+00 0.  1.
         13    1    5    5    0    0 -0.16073298455E+03  0.40490575628E+03 -0.28276147052E+03  0.51936289144E+03  0.00000000000E+00 0.  1.
        -13    1    5    5    0    0  0.82066951604E+01  0.14314749807E+01 -0.13390995212E+01  0.84375442875E+01  0.00000000000E+00 0. -1.
          1    1    6    6  503    0 -0.30240092807E+02 -0.12197915287E+03 -0.25884204476E+02  0.12830966055E+03  0.00000000000E+00 0. -1.
         -1    1    6    6    0  503 -0.79263547301E+01 -0.33955899480E+03 -0.20939861706E+03  0.39901242947E+03  0.00000000000E+00 0.  1.
<mgrwt>
<rscale>  0 0.12160606E+04</rscale>
<asrwt>0</asrwt>
<pdfrwt beam="1">  1        2 0.19536010E+00 0.12160606E+04</pdfrwt>
<pdfrwt beam="2">  1       -1 0.44790704E-01 0.12160606E+04</pdfrwt>
<totfact> 0.95528966E+01</totfact>
</mgrwt>
</event>
<event>
12    7  0.1660832E-007  0.1473831E+04  0.7818608E-02  0.8902044E-01
          2   -1    0    0  501    0  0.00000000000E+00  0.00000000000E+00  0.33180736492E+04  0.33180736492E+04  0.00000000000E+00 0. -1.
         -1   -1    0    0    0  501 -0.00000000000E+00 -0.00000000000E+00 -0.16366267438E+03  0.16366267438E+03  0.00000000000E+00 0.  1.
         24    2    1    2    0    0  0.29999980503E+03 -0.32172206172E+03  0.74201228712E+03  0.86649688131E+03  0.82034401649E+02 0.  0.
        254    2    1    2    0    0 -0.29999980503E+03  0.32172206172E+03  0.24123986877E+04  0.26152394423E+04  0.90901317043E+03 0.  0.
         23    2    4    4    0    0 -0.16372173523E+03  0.58441279455E+03  0.20422320829E+04  0.21324710602E+04  0.91530437122E+02 0.  0.
         23    2    4    4    0    0 -0.13627806980E+03 -0.26269073282E+03  0.37016660478E+03  0.48276838211E+03  0.91999250297E+02 0.  0.
          4    1    3    3  502    0  0.11228350615E+03 -0.73258831377E+02  0.26224661035E+03  0.29452967043E+03  0.00000000000E+00 0. -1.
         -3    1    3    3    0  502  0.18771629888E+03 -0.24846323035E+03  0.47976567678E+03  0.57196721087E+03  0.00000000000E+00 0.  1.
         13    1    5    5    0    0 -0.10944992088E+03  0.39518768210E+03  0.15209049481E+04  0.15752156838E+04  0.00000000000E+00 0.  1.
        -13    1    5    5    0    0 -0.54271814343E+02  0.18922511245E+03  0.52132713481E+03  0.55725537638E+03  0.00000000000E+00 0. -1.
          3    1    6    6  503    0 -0.88446555955E+02 -0.83757705628E+02  0.17969897371E+03  0.21709414471E+03  0.00000000000E+00 0. -1.
         -3    1    6    6    0  503 -0.47831513844E+02 -0.17893302719E+03  0.19046763107E+03  0.26567423741E+03  0.00000000000E+00 0.  1.
<mgrwt>
<rscale>  0 0.14738315E+04</rscale>
<asrwt>0</asrwt>
<pdfrwt beam="1">  1        2 0.51047282E+00 0.14738315E+04</pdfrwt>
<pdfrwt beam="2">  1       -1 0.25178876E-01 0.14738315E+04</pdfrwt>
<totfact> 0.16723808E+01</totfact>
</mgrwt>
</event>
<event>
12    7  0.1660832E-007  0.1343414E+04  0.7818608E-02  0.8995829E-01
         -1   -1    0    0    0  501 -0.00000000000E+00  0.00000000000E+00  0.44693225325E+03  0.44693225325E+03  0.00000000000E+00 0.  1.
          2   -1    0    0  501    0  0.00000000000E+00 -0.00000000000E+00 -0.10095273981E+04  0.10095273981E+04  0.00000000000E+00 0. -1.
         24    2    1    2    0    0 -0.12306368620E+02  0.17914529492E+02  0.23776054811E+03  0.25161366557E+03  0.79416505753E+02 0.  0.
        254    2    1    2    0    0  0.12306368620E+02 -0.17914529492E+02 -0.80035569292E+03  0.12048459857E+04  0.90034006746E+03 0.  0.
         23    2    4    4    0    0 -0.14199745315E+02  0.42125140326E+03 -0.50904257128E+03  0.66715282266E+03  0.91182080984E+02 0.  0.
         23    2    4    4    0    0  0.26506113935E+02 -0.43916593275E+03 -0.29131312164E+03  0.53769316308E+03  0.10335043406E+03 0.  0.
          2    1    3    3  502    0  0.15619068319E+02  0.33436658304E+02  0.56002613493E+02  0.67069054949E+02  0.00000000000E+00 0. -1.
         -1    1    3    3    0  502 -0.27925436940E+02 -0.15522128813E+02  0.18175793462E+03  0.18454461062E+03  0.00000000000E+00 0.  1.
         13    1    5    5    0    0 -0.26866236244E+02  0.40640196695E+03 -0.50190907973E+03  0.64637224392E+03  0.00000000000E+00 0. -1.
        -13    1    5    5    0    0  0.12666490929E+02  0.14849436309E+02 -0.71334915483E+01  0.20780578742E+02  0.00000000000E+00 0.  1.
          3    1    6    6  503    0  0.60177574653E+01 -0.42445334078E+03 -0.28617867358E+03  0.51195222933E+03  0.00000000000E+00 0. -1.
         -3    1    6    6    0  503  0.20488356470E+02 -0.14712591964E+02 -0.51344480553E+01  0.25740933743E+02  0.00000000000E+00 0.  1.
<mgrwt>
<rscale>  0 0.13434141E+04</rscale>
<asrwt>0</asrwt>
<pdfrwt beam="1">  1        2 0.15531190E+00 0.13434141E+04</pdfrwt>
<pdfrwt beam="2">  1       -1 0.68758809E-01 0.13434141E+04</pdfrwt>
<totfact> 0.59273337E+01</totfact>
</mgrwt>
</event>
<event>
12    7  0.1660832E-007  0.1578745E+04  0.7818608E-02  0.8833713E-01
         -1   -1    0    0    0  501 -0.00000000000E+00  0.00000000000E+00  0.59024164223E+03  0.59024164223E+03  0.00000000000E+00 0.  1.
          2   -1    0    0  501    0  0.00000000000E+00 -0.00000000000E+00 -0.10556844093E+04  0.10556844093E+04  0.00000000000E+00 0. -1.
         24    2    1    2    0    0 -0.29479817196E+03 -0.41166282503E+03 -0.32370279517E+03  0.60662228609E+03  0.82673179913E+02 0.  0.
        254    2    1    2    0    0  0.29479817196E+03  0.41166282503E+03 -0.14173997191E+03  0.10393037655E+04  0.89648750887E+03 0.  0.
         23    2    4    4    0    0 -0.72002922545E+01 -0.20586154841E+03 -0.25159474681E+03  0.33712825396E+03  0.89020905815E+02 0.  0.
         23    2    4    4    0    0  0.30199846422E+03  0.61752437344E+03  0.10985477491E+03  0.70217551150E+03  0.91885543967E+02 0.  0.
          4    1    3    3  502    0 -0.28628925640E+03 -0.40030068781E+03 -0.29290084699E+03  0.57270680558E+03  0.00000000000E+00 0. -1.
         -3    1    3    3    0  502 -0.85089155615E+01 -0.11362137216E+02 -0.30801948186E+02  0.33915480510E+02  0.00000000000E+00 0.  1.
         13    1    5    5    0    0 -0.36057544341E+02 -0.12270951548E+03 -0.10212287268E+03  0.16366689591E+03  0.00000000000E+00 0.  1.
        -13    1    5    5    0    0  0.28857252087E+02 -0.83152032929E+02 -0.14947187414E+03  0.17346135805E+03  0.00000000000E+00 0. -1.
          1    1    6    6  503    0  0.14322106916E+02  0.93313489262E+02  0.11324385157E+01  0.94412988734E+02  0.00000000000E+00 0. -1.
         -1    1    6    6    0  503  0.28767635730E+03  0.52421088418E+03  0.10872233639E+03  0.60776252276E+03  0.00000000000E+00 0.  1.
<mgrwt>
<rscale>  0 0.15787449E+04</rscale>
<asrwt>0</asrwt>
<pdfrwt beam="1">  1        2 0.16241298E+00 0.15787449E+04</pdfrwt>
<pdfrwt beam="2">  1       -1 0.90806409E-01 0.15787449E+04</pdfrwt>
<totfact> 0.30132051E+01</totfact>
</mgrwt>
</event>
<event>
12    7  0.1660832E-007  0.2047689E+04  0.7818608E-02  0.8584643E-01
         -1   -1    0    0    0  501 -0.00000000000E+00  0.00000000000E+00  0.84902419138E+03  0.84902419138E+03  0.00000000000E+00 0.  1.
          2   -1    0    0  501    0  0.00000000000E+00 -0.00000000000E+00 -0.12346618480E+04  0.12346618480E+04  0.00000000000E+00 0. -1.
         24    2    1    2    0    0 -0.59180310537E+02  0.41807253334E+02 -0.99526478411E+03  0.10010923394E+04  0.79898222135E+02 0.  0.
        254    2    1    2    0    0  0.59180310537E+02 -0.41807253334E+02  0.60962712749E+03  0.10825937000E+04  0.89169149886E+03 0.  0.
         23    2    4    4    0    0  0.61254713161E+02 -0.29878993439E+02 -0.21935320111E+03  0.24856949506E+03  0.95005646689E+02 0.  0.
         23    2    4    4    0    0 -0.20744026244E+01 -0.11928259895E+02  0.82898032860E+03  0.83402420494E+03  0.90782171687E+02 0.  0.
          2    1    3    3  502    0 -0.75479812012E+02  0.17246707591E+02 -0.65724734621E+03  0.66179205574E+03  0.00000000000E+00 0. -1.
         -1    1    3    3    0  502  0.16299501476E+02  0.24560545744E+02 -0.33801743790E+03  0.33930028364E+03  0.00000000000E+00 0.  1.
         13    1    5    5    0    0  0.42757599975E+02 -0.63693301998E+02 -0.12521160277E+03  0.14684343548E+03  0.00000000000E+00 0. -1.
        -13    1    5    5    0    0  0.18497113186E+02  0.33814308558E+02 -0.94141598343E+02  0.10172605958E+03  0.00000000000E+00 0.  1.
          3    1    6    6  503    0  0.15598211406E+02  0.21427912492E+02  0.67370939279E+03  0.67423052851E+03  0.00000000000E+00 0. -1.
         -3    1    6    6    0  503 -0.17672614031E+02 -0.33356172387E+02  0.15527093581E+03  0.15979367644E+03  0.00000000000E+00 0.  1.
<mgrwt>
<rscale>  0 0.20476892E+04</rscale>
<asrwt>0</asrwt>
<pdfrwt beam="1">  1        2 0.18994798E+00 0.20476892E+04</pdfrwt>
<pdfrwt beam="2">  1       -1 0.13061911E+00 0.20476892E+04</pdfrwt>
<totfact> 0.95493369E+00</totfact>
</mgrwt>
</event>
<event>
12    7  0.1660832E-007  0.2157702E+04  0.7818608E-02  0.8536243E-01
          2   -1    0    0  501    0  0.00000000000E+00  0.00000000000E+00  0.11400365627E+04  0.11400365627E+04  0.00000000000E+00 0. -1.
         -1   -1    0    0    0  501 -0.00000000000E+00 -0.00000000000E+00 -0.10209489447E+04  0.10209489447E+04  0.00000000000E+00 0.  1.
         24    2    1    2    0    0 -0.53684807594E+03  0.47930997425E+03  0.57108108465E+03  0.92226181809E+03  0.80556488356E+02 0.  0.
        254    2    1    2    0    0  0.53684807594E+03 -0.47930997425E+03 -0.45199346665E+03  0.12387236893E+04  0.90121827348E+03 0.  0.
         23    2    4    4    0    0 -0.38303655958E+02 -0.54561695478E+02 -0.50358401205E+03  0.51639589324E+03  0.92863947188E+02 0.  0.
         23    2    4    4    0    0  0.57515173190E+03 -0.42474827877E+03  0.51590545393E+02  0.72232779606E+03  0.88798905163E+02 0.  0.
          2    1    3    3  502    0 -0.50786005345E+03  0.44028584144E+03  0.50745417101E+03  0.84218952246E+03  0.00000000000E+00 0. -1.
         -1    1    3    3    0  502 -0.28988022494E+02  0.39024132804E+02  0.63626913639E+02  0.80072295636E+02  0.00000000000E+00 0.  1.
         13    1    5    5    0    0 -0.46464145167E+02  0.11277083142E+02 -0.19759794754E+03  0.20330036464E+03  0.00000000000E+00 0.  1.
        -13    1    5    5    0    0  0.81604892087E+01 -0.65838778620E+02 -0.30598606451E+03  0.31309552860E+03  0.00000000000E+00 0. -1.
          4    1    6    6  503    0  0.47271406470E+03 -0.30915675411E+03  0.57587176429E+02  0.56776118964E+03  0.00000000000E+00 0. -1.
         -4    1    6    6    0  503  0.10243766720E+03 -0.11559152466E+03 -0.59966310357E+01  0.15456660642E+03  0.00000000000E+00 0.  1.
<mgrwt>
<rscale>  0 0.21577017E+04</rscale>
<asrwt>0</asrwt>
<pdfrwt beam="1">  1        2 0.17539024E+00 0.21577017E+04</pdfrwt>
<pdfrwt beam="2">  1       -1 0.15706907E+00 0.21577017E+04</pdfrwt>
<totfact> 0.66244534E+00</totfact>
</mgrwt>
</event>
<event>
12    7  0.1660832E-007  0.2524586E+04  0.7818608E-02  0.8394279E-01
          2   -1    0    0  501    0  0.00000000000E+00  0.00000000000E+00  0.86104527861E+03  0.86104527861E+03  0.00000000000E+00 0. -1.
         -3   -1    0    0    0  501 -0.00000000000E+00 -0.00000000000E+00 -0.18505228108E+04  0.18505228108E+04  0.00000000000E+00 0.  1.
         24    2    1    2    0    0  0.50462828031E+03  0.40674277696E+01  0.61796202445E+03  0.80193453339E+03  0.80967196533E+02 0.  0.
        254    2    1    2    0    0 -0.50462828031E+03 -0.40674277696E+01 -0.16074395567E+04  0.19096335560E+04  0.89898395135E+03 0.  0.
         23    2    4    4    0    0 -0.42185205095E+03  0.29926588157E+03 -0.14571274181E+04  0.15487017364E+04  0.87963259330E+02 0.  0.
         23    2    4    4    0    0 -0.82776229367E+02 -0.30333330934E+03 -0.15031213853E+03  0.36093181961E+03  0.93888437607E+02 0.  0.
          4    1    3    3  502    0  0.48247893126E+03  0.10279353098E+02  0.55814408547E+03  0.73784578630E+03  0.00000000000E+00 0. -1.
         -3    1    3    3    0  502  0.22149349051E+02 -0.62119253281E+01  0.59817938975E+02  0.64088747084E+02  0.00000000000E+00 0.  1.
         13    1    5    5    0    0 -0.41105521099E+03  0.26830363448E+03 -0.13866485958E+04  0.14709682373E+04  0.00000000000E+00 0.  1.
        -13    1    5    5    0    0 -0.10796839955E+02  0.30962247083E+02 -0.70478822293E+02  0.77733499145E+02  0.00000000000E+00 0. -1.
          1    1    6    6  503    0 -0.25115827296E+02 -0.23034135534E+02 -0.43999559814E+02  0.55653728037E+02  0.00000000000E+00 0. -1.
         -1    1    6    6    0  503 -0.57660402071E+02 -0.28029917380E+03 -0.10631257872E+03  0.30527809157E+03  0.00000000000E+00 0.  1.
<mgrwt>
<rscale>  0 0.25245862E+04</rscale>
<asrwt>0</asrwt>
<pdfrwt beam="1">  1        2 0.13246850E+00 0.25245862E+04</pdfrwt>
<pdfrwt beam="2">  1       -3 0.28469582E+00 0.25245862E+04</pdfrwt>
<totfact> 0.80468434E-01</totfact>
</mgrwt>
</event>
<event>
12    7  0.1660832E-007  0.2888867E+04  0.7818608E-02  0.8276198E-01
          2   -1    0    0  501    0  0.00000000000E+00  0.00000000000E+00  0.28410162686E+04  0.28410162686E+04  0.00000000000E+00 0. -1.
         -1   -1    0    0    0  501 -0.00000000000E+00 -0.00000000000E+00 -0.73438090326E+03  0.73438090326E+03  0.00000000000E+00 0.  1.
         24    2    1    2    0    0 -0.67428129026E+03 -0.35935267600E+02  0.23282963835E+04  0.24254789176E+04  0.77700248041E+02 0.  0.
        254    2    1    2    0    0  0.67428129026E+03  0.35935267600E+02 -0.22166101819E+03  0.11499182542E+04  0.90400872924E+03 0.  0.
         23    2    4    4    0    0  0.81800338167E+03  0.20217569278E+03 -0.29944527713E+03  0.89896015593E+03  0.91963823247E+02 0.  0.
         23    2    4    4    0    0 -0.14372209140E+03 -0.16624042518E+03  0.77784258943E+02  0.25095809828E+03  0.92938999527E+02 0.  0.
          2    1    3    3  502    0 -0.40022453961E+03 -0.14194718990E+02  0.15116941967E+04  0.15638415893E+04  0.00000000000E+00 0. -1.
         -1    1    3    3    0  502 -0.27405675065E+03 -0.21740548610E+02  0.81660218680E+03  0.86163732830E+03  0.00000000000E+00 0.  1.
         13    1    5    5    0    0  0.31038090381E+03  0.96841731651E+02 -0.15845895115E+03  0.36169581922E+03  0.00000000000E+00 0. -1.
        -13    1    5    5    0    0  0.50762247785E+03  0.10533396113E+03 -0.14098632598E+03  0.53726433671E+03  0.00000000000E+00 0.  1.
          3    1    6    6  503    0 -0.82270118791E+01 -0.70515341168E+02  0.97852299904E+01  0.71664829522E+02  0.00000000000E+00 0. -1.
         -3    1    6    6    0  503 -0.13549507953E+03 -0.95725084012E+02  0.67999028952E+02  0.17929326876E+03  0.00000000000E+00 0.  1.
<mgrwt>
<rscale>  0 0.28888670E+04</rscale>
<asrwt>0</asrwt>
<pdfrwt beam="1">  1        2 0.43707942E+00 0.28888670E+04</pdfrwt>
<pdfrwt beam="2">  1       -1 0.11298168E+00 0.28888670E+04</pdfrwt>
<totfact> 0.15344160E+00</totfact>
</mgrwt>
</event>
<event>
12    7  0.1660832E-007  0.1280911E+04  0.7818608E-02  0.9044841E-01
         -1   -1    0    0    0  501 -0.00000000000E+00  0.00000000000E+00  0.14311438742E+03  0.14311438742E+03  0.00000000000E+00 0.  1.
          2   -1    0    0  501    0  0.00000000000E+00 -0.00000000000E+00 -0.28661235841E+04  0.28661235841E+04  0.00000000000E+00 0. -1.
         24    2    1    2    0    0 -0.21902326873E+03 -0.15022756106E+03 -0.29581113952E+03  0.40549684684E+03  0.79899625703E+02 0.  0.
        254    2    1    2    0    0  0.21902326873E+03  0.15022756106E+03 -0.24271980572E+04  0.26037411247E+04  0.90423333457E+03 0.  0.
         23    2    4    4    0    0  0.45519976170E+03  0.19010739164E+03 -0.22099681316E+04  0.22661594101E+04  0.90397377255E+02 0.  0.
         23    2    4    4    0    0 -0.23617649297E+03 -0.39879830583E+02 -0.21722992556E+03  0.33758171460E+03  0.96968225498E+02 0.  0.
          2    1    3    3  502    0 -0.84289846426E+01 -0.37534000726E+02 -0.38961732496E+02  0.54752767891E+02  0.00000000000E+00 0. -1.
         -1    1    3    3    0  502 -0.21059428408E+03 -0.11269356033E+03 -0.25684940702E+03  0.35074407895E+03  0.00000000000E+00 0.  1.
         13    1    5    5    0    0  0.44044657206E+03  0.16777016896E+03 -0.20165086534E+04  0.20708566251E+04  0.00000000000E+00 0.  1.
        -13    1    5    5    0    0  0.14753189638E+02  0.22337222686E+02 -0.19345947820E+03  0.19530278499E+03  0.00000000000E+00 0. -1.
          4    1    6    6  503    0 -0.10855222361E+03  0.29195826936E+02 -0.81142517142E+02  0.13863653793E+03  0.00000000000E+00 0.  1.
         -4    1    6    6    0  503 -0.12762426936E+03 -0.69075657519E+02 -0.13608740841E+03  0.19894517667E+03  0.00000000000E+00 0. -1.
<mgrwt>
<rscale>  0 0.12809114E+04</rscale>
<asrwt>0</asrwt>
<pdfrwt beam="1">  1        2 0.44094210E+00 0.12809114E+04</pdfrwt>
<pdfrwt beam="2">  1       -1 0.22017598E-01 0.12809114E+04</pdfrwt>
<totfact> 0.41388566E+01</totfact>
</mgrwt>
</event>
<event>
12    7  0.1660832E-007  0.2024493E+04  0.7818608E-02  0.8595254E-01
          2   -1    0    0  501    0  0.00000000000E+00  0.00000000000E+00  0.22214789604E+04  0.22214789604E+04  0.00000000000E+00 0. -1.
         -1   -1    0    0    0  501 -0.00000000000E+00 -0.00000000000E+00 -0.46124342575E+03  0.46124342575E+03  0.00000000000E+00 0.  1.
         24    2    1    2    0    0  0.17246979196E+03  0.55458843391E+03  0.14762693917E+04  0.15884018430E+04  0.79592321157E+02 0.  0.
        254    2    1    2    0    0 -0.17246979196E+03 -0.55458843391E+03  0.28396614289E+03  0.10943205432E+04  0.88294196904E+03 0.  0.
         23    2    4    4    0    0 -0.23244964550E+03  0.17415010972E+03  0.90893893409E-01  0.30419039560E+03  0.90391869681E+02 0.  0.
         23    2    4    4    0    0  0.59979853531E+02 -0.72873854364E+03  0.28387524899E+03  0.79013014756E+03  0.95200027735E+02 0.  0.
          4    1    3    3  502    0  0.14146135034E+03  0.40682097105E+03  0.11741075796E+04  0.12506171375E+04  0.00000000000E+00 0. -1.
         -3    1    3    3    0  502  0.31008441624E+02  0.14776746287E+03  0.30216181208E+03  0.33778470542E+03  0.00000000000E+00 0.  1.
         13    1    5    5    0    0 -0.12575434894E+03  0.46259822378E+02  0.23379414787E+02  0.13601736830E+03  0.00000000000E+00 0. -1.
        -13    1    5    5    0    0 -0.10669529655E+03  0.12789028734E+03 -0.23288520894E+02  0.16817302729E+03  0.00000000000E+00 0.  1.
          4    1    6    6  503    0  0.19122609075E+02 -0.53505306344E+02  0.45834804423E+02  0.73002200523E+02  0.00000000000E+00 0. -1.
         -4    1    6    6    0  503  0.40857244457E+02 -0.67523323729E+03  0.23804044457E+03  0.71712794704E+03  0.00000000000E+00 0.  1.
<mgrwt>
<rscale>  0 0.20244926E+04</rscale>
<asrwt>0</asrwt>
<pdfrwt beam="1">  1        2 0.34176599E+00 0.20244926E+04</pdfrwt>
<pdfrwt beam="2">  1       -1 0.70960528E-01 0.20244926E+04</pdfrwt>
<totfact> 0.10634360E+01</totfact>
</mgrwt>
</event>
<event>
12    7  0.1660832E-007  0.3119370E+04  0.7818608E-02  0.8210442E-01
         -1   -1    0    0    0  501 -0.00000000000E+00  0.00000000000E+00  0.22431759390E+04  0.22431759390E+04  0.00000000000E+00 0.  1.
          2   -1    0    0  501    0  0.00000000000E+00 -0.00000000000E+00 -0.10844521129E+04  0.10844521129E+04  0.00000000000E+00 0. -1.
         24    2    1    2    0    0 -0.26777408532E+03 -0.18340722916E+03 -0.95172142453E+03  0.10091910179E+04  0.85741869619E+02 0.  0.
        254    2    1    2    0    0  0.26777408532E+03  0.18340722916E+03  0.21104452506E+04  0.23184370341E+04  0.90323305558E+03 0.  0.
         23    2    4    4    0    0 -0.31654182278E+03 -0.89133554083E+01  0.59824689915E+03  0.68338264507E+03  0.93991030298E+02 0.  0.
         23    2    4    4    0    0  0.58431590810E+03  0.19232058457E+03  0.15121983515E+04  0.16350543890E+04  0.90811415199E+02 0.  0.
          4    1    3    3  502    0 -0.23084593863E+03 -0.16953807117E+03 -0.89781581941E+03  0.94239389352E+03  0.00000000000E+00 0. -1.
         -3    1    3    3    0  502 -0.36928146689E+02 -0.13869157991E+02 -0.53905605128E+02  0.66797124380E+02  0.00000000000E+00 0.  1.
         13    1    5    5    0    0 -0.72095999801E+02 -0.42252039181E+02  0.14633177567E+03  0.16851129509E+03  0.00000000000E+00 0. -1.
        -13    1    5    5    0    0 -0.24444582298E+03  0.33338683772E+02  0.45191512347E+03  0.51487134998E+03  0.00000000000E+00 0.  1.
          1    1    6    6  503    0  0.33092956186E+03  0.11428890202E+03  0.97584658471E+03  0.10367511201E+04  0.00000000000E+00 0. -1.
         -1    1    6    6    0  503  0.25338634624E+03  0.78031682547E+02  0.53635176675E+03  0.59830326895E+03  0.00000000000E+00 0.  1.
<mgrwt>
<rscale>  0 0.31193697E+04</rscale>
<asrwt>0</asrwt>
<pdfrwt beam="1">  1        2 0.16683879E+00 0.31193697E+04</pdfrwt>
<pdfrwt beam="2">  1       -1 0.34510399E+00 0.31193697E+04</pdfrwt>
<totfact> 0.36008034E-01</totfact>
</mgrwt>
</event>
<event>
12    7  0.1660832E-007  0.1325340E+04  0.7818608E-02  0.9009708E-01
         -1   -1    0    0    0  501 -0.00000000000E+00  0.00000000000E+00  0.20763441920E+04  0.20763441920E+04  0.00000000000E+00 0.  1.
          2   -1    0    0  501    0  0.00000000000E+00 -0.00000000000E+00 -0.21149276141E+03  0.21149276141E+03  0.00000000000E+00 0. -1.
         24    2    1    2    0    0  0.31575945296E+03  0.13418289736E+03  0.58680322668E+03  0.68429573351E+03  0.78826023583E+02 0.  0.
        254    2    1    2    0    0 -0.31575945296E+03 -0.13418289736E+03  0.12780482039E+04  0.16035412199E+04  0.90566448000E+03 0.  0.
         23    2    4    4    0    0 -0.19731697743E+03  0.25737267787E+03  0.10959112195E+04  0.11466017904E+04  0.92193165389E+02 0.  0.
         23    2    4    4    0    0 -0.11844247552E+03 -0.39155557523E+03  0.18213698439E+03  0.45693942952E+03  0.90969075304E+02 0.  0.
          4    1    3    3  502    0  0.66638198359E+01  0.16918770533E+02  0.56806011909E+02  0.59645404519E+02  0.00000000000E+00 0. -1.
         -3    1    3    3    0  502  0.30909563312E+03  0.11726412683E+03  0.52999721477E+03  0.62465032900E+03  0.00000000000E+00 0.  1.
         13    1    5    5    0    0 -0.83697031053E+02  0.48557409202E+02  0.25528266443E+03  0.27300595919E+03  0.00000000000E+00 0.  1.
        -13    1    5    5    0    0 -0.11361994638E+03  0.20881526867E+03  0.84062855510E+03  0.87359583121E+03  0.00000000000E+00 0. -1.
          4    1    6    6  503    0 -0.11433588558E+03 -0.23439190909E+03  0.97774516436E+02  0.27851771550E+03  0.00000000000E+00 0. -1.
         -4    1    6    6    0  503 -0.41065899385E+01 -0.15716366614E+03  0.84362467958E+02  0.17842171402E+03  0.00000000000E+00 0.  1.
<mgrwt>
<rscale>  0 0.13253404E+04</rscale>
<asrwt>0</asrwt>
<pdfrwt beam="1">  1        2 0.32537349E-01 0.13253404E+04</pdfrwt>
<pdfrwt beam="2">  1       -1 0.31943755E+00 0.13253404E+04</pdfrwt>
<totfact> 0.45252971E+00</totfact>
</mgrwt>
</event>
<event>
12    7  0.1660832E-007  0.1212511E+04  0.7818608E-02  0.9101976E-01
         -1   -1    0    0    0  501 -0.00000000000E+00  0.00000000000E+00  0.34741600130E+03  0.34741600130E+03  0.00000000000E+00 0.  1.
          2   -1    0    0  501    0  0.00000000000E+00 -0.00000000000E+00 -0.10579409414E+04  0.10579409414E+04  0.00000000000E+00 0. -1.
         24    2    1    2    0    0 -0.65649812437E+02  0.15888678273E+03 -0.40864025776E+03  0.44964068133E+03  0.75066466885E+02 0.  0.
        254    2    1    2    0    0  0.65649812437E+02 -0.15888678273E+03 -0.30188468230E+03  0.95571626133E+03  0.89033943143E+03 0.  0.
         23    2    4    4    0    0 -0.34172687257E+03  0.94798043875E+02  0.26584170109E+02  0.36679149699E+03  0.89807347185E+02 0.  0.
         23    2    4    4    0    0  0.40737668500E+03 -0.25368482660E+03 -0.32846885241E+03  0.58892476434E+03  0.92891529843E+02 0.  0.
          4    1    3    3  502    0 -0.79534951931E+02  0.15187863299E+03 -0.38350887303E+03  0.42008568581E+03  0.00000000000E+00 0. -1.
         -3    1    3    3    0  502  0.13885139494E+02  0.70081497397E+01 -0.25131384733E+02  0.29554995519E+02  0.00000000000E+00 0.  1.
         13    1    5    5    0    0 -0.19785209762E+03  0.57306298264E+02  0.59715332733E+02  0.21446534759E+03  0.00000000000E+00 0. -1.
        -13    1    5    5    0    0 -0.14387477494E+03  0.37491745611E+02 -0.33131162624E+02  0.15232614940E+03  0.00000000000E+00 0.  1.
          4    1    6    6  503    0  0.31383979817E+03 -0.23437918995E+03 -0.28240146503E+03  0.48288674764E+03  0.00000000000E+00 0. -1.
         -4    1    6    6    0  503  0.93536886833E+02 -0.19305636647E+02 -0.46067387385E+02  0.10603801670E+03  0.00000000000E+00 0.  1.
<mgrwt>
<rscale>  0 0.12125108E+04</rscale>
<asrwt>0</asrwt>
<pdfrwt beam="1">  1        2 0.16276015E+00 0.12125108E+04</pdfrwt>
<pdfrwt beam="2">  1       -1 0.53448615E-01 0.12125108E+04</pdfrwt>
<totfact> 0.91876428E+01</totfact>
</mgrwt>
</event>
<event>
12    7  0.1660832E-007  0.1383591E+04  0.7818608E-02  0.8965782E-01
          2   -1    0    0  501    0  0.00000000000E+00  0.00000000000E+00  0.46927816539E+03  0.46927816539E+03  0.00000000000E+00 0. -1.
         -1   -1    0    0    0  501 -0.00000000000E+00 -0.00000000000E+00 -0.10198242263E+04  0.10198242263E+04  0.00000000000E+00 0.  1.
         24    2    1    2    0    0 -0.22700507737E+02  0.36008886556E+03 -0.29423131206E+03  0.47237761804E+03  0.79932752199E+02 0.  0.
        254    2    1    2    0    0  0.22700507737E+02 -0.36008886556E+03 -0.25631474881E+03  0.10167247736E+04  0.91534294703E+03 0.  0.
         23    2    4    4    0    0  0.53036966862E+02 -0.94505873872E+02 -0.57423916789E+03  0.59190169583E+03  0.94088870419E+02 0.  0.
         23    2    4    4    0    0 -0.30336459125E+02 -0.26558299169E+03  0.31792441908E+03  0.42482307778E+03  0.89129596324E+02 0.  0.
          4    1    3    3  502    0 -0.61010775741E+01  0.43967507098E+02 -0.70110896776E+01  0.44939072158E+02  0.00000000000E+00 0. -1.
         -3    1    3    3    0  502 -0.16599430163E+02  0.31612135846E+03 -0.28722022239E+03  0.42743854588E+03  0.00000000000E+00 0.  1.
         13    1    5    5    0    0 -0.18724962138E+02 -0.38646740002E+02 -0.97084415958E+02  0.10615827119E+03  0.00000000000E+00 0. -1.
        -13    1    5    5    0    0  0.71761929000E+02 -0.55859133869E+02 -0.47715475194E+03  0.48574342464E+03  0.00000000000E+00 0.  1.
          4    1    6    6  503    0  0.19393539542E+02 -0.36069087881E+02  0.20305426627E+02  0.45709942322E+02  0.00000000000E+00 0. -1.
         -4    1    6    6    0  503 -0.49729998667E+02 -0.22951390381E+03  0.29761899246E+03  0.37911313546E+03  0.00000000000E+00 0.  1.
<mgrwt>
<rscale>  0 0.13835913E+04</rscale>
<asrwt>0</asrwt>
<pdfrwt beam="1">  1        2 0.72196641E-01 0.13835913E+04</pdfrwt>
<pdfrwt beam="2">  1       -1 0.15689603E+00 0.13835913E+04</pdfrwt>
<totfact> 0.22793863E+01</totfact>
</mgrwt>
</event>
<event>
12    7  0.1660832E-007  0.1332688E+04  0.7818608E-02  0.9004037E-01
         -1   -1    0    0    0  501 -0.00000000000E+00  0.00000000000E+00  0.69861831991E+03  0.69861831991E+03  0.00000000000E+00 0.  1.
          2   -1    0    0  501    0  0.00000000000E+00 -0.00000000000E+00 -0.63556113410E+03  0.63556113410E+03  0.00000000000E+00 0. -1.
         24    2    1    2    0    0 -0.22236903696E+03 -0.18793991480E+03  0.21424331911E+03  0.37029582817E+03  0.80308159022E+02 0.  0.
        254    2    1    2    0    0  0.22236903696E+03  0.18793991480E+03 -0.15118613330E+03  0.96388362584E+03  0.90633602879E+03 0.  0.
         23    2    4    4    0    0  0.23658741690E+03 -0.26311563652E+03  0.16922293048E+03  0.40293739808E+03  0.92296817673E+02 0.  0.
         23    2    4    4    0    0 -0.14218379940E+02  0.45105555132E+03 -0.32040906379E+03  0.56094622776E+03  0.91353322753E+02 0.  0.
          4    1    3    3  502    0 -0.65225921141E+02 -0.31471173160E+02  0.19088680932E+02  0.74894814697E+02  0.00000000000E+00 0. -1.
         -3    1    3    3    0  502 -0.15714311581E+03 -0.15646874164E+03  0.19515463818E+03  0.29540101348E+03  0.00000000000E+00 0.  1.
         13    1    5    5    0    0  0.22096120453E+03 -0.25354951901E+03  0.18022551111E+03  0.38156578378E+03  0.00000000000E+00 0.  1.
        -13    1    5    5    0    0  0.15626212360E+02 -0.95661175123E+01 -0.11002580629E+02  0.21371614293E+02  0.00000000000E+00 0. -1.
          4    1    6    6  503    0 -0.31321599316E+02  0.61806580335E+02 -0.65463665527E+02  0.95323593410E+02  0.00000000000E+00 0. -1.
         -4    1    6    6    0  503  0.17103219376E+02  0.38924897099E+03 -0.25494539826E+03  0.46562263435E+03  0.00000000000E+00 0.  1.
<mgrwt>
<rscale>  0 0.13326885E+04</rscale>
<asrwt>0</asrwt>
<pdfrwt beam="1">  1        2 0.97778636E-01 0.13326885E+04</pdfrwt>
<pdfrwt beam="2">  1       -1 0.10747974E+00 0.13326885E+04</pdfrwt>
<totfact> 0.41657776E+01</totfact>
</mgrwt>
</event>
<event>
12    7  0.1660832E-007  0.1331824E+04  0.7818608E-02  0.9004702E-01
         -1   -1    0    0    0  501 -0.00000000000E+00  0.00000000000E+00  0.31479169861E+03  0.31479169861E+03  0.00000000000E+00 0.  1.
          2   -1    0    0  501    0  0.00000000000E+00 -0.00000000000E+00 -0.14086737537E+04  0.14086737537E+04  0.00000000000E+00 0. -1.
         24    2    1    2    0    0  0.23661612739E+03  0.24380066638E+03 -0.43755723587E+03  0.56038518589E+03  0.84553327714E+02 0.  0.
        254    2    1    2    0    0 -0.23661612739E+03 -0.24380066638E+03 -0.65632481922E+03  0.11630802664E+04  0.89809102052E+03 0.  0.
         23    2    4    4    0    0 -0.89133069267E+02  0.31747612065E+03 -0.10535903332E+03  0.35771888948E+03  0.90147028622E+02 0.  0.
         23    2    4    4    0    0 -0.14748305812E+03 -0.56127678703E+03 -0.55096578590E+03  0.80536137694E+03  0.90888756926E+02 0.  0.
          4    1    3    3  502    0  0.22041678806E+03  0.22536963794E+03 -0.43272687272E+03  0.53537611129E+03  0.00000000000E+00 0. -1.
         -3    1    3    3    0  502  0.16199339327E+02  0.18431028442E+02 -0.48303631538E+01  0.25009074599E+02  0.00000000000E+00 0.  1.
         13    1    5    5    0    0 -0.39104278223E+02  0.16254117485E+03 -0.10002985243E+03  0.19481978717E+03  0.00000000000E+00 0. -1.
        -13    1    5    5    0    0 -0.50028791044E+02  0.15493494580E+03 -0.53291808875E+01  0.16289910231E+03  0.00000000000E+00 0.  1.
          3    1    6    6  503    0 -0.25093329484E+02 -0.32245770988E+02 -0.18496762526E+02  0.44850809972E+02  0.00000000000E+00 0. -1.
         -3    1    6    6    0  503 -0.12238972864E+03 -0.52903101604E+03 -0.53246902338E+03  0.76051056697E+03  0.00000000000E+00 0.  1.
<mgrwt>
<rscale>  0 0.13318240E+04</rscale>
<asrwt>0</asrwt>
<pdfrwt beam="1">  1        2 0.21671904E+00 0.13318240E+04</pdfrwt>
<pdfrwt beam="2">  1       -1 0.48429493E-01 0.13318240E+04</pdfrwt>
<totfact> 0.67990704E+01</totfact>
</mgrwt>
</event>
<event>
12    7  0.1660832E-007  0.1654982E+04  0.7818608E-02  0.8787465E-01
         -1   -1    0    0    0  501 -0.00000000000E+00  0.00000000000E+00  0.10278238967E+04  0.10278238967E+04  0.00000000000E+00 0.  1.
          2   -1    0    0  501    0  0.00000000000E+00 -0.00000000000E+00 -0.66620474611E+03  0.66620474611E+03  0.00000000000E+00 0. -1.
         24    2    1    2    0    0 -0.20767691579E+03 -0.36803437893E+03  0.52714411543E+03  0.68035992072E+03  0.80185396848E+02 0.  0.
        254    2    1    2    0    0  0.20767691579E+03  0.36803437893E+03 -0.16552496487E+03  0.10136687221E+04  0.90639216606E+03 0.  0.
         23    2    4    4    0    0  0.11049321065E+03  0.56774275812E+03 -0.37412865937E+03  0.69502687617E+03  0.92463591927E+02 0.  0.
         23    2    4    4    0    0  0.97183705138E+02 -0.19970837920E+03  0.20860369450E+03  0.31864184591E+03  0.93214887954E+02 0.  0.
          2    1    3    3  502    0 -0.21478635632E+02 -0.49317135466E+01  0.28764392968E+02  0.36235947483E+02  0.00000000000E+00 0. -1.
         -1    1    3    3    0  502 -0.18619828015E+03 -0.36310266538E+03  0.49837972247E+03  0.64412397324E+03  0.00000000000E+00 0.  1.
         13    1    5    5    0    0  0.68171394136E+01  0.93880636149E+00  0.16970251133E+01  0.70876400447E+01  0.00000000000E+00 0.  1.
        -13    1    5    5    0    0  0.10367607123E+03  0.56680395176E+03 -0.37582568448E+03  0.68793923612E+03  0.00000000000E+00 0. -1.
          2    1    6    6  503    0  0.60329953851E+02 -0.17217880326E+03  0.20196003365E+03  0.27216373531E+03  0.00000000000E+00 0. -1.
         -2    1    6    6    0  503  0.36853751287E+02 -0.27529575939E+02  0.66436608482E+01  0.46478110598E+02  0.00000000000E+00 0.  1.
<mgrwt>
<rscale>  0 0.16549818E+04</rscale>
<asrwt>0</asrwt>
<pdfrwt beam="1">  1        2 0.10249304E+00 0.16549818E+04</pdfrwt>
<pdfrwt beam="2">  1       -1 0.15812675E+00 0.16549818E+04</pdfrwt>
<totfact> 0.14362264E+01</totfact>
</mgrwt>
</event>
<event>
12    7  0.1660832E-007  0.2259919E+04  0.7818608E-02  0.8493894E-01
          2   -1    0    0  501    0  0.00000000000E+00  0.00000000000E+00  0.16580317408E+04  0.16580317408E+04  0.00000000000E+00 0. -1.
         -1   -1    0    0    0  501 -0.00000000000E+00 -0.00000000000E+00 -0.77007503987E+03  0.77007503987E+03  0.00000000000E+00 0.  1.
         24    2    1    2    0    0  0.64599961534E+03 -0.62914096846E+03  0.70212413448E+03  0.11456064949E+04  0.79385639003E+02 0.  0.
        254    2    1    2    0    0 -0.64599961534E+03  0.62914096846E+03  0.18583256644E+03  0.12825002858E+04  0.89282662317E+03 0.  0.
         23    2    4    4    0    0 -0.71834245604E+03  0.26299109375E+03  0.37089833612E+03  0.85589570222E+03  0.99053913613E+02 0.  0.
         23    2    4    4    0    0  0.72342840697E+02  0.36614987471E+03 -0.18506576967E+03  0.42660458356E+03  0.91885332097E+02 0.  0.
          4    1    3    3  502    0  0.83831538565E+02 -0.76967577632E+02  0.12384309956E+03  0.16819288978E+03  0.00000000000E+00 0. -1.
         -3    1    3    3    0  502  0.56216807677E+03 -0.55217339083E+03  0.57828103492E+03  0.97741360510E+03  0.00000000000E+00 0.  1.
         13    1    5    5    0    0 -0.20969490191E+03  0.65563169762E+02  0.15612116371E+03  0.26952606345E+03  0.00000000000E+00 0.  1.
        -13    1    5    5    0    0 -0.50864755412E+03  0.19742792399E+03  0.21477717240E+03  0.58636963877E+03  0.00000000000E+00 0. -1.
          1    1    6    6  503    0  0.80461013043E+02  0.19277971929E+03 -0.12217391908E+03  0.24200095308E+03  0.00000000000E+00 0. -1.
         -1    1    6    6    0  503 -0.81181723460E+01  0.17337015542E+03 -0.62891850598E+02  0.18460363047E+03  0.00000000000E+00 0.  1.
<mgrwt>
<rscale>  0 0.22599193E+04</rscale>
<asrwt>0</asrwt>
<pdfrwt beam="1">  1        2 0.25508181E+00 0.22599193E+04</pdfrwt>
<pdfrwt beam="2">  1       -1 0.11847308E+00 0.22599193E+04</pdfrwt>
<totfact> 0.68481608E+00</totfact>
</mgrwt>
</event>
<event>
12    7  0.1660832E-007  0.2364623E+04  0.7818608E-02  0.8452868E-01
          2   -1    0    0  501    0  0.00000000000E+00  0.00000000000E+00  0.10603708265E+04  0.10603708265E+04  0.00000000000E+00 0. -1.
         -1   -1    0    0    0  501 -0.00000000000E+00 -0.00000000000E+00 -0.13182750741E+04  0.13182750741E+04  0.00000000000E+00 0.  1.
         24    2    1    2    0    0 -0.14420687760E+03 -0.50150569942E+03  0.76347095370E+03  0.92813763746E+03  0.79044208061E+02 0.  0.
        254    2    1    2    0    0  0.14420687760E+03  0.50150569942E+03 -0.10213752013E+04  0.14505082631E+04  0.88795457618E+03 0.  0.
         23    2    4    4    0    0  0.47724690393E+02  0.74507818559E+03 -0.74676282529E+03  0.10598070514E+04  0.90095062631E+02 0.  0.
         23    2    4    4    0    0  0.96482187208E+02 -0.24357248616E+03 -0.27461237604E+03  0.39070121168E+03  0.92731393116E+02 0.  0.
          4    1    3    3  502    0 -0.12761023872E+03 -0.37975052591E+03  0.63114677158E+03  0.74755674181E+03  0.00000000000E+00 0. -1.
         -3    1    3    3    0  502 -0.16596638883E+02 -0.12175517352E+03  0.13232418212E+03  0.18058089565E+03  0.00000000000E+00 0.  1.
         13    1    5    5    0    0  0.35891703806E+02  0.59370479760E+03 -0.54051663330E+03  0.80369884408E+03  0.00000000000E+00 0. -1.
        -13    1    5    5    0    0  0.11832986587E+02  0.15137338798E+03 -0.20624619199E+03  0.25610820735E+03  0.00000000000E+00 0.  1.
          3    1    6    6  503    0  0.59185000056E+02 -0.59797386610E+02 -0.12563637463E+03  0.15120545727E+03  0.00000000000E+00 0. -1.
         -3    1    6    6    0  503  0.37297187151E+02 -0.18377509955E+03 -0.14897600141E+03  0.23949575441E+03  0.00000000000E+00 0.  1.
<mgrwt>
<rscale>  0 0.23646230E+04</rscale>
<asrwt>0</asrwt>
<pdfrwt beam="1">  1        2 0.16313397E+00 0.23646230E+04</pdfrwt>
<pdfrwt beam="2">  1       -1 0.20281155E+00 0.23646230E+04</pdfrwt>
<totfact> 0.34128125E+00</totfact>
</mgrwt>
</event>
<event>
12    7  0.1660832E-007  0.1927779E+04  0.7818608E-02  0.8641151E-01
         -1   -1    0    0    0  501 -0.00000000000E+00  0.00000000000E+00  0.85457346254E+03  0.85457346254E+03  0.00000000000E+00 0.  1.
          2   -1    0    0  501    0  0.00000000000E+00 -0.00000000000E+00 -0.10871885643E+04  0.10871885643E+04  0.00000000000E+00 0. -1.
         24    2    1    2    0    0 -0.64930878641E+03 -0.37758372223E+03 -0.10107153173E+03  0.76207815440E+03  0.79851684350E+02 0.  0.
        254    2    1    2    0    0  0.64930878641E+03  0.37758372223E+03 -0.13154357003E+03  0.11796838724E+04  0.90009941710E+03 0.  0.
         23    2    4    4    0    0  0.23052860621E+01 -0.17780153329E+03  0.17757362398E+03  0.26811786610E+03  0.93467099057E+02 0.  0.
         23    2    4    4    0    0  0.64700350034E+03  0.55538525552E+03 -0.30911719401E+03  0.91156600633E+03  0.91284351105E+02 0.  0.
          2    1    3    3  502    0 -0.63711006682E+02 -0.11513088445E+02 -0.88080069115E+01  0.65339303361E+02  0.00000000000E+00 0. -1.
         -1    1    3    3    0  502 -0.58559777972E+03 -0.36607063379E+03 -0.92263524814E+02  0.69673885104E+03  0.00000000000E+00 0.  1.
         13    1    5    5    0    0 -0.44923455924E+02 -0.74814985015E+02  0.84790235335E+02  0.12167490655E+03  0.00000000000E+00 0. -1.
        -13    1    5    5    0    0  0.47228741986E+02 -0.10298654827E+03  0.92783388644E+02  0.14644295956E+03  0.00000000000E+00 0.  1.
          3    1    6    6  503    0  0.38192784331E+03  0.26883737610E+03 -0.17672409208E+03  0.49937342440E+03  0.00000000000E+00 0. -1.
         -3    1    6    6    0  503  0.26507565704E+03  0.28654787943E+03 -0.13239310193E+03  0.41219258193E+03  0.00000000000E+00 0.  1.
<mgrwt>
<rscale>  0 0.19277785E+04</rscale>
<asrwt>0</asrwt>
<pdfrwt beam="1">  1        2 0.16725978E+00 0.19277785E+04</pdfrwt>
<pdfrwt beam="2">  1       -1 0.13147284E+00 0.19277785E+04</pdfrwt>
<totfact> 0.11656286E+01</totfact>
</mgrwt>
</event>
<event>
12    7  0.1660832E-007  0.1466413E+04  0.7818608E-02  0.8907100E-01
          2   -1    0    0  501    0  0.00000000000E+00  0.00000000000E+00  0.59915085419E+03  0.59915085419E+03  0.00000000000E+00 0. -1.
         -1   -1    0    0    0  501 -0.00000000000E+00 -0.00000000000E+00 -0.89725662267E+03  0.89725662267E+03  0.00000000000E+00 0.  1.
         24    2    1    2    0    0 -0.22033565203E+03 -0.69910825998E+02 -0.49063806120E+03  0.54822214977E+03  0.79915550790E+02 0.  0.
        254    2    1    2    0    0  0.22033565203E+03  0.69910825998E+02  0.19253229271E+03  0.94818532710E+03  0.89919486633E+03 0.  0.
         23    2    4    4    0    0  0.34972714917E+03 -0.14310419029E+03 -0.22787755288E+03  0.45052063157E+03  0.90844769893E+02 0.  0.
         23    2    4    4    0    0 -0.12939149714E+03  0.21301501629E+03  0.42040984559E+03  0.49766469553E+03  0.93851767217E+02 0.  0.
          2    1    3    3  502    0 -0.10212379566E+03 -0.15553456350E+02 -0.13824929311E+03  0.17258055131E+03  0.00000000000E+00 0. -1.
         -1    1    3    3    0  502 -0.11821185637E+03 -0.54357369649E+02 -0.35238876809E+03  0.37564159846E+03  0.00000000000E+00 0.  1.
         13    1    5    5    0    0  0.19190625253E+03 -0.91270209117E+02 -0.17764535496E+03  0.27697677334E+03  0.00000000000E+00 0. -1.
        -13    1    5    5    0    0  0.15782089664E+03 -0.51833981174E+02 -0.50232197923E+02  0.17354385823E+03  0.00000000000E+00 0.  1.
          1    1    6    6  503    0  0.78507830015E+01 -0.16972896686E+01  0.29158900465E+01  0.85450570928E+01  0.00000000000E+00 0. -1.
         -1    1    6    6    0  503 -0.13724228014E+03  0.21471230596E+03  0.41749395555E+03  0.48911963844E+03  0.00000000000E+00 0.  1.
<mgrwt>
<rscale>  0 0.14664134E+04</rscale>
<asrwt>0</asrwt>
<pdfrwt beam="1">  1        2 0.92177054E-01 0.14664134E+04</pdfrwt>
<pdfrwt beam="2">  1       -1 0.13803948E+00 0.14664134E+04</pdfrwt>
<totfact> 0.23918400E+01</totfact>
</mgrwt>
</event>
<event>
12    7  0.1660832E-007  0.2089805E+04  0.7818608E-02  0.8565748E-01
          2   -1    0    0  501    0  0.00000000000E+00  0.00000000000E+00  0.15416202614E+04  0.15416202614E+04  0.00000000000E+00 0. -1.
         -3   -1    0    0    0  501 -0.00000000000E+00 -0.00000000000E+00 -0.70822944440E+03  0.70822944440E+03  0.00000000000E+00 0.  1.
         24    2    1    2    0    0 -0.74629974077E+02 -0.58115463598E+03 -0.32715468238E+03  0.67611357659E+03  0.82395620633E+02 0.  0.
        254    2    1    2    0    0  0.74629974077E+02  0.58115463598E+03  0.11605454994E+04  0.15737361292E+04  0.88683098970E+03 0.  0.
         23    2    4    4    0    0  0.33878290872E+03 -0.96941437071E+00  0.16621950089E+03  0.38814697961E+03  0.90853488132E+02 0.  0.
         23    2    4    4    0    0 -0.26415293464E+03  0.58212405035E+03  0.99432599852E+03  0.11855891496E+04  0.91061833310E+02 0.  0.
          2    1    3    3  502    0 -0.61324812003E+02 -0.34946195965E+03 -0.15512344574E+03  0.38723078033E+03  0.00000000000E+00 0. -1.
         -1    1    3    3    0  502 -0.13305162073E+02 -0.23169267632E+03 -0.17203123663E+03  0.28888279626E+03  0.00000000000E+00 0.  1.
         13    1    5    5    0    0  0.97481723771E+02  0.28898835692E+02  0.82694014287E+02  0.13105773221E+03  0.00000000000E+00 0. -1.
        -13    1    5    5    0    0  0.24130118494E+03 -0.29868250063E+02  0.83525486602E+02  0.25708924740E+03  0.00000000000E+00 0.  1.
          1    1    6    6  503    0 -0.13526905407E+03  0.21278002809E+03  0.34079421372E+03  0.42392658969E+03  0.00000000000E+00 0. -1.
         -1    1    6    6    0  503 -0.12888388057E+03  0.36934402226E+03  0.65353178480E+03  0.76166255993E+03  0.00000000000E+00 0.  1.
<mgrwt>
<rscale>  0 0.20898046E+04</rscale>
<asrwt>0</asrwt>
<pdfrwt beam="1">  1        2 0.23717235E+00 0.20898046E+04</pdfrwt>
<pdfrwt beam="2">  1       -3 0.10895838E+00 0.20898046E+04</pdfrwt>
<totfact> 0.50310087E+00</totfact>
</mgrwt>
</event>
<event>
12    7  0.1660832E-007  0.2538964E+04  0.7818608E-02  0.8389234E-01
         -1   -1    0    0    0  501 -0.00000000000E+00  0.00000000000E+00  0.52741623074E+03  0.52741623074E+03  0.00000000000E+00 0.  1.
          2   -1    0    0  501    0  0.00000000000E+00 -0.00000000000E+00 -0.30556223557E+04  0.30556223557E+04  0.00000000000E+00 0. -1.
         24    2    1    2    0    0 -0.27622619787E+03 -0.36670860376E+03 -0.25306102168E+04  0.25732922323E+04  0.84075747189E+02 0.  0.
        254    2    1    2    0    0  0.27622619787E+03  0.36670860376E+03  0.24040918270E+01  0.10097463541E+04  0.89933631500E+03 0.  0.
         23    2    4    4    0    0  0.18967109283E+02  0.43691566702E+03 -0.34346766617E+03  0.56350987076E+03  0.91204634852E+02 0.  0.
         23    2    4    4    0    0  0.25725908859E+03 -0.70207063267E+02  0.34587175800E+03  0.44623648333E+03  0.91588512804E+02 0.  0.
          2    1    3    3  502    0 -0.21395002097E+03 -0.31458688810E+03 -0.22130102668E+04  0.22454741064E+04  0.00000000000E+00 0. -1.
         -1    1    3    3    0  502 -0.62276176895E+02 -0.52121715657E+02 -0.31759995002E+03  0.32781812595E+03  0.00000000000E+00 0.  1.
         13    1    5    5    0    0 -0.10189495900E+01  0.32554004993E+03 -0.20509434194E+03  0.38476103163E+03  0.00000000000E+00 0.  1.
        -13    1    5    5    0    0  0.19986058873E+02  0.11137561709E+03 -0.13837332423E+03  0.17874883913E+03  0.00000000000E+00 0. -1.
          4    1    6    6  503    0  0.30981979700E+02  0.32570019414E+01  0.97291478102E+02  0.10215734354E+03  0.00000000000E+00 0. -1.
         -4    1    6    6    0  503  0.22627710889E+03 -0.73464065209E+02  0.24858027990E+03  0.34407913979E+03  0.00000000000E+00 0.  1.
<mgrwt>
<rscale>  0 0.25389642E+04</rscale>
<asrwt>0</asrwt>
<pdfrwt beam="1">  1        2 0.47009575E+00 0.25389642E+04</pdfrwt>
<pdfrwt beam="2">  1       -1 0.81140958E-01 0.25389642E+04</pdfrwt>
<totfact> 0.24574938E+00</totfact>
</mgrwt>
</event>
<event>
12    7  0.1660832E-007  0.1686172E+04  0.7818608E-02  0.8769290E-01
          2   -1    0    0  501    0  0.00000000000E+00  0.00000000000E+00  0.52615259217E+03  0.52615259217E+03  0.00000000000E+00 0. -1.
         -1   -1    0    0    0  501 -0.00000000000E+00 -0.00000000000E+00 -0.13509279458E+04  0.13509279458E+04  0.00000000000E+00 0.  1.
         24    2    1    2    0    0 -0.48313022831E+03 -0.32612541760E+03 -0.49700604919E+03  0.77026650537E+03  0.80764291856E+02 0.  0.
        254    2    1    2    0    0  0.48313022831E+03  0.32612541760E+03 -0.32776930441E+03  0.11068140326E+04  0.88194783308E+03 0.  0.
         23    2    4    4    0    0 -0.42593612108E+02  0.10660588224E+03 -0.48629250676E+03  0.50812590792E+03  0.92371566235E+02 0.  0.
         23    2    4    4    0    0  0.52572384042E+03  0.21951953537E+03  0.15852320234E+03  0.59868812466E+03  0.93399583158E+02 0.  0.
          4    1    3    3  502    0 -0.10591376715E+03 -0.87117112978E+02 -0.16051477951E+03  0.21112108348E+03  0.00000000000E+00 0. -1.
         -3    1    3    3    0  502 -0.37721646116E+03 -0.23900830462E+03 -0.33649126968E+03  0.55914542189E+03  0.00000000000E+00 0.  1.
         13    1    5    5    0    0 -0.51704896660E+02  0.60848399017E+02 -0.41709180788E+03  0.42466633985E+03  0.00000000000E+00 0.  1.
        -13    1    5    5    0    0  0.91112845527E+01  0.45757483218E+02 -0.69200698875E+02  0.83459568064E+02  0.00000000000E+00 0. -1.
          3    1    6    6  503    0  0.13217621754E+03  0.20183838817E+02  0.60595982929E+02  0.14679854556E+03  0.00000000000E+00 0. -1.
         -3    1    6    6    0  503  0.39354762288E+03  0.19933569655E+03  0.97927219414E+02  0.45188957910E+03  0.00000000000E+00 0.  1.
<mgrwt>
<rscale>  0 0.16861723E+04</rscale>
<asrwt>0</asrwt>
<pdfrwt beam="1">  1        2 0.80946554E-01 0.16861723E+04</pdfrwt>
<pdfrwt beam="2">  1       -1 0.20783507E+00 0.16861723E+04</pdfrwt>
<totfact> 0.83975078E+00</totfact>
</mgrwt>
</event>
<event>
12    7  0.1660832E-007  0.1582643E+04  0.7818608E-02  0.8831282E-01
         -1   -1    0    0    0  501 -0.00000000000E+00  0.00000000000E+00  0.41897343652E+03  0.41897343652E+03  0.00000000000E+00 0.  1.
          2   -1    0    0  501    0  0.00000000000E+00 -0.00000000000E+00 -0.14945815521E+04  0.14945815521E+04  0.00000000000E+00 0. -1.
         24    2    1    2    0    0 -0.26446020637E+03  0.79668805870E+02 -0.82491646195E+03  0.87367757273E+03  0.80864160942E+02 0.  0.
        254    2    1    2    0    0  0.26446020637E+03 -0.79668805870E+02 -0.25069165366E+03  0.10398774159E+04  0.97067626710E+03 0.  0.
         23    2    4    4    0    0  0.37743847562E+03 -0.24868461820E+03 -0.51755431778E+03  0.69277327475E+03  0.88139072791E+02 0.  0.
         23    2    4    4    0    0 -0.11297826925E+03  0.16901581233E+03  0.26686266412E+03  0.34710414115E+03  0.89079566461E+02 0.  0.
          4    1    3    3  502    0 -0.21558679264E+03  0.55567187793E+02 -0.54886616550E+03  0.59230013097E+03  0.00000000000E+00 0. -1.
         -3    1    3    3    0  502 -0.48873413732E+02  0.24101618077E+02 -0.27605029645E+03  0.28137744176E+03  0.00000000000E+00 0.  1.
         13    1    5    5    0    0  0.19716526568E+02 -0.38455932452E+02 -0.71717903726E+02  0.83732060022E+02  0.00000000000E+00 0.  1.
        -13    1    5    5    0    0  0.35772194906E+03 -0.21022868574E+03 -0.44583641405E+03  0.60904121473E+03  0.00000000000E+00 0. -1.
          1    1    6    6  503    0 -0.12333081619E+03  0.13303047041E+03  0.24079374097E+03  0.30147839387E+03  0.00000000000E+00 0. -1.
         -1    1    6    6    0  503  0.10352546933E+02  0.35985341914E+02  0.26068923153E+02  0.45625747282E+02  0.00000000000E+00 0.  1.
<mgrwt>
<rscale>  0 0.15826433E+04</rscale>
<asrwt>0</asrwt>
<pdfrwt beam="1">  1        2 0.22993563E+00 0.15826433E+04</pdfrwt>
<pdfrwt beam="2">  1       -1 0.64457451E-01 0.15826433E+04</pdfrwt>
<totfact> 0.34137148E+01</totfact>
</mgrwt>
</event>
<event>
12    7  0.1660832E-007  0.1933531E+04  0.7818608E-02  0.8638343E-01
         -1   -1    0    0    0  501 -0.00000000000E+00  0.00000000000E+00  0.55046723872E+03  0.55046723872E+03  0.00000000000E+00 0.  1.
          2   -1    0    0  501    0  0.00000000000E+00 -0.00000000000E+00 -0.16978953738E+04  0.16978953738E+04  0.00000000000E+00 0. -1.
         24    2    1    2    0    0  0.10384526435E+03 -0.70983736125E+03 -0.19636909831E+03  0.74811534809E+03  0.80391746576E+02 0.  0.
        254    2    1    2    0    0 -0.10384526435E+03  0.70983736125E+03 -0.95105903674E+03  0.15002472644E+04  0.91190769523E+03 0.  0.
         23    2    4    4    0    0 -0.25749839515E+03  0.76643280949E+03 -0.10174062420E+04  0.13027316866E+04  0.90937950450E+02 0.  0.
         23    2    4    4    0    0  0.15365313080E+03 -0.56595448236E+02  0.66347205303E+02  0.19751557785E+03  0.88306978639E+02 0.  0.
          2    1    3    3  502    0  0.78441108768E+02 -0.35909110103E+03 -0.13241054442E+03  0.39068142860E+03  0.00000000000E+00 0. -1.
         -1    1    3    3    0  502  0.25404155584E+02 -0.35074626022E+03 -0.63958553883E+02  0.35743391948E+03  0.00000000000E+00 0.  1.
         13    1    5    5    0    0 -0.12027031413E+03  0.22800491154E+03 -0.33625279340E+03  0.42369461788E+03  0.00000000000E+00 0.  1.
        -13    1    5    5    0    0 -0.13722808102E+03  0.53842789794E+03 -0.68115344865E+03  0.87903706868E+03  0.00000000000E+00 0. -1.
          3    1    6    6  503    0  0.13316879357E+03 -0.82282839693E+01  0.44825935737E+02  0.14075154263E+03  0.00000000000E+00 0. -1.
         -3    1    6    6    0  503  0.20484337232E+02 -0.48367164267E+02  0.21521269565E+02  0.56764035223E+02  0.00000000000E+00 0.  1.
<mgrwt>
<rscale>  0 0.19335313E+04</rscale>
<asrwt>0</asrwt>
<pdfrwt beam="1">  1        2 0.26121468E+00 0.19335313E+04</pdfrwt>
<pdfrwt beam="2">  1       -1 0.84687267E-01 0.19335313E+04</pdfrwt>
<totfact> 0.14437469E+01</totfact>
</mgrwt>
</event>
<event>
12    7  0.1660832E-007  0.1547808E+04  0.7818608E-02  0.8853269E-01
          2   -1    0    0  501    0  0.00000000000E+00  0.00000000000E+00  0.34837281230E+04  0.34837281230E+04  0.00000000000E+00 0. -1.
         -1   -1    0    0    0  501 -0.00000000000E+00 -0.00000000000E+00 -0.17192142525E+03  0.17192142525E+03  0.00000000000E+00 0.  1.
         24    2    1    2    0    0  0.17143855969E+03 -0.12105653554E+02 -0.30374000074E+02  0.19293549272E+03  0.82242311938E+02 0.  0.
        254    2    1    2    0    0 -0.17143855969E+03  0.12105653554E+02  0.33421806978E+04  0.34627140555E+04  0.88920137587E+03 0.  0.
         23    2    4    4    0    0  0.16443965383E+03 -0.28116686587E+03  0.66236641111E+03  0.74456646201E+03  0.97748389019E+02 0.  0.
         23    2    4    4    0    0 -0.33587821352E+03  0.29327251943E+03  0.26798142867E+04  0.27181475935E+04  0.89993243889E+02 0.  0.
          4    1    3    3  502    0  0.25403557842E+02 -0.34420602454E+02 -0.56670285750E+01  0.43153607464E+02  0.00000000000E+00 0. -1.
         -3    1    3    3    0  502  0.14603500185E+03  0.22314948899E+02 -0.24706971499E+02  0.14978188525E+03  0.00000000000E+00 0.  1.
         13    1    5    5    0    0  0.52064963821E+02 -0.38396974534E+02  0.74336464417E+02  0.98544396355E+02  0.00000000000E+00 0.  1.
        -13    1    5    5    0    0  0.11237469001E+03 -0.24276989134E+03  0.58802994670E+03  0.64602206565E+03  0.00000000000E+00 0. -1.
          4    1    6    6  503    0 -0.24366152786E+03  0.23309810402E+03  0.17837338968E+04  0.18153270451E+04  0.00000000000E+00 0. -1.
         -4    1    6    6    0  503 -0.92216685666E+02  0.60174415411E+02  0.89608038989E+03  0.90282054835E+03  0.00000000000E+00 0.  1.
<mgrwt>
<rscale>  0 0.15478081E+04</rscale>
<asrwt>0</asrwt>
<pdfrwt beam="1">  1        2 0.53595812E+00 0.15478081E+04</pdfrwt>
<pdfrwt beam="2">  1       -1 0.26449453E-01 0.15478081E+04</pdfrwt>
<totfact> 0.11777933E+01</totfact>
</mgrwt>
</event>
<event>
12    7  0.1660832E-007  0.1592665E+04  0.7818608E-02  0.8825067E-01
          2   -1    0    0  501    0  0.00000000000E+00  0.00000000000E+00  0.25963764708E+04  0.25963764708E+04  0.00000000000E+00 0. -1.
         -1   -1    0    0    0  501 -0.00000000000E+00 -0.00000000000E+00 -0.24424238889E+03  0.24424238889E+03  0.00000000000E+00 0.  1.
         24    2    1    2    0    0  0.99868418082E+02  0.24530054531E+03 -0.31902801500E+02  0.27848332087E+03  0.79931926052E+02 0.  0.
        254    2    1    2    0    0 -0.99868418082E+02 -0.24530054531E+03  0.23840368834E+04  0.25621355388E+04  0.90042245604E+03 0.  0.
         23    2    4    4    0    0 -0.23041688476E+03 -0.39218201714E+03  0.22717271462E+04  0.23185275209E+04  0.89033494074E+02 0.  0.
         23    2    4    4    0    0  0.13054846668E+03  0.14688147183E+03  0.11230973723E+03  0.24360801792E+03  0.90079522646E+02 0.  0.
          2    1    3    3  502    0  0.23540009439E+02  0.49767904694E+02 -0.40592264082E+02  0.68401083948E+02  0.00000000000E+00 0. -1.
         -1    1    3    3    0  502  0.76328408643E+02  0.19553264061E+03  0.86894625815E+01  0.21008223692E+03  0.00000000000E+00 0.  1.
         13    1    5    5    0    0 -0.75920857907E+02 -0.10903519490E+03  0.87568156305E+03  0.88570359052E+03  0.00000000000E+00 0.  1.
        -13    1    5    5    0    0 -0.15449602685E+03 -0.28314682224E+03  0.13960455832E+04  0.14328239304E+04  0.00000000000E+00 0. -1.
          1    1    6    6  503    0  0.12174231084E+03  0.10642400529E+03  0.12016859713E+03  0.20146401884E+03  0.00000000000E+00 0. -1.
         -1    1    6    6    0  503  0.88061558439E+01  0.40457466544E+02 -0.78588599048E+01  0.42143999086E+02  0.00000000000E+00 0.  1.
<mgrwt>
<rscale>  0 0.15926647E+04</rscale>
<asrwt>0</asrwt>
<pdfrwt beam="1">  1        2 0.39944251E+00 0.15926647E+04</pdfrwt>
<pdfrwt beam="2">  1       -1 0.37575754E-01 0.15926647E+04</pdfrwt>
<totfact> 0.22873668E+01</totfact>
</mgrwt>
</event>
<event>
12    7  0.1660832E-007  0.1414041E+04  0.7818608E-02  0.8943717E-01
          2   -1    0    0  501    0  0.00000000000E+00  0.00000000000E+00  0.17516583542E+04  0.17516583542E+04  0.00000000000E+00 0. -1.
         -3   -1    0    0    0  501 -0.00000000000E+00 -0.00000000000E+00 -0.28537416621E+03  0.28537416621E+03  0.00000000000E+00 0.  1.
         24    2    1    2    0    0 -0.25659024458E+03 -0.18339609378E+03  0.52105390030E+02  0.32940182239E+03  0.79485269670E+02 0.  0.
        254    2    1    2    0    0  0.25659024458E+03  0.18339609378E+03  0.14141787979E+04  0.17076306980E+04  0.90367485710E+03 0.  0.
         23    2    4    4    0    0 -0.13092968046E+03  0.41953313275E+03  0.43697881569E+03  0.62626790550E+03  0.90057611580E+02 0.  0.
         23    2    4    4    0    0  0.38751992504E+03 -0.23613703897E+03  0.97719998224E+03  0.10813627925E+04  0.92159048373E+02 0.  0.
          2    1    3    3  502    0 -0.16230502445E+03 -0.74713767383E+02  0.49866753179E+02  0.18550407292E+03  0.00000000000E+00 0. -1.
         -1    1    3    3    0  502 -0.94285220129E+02 -0.10868232640E+03  0.22386368510E+01  0.14389774946E+03  0.00000000000E+00 0.  1.
         13    1    5    5    0    0 -0.16397810939E+02  0.10045407755E+03  0.55543919506E+02  0.11595273561E+03  0.00000000000E+00 0.  1.
        -13    1    5    5    0    0 -0.11453186952E+03  0.31907905519E+03  0.38143489618E+03  0.51031516989E+03  0.00000000000E+00 0. -1.
          4    1    6    6  503    0  0.20950211336E+03 -0.73778639496E+02  0.47242347345E+03  0.52203291220E+03  0.00000000000E+00 0. -1.
         -4    1    6    6    0  503  0.17801781168E+03 -0.16235839947E+03  0.50477650879E+03  0.55932988029E+03  0.00000000000E+00 0.  1.
<mgrwt>
<rscale>  0 0.14140411E+04</rscale>
<asrwt>0</asrwt>
<pdfrwt beam="1">  1        2 0.26948589E+00 0.14140411E+04</pdfrwt>
<pdfrwt beam="2">  1       -3 0.43903719E-01 0.14140411E+04</pdfrwt>
<totfact> 0.29611225E+01</totfact>
</mgrwt>
</event>
<event>
12    7  0.1660832E-007  0.2035404E+04  0.7818608E-02  0.8590245E-01
          2   -1    0    0  501    0  0.00000000000E+00  0.00000000000E+00  0.96532648027E+03  0.96532648027E+03  0.00000000000E+00 0. -1.
         -1   -1    0    0    0  501 -0.00000000000E+00 -0.00000000000E+00 -0.10729192012E+04  0.10729192012E+04  0.00000000000E+00 0.  1.
         24    2    1    2    0    0 -0.64695666757E+03 -0.54380675143E+03 -0.24297415271E+02  0.84921814757E+03  0.79387563077E+02 0.  0.
        254    2    1    2    0    0  0.64695666757E+03  0.54380675143E+03 -0.83295305669E+02  0.11890275339E+04  0.83220769993E+03 0.  0.
         23    2    4    4    0    0 -0.13555203043E+03  0.22638472654E+02  0.14147155386E+03  0.21799862821E+03  0.92856598857E+02 0.  0.
         23    2    4    4    0    0  0.78250869799E+03  0.52116827877E+03 -0.22476685953E+03  0.97102890569E+03  0.91873594217E+02 0.  0.
          4    1    3    3  502    0 -0.13576732123E+03 -0.10147460283E+03  0.25423152702E+02  0.17139485764E+03  0.00000000000E+00 0. -1.
         -3    1    3    3    0  502 -0.51118934634E+03 -0.44233214860E+03 -0.49720567972E+02  0.67782328993E+03  0.00000000000E+00 0.  1.
         13    1    5    5    0    0 -0.65744147000E+02  0.36165780030E+02  0.12374279133E+03  0.14471535826E+03  0.00000000000E+00 0.  1.
        -13    1    5    5    0    0 -0.69807883429E+02 -0.13527307376E+02  0.17728762532E+02  0.73283269950E+02  0.00000000000E+00 0. -1.
          2    1    6    6  503    0  0.73032566519E+03  0.51089244926E+03 -0.20759878052E+03  0.91514147847E+03  0.00000000000E+00 0. -1.
         -2    1    6    6    0  503  0.52183032802E+02  0.10275829516E+02 -0.17168079005E+02  0.55887427221E+02  0.00000000000E+00 0.  1.
<mgrwt>
<rscale>  0 0.20354040E+04</rscale>
<asrwt>0</asrwt>
<pdfrwt beam="1">  1        2 0.14851177E+00 0.20354040E+04</pdfrwt>
<pdfrwt beam="2">  1       -1 0.16506449E+00 0.20354040E+04</pdfrwt>
<totfact> 0.75046677E+00</totfact>
</mgrwt>
</event>
<event>
12    7  0.1660832E-007  0.1517857E+04  0.7818608E-02  0.8872664E-01
         -1   -1    0    0    0  501 -0.00000000000E+00  0.00000000000E+00  0.15316372166E+03  0.15316372166E+03  0.00000000000E+00 0.  1.
          2   -1    0    0  501    0  0.00000000000E+00 -0.00000000000E+00 -0.37605017677E+04  0.37605017677E+04  0.00000000000E+00 0. -1.
         24    2    1    2    0    0 -0.89082702017E+02 -0.89468560025E+02  0.40086441489E+02  0.15483870798E+03  0.80173260294E+02 0.  0.
        254    2    1    2    0    0  0.89082702017E+02  0.89468560025E+02 -0.36474244875E+04  0.37588267814E+04  0.89951822057E+03 0.  0.
         23    2    4    4    0    0  0.40474507482E+03 -0.63539742880E+02 -0.28751122131E+04  0.29055470235E+04  0.89874319865E+02 0.  0.
         23    2    4    4    0    0 -0.31566237280E+03  0.15300830291E+03 -0.77231227445E+03  0.85327975790E+03  0.92551723927E+02 0.  0.
          2    1    3    3  502    0  0.68904599356E+01 -0.16575652270E+02  0.28612444553E+02  0.33777250770E+02  0.00000000000E+00 0. -1.
         -1    1    3    3    0  502 -0.95973161953E+02 -0.72892907755E+02  0.11473996936E+02  0.12106145721E+03  0.00000000000E+00 0.  1.
         13    1    5    5    0    0  0.10345796424E+03  0.22185746099E+02 -0.78160095390E+03  0.78873050456E+03  0.00000000000E+00 0.  1.
        -13    1    5    5    0    0  0.30128711058E+03 -0.85725488979E+02 -0.20935112592E+04  0.21168165189E+04  0.00000000000E+00 0. -1.
          1    1    6    6  503    0 -0.31889057737E+03  0.13814586240E+03 -0.74288218213E+03  0.82015206893E+03  0.00000000000E+00 0. -1.
         -1    1    6    6    0  503  0.32282045686E+01  0.14862440501E+02 -0.29430092324E+02  0.33127688971E+02  0.00000000000E+00 0.  1.
<mgrwt>
<rscale>  0 0.15178570E+04</rscale>
<asrwt>0</asrwt>
<pdfrwt beam="1">  1        2 0.57853873E+00 0.15178570E+04</pdfrwt>
<pdfrwt beam="2">  1       -1 0.23563649E-01 0.15178570E+04</pdfrwt>
<totfact> 0.91251147E+00</totfact>
</mgrwt>
</event>
<event>
12    7  0.1660832E-007  0.1956272E+04  0.7818608E-02  0.8627342E-01
          2   -1    0    0  501    0  0.00000000000E+00  0.00000000000E+00  0.13158238896E+04  0.13158238896E+04  0.00000000000E+00 0. -1.
         -1   -1    0    0    0  501 -0.00000000000E+00 -0.00000000000E+00 -0.72711064624E+03  0.72711064624E+03  0.00000000000E+00 0.  1.
         24    2    1    2    0    0  0.58746656457E+03  0.48159074677E+03  0.11757882264E+03  0.77133675028E+03  0.63945218248E+02 0.  0.
        254    2    1    2    0    0 -0.58746656457E+03 -0.48159074677E+03  0.47113442069E+03  0.12715977855E+04  0.90440404353E+03 0.  0.
         23    2    4    4    0    0 -0.80341014584E+03 -0.28831111441E+03  0.44458544265E+03  0.96674959133E+03  0.91418791254E+02 0.  0.
         23    2    4    4    0    0  0.21594358127E+03 -0.19327963236E+03  0.26548978049E+02  0.30484819420E+03  0.90768533630E+02 0.  0.
          4    1    3    3  502    0  0.45026076783E+02  0.36868794472E+02 -0.80034562926E+01  0.58742751969E+02  0.00000000000E+00 0. -1.
         -3    1    3    3    0  502  0.54244048779E+03  0.44472195230E+03  0.12558227894E+03  0.71259399831E+03  0.00000000000E+00 0.  1.
         13    1    5    5    0    0 -0.78197832779E+03 -0.26365485404E+03  0.43408719710E+03  0.93243534997E+03  0.00000000000E+00 0.  1.
        -13    1    5    5    0    0 -0.21431818054E+02 -0.24656260376E+02  0.10498245548E+02  0.34314241365E+02  0.00000000000E+00 0. -1.
          2    1    6    6  503    0  0.55640488663E+02 -0.80785980353E+01 -0.10271115638E+02  0.57154383396E+02  0.00000000000E+00 0. -1.
         -2    1    6    6    0  503  0.16030309261E+03 -0.18520103432E+03  0.36820093687E+02  0.24769381081E+03  0.00000000000E+00 0.  1.
<mgrwt>
<rscale>  0 0.19562715E+04</rscale>
<asrwt>0</asrwt>
<pdfrwt beam="1">  1        2 0.20243444E+00 0.19562715E+04</pdfrwt>
<pdfrwt beam="2">  1       -1 0.11186318E+00 0.19562715E+04</pdfrwt>
<totfact> 0.12613991E+01</totfact>
</mgrwt>
</event>
<event>
12    7  0.1660832E-007  0.1532960E+04  0.7818608E-02  0.8862826E-01
         -1   -1    0    0    0  501 -0.00000000000E+00  0.00000000000E+00  0.23517393374E+03  0.23517393374E+03  0.00000000000E+00 0.  1.
          2   -1    0    0  501    0  0.00000000000E+00 -0.00000000000E+00 -0.24981154928E+04  0.24981154928E+04  0.00000000000E+00 0. -1.
         24    2    1    2    0    0  0.47878647094E+03 -0.12168932587E+03 -0.81020657918E+03  0.95229388950E+03  0.79901027956E+02 0.  0.
        254    2    1    2    0    0 -0.47878647094E+03  0.12168932587E+03 -0.14527349799E+04  0.17809955370E+04  0.90413572232E+03 0.  0.
         23    2    4    4    0    0 -0.15224846415E+02  0.67152696581E+02 -0.12643427424E+04  0.12694301601E+04  0.90272256801E+02 0.  0.
         23    2    4    4    0    0 -0.46356162452E+03  0.54536629285E+02 -0.18839223746E+03  0.51156537698E+03  0.91344819911E+02 0.  0.
          2    1    3    3  502    0  0.17522861910E+03 -0.69080732900E+02 -0.36723323963E+03  0.41271960082E+03  0.00000000000E+00 0. -1.
         -1    1    3    3    0  502  0.30355785183E+03 -0.52608592965E+02 -0.44297333954E+03  0.53957428868E+03  0.00000000000E+00 0.  1.
         13    1    5    5    0    0  0.10529276074E+02 -0.16443397569E+01 -0.72823429614E+03  0.72831226791E+03  0.00000000000E+00 0. -1.
        -13    1    5    5    0    0 -0.25754122489E+02  0.68797036338E+02 -0.53610844627E+03  0.54111789214E+03  0.00000000000E+00 0.  1.
          1    1    6    6  503    0 -0.35264500488E+03  0.22874704246E+02 -0.10313087255E+03  0.36812732639E+03  0.00000000000E+00 0. -1.
         -1    1    6    6    0  503 -0.11091661964E+03  0.31661925039E+02 -0.85261364915E+02  0.14343805059E+03  0.00000000000E+00 0.  1.
<mgrwt>
<rscale>  0 0.15329601E+04</rscale>
<asrwt>0</asrwt>
<pdfrwt beam="1">  1        2 0.38432547E+00 0.15329601E+04</pdfrwt>
<pdfrwt beam="2">  1       -1 0.36180604E-01 0.15329601E+04</pdfrwt>
<totfact> 0.28072868E+01</totfact>
</mgrwt>
</event>
<event>
12    7  0.1660832E-007  0.1721963E+04  0.7818608E-02  0.8748936E-01
          2   -1    0    0  501    0  0.00000000000E+00  0.00000000000E+00  0.80602317549E+03  0.80602317549E+03  0.00000000000E+00 0. -1.
         -1   -1    0    0    0  501 -0.00000000000E+00 -0.00000000000E+00 -0.91968761179E+03  0.91968761179E+03  0.00000000000E+00 0.  1.
         24    2    1    2    0    0 -0.38682892686E+02  0.23598542196E+03  0.55217015454E+03  0.60708451006E+03  0.80462644856E+02 0.  0.
        254    2    1    2    0    0  0.38682892686E+02 -0.23598542196E+03 -0.66583459084E+03  0.11186262772E+04  0.86648921526E+03 0.  0.
         23    2    4    4    0    0 -0.77294571803E+02 -0.54414110507E+03 -0.42638598756E+03  0.70177724025E+03  0.92856294782E+02 0.  0.
         23    2    4    4    0    0  0.11597746449E+03  0.30815568311E+03 -0.23944860328E+03  0.41684903697E+03  0.89536521662E+02 0.  0.
          2    1    3    3  502    0 -0.34545227005E+02  0.10853111588E+03  0.17372893957E+03  0.20773569811E+03  0.00000000000E+00 0. -1.
         -1    1    3    3    0  502 -0.41376656805E+01  0.12745430608E+03  0.37844121497E+03  0.39934881195E+03  0.00000000000E+00 0.  1.
         13    1    5    5    0    0 -0.49058647015E+01 -0.33927412866E+03 -0.24143109331E+03  0.41643723981E+03  0.00000000000E+00 0. -1.
        -13    1    5    5    0    0 -0.72388707102E+02 -0.20486697641E+03 -0.18495489425E+03  0.28534000044E+03  0.00000000000E+00 0.  1.
          2    1    6    6  503    0 -0.91134425865E+01  0.83321687709E+02 -0.54396983382E+02  0.99922921692E+02  0.00000000000E+00 0. -1.
         -2    1    6    6    0  503  0.12509090708E+03  0.22483399540E+03 -0.18505161990E+03  0.31692611528E+03  0.00000000000E+00 0.  1.
<mgrwt>
<rscale>  0 0.17219634E+04</rscale>
<asrwt>0</asrwt>
<pdfrwt beam="1">  1        2 0.12400357E+00 0.17219634E+04</pdfrwt>
<pdfrwt beam="2">  1       -1 0.14149040E+00 0.17219634E+04</pdfrwt>
<totfact> 0.15077392E+01</totfact>
</mgrwt>
</event>
<event>
12    7  0.1660832E-007  0.1357036E+04  0.7818608E-02  0.8985519E-01
         -1   -1    0    0    0  501 -0.00000000000E+00  0.00000000000E+00  0.11054590701E+03  0.11054590701E+03  0.00000000000E+00 0.  1.
          2   -1    0    0  501    0  0.00000000000E+00 -0.00000000000E+00 -0.41646660507E+04  0.41646660507E+04  0.00000000000E+00 0. -1.
         24    2    1    2    0    0  0.63183809687E+02 -0.27965316265E+03 -0.19462533848E+04  0.19687649928E+04  0.77040726768E+02 0.  0.
        254    2    1    2    0    0 -0.63183809687E+02  0.27965316265E+03 -0.21078667589E+04  0.23064469649E+04  0.89128965201E+03 0.  0.
         23    2    4    4    0    0  0.38063437577E+03  0.26091020968E+02 -0.65339233396E+03  0.76215967457E+03  0.91665468268E+02 0.  0.
         23    2    4    4    0    0 -0.44381818545E+03  0.25356214169E+03 -0.14544744249E+04  0.15442872904E+04  0.89772161997E+02 0.  0.
          4    1    3    3  502    0  0.47206617422E+02 -0.23617427706E+03 -0.17785014272E+04  0.17947351004E+04  0.00000000000E+00 0. -1.
         -3    1    3    3    0  502  0.15977192265E+02 -0.43478885591E+02 -0.16775195763E+03  0.17402989241E+03  0.00000000000E+00 0.  1.
         13    1    5    5    0    0  0.11668895159E+03  0.43483311657E+02 -0.25748040753E+03  0.28601270964E+03  0.00000000000E+00 0. -1.
        -13    1    5    5    0    0  0.26394542418E+03 -0.17392290689E+02 -0.39591192643E+03  0.47614696493E+03  0.00000000000E+00 0.  1.
          4    1    6    6  503    0 -0.21140792943E+03  0.13978888819E+03 -0.59567674626E+03  0.64735232442E+03  0.00000000000E+00 0. -1.
         -4    1    6    6    0  503 -0.23241025602E+03  0.11377325349E+03 -0.85879767865E+03  0.89693496596E+03  0.00000000000E+00 0.  1.
<mgrwt>
<rscale>  0 0.13570362E+04</rscale>
<asrwt>0</asrwt>
<pdfrwt beam="1">  1        2 0.64071778E+00 0.13570362E+04</pdfrwt>
<pdfrwt beam="2">  1       -1 0.17007065E-01 0.13570362E+04</pdfrwt>
<totfact> 0.76906783E+00</totfact>
</mgrwt>
</event>
<event>
12    7  0.1660832E-007  0.2476896E+04  0.7818608E-02  0.8411263E-01
         -1   -1    0    0    0  501 -0.00000000000E+00  0.00000000000E+00  0.92144139714E+03  0.92144139714E+03  0.00000000000E+00 0.  1.
          2   -1    0    0  501    0  0.00000000000E+00 -0.00000000000E+00 -0.16645155238E+04  0.16645155238E+04  0.00000000000E+00 0. -1.
         24    2    1    2    0    0 -0.69010938667E+03  0.81398408780E+03 -0.20285455182E+03  0.10893650651E+04  0.82129258328E+02 0.  0.
        254    2    1    2    0    0  0.69010938667E+03 -0.81398408780E+03 -0.54021957481E+03  0.14965918558E+04  0.89951594378E+03 0.  0.
         23    2    4    4    0    0  0.19457429211E+03  0.16632952458E+03 -0.75330286172E+01  0.27238213148E+03  0.92793389475E+02 0.  0.
         23    2    4    4    0    0  0.49553509456E+03 -0.98031361238E+03 -0.53268654619E+03  0.12242097243E+04  0.91458646985E+02 0.  0.
          4    1    3    3  502    0 -0.50843274789E+03  0.58729083349E+03 -0.18370554652E+03  0.79822434819E+03  0.00000000000E+00 0. -1.
         -3    1    3    3    0  502 -0.18167663878E+03  0.22669325431E+03 -0.19149005301E+02  0.29114071689E+03  0.00000000000E+00 0.  1.
         13    1    5    5    0    0  0.93423620197E+02  0.13896776196E+03 -0.23520567709E+01  0.16746803828E+03  0.00000000000E+00 0.  1.
        -13    1    5    5    0    0  0.10115067191E+03  0.27361762625E+02 -0.51809718463E+01  0.10491409320E+03  0.00000000000E+00 0. -1.
          4    1    6    6  503    0  0.19965708434E+03 -0.38137766638E+03 -0.16001004826E+03  0.45925493061E+03  0.00000000000E+00 0. -1.
         -4    1    6    6    0  503  0.29587801022E+03 -0.59893594600E+03 -0.37267649793E+03  0.76495479373E+03  0.00000000000E+00 0.  1.
<mgrwt>
<rscale>  0 0.24768960E+04</rscale>
<asrwt>0</asrwt>
<pdfrwt beam="1">  1        2 0.25607931E+00 0.24768960E+04</pdfrwt>
<pdfrwt beam="2">  1       -1 0.14176022E+00 0.24768960E+04</pdfrwt>
<totfact> 0.42359363E+00</totfact>
</mgrwt>
</event>
<event>
12    7  0.1660832E-007  0.1503701E+04  0.7818608E-02  0.8881995E-01
         -1   -1    0    0    0  501 -0.00000000000E+00  0.00000000000E+00  0.20248261406E+03  0.20248261406E+03  0.00000000000E+00 0.  1.
          2   -1    0    0  501    0  0.00000000000E+00 -0.00000000000E+00 -0.27917424981E+04  0.27917424981E+04  0.00000000000E+00 0. -1.
         24    2    1    2    0    0  0.29663343830E+03 -0.16279141105E+03 -0.14881854714E+04  0.15282263438E+04  0.79292625515E+02 0.  0.
        254    2    1    2    0    0 -0.29663343830E+03  0.16279141105E+03 -0.11010744126E+04  0.14659987683E+04  0.90680487778E+03 0.  0.
         23    2    4    4    0    0 -0.59193088613E+03 -0.30270768114E+02 -0.74657129526E+03  0.95761117295E+03  0.91389092823E+02 0.  0.
         23    2    4    4    0    0  0.29529744783E+03  0.19306217916E+03 -0.35450311739E+03  0.50838759540E+03  0.91169617754E+02 0.  0.
          4    1    3    3  502    0  0.27793330056E+03 -0.14047297748E+03 -0.14253419387E+04  0.14589651192E+04  0.00000000000E+00 0. -1.
         -3    1    3    3    0  502  0.18700137743E+02 -0.22318433572E+02 -0.62843532706E+02  0.69261224590E+02  0.00000000000E+00 0.  1.
         13    1    5    5    0    0 -0.39851047161E+03 -0.62684337787E+02 -0.51330446873E+03  0.65285633933E+03  0.00000000000E+00 0.  1.
        -13    1    5    5    0    0 -0.19342041452E+03  0.32413569673E+02 -0.23326682653E+03  0.30475483362E+03  0.00000000000E+00 0. -1.
          4    1    6    6  503    0  0.48056043514E+02  0.24617899878E+02 -0.10800491507E+03  0.12074968320E+03  0.00000000000E+00 0. -1.
         -4    1    6    6    0  503  0.24724140431E+03  0.16844427929E+03 -0.24649820231E+03  0.38763791220E+03  0.00000000000E+00 0.  1.
<mgrwt>
<rscale>  0 0.15037012E+04</rscale>
<asrwt>0</asrwt>
<pdfrwt beam="1">  1        2 0.42949879E+00 0.15037012E+04</pdfrwt>
<pdfrwt beam="2">  1       -1 0.31151176E-01 0.15037012E+04</pdfrwt>
<totfact> 0.24695906E+01</totfact>
</mgrwt>
</event>
<event>
12    7  0.1660832E-007  0.1297631E+04  0.7818608E-02  0.9031446E-01
         -1   -1    0    0    0  501 -0.00000000000E+00  0.00000000000E+00  0.32061393503E+03  0.32061393503E+03  0.00000000000E+00 0.  1.
          2   -1    0    0  501    0  0.00000000000E+00 -0.00000000000E+00 -0.13129865086E+04  0.13129865086E+04  0.00000000000E+00 0. -1.
         24    2    1    2    0    0 -0.14787787788E+03 -0.28353597159E+03 -0.13502615562E+03  0.35649401635E+03  0.81212111403E+02 0.  0.
        254    2    1    2    0    0  0.14787787788E+03  0.28353597159E+03 -0.85734641795E+03  0.12771064273E+04  0.89089698185E+03 0.  0.
         23    2    4    4    0    0  0.18570956529E+03 -0.17995968586E+03  0.24638249502E+02  0.27576727299E+03  0.92558167351E+02 0.  0.
         23    2    4    4    0    0 -0.37831687404E+02  0.46349565744E+03 -0.88198466745E+03  0.10013391543E+04  0.92323817291E+02 0.  0.
          2    1    3    3  502    0 -0.62752273698E+02 -0.82984422854E+02 -0.81458661061E+02  0.13213544472E+03  0.00000000000E+00 0. -1.
         -1    1    3    3    0  502 -0.85125604185E+02 -0.20055154873E+03 -0.53567494558E+02  0.22435857162E+03  0.00000000000E+00 0.  1.
         13    1    5    5    0    0  0.17644414001E+02 -0.57726796891E+02  0.30995159135E+02  0.67855790575E+02  0.00000000000E+00 0.  1.
        -13    1    5    5    0    0  0.16806515129E+03 -0.12223288897E+03 -0.63569096325E+01  0.20791148242E+03  0.00000000000E+00 0. -1.
          3    1    6    6  503    0 -0.56785885916E+02  0.43351307262E+03 -0.83414793958E+03  0.94178607235E+03  0.00000000000E+00 0. -1.
         -3    1    6    6    0  503  0.18954198512E+02  0.29982584823E+02 -0.47836727874E+02  0.59553081932E+02  0.00000000000E+00 0.  1.
<mgrwt>
<rscale>  0 0.12976313E+04</rscale>
<asrwt>0</asrwt>
<pdfrwt beam="1">  1        2 0.20199792E+00 0.12976313E+04</pdfrwt>
<pdfrwt beam="2">  1       -1 0.49325223E-01 0.12976313E+04</pdfrwt>
<totfact> 0.74754750E+01</totfact>
</mgrwt>
</event>
<event>
12    7  0.1660832E-007  0.1435875E+04  0.7818608E-02  0.8928252E-01
          2   -1    0    0  501    0  0.00000000000E+00  0.00000000000E+00  0.14131702355E+04  0.14131702355E+04  0.00000000000E+00 0. -1.
         -1   -1    0    0    0  501 -0.00000000000E+00 -0.00000000000E+00 -0.36473634347E+03  0.36473634347E+03  0.00000000000E+00 0.  1.
         24    2    1    2    0    0  0.25496032320E+03  0.19711706461E+03  0.68031698778E+03  0.75698548858E+03  0.79598508087E+02 0.  0.
        254    2    1    2    0    0 -0.25496032320E+03 -0.19711706461E+03  0.36811690426E+03  0.10209210904E+04  0.89605240587E+03 0.  0.
         23    2    4    4    0    0 -0.46996569254E+03 -0.79734443634E+02  0.52382879823E+03  0.71410341294E+03  0.91223576220E+02 0.  0.
         23    2    4    4    0    0  0.21500536934E+03 -0.11738262098E+03 -0.15571189396E+03  0.30681767747E+03  0.99422858203E+02 0.  0.
          4    1    3    3  502    0  0.10926762492E+03  0.10467334072E+03  0.40185019353E+03  0.42939434108E+03  0.00000000000E+00 0. -1.
         -3    1    3    3    0  502  0.14569269828E+03  0.92443723892E+02  0.27846679426E+03  0.32759114750E+03  0.00000000000E+00 0.  1.
         13    1    5    5    0    0 -0.24874945847E+03 -0.58247120105E+02  0.34233990561E+03  0.42715995958E+03  0.00000000000E+00 0.  1.
        -13    1    5    5    0    0 -0.22121623406E+03 -0.21487323529E+02  0.18148889261E+03  0.28694345336E+03  0.00000000000E+00 0. -1.
          4    1    6    6  503    0  0.17923194743E+03 -0.12830828230E+03 -0.15489166653E+03  0.26940403606E+03  0.00000000000E+00 0.  1.
         -4    1    6    6    0  503  0.35773421905E+02  0.10925661319E+02 -0.82022743181E+00  0.37413641404E+02  0.00000000000E+00 0. -1.
<mgrwt>
<rscale>  0 0.14358754E+04</rscale>
<asrwt>0</asrwt>
<pdfrwt beam="1">  1        2 0.21741080E+00 0.14358754E+04</pdfrwt>
<pdfrwt beam="2">  1       -1 0.56113284E-01 0.14358754E+04</pdfrwt>
<totfact> 0.50552947E+01</totfact>
</mgrwt>
</event>
<event>
12    7  0.1660832E-007  0.1414538E+04  0.7818608E-02  0.8943362E-01
         -1   -1    0    0    0  501 -0.00000000000E+00  0.00000000000E+00  0.21662447166E+03  0.21662447166E+03  0.00000000000E+00 0.  1.
          2   -1    0    0  501    0  0.00000000000E+00 -0.00000000000E+00 -0.23092004641E+04  0.23092004641E+04  0.00000000000E+00 0. -1.
         24    2    1    2    0    0 -0.25314813814E+02 -0.30232514234E+03 -0.11326067551E+04  0.11751186346E+04  0.77874335556E+02 0.  0.
        254    2    1    2    0    0  0.25314813814E+02  0.30232514234E+03 -0.95996923737E+03  0.13507063012E+04  0.90045835214E+03 0.  0.
         23    2    4    4    0    0  0.14695810683E+03  0.31671953440E+03 -0.10884886487E+04  0.11467988187E+04  0.91826159420E+02 0.  0.
         23    2    4    4    0    0 -0.12164329301E+03 -0.14394392059E+02  0.12851941132E+03  0.20390748253E+03  0.10028326424E+03 0.  0.
          2    1    3    3  502    0 -0.63290503757E+01 -0.32303990825E+01 -0.90356539142E+02  0.90635514688E+02  0.00000000000E+00 0. -1.
         -1    1    3    3    0  502 -0.18985763438E+02 -0.29909474326E+03 -0.10422502160E+04  0.10844831199E+04  0.00000000000E+00 0.  1.
         13    1    5    5    0    0  0.24518281579E+02  0.11085798354E+03 -0.47078713639E+03  0.48428417942E+03  0.00000000000E+00 0. -1.
        -13    1    5    5    0    0  0.12243982525E+03  0.20586155086E+03 -0.61770151230E+03  0.66251463925E+03  0.00000000000E+00 0.  1.
          3    1    6    6  503    0 -0.37699934351E+02  0.98580182697E-01  0.11061214032E+03  0.11686034551E+03  0.00000000000E+00 0. -1.
         -3    1    6    6    0  503 -0.83943358661E+02 -0.14492972242E+02  0.17907271008E+02  0.87047137015E+02  0.00000000000E+00 0.  1.
<mgrwt>
<rscale>  0 0.14145378E+04</rscale>
<asrwt>0</asrwt>
<pdfrwt beam="1">  1        2 0.35526162E+00 0.14145378E+04</pdfrwt>
<pdfrwt beam="2">  1       -1 0.33326841E-01 0.14145378E+04</pdfrwt>
<totfact> 0.42107179E+01</totfact>
</mgrwt>
</event>
<event>
12    7  0.1660832E-007  0.1354864E+04  0.7818608E-02  0.8987155E-01
         -1   -1    0    0    0  501 -0.00000000000E+00  0.00000000000E+00  0.27794397028E+03  0.27794397028E+03  0.00000000000E+00 0.  1.
          2   -1    0    0  501    0  0.00000000000E+00 -0.00000000000E+00 -0.16511019608E+04  0.16511019608E+04  0.00000000000E+00 0. -1.
         24    2    1    2    0    0 -0.59639128219E+02  0.37467577476E+02  0.13056247751E+03  0.16930179018E+03  0.81583642036E+02 0.  0.
        254    2    1    2    0    0  0.59639128219E+02 -0.37467577476E+02 -0.15037204680E+04  0.17597441409E+04  0.91135259394E+03 0.  0.
         23    2    4    4    0    0  0.20402766273E+03 -0.24593033905E+03 -0.14478490684E+04  0.14855443031E+04  0.92010502956E+02 0.  0.
         23    2    4    4    0    0 -0.14438853451E+03  0.20846276157E+03 -0.55871399639E+02  0.27419983785E+03  0.88086127846E+02 0.  0.
          2    1    3    3  502    0 -0.61468962919E+02 -0.40308865647E+01  0.52767951586E+02  0.81111886696E+02  0.00000000000E+00 0. -1.
         -1    1    3    3    0  502  0.18298346992E+01  0.41498464041E+02  0.77794525921E+02  0.88189903482E+02  0.00000000000E+00 0.  1.
         13    1    5    5    0    0  0.89757442111E+02 -0.86834974303E+02 -0.38355265233E+03  0.40337246843E+03  0.00000000000E+00 0.  1.
        -13    1    5    5    0    0  0.11427022062E+03 -0.15909536475E+03 -0.10642964161E+04  0.10821718346E+04  0.00000000000E+00 0. -1.
          1    1    6    6  503    0 -0.11963396069E+03  0.21037259848E+03 -0.59210571675E+02  0.24914816182E+03  0.00000000000E+00 0. -1.
         -1    1    6    6    0  503 -0.24754573819E+02 -0.19098369046E+01  0.33391720365E+01  0.25051676028E+02  0.00000000000E+00 0.  1.
<mgrwt>
<rscale>  0 0.13548636E+04</rscale>
<asrwt>0</asrwt>
<pdfrwt beam="1">  1        2 0.25401568E+00 0.13548636E+04</pdfrwt>
<pdfrwt beam="2">  1       -1 0.42760611E-01 0.13548636E+04</pdfrwt>
<totfact> 0.62555966E+01</totfact>
</mgrwt>
</event>
<event>
12    7  0.1660832E-007  0.1442470E+04  0.7818608E-02  0.8923638E-01
          2   -1    0    0  501    0  0.00000000000E+00  0.00000000000E+00  0.19452022350E+04  0.19452022350E+04  0.00000000000E+00 0. -1.
         -1   -1    0    0    0  501 -0.00000000000E+00 -0.00000000000E+00 -0.26741675291E+03  0.26741675291E+03  0.00000000000E+00 0.  1.
         24    2    1    2    0    0 -0.41078548958E+02 -0.51514658216E+02  0.11810202185E+04  0.11867968716E+04  0.96627380630E+02 0.  0.
        254    2    1    2    0    0  0.41078548958E+02  0.51514658216E+02  0.49676526357E+03  0.10258221163E+04  0.89509445313E+03 0.  0.
         23    2    4    4    0    0  0.34394370464E+03  0.26198286857E+03  0.58800068458E+02  0.44585451420E+03  0.91632441841E+02 0.  0.
         23    2    4    4    0    0 -0.30286515568E+03 -0.21046821036E+03  0.43796519511E+03  0.57996760210E+03  0.92329503769E+02 0.  0.
          2    1    3    3  502    0 -0.36580007533E+02 -0.61284463822E+02  0.11667314576E+04  0.11689123904E+04  0.00000000000E+00 0. -1.
         -1    1    3    3    0  502 -0.44985414247E+01  0.97698056062E+01  0.14288760944E+02  0.17884481146E+02  0.00000000000E+00 0.  1.
         13    1    5    5    0    0  0.91119886062E+02  0.44235234451E+02  0.47810035097E+02  0.11200620098E+03  0.00000000000E+00 0. -1.
        -13    1    5    5    0    0  0.25282381858E+03  0.21774763412E+03  0.10990033361E+02  0.33384831322E+03  0.00000000000E+00 0.  1.
          1    1    6    6  503    0 -0.46317877222E+02 -0.63916186915E+02  0.13767454552E+03  0.15869752734E+03  0.00000000000E+00 0. -1.
         -1    1    6    6    0  503 -0.25654727846E+03 -0.14655202344E+03  0.30029064959E+03  0.42127007476E+03  0.00000000000E+00 0.  1.
<mgrwt>
<rscale>  0 0.14424696E+04</rscale>
<asrwt>0</asrwt>
<pdfrwt beam="1">  1        2 0.29926187E+00 0.14424696E+04</pdfrwt>
<pdfrwt beam="2">  1       -1 0.41141040E-01 0.14424696E+04</pdfrwt>
<totfact> 0.45835653E+01</totfact>
</mgrwt>
</event>
<event>
12    7  0.1660832E-007  0.1911367E+04  0.7818608E-02  0.8649219E-01
          2   -1    0    0  501    0  0.00000000000E+00  0.00000000000E+00  0.94613069910E+03  0.94613069910E+03  0.00000000000E+00 0. -1.
         -1   -1    0    0    0  501 -0.00000000000E+00 -0.00000000000E+00 -0.96533287918E+03  0.96533287918E+03  0.00000000000E+00 0.  1.
         24    2    1    2    0    0  0.50781004332E+03 -0.51872251941E+03  0.12793954716E+03  0.74139217986E+03  0.79685283362E+02 0.  0.
        254    2    1    2    0    0 -0.50781004332E+03  0.51872251941E+03 -0.14714172724E+03  0.11700713984E+04  0.90579925881E+03 0.  0.
         23    2    4    4    0    0 -0.65155284241E+03  0.63958851115E+03 -0.64729604714E+01  0.91764203596E+03  0.91817410695E+02 0.  0.
         23    2    4    4    0    0  0.14374279909E+03 -0.12086599173E+03 -0.14066876677E+03  0.25242936246E+03  0.93071482426E+02 0.  0.
          4    1    3    3  502    0  0.46679661117E+03 -0.45654019897E+03  0.13438538712E+03  0.66662392828E+03  0.00000000000E+00 0. -1.
         -3    1    3    3    0  502  0.41013432152E+02 -0.62182320443E+02 -0.64458399570E+01  0.74768251586E+02  0.00000000000E+00 0.  1.
         13    1    5    5    0    0 -0.48315454135E+03  0.48005658282E+03 -0.44634189597E+02  0.68255757590E+03  0.00000000000E+00 0. -1.
        -13    1    5    5    0    0 -0.16839830106E+03  0.15953192832E+03  0.38161229125E+02  0.23508446006E+03  0.00000000000E+00 0.  1.
          1    1    6    6  503    0  0.98538585759E+02 -0.40446763322E+02 -0.34917018325E+02  0.11209367384E+03  0.00000000000E+00 0. -1.
         -1    1    6    6    0  503  0.45204213326E+02 -0.80419228410E+02 -0.10575174845E+03  0.14033568862E+03  0.00000000000E+00 0.  1.
<mgrwt>
<rscale>  0 0.19113671E+04</rscale>
<asrwt>0</asrwt>
<pdfrwt beam="1">  1        2 0.14555857E+00 0.19113671E+04</pdfrwt>
<pdfrwt beam="2">  1       -1 0.14851275E+00 0.19113671E+04</pdfrwt>
<totfact> 0.10449924E+01</totfact>
</mgrwt>
</event>
<event>
12    7  0.1660832E-007  0.1367194E+04  0.7818608E-02  0.8977913E-01
         -1   -1    0    0    0  501 -0.00000000000E+00  0.00000000000E+00  0.48299571771E+03  0.48299571771E+03  0.00000000000E+00 0.  1.
          2   -1    0    0  501    0  0.00000000000E+00 -0.00000000000E+00 -0.96751384152E+03  0.96751384152E+03  0.00000000000E+00 0. -1.
         24    2    1    2    0    0 -0.31144827508E+03  0.16115142804E+03  0.16987406251E+02  0.35997385354E+03  0.79515988652E+02 0.  0.
        254    2    1    2    0    0  0.31144827508E+03 -0.16115142804E+03 -0.50150553006E+03  0.10905357057E+04  0.90265747541E+03 0.  0.
         23    2    4    4    0    0  0.60817117321E+03  0.56994087805E+00 -0.36508701425E+03  0.71455040228E+03  0.86146669480E+02 0.  0.
         23    2    4    4    0    0 -0.29672289814E+03 -0.16172136892E+03 -0.13641851581E+03  0.37598530342E+03  0.92502202623E+02 0.  0.
          4    1    3    3  502    0 -0.11754398679E+02  0.30306018548E+02 -0.26742555082E+00  0.32506801826E+02  0.00000000000E+00 0. -1.
         -3    1    3    3    0  502 -0.29969387640E+03  0.13084540949E+03  0.17254831802E+02  0.32746705171E+03  0.00000000000E+00 0.  1.
         13    1    5    5    0    0  0.35155546749E+03 -0.10812103691E+02 -0.25825186858E+03  0.43635097792E+03  0.00000000000E+00 0. -1.
        -13    1    5    5    0    0  0.25661570572E+03  0.11382044569E+02 -0.10683514567E+03  0.27819942436E+03  0.00000000000E+00 0.  1.
          2    1    6    6  503    0 -0.12215907130E+03 -0.37198587687E+02 -0.12449802992E+02  0.12830265477E+03  0.00000000000E+00 0. -1.
         -2    1    6    6    0  503 -0.17456382684E+03 -0.12452278123E+03 -0.12396871281E+03  0.24768264865E+03  0.00000000000E+00 0.  1.
<mgrwt>
<rscale>  0 0.13671943E+04</rscale>
<asrwt>0</asrwt>
<pdfrwt beam="1">  1        2 0.14884828E+00 0.13671943E+04</pdfrwt>
<pdfrwt beam="2">  1       -1 0.74307034E-01 0.13671943E+04</pdfrwt>
<totfact> 0.53666649E+01</totfact>
</mgrwt>
</event>
<event>
12    7  0.1660832E-007  0.1511626E+04  0.7818608E-02  0.8876758E-01
          4   -1    0    0  501    0  0.00000000000E+00  0.00000000000E+00  0.13225914889E+04  0.13225914889E+04  0.00000000000E+00 0. -1.
         -3   -1    0    0    0  501 -0.00000000000E+00 -0.00000000000E+00 -0.43191960697E+03  0.43191960697E+03  0.00000000000E+00 0.  1.
         24    2    1    2    0    0  0.75826357488E+01 -0.21890638977E+03  0.78118893370E+03  0.81473650087E+03  0.74578226501E+02 0.  0.
        254    2    1    2    0    0 -0.75826357488E+01  0.21890638977E+03  0.10948294825E+03  0.93977459502E+03  0.90731045935E+03 0.  0.
         23    2    4    4    0    0 -0.17134727867E+03 -0.31341840920E+03  0.24160670601E+02  0.36925755932E+03  0.90423547686E+02 0.  0.
         23    2    4    4    0    0  0.16376464292E+03  0.53232479897E+03  0.85322277651E+02  0.57051703570E+03  0.89561415249E+02 0.  0.
          2    1    3    3  502    0  0.57364065483E+01 -0.13446516019E+03  0.34257420509E+03  0.36806367881E+03  0.00000000000E+00 0. -1.
         -1    1    3    3    0  502  0.18462292005E+01 -0.84441229579E+02  0.43861472861E+03  0.44667282206E+03  0.00000000000E+00 0.  1.
         13    1    5    5    0    0 -0.14706997268E+03 -0.27524003322E+03 -0.10528701617E+02  0.31224590680E+03  0.00000000000E+00 0. -1.
        -13    1    5    5    0    0 -0.24277305987E+02 -0.38178375977E+02  0.34689372219E+02  0.57011652521E+02  0.00000000000E+00 0.  1.
          3    1    6    6  503    0  0.82039447745E+02  0.34434909101E+03  0.90887595029E+02  0.36546863394E+03  0.00000000000E+00 0. -1.
         -3    1    6    6    0  503  0.81725195173E+02  0.18797570795E+03 -0.55653173782E+01  0.20504840176E+03  0.00000000000E+00 0.  1.
<mgrwt>
<rscale>  0 0.15116259E+04</rscale>
<asrwt>0</asrwt>
<pdfrwt beam="1">  1        4 0.20347561E+00 0.15116259E+04</pdfrwt>
<pdfrwt beam="2">  1       -3 0.66449171E-01 0.15116259E+04</pdfrwt>
<totfact> 0.60158913E-01</totfact>
</mgrwt>
</event>
<event>
12    7  0.1660832E-007  0.2891648E+04  0.7818608E-02  0.8275367E-01
         -1   -1    0    0    0  501 -0.00000000000E+00  0.00000000000E+00  0.21624075445E+04  0.21624075445E+04  0.00000000000E+00 0.  1.
          2   -1    0    0  501    0  0.00000000000E+00 -0.00000000000E+00 -0.96670341700E+03  0.96670341700E+03  0.00000000000E+00 0. -1.
         24    2    1    2    0    0 -0.11153871402E+04 -0.68749065284E+03  0.40217949297E+03  0.13729527775E+04  0.80741033311E+02 0.  0.
        254    2    1    2    0    0  0.11153871402E+04  0.68749065284E+03  0.79352463456E+03  0.17561581840E+04  0.85888203578E+03 0.  0.
         23    2    4    4    0    0  0.73136957869E+03  0.41041975253E+02  0.65316431177E+03  0.98584548763E+03  0.93176192926E+02 0.  0.
         23    2    4    4    0    0  0.38401756149E+03  0.64644867759E+03  0.14036032279E+03  0.77031269639E+03  0.91187991060E+02 0.  0.
          4    1    3    3  502    0 -0.39634351164E+03 -0.22582323438E+03  0.10345172831E+03  0.46774626935E+03  0.00000000000E+00 0. -1.
         -3    1    3    3    0  502 -0.71904362855E+03 -0.46166741846E+03  0.29872776466E+03  0.90520650816E+03  0.00000000000E+00 0.  1.
         13    1    5    5    0    0  0.14965851138E+03  0.39042305574E+02  0.10835856425E+03  0.18884795498E+03  0.00000000000E+00 0. -1.
        -13    1    5    5    0    0  0.58171106732E+03  0.19996696793E+01  0.54480574752E+03  0.79699753265E+03  0.00000000000E+00 0.  1.
          4    1    6    6  503    0  0.29652217614E+03  0.41886643819E+03  0.83503865198E+02  0.51994941050E+03  0.00000000000E+00 0.  1.
         -4    1    6    6    0  503  0.87495385359E+02  0.22758223940E+03  0.56856457588E+02  0.25036328589E+03  0.00000000000E+00 0. -1.
<mgrwt>
<rscale>  0 0.28916478E+04</rscale>
<asrwt>0</asrwt>
<pdfrwt beam="1">  1        2 0.14872360E+00 0.28916478E+04</pdfrwt>
<pdfrwt beam="2">  1       -1 0.33267808E+00 0.28916478E+04</pdfrwt>
<totfact> 0.52675436E-01</totfact>
</mgrwt>
</event>
<event>
12    7  0.1660832E-007  0.1532805E+04  0.7818608E-02  0.8862927E-01
         -1   -1    0    0    0  501 -0.00000000000E+00  0.00000000000E+00  0.28098458771E+03  0.28098458771E+03  0.00000000000E+00 0.  1.
          2   -1    0    0  501    0  0.00000000000E+00 -0.00000000000E+00 -0.20904081314E+04  0.20904081314E+04  0.00000000000E+00 0. -1.
         24    2    1    2    0    0  0.19458189812E+03 -0.41640822310E+03 -0.89492889669E+03  0.10100475028E+04  0.89667744795E+02 0.  0.
        254    2    1    2    0    0 -0.19458189812E+03  0.41640822310E+03 -0.91449464695E+03  0.13613452163E+04  0.89760927756E+03 0.  0.
         23    2    4    4    0    0 -0.34301867634E+03 -0.17185100598E+03 -0.39205819800E+03  0.55559578530E+03  0.88218282913E+02 0.  0.
         23    2    4    4    0    0  0.14843677823E+03  0.58825922908E+03 -0.52243644895E+03  0.80574943095E+03  0.90608523687E+02 0.  0.
          2    1    3    3  502    0  0.17381211265E+03 -0.37845360174E+03 -0.73944168716E+03  0.84865292545E+03  0.00000000000E+00 0. -1.
         -1    1    3    3    0  502  0.20769785471E+02 -0.37954621357E+02 -0.15548720954E+03  0.16139457736E+03  0.00000000000E+00 0.  1.
         13    1    5    5    0    0  0.32524949390E+01 -0.11722412743E+02 -0.11774150707E+02  0.16929982537E+02  0.00000000000E+00 0.  1.
        -13    1    5    5    0    0 -0.34627117128E+03 -0.16012859324E+03 -0.38028404730E+03  0.53866580276E+03  0.00000000000E+00 0. -1.
          1    1    6    6  503    0  0.97274862506E+02  0.23523885485E+03 -0.25118224572E+03  0.35762024309E+03  0.00000000000E+00 0. -1.
         -1    1    6    6    0  503  0.51161915720E+02  0.35302037423E+03 -0.27125420323E+03  0.44812918786E+03  0.00000000000E+00 0.  1.
<mgrwt>
<rscale>  0 0.15328046E+04</rscale>
<asrwt>0</asrwt>
<pdfrwt beam="1">  1        2 0.32160126E+00 0.15328046E+04</pdfrwt>
<pdfrwt beam="2">  1       -1 0.43228397E-01 0.15328046E+04</pdfrwt>
<totfact> 0.34489330E+01</totfact>
</mgrwt>
</event>
<event>
12    7  0.1660832E-007  0.2000231E+04  0.7818608E-02  0.8606513E-01
         -1   -1    0    0    0  501 -0.00000000000E+00  0.00000000000E+00  0.58280885809E+03  0.58280885809E+03  0.00000000000E+00 0.  1.
          2   -1    0    0  501    0  0.00000000000E+00 -0.00000000000E+00 -0.17162249151E+04  0.17162249151E+04  0.00000000000E+00 0. -1.
         24    2    1    2    0    0 -0.77572252454E+03 -0.15979168967E+03 -0.37058951130E+03  0.87808847213E+03  0.80149609043E+02 0.  0.
        254    2    1    2    0    0  0.77572252454E+03  0.15979168967E+03 -0.76282654569E+03  0.14209453010E+04  0.89994577092E+03 0.  0.
         23    2    4    4    0    0  0.32739778992E+03 -0.35942690835E+03 -0.22639733904E+03  0.54436588011E+03  0.93281514825E+02 0.  0.
         23    2    4    4    0    0  0.44832473462E+03  0.51921859802E+03 -0.53642920666E+03  0.87657942094E+03  0.10026049703E+03 0.  0.
          4    1    3    3  502    0 -0.60206495354E+03 -0.15058234743E+03 -0.31168398179E+03  0.69448121367E+03  0.00000000000E+00 0. -1.
         -3    1    3    3    0  502 -0.17365757100E+03 -0.92093422373E+01 -0.58905529509E+02  0.18360725846E+03  0.00000000000E+00 0.  1.
         13    1    5    5    0    0  0.10169068202E+03 -0.54062695882E+02 -0.58585476555E+02  0.12921311063E+03  0.00000000000E+00 0. -1.
        -13    1    5    5    0    0  0.22570710791E+03 -0.30536421247E+03 -0.16781186248E+03  0.41515276948E+03  0.00000000000E+00 0.  1.
          3    1    6    6  503    0  0.31659502553E+02  0.87585100118E+02 -0.79669598645E+02  0.12255904215E+03  0.00000000000E+00 0. -1.
         -3    1    6    6    0  503  0.41666523206E+03  0.43163349790E+03 -0.45675960801E+03  0.75402037879E+03  0.00000000000E+00 0.  1.
<mgrwt>
<rscale>  0 0.20002311E+04</rscale>
<asrwt>0</asrwt>
<pdfrwt beam="1">  1        2 0.26403460E+00 0.20002311E+04</pdfrwt>
<pdfrwt beam="2">  1       -1 0.89662901E-01 0.20002311E+04</pdfrwt>
<totfact> 0.12378357E+01</totfact>
</mgrwt>
</event>
<event>
12    7  0.1660832E-007  0.1599776E+04  0.7818608E-02  0.8820686E-01
          2   -1    0    0  501    0  0.00000000000E+00  0.00000000000E+00  0.82178399175E+03  0.82178399175E+03  0.00000000000E+00 0. -1.
         -1   -1    0    0    0  501 -0.00000000000E+00 -0.00000000000E+00 -0.77857509148E+03  0.77857509148E+03  0.00000000000E+00 0.  1.
         24    2    1    2    0    0  0.23021380427E+03 -0.46728779607E+03  0.16059642317E+03  0.55064769805E+03  0.77880653579E+02 0.  0.
        254    2    1    2    0    0 -0.23021380427E+03  0.46728779607E+03 -0.11738752290E+03  0.10497113852E+04  0.90374658041E+03 0.  0.
         23    2    4    4    0    0 -0.18037684974E+03  0.56892283601E+03 -0.40490011743E+03  0.72664055453E+03  0.88619349639E+02 0.  0.
         23    2    4    4    0    0 -0.49836954525E+02 -0.10163503994E+03  0.28751259453E+03  0.32307083064E+03  0.94328501618E+02 0.  0.
          2    1    3    3  502    0  0.15422940758E+03 -0.26295763212E+03  0.60636358139E+02  0.31082180487E+03  0.00000000000E+00 0. -1.
         -3    1    3    3    0  502  0.75984396683E+02 -0.20433016396E+03  0.99960065029E+02  0.23982589319E+03  0.00000000000E+00 0.  1.
         13    1    5    5    0    0 -0.14227829473E+03  0.49397537135E+03 -0.37899761035E+03  0.63866577276E+03  0.00000000000E+00 0. -1.
        -13    1    5    5    0    0 -0.38098555015E+02  0.74947464659E+02 -0.25902507087E+02  0.87974781764E+02  0.00000000000E+00 0.  1.
          1    1    6    6  503    0 -0.78042053416E+02 -0.75746209849E+02  0.22149639897E+03  0.24675636804E+03  0.00000000000E+00 0. -1.
         -1    1    6    6    0  503  0.28205098891E+02 -0.25888830090E+02  0.66016195560E+02  0.76314462608E+02  0.00000000000E+00 0.  1.
<mgrwt>
<rscale>  0 0.15997757E+04</rscale>
<asrwt>0</asrwt>
<pdfrwt beam="1">  1        2 0.12642831E+00 0.15997757E+04</pdfrwt>
<pdfrwt beam="2">  1       -1 0.11978078E+00 0.15997757E+04</pdfrwt>
<totfact> 0.22625770E+01</totfact>
</mgrwt>
</event>
<event>
12    7  0.1660832E-007  0.1713220E+04  0.7818608E-02  0.8753860E-01
          2   -1    0    0  501    0  0.00000000000E+00  0.00000000000E+00  0.37590772249E+04  0.37590772249E+04  0.00000000000E+00 0. -1.
         -1   -1    0    0    0  501 -0.00000000000E+00 -0.00000000000E+00 -0.19520231658E+03  0.19520231658E+03  0.00000000000E+00 0.  1.
         24    2    1    2    0    0  0.54556154050E+03 -0.59086120074E+02  0.59932593629E+03  0.81652347817E+03  0.79940280492E+02 0.  0.
        254    2    1    2    0    0 -0.54556154050E+03  0.59086120074E+02  0.29645489720E+04  0.31377560633E+04  0.86938710667E+03 0.  0.
         23    2    4    4    0    0 -0.61615107271E+03  0.10423162781E+03  0.29458705802E+04  0.30128181578E+04  0.91724588448E+02 0.  0.
         23    2    4    4    0    0  0.70589532215E+02 -0.45145507733E+02  0.18678391782E+02  0.12493790545E+03  0.90772236793E+02 0.  0.
          2    1    3    3  502    0  0.24391968673E+03 -0.66293743544E+02  0.26785840257E+03  0.36829308687E+03  0.00000000000E+00 0. -1.
         -1    1    3    3    0  502  0.30164185377E+03  0.72076234701E+01  0.33146753372E+03  0.44823039131E+03  0.00000000000E+00 0.  1.
         13    1    5    5    0    0 -0.21140196273E+03  0.70914437283E+02  0.91929072276E+03  0.94594665823E+03  0.00000000000E+00 0. -1.
        -13    1    5    5    0    0 -0.40474910998E+03  0.33317190524E+02  0.20265798575E+04  0.20668714996E+04  0.00000000000E+00 0.  1.
          1    1    6    6  503    0  0.33083228633E+02  0.34565789407E+01  0.46796334208E+02  0.57413803654E+02  0.00000000000E+00 0. -1.
         -1    1    6    6    0  503  0.37506303582E+02 -0.48602086674E+02 -0.28117942425E+02  0.67524101799E+02  0.00000000000E+00 0.  1.
<mgrwt>
<rscale>  0 0.17132199E+04</rscale>
<asrwt>0</asrwt>
<pdfrwt beam="1">  1        2 0.57831952E+00 0.17132199E+04</pdfrwt>
<pdfrwt beam="2">  1       -1 0.30031128E-01 0.17132199E+04</pdfrwt>
<totfact> 0.58905145E+00</totfact>
</mgrwt>
</event>
<event>
12    7  0.1660832E-007  0.2831196E+04  0.7818608E-02  0.8293648E-01
          2   -1    0    0  501    0  0.00000000000E+00  0.00000000000E+00  0.20076020638E+04  0.20076020638E+04  0.00000000000E+00 0. -1.
         -1   -1    0    0    0  501 -0.00000000000E+00 -0.00000000000E+00 -0.99816452924E+03  0.99816452924E+03  0.00000000000E+00 0.  1.
         24    2    1    2    0    0 -0.71723631641E+03 -0.59787850998E+03  0.13723192712E+04  0.16618596241E+04  0.81428384456E+02 0.  0.
        254    2    1    2    0    0  0.71723631641E+03  0.59787850998E+03 -0.36288173661E+03  0.13439069690E+04  0.89583265190E+03 0.  0.
         23    2    4    4    0    0  0.70120117355E+03  0.29177610171E+02 -0.28221468337E+03  0.76219077186E+03  0.93569367172E+02 0.  0.
         23    2    4    4    0    0  0.16035142863E+02  0.56870089981E+03 -0.80667053247E+02  0.58171619712E+03  0.90601993652E+02 0.  0.
          4    1    3    3  502    0 -0.39123636069E+03 -0.36885318603E+03  0.82934930145E+03  0.98840215833E+03  0.00000000000E+00 0. -1.
         -3    1    3    3    0  502 -0.32599995572E+03 -0.22902532395E+03  0.54296996977E+03  0.67345746578E+03  0.00000000000E+00 0.  1.
         13    1    5    5    0    0  0.42545598705E+03  0.32310307698E+02 -0.21757755916E+03  0.47895380481E+03  0.00000000000E+00 0.  1.
        -13    1    5    5    0    0  0.27574518650E+03 -0.31326975268E+01 -0.64637124210E+02  0.28323696704E+03  0.00000000000E+00 0. -1.
          3    1    6    6  503    0 -0.20702892155E+02  0.20684265481E+03  0.54278867502E+01  0.20794700177E+03  0.00000000000E+00 0. -1.
         -3    1    6    6    0  503  0.36738035018E+02  0.36185824500E+03 -0.86094939997E+02  0.37376919534E+03  0.00000000000E+00 0.  1.
<mgrwt>
<rscale>  0 0.28311956E+04</rscale>
<asrwt>0</asrwt>
<pdfrwt beam="1">  1        2 0.30886186E+00 0.28311956E+04</pdfrwt>
<pdfrwt beam="2">  1       -1 0.15356377E+00 0.28311956E+04</pdfrwt>
<totfact> 0.21385388E+00</totfact>
</mgrwt>
</event>
<event>
12    7  0.1660832E-007  0.1594339E+04  0.7818608E-02  0.8824033E-01
          2   -1    0    0  501    0  0.00000000000E+00  0.00000000000E+00  0.18344809626E+04  0.18344809626E+04  0.00000000000E+00 0. -1.
         -3   -1    0    0    0  501 -0.00000000000E+00 -0.00000000000E+00 -0.34640820021E+03  0.34640820021E+03  0.00000000000E+00 0.  1.
         24    2    1    2    0    0 -0.25696554825E+03  0.27908119618E+03 -0.15383380304E+02  0.38804550946E+03  0.80156484290E+02 0.  0.
        254    2    1    2    0    0  0.25696554825E+03 -0.27908119618E+03  0.15034561427E+04  0.17928436534E+04  0.89999465852E+03 0.  0.
         23    2    4    4    0    0  0.34556408112E+03  0.20683367092E+03  0.37272589363E+03  0.55561982452E+03  0.87144110678E+02 0.  0.
         23    2    4    4    0    0 -0.88598532871E+02 -0.48591486710E+03  0.11307302491E+04  0.12372238289E+04  0.90603247235E+02 0.  0.
          4    1    3    3  502    0 -0.85086616336E+02  0.11806063144E+03 -0.40851378796E+02  0.15115184459E+03  0.00000000000E+00 0. -1.
         -3    1    3    3    0  502 -0.17187893192E+03  0.16102056474E+03  0.25467998492E+02  0.23689366487E+03  0.00000000000E+00 0.  1.
         13    1    5    5    0    0  0.28018208400E+03  0.13054179969E+03  0.30638957361E+03  0.43522147520E+03  0.00000000000E+00 0. -1.
        -13    1    5    5    0    0  0.65381997121E+02  0.76291871233E+02  0.66336320018E+02  0.12039834931E+03  0.00000000000E+00 0.  1.
          3    1    6    6  503    0 -0.95366189989E+02 -0.30031903268E+03  0.66682027623E+03  0.73751983863E+03  0.00000000000E+00 0. -1.
         -3    1    6    6    0  503  0.67676571174E+01 -0.18559583442E+03  0.46390997289E+03  0.49970399026E+03  0.00000000000E+00 0.  1.
<mgrwt>
<rscale>  0 0.15943390E+04</rscale>
<asrwt>0</asrwt>
<pdfrwt beam="1">  1        2 0.28222783E+00 0.15943390E+04</pdfrwt>
<pdfrwt beam="2">  1       -3 0.53293570E-01 0.15943390E+04</pdfrwt>
<totfact> 0.17678384E+01</totfact>
</mgrwt>
</event>
<event>
12    7  0.1660832E-007  0.1474543E+04  0.7818608E-02  0.8901560E-01
          2   -1    0    0  501    0  0.00000000000E+00  0.00000000000E+00  0.79584060427E+03  0.79584060427E+03  0.00000000000E+00 0. -1.
         -1   -1    0    0    0  501 -0.00000000000E+00 -0.00000000000E+00 -0.68301280702E+03  0.68301280702E+03  0.00000000000E+00 0.  1.
         24    2    1    2    0    0 -0.39455273344E+03  0.11369172808E+03  0.25922948832E+03  0.49203443204E+03  0.79374342188E+02 0.  0.
        254    2    1    2    0    0  0.39455273344E+03 -0.11369172808E+03 -0.14640169106E+03  0.98681897925E+03  0.88531382807E+03 0.  0.
         23    2    4    4    0    0  0.61662713844E+03 -0.13699718283E+03 -0.29500247100E+03  0.70305311813E+03  0.90884393841E+02 0.  0.
         23    2    4    4    0    0 -0.22207440500E+03  0.23305454755E+02  0.14860077994E+03  0.28376586112E+03  0.92631995349E+02 0.  0.
          4    1    3    3  502    0 -0.27550798599E+03  0.96442566600E+02  0.21996524468E+03  0.36550038011E+03  0.00000000000E+00 0. -1.
         -3    1    3    3    0  502 -0.11904474746E+03  0.17249161477E+02  0.39264243638E+02  0.12653405193E+03  0.00000000000E+00 0.  1.
         13    1    5    5    0    0  0.51040190808E+03 -0.13392248542E+03 -0.21395715631E+03  0.56940583471E+03  0.00000000000E+00 0. -1.
        -13    1    5    5    0    0  0.10622523037E+03 -0.30746974121E+01 -0.81045314693E+02  0.13364728342E+03  0.00000000000E+00 0.  1.
          1    1    6    6  503    0 -0.14492374319E+03 -0.74793870788E+00  0.14165219737E+03  0.20265437516E+03  0.00000000000E+00 0. -1.
         -1    1    6    6    0  503 -0.77150661812E+02  0.24053393462E+02  0.69485825673E+01  0.81111485961E+02  0.00000000000E+00 0.  1.
<mgrwt>
<rscale>  0 0.14745431E+04</rscale>
<asrwt>0</asrwt>
<pdfrwt beam="1">  1        2 0.12243702E+00 0.14745431E+04</pdfrwt>
<pdfrwt beam="2">  1       -1 0.10507889E+00 0.14745431E+04</pdfrwt>
<totfact> 0.32592590E+01</totfact>
</mgrwt>
</event>
<event>
12    7  0.1660832E-007  0.1705375E+04  0.7818608E-02  0.8758305E-01
         -1   -1    0    0    0  501 -0.00000000000E+00  0.00000000000E+00  0.72824105461E+03  0.72824105461E+03  0.00000000000E+00 0.  1.
          2   -1    0    0  501    0  0.00000000000E+00 -0.00000000000E+00 -0.99840060442E+03  0.99840060442E+03  0.00000000000E+00 0. -1.
         24    2    1    2    0    0  0.19550916980E+03 -0.30855352508E+03 -0.59659295660E+03  0.70430822302E+03  0.81840111379E+02 0.  0.
        254    2    1    2    0    0 -0.19550916980E+03  0.30855352508E+03  0.32643340680E+03  0.10223334360E+04  0.89731698523E+03 0.  0.
         23    2    4    4    0    0  0.18818500206E+03 -0.19324884116E+03 -0.37376326450E+02  0.28740535236E+03  0.91902868155E+02 0.  0.
         23    2    4    4    0    0 -0.38369417187E+03  0.50180236624E+03  0.36380973325E+03  0.73492808365E+03  0.93460867962E+02 0.  0.
          4    1    3    3  502    0  0.88339271322E+02 -0.20134791193E+03 -0.39512120351E+03  0.45217869693E+03  0.00000000000E+00 0. -1.
         -3    1    3    3    0  502  0.10716989848E+03 -0.10720561315E+03 -0.20147175309E+03  0.25212952609E+03  0.00000000000E+00 0.  1.
         13    1    5    5    0    0  0.12365760195E+03 -0.13923916678E+03 -0.67426160702E+02  0.19805311215E+03  0.00000000000E+00 0.  1.
        -13    1    5    5    0    0  0.64527400111E+02 -0.54009674385E+02  0.30049834251E+02  0.89352240211E+02  0.00000000000E+00 0. -1.
          4    1    6    6  503    0  0.46821877411E+01  0.69319742996E+01  0.27974757734E+00  0.83697914216E+01  0.00000000000E+00 0. -1.
         -4    1    6    6    0  503 -0.38837635961E+03  0.49487039194E+03  0.36352998567E+03  0.72655829223E+03  0.00000000000E+00 0.  1.
<mgrwt>
<rscale>  0 0.17053754E+04</rscale>
<asrwt>0</asrwt>
<pdfrwt beam="1">  1        2 0.15360009E+00 0.17053754E+04</pdfrwt>
<pdfrwt beam="2">  1       -1 0.11203709E+00 0.17053754E+04</pdfrwt>
<totfact> 0.20022133E+01</totfact>
</mgrwt>
</event>
<event>
12    7  0.1660832E-007  0.2696485E+04  0.7818608E-02  0.8336146E-01
         -3   -1    0    0    0  501 -0.00000000000E+00  0.00000000000E+00  0.45168860300E+03  0.45168860300E+03  0.00000000000E+00 0.  1.
          2   -1    0    0  501    0  0.00000000000E+00 -0.00000000000E+00 -0.40243614192E+04  0.40243614192E+04  0.00000000000E+00 0. -1.
         24    2    1    2    0    0 -0.11187942843E+04 -0.10688309641E+03 -0.22352754447E+04  0.25032265136E+04  0.81006284907E+02 0.  0.
        254    2    1    2    0    0  0.11187942843E+04  0.10688309641E+03 -0.13373973715E+04  0.19728235085E+04  0.91666581677E+03 0.  0.
         23    2    4    4    0    0  0.11894617941E+04 -0.10181976770E+03 -0.10125462040E+04  0.15680968152E+04  0.92147609636E+02 0.  0.
         23    2    4    4    0    0 -0.70667509796E+02  0.20870286411E+03 -0.32485116752E+03  0.40472669333E+03  0.98613552930E+02 0.  0.
          4    1    3    3  502    0 -0.13216790470E+03  0.19869030371E+01 -0.21752321741E+03  0.25453615250E+03  0.00000000000E+00 0. -1.
         -3    1    3    3    0  502 -0.98662637960E+03 -0.10886999945E+03 -0.20177522273E+04  0.22486903612E+04  0.00000000000E+00 0.  1.
         13    1    5    5    0    0  0.11136429573E+04 -0.82837437719E+02 -0.91936800739E+03  0.14464785551E+04  0.00000000000E+00 0.  1.
        -13    1    5    5    0    0  0.75818836789E+02 -0.18982329979E+02 -0.93178196601E+02  0.12161826008E+03  0.00000000000E+00 0. -1.
          3    1    6    6  503    0 -0.87411016752E+02  0.20574737889E+03 -0.30971248858E+03  0.38196137940E+03  0.00000000000E+00 0.  1.
         -3    1    6    6    0  503  0.16743506957E+02  0.29554852205E+01 -0.15138678943E+02  0.22765313928E+02  0.00000000000E+00 0. -1.
<mgrwt>
<rscale>  0 0.26964853E+04</rscale>
<asrwt>0</asrwt>
<pdfrwt beam="1">  1        2 0.61913250E+00 0.26964853E+04</pdfrwt>
<pdfrwt beam="2">  1       -3 0.69490557E-01 0.26964853E+04</pdfrwt>
<totfact> 0.36713897E-01</totfact>
</mgrwt>
</event>
<event>
12    7  0.1660832E-007  0.2453503E+04  0.7818608E-02  0.8419740E-01
         -1   -1    0    0    0  501 -0.00000000000E+00  0.00000000000E+00  0.14953133120E+04  0.14953133120E+04  0.00000000000E+00 0.  1.
          2   -1    0    0  501    0  0.00000000000E+00 -0.00000000000E+00 -0.10064238325E+04  0.10064238325E+04  0.00000000000E+00 0. -1.
         24    2    1    2    0    0  0.91229905813E+03 -0.26038433375E+03 -0.26780958712E+03  0.98909972444E+03  0.80664225013E+02 0.  0.
        254    2    1    2    0    0 -0.91229905813E+03  0.26038433375E+03  0.75669906660E+03  0.15126374200E+04  0.90298887824E+03 0.  0.
         23    2    4    4    0    0  0.67104193377E+02  0.71824894486E+02  0.44346722602E+03  0.46322208317E+03  0.90828021800E+02 0.  0.
         23    2    4    4    0    0 -0.97940325151E+03  0.18855943926E+03  0.31323184058E+03  0.10494153368E+04  0.91503945250E+02 0.  0.
          4    1    3    3  502    0  0.68699393174E+03 -0.23164724273E+03 -0.20702193668E+03  0.75397558951E+03  0.00000000000E+00 0. -1.
         -3    1    3    3    0  502  0.22530512639E+03 -0.28737091023E+02 -0.60787650437E+02  0.23512413493E+03  0.00000000000E+00 0.  1.
         13    1    5    5    0    0  0.89570357002E+02  0.59727843401E+02  0.33901936148E+03  0.35570267301E+03  0.00000000000E+00 0.  1.
        -13    1    5    5    0    0 -0.22466163625E+02  0.12097051085E+02  0.10444786454E+03  0.10751941015E+03  0.00000000000E+00 0. -1.
          3    1    6    6  503    0 -0.15871302485E+02  0.27038787920E+01 -0.64775594900E+01  0.17354192002E+02  0.00000000000E+00 0. -1.
         -3    1    6    6    0  503 -0.96353194903E+03  0.18585556047E+03  0.31970940007E+03  0.10320611448E+04  0.00000000000E+00 0.  1.
<mgrwt>
<rscale>  0 0.24535028E+04</rscale>
<asrwt>0</asrwt>
<pdfrwt beam="1">  1        2 0.15483444E+00 0.24535028E+04</pdfrwt>
<pdfrwt beam="2">  1       -1 0.23004820E+00 0.24535028E+04</pdfrwt>
<totfact> 0.24021268E+00</totfact>
</mgrwt>
</event>
<event>
12    7  0.1660832E-007  0.1443802E+04  0.7818608E-02  0.8922709E-01
          2   -1    0    0  501    0  0.00000000000E+00  0.00000000000E+00  0.61445269676E+03  0.61445269676E+03  0.00000000000E+00 0. -1.
         -1   -1    0    0    0  501 -0.00000000000E+00 -0.00000000000E+00 -0.84813880602E+03  0.84813880602E+03  0.00000000000E+00 0.  1.
         24    2    1    2    0    0 -0.25761925718E+03 -0.34081914794E+03 -0.16544432501E+03  0.46507022751E+03  0.79956979498E+02 0.  0.
        254    2    1    2    0    0  0.25761925718E+03  0.34081914794E+03 -0.68241784248E+02  0.99752127526E+03  0.89881387407E+03 0.  0.
         23    2    4    4    0    0  0.13354439189E+03  0.61330852796E+03 -0.18924435946E+03  0.66199864165E+03  0.91909297112E+02 0.  0.
         23    2    4    4    0    0  0.12407486530E+03 -0.27248938002E+03  0.12100257521E+03  0.33552263361E+03  0.91042737411E+02 0.  0.
          4    1    3    3  502    0 -0.10437957664E+02  0.16230399290E+01 -0.11345735796E+02  0.15501965667E+02  0.00000000000E+00 0. -1.
         -3    1    3    3    0  502 -0.24718129952E+03 -0.34244218787E+03 -0.15409858921E+03  0.44956826185E+03  0.00000000000E+00 0.  1.
         13    1    5    5    0    0  0.13432306020E+03  0.44818495451E+03 -0.15876531650E+03  0.49408386300E+03  0.00000000000E+00 0. -1.
        -13    1    5    5    0    0 -0.77866830842E+00  0.16512357345E+03 -0.30479042959E+02  0.16791477866E+03  0.00000000000E+00 0.  1.
          1    1    6    6  503    0  0.55783747918E+02 -0.19961280167E+03  0.11109853451E+03  0.23515948098E+03  0.00000000000E+00 0. -1.
         -1    1    6    6    0  503  0.68291117377E+02 -0.72876578344E+02  0.99040407036E+01  0.10036315263E+03  0.00000000000E+00 0.  1.
<mgrwt>
<rscale>  0 0.14438022E+04</rscale>
<asrwt>0</asrwt>
<pdfrwt beam="1">  1        2 0.94531185E-01 0.14438022E+04</pdfrwt>
<pdfrwt beam="2">  1       -1 0.13048289E+00 0.14438022E+04</pdfrwt>
<totfact> 0.26842883E+01</totfact>
</mgrwt>
</event>
<event>
12    7  0.1660832E-007  0.1977967E+04  0.7818608E-02  0.8616991E-01
          2   -1    0    0  501    0  0.00000000000E+00  0.00000000000E+00  0.20408937190E+04  0.20408937190E+04  0.00000000000E+00 0. -1.
         -1   -1    0    0    0  501 -0.00000000000E+00 -0.00000000000E+00 -0.47924531106E+03  0.47924531106E+03  0.00000000000E+00 0.  1.
         24    2    1    2    0    0 -0.11312931012E+03 -0.77048751250E+03  0.49225324703E+03  0.92463659228E+03  0.78678591974E+02 0.  0.
        254    2    1    2    0    0  0.11312931012E+03  0.77048751250E+03  0.10693951609E+04  0.15955024378E+04  0.89194886122E+03 0.  0.
         23    2    4    4    0    0 -0.26410674294E+03  0.44501259265E+03  0.93306785094E+03  0.10706668068E+04  0.89012456754E+02 0.  0.
         23    2    4    4    0    0  0.37723605306E+03  0.32547491985E+03  0.13632730996E+03  0.52483563096E+03  0.92878097013E+02 0.  0.
          2    1    3    3  502    0 -0.91816264528E+02 -0.48803915433E+03  0.35096530966E+03  0.60810286233E+03  0.00000000000E+00 0. -1.
         -1    1    3    3    0  502 -0.21313045596E+02 -0.28244835817E+03  0.14128793737E+03  0.31653372994E+03  0.00000000000E+00 0.  1.
         13    1    5    5    0    0 -0.24537940697E+03  0.35458327807E+03  0.79789403055E+03  0.90695933671E+03  0.00000000000E+00 0.  1.
        -13    1    5    5    0    0 -0.18727335967E+02  0.90429314578E+02  0.13517382039E+03  0.16370747010E+03  0.00000000000E+00 0. -1.
          1    1    6    6  503    0  0.17304461310E+03  0.94232335530E+02  0.71467623783E+02  0.20959912316E+03  0.00000000000E+00 0. -1.
         -1    1    6    6    0  503  0.20419143996E+03  0.23124258432E+03  0.64859686174E+02  0.31523650779E+03  0.00000000000E+00 0.  1.
<mgrwt>
<rscale>  0 0.19779674E+04</rscale>
<asrwt>0</asrwt>
<pdfrwt beam="1">  1        2 0.31398364E+00 0.19779674E+04</pdfrwt>
<pdfrwt beam="2">  1       -1 0.73730049E-01 0.19779674E+04</pdfrwt>
<totfact> 0.12447466E+01</totfact>
</mgrwt>
</event>
<event>
12    7  0.1660832E-007  0.1374946E+04  0.7818608E-02  0.8972156E-01
         -1   -1    0    0    0  501 -0.00000000000E+00  0.00000000000E+00  0.39748187432E+03  0.39748187432E+03  0.00000000000E+00 0.  1.
          2   -1    0    0  501    0  0.00000000000E+00 -0.00000000000E+00 -0.11890339493E+04  0.11890339493E+04  0.00000000000E+00 0. -1.
         24    2    1    2    0    0  0.28986893181E+03 -0.19949263411E+03 -0.42257146076E+03  0.55566847371E+03  0.79871800614E+02 0.  0.
        254    2    1    2    0    0 -0.28986893181E+03  0.19949263411E+03 -0.36898061419E+03  0.10308473499E+04  0.89592313088E+03 0.  0.
         23    2    4    4    0    0 -0.19168255172E+03 -0.22040350824E+03  0.15700618558E+03  0.34455902974E+03  0.93541838710E+02 0.  0.
         23    2    4    4    0    0 -0.98186380084E+02  0.41989614235E+03 -0.52598679977E+03  0.68628832015E+03  0.91521632714E+02 0.  0.
          4    1    3    3  502    0  0.19200184868E+03 -0.13140985439E+03 -0.33444030529E+03  0.40741082156E+03  0.00000000000E+00 0. -1.
         -3    1    3    3    0  502  0.97867083128E+02 -0.68082779723E+02 -0.88131155476E+02  0.14825765215E+03  0.00000000000E+00 0.  1.
         13    1    5    5    0    0 -0.12639131451E+03 -0.75162919932E+02  0.84342254239E+02  0.16952240196E+03  0.00000000000E+00 0. -1.
        -13    1    5    5    0    0 -0.65291237214E+02 -0.14524058830E+03  0.72663931337E+02  0.17503662778E+03  0.00000000000E+00 0.  1.
          4    1    6    6  503    0 -0.28161735922E+02  0.97464922885E+02 -0.69222897394E+02  0.12281817490E+03  0.00000000000E+00 0. -1.
         -4    1    6    6    0  503 -0.70024644162E+02  0.32243121946E+03 -0.45676390237E+03  0.56347014525E+03  0.00000000000E+00 0.  1.
<mgrwt>
<rscale>  0 0.13749465E+04</rscale>
<asrwt>0</asrwt>
<pdfrwt beam="1">  1        2 0.18292830E+00 0.13749465E+04</pdfrwt>
<pdfrwt beam="2">  1       -1 0.61151057E-01 0.13749465E+04</pdfrwt>
<totfact> 0.57983335E+01</totfact>
</mgrwt>
</event>
<event>
12    7  0.1660832E-007  0.1512374E+04  0.7818608E-02  0.8876266E-01
         -1   -1    0    0    0  501 -0.00000000000E+00  0.00000000000E+00  0.58997306473E+03  0.58997306473E+03  0.00000000000E+00 0.  1.
          2   -1    0    0  501    0  0.00000000000E+00 -0.00000000000E+00 -0.96922906092E+03  0.96922906092E+03  0.00000000000E+00 0. -1.
         24    2    1    2    0    0  0.99552319366E+02 -0.20693259121E+03  0.31296190820E+03  0.39688070602E+03  0.82688434703E+02 0.  0.
        254    2    1    2    0    0 -0.99552319366E+02  0.20693259121E+03 -0.69221790439E+03  0.11623214196E+04  0.90503795156E+03 0.  0.
         23    2    4    4    0    0  0.25730454387E+03  0.31893095792E+03 -0.65326864869E+03  0.77649905257E+03  0.90930011950E+02 0.  0.
         23    2    4    4    0    0 -0.35685686323E+03 -0.11199836671E+03 -0.38949255710E+02  0.38582236706E+03  0.86321488727E+02 0.  0.
          4    1    3    3  502    0  0.38790639301E+02 -0.14357063955E+03  0.14687598922E+03  0.20902104786E+03  0.00000000000E+00 0. -1.
         -3    1    3    3    0  502  0.60761680065E+02 -0.63361951656E+02  0.16608591898E+03  0.18785965816E+03  0.00000000000E+00 0.  1.
         13    1    5    5    0    0  0.97336964333E+02  0.57712538891E+02 -0.16378786481E+03  0.19907708665E+03  0.00000000000E+00 0. -1.
        -13    1    5    5    0    0  0.15996757954E+03  0.26121841903E+03 -0.48948078388E+03  0.57742196592E+03  0.00000000000E+00 0.  1.
          2    1    6    6  503    0 -0.31150710529E+02  0.75706093706E+00  0.18733402514E+02  0.36357671507E+02  0.00000000000E+00 0. -1.
         -2    1    6    6    0  503 -0.32570615271E+03 -0.11275542765E+03 -0.57682658223E+02  0.34946469555E+03  0.00000000000E+00 0.  1.
<mgrwt>
<rscale>  0 0.15123743E+04</rscale>
<asrwt>0</asrwt>
<pdfrwt beam="1">  1        2 0.14911216E+00 0.15123743E+04</pdfrwt>
<pdfrwt beam="2">  1       -1 0.90765087E-01 0.15123743E+04</pdfrwt>
<totfact> 0.34445684E+01</totfact>
</mgrwt>
</event>
<event>
12    7  0.1660832E-007  0.1773979E+04  0.7818608E-02  0.8720261E-01
          2   -1    0    0  501    0  0.00000000000E+00  0.00000000000E+00  0.11162836321E+04  0.11162836321E+04  0.00000000000E+00 0. -1.
         -1   -1    0    0    0  501 -0.00000000000E+00 -0.00000000000E+00 -0.70479414634E+03  0.70479414634E+03  0.00000000000E+00 0.  1.
         24    2    1    2    0    0  0.29491136887E+03  0.57640221862E+03  0.27136216589E+03  0.70645196201E+03  0.78896872120E+02 0.  0.
        254    2    1    2    0    0 -0.29491136887E+03 -0.57640221862E+03  0.14012731987E+03  0.11146258164E+04  0.89640549515E+03 0.  0.
         23    2    4    4    0    0 -0.46494891411E+03 -0.41115415541E+03  0.40546463085E+03  0.74693796960E+03  0.91046863312E+02 0.  0.
         23    2    4    4    0    0  0.17003754524E+03 -0.16524806322E+03 -0.26533731098E+03  0.36768784681E+03  0.92578479722E+02 0.  0.
          4    1    3    3  502    0  0.91903585222E+02  0.25376258358E+03  0.13340457967E+03  0.30106228538E+03  0.00000000000E+00 0. -1.
         -3    1    3    3    0  502  0.20300778365E+03  0.32263963504E+03  0.13795758622E+03  0.40538967663E+03  0.00000000000E+00 0.  1.
         13    1    5    5    0    0 -0.39816429599E+02 -0.38355145296E+02  0.81810547401E+01  0.55887341084E+02  0.00000000000E+00 0. -1.
        -13    1    5    5    0    0 -0.42513248451E+03 -0.37279901011E+03  0.39728357611E+03  0.69105062852E+03  0.00000000000E+00 0.  1.
          2    1    6    6  503    0  0.13941016754E+02  0.84509716251E+01 -0.32007873462E+01  0.16613726529E+02  0.00000000000E+00 0. -1.
         -2    1    6    6    0  503  0.15609652849E+03 -0.17369903484E+03 -0.26213652364E+03  0.35107412029E+03  0.00000000000E+00 0.  1.
<mgrwt>
<rscale>  0 0.17739788E+04</rscale>
<asrwt>0</asrwt>
<pdfrwt beam="1">  1        2 0.17173594E+00 0.17739788E+04</pdfrwt>
<pdfrwt beam="2">  1       -1 0.10842987E+00 0.17739788E+04</pdfrwt>
<totfact> 0.18137877E+01</totfact>
</mgrwt>
</event>
<event>
12    7  0.1660832E-007  0.1316777E+04  0.7818608E-02  0.9016365E-01
         -1   -1    0    0    0  501 -0.00000000000E+00  0.00000000000E+00  0.27483316897E+03  0.27483316897E+03  0.00000000000E+00 0.  1.
          2   -1    0    0  501    0  0.00000000000E+00 -0.00000000000E+00 -0.15772316458E+04  0.15772316458E+04  0.00000000000E+00 0. -1.
         24    2    1    2    0    0  0.12002705333E+03  0.68283843187E+02  0.88078046855E+02  0.18275330261E+03  0.81066950757E+02 0.  0.
        254    2    1    2    0    0 -0.12002705333E+03 -0.68283843187E+02 -0.13904765237E+04  0.16693115122E+04  0.91329446782E+03 0.  0.
         23    2    4    4    0    0 -0.92399926990E+02 -0.30830519423E+03 -0.13709396820E+04  0.14113168309E+04  0.93540078693E+02 0.  0.
         23    2    4    4    0    0 -0.27627126339E+02  0.24002135104E+03 -0.19536841739E+02  0.25799468127E+03  0.88351911783E+02 0.  0.
          2    1    3    3  502    0 -0.63902543979E+01  0.22696276516E+02  0.31690704741E+01  0.23790740355E+02  0.00000000000E+00 0. -1.
         -1    1    3    3    0  502  0.12641730773E+03  0.45587566671E+02  0.84908976381E+02  0.15896256225E+03  0.00000000000E+00 0.  1.
         13    1    5    5    0    0  0.60921706516E+01 -0.72994514439E+02 -0.44022044368E+03  0.44627273356E+03  0.00000000000E+00 0. -1.
        -13    1    5    5    0    0 -0.98492097641E+02 -0.23531067979E+03 -0.93071923828E+03  0.96504409734E+03  0.00000000000E+00 0.  1.
          2    1    6    6  503    0 -0.13676980922E+02  0.18853853503E+02  0.22557911987E+02  0.32425098184E+02  0.00000000000E+00 0. -1.
         -2    1    6    6    0  503 -0.13950145417E+02  0.22116749754E+03 -0.42094753726E+02  0.22556958309E+03  0.00000000000E+00 0.  1.
<mgrwt>
<rscale>  0 0.13167772E+04</rscale>
<asrwt>0</asrwt>
<pdfrwt beam="1">  1        2 0.24265102E+00 0.13167772E+04</pdfrwt>
<pdfrwt beam="2">  1       -1 0.42282026E-01 0.13167772E+04</pdfrwt>
<totfact> 0.70434138E+01</totfact>
</mgrwt>
</event>
<event>
12    7  0.1660832E-007  0.3171229E+04  0.7818608E-02  0.8196457E-01
         -1   -1    0    0    0  501 -0.00000000000E+00  0.00000000000E+00  0.85617361649E+03  0.85617361649E+03  0.00000000000E+00 0.  1.
          2   -1    0    0  501    0  0.00000000000E+00 -0.00000000000E+00 -0.29365232179E+04  0.29365232179E+04  0.00000000000E+00 0. -1.
         24    2    1    2    0    0  0.13574241836E+04  0.41648393385E+03 -0.57068284977E+03  0.15323379659E+04  0.79507517979E+02 0.  0.
        254    2    1    2    0    0 -0.13574241836E+04 -0.41648393385E+03 -0.15096667517E+04  0.22603588685E+04  0.90225785233E+03 0.  0.
         23    2    4    4    0    0 -0.97288251577E+03  0.13441561125E+03 -0.72948019741E+03  0.12267009870E+04  0.89922228259E+02 0.  0.
         23    2    4    4    0    0 -0.38454166780E+03 -0.55089954510E+03 -0.78018655427E+03  0.10336578815E+04  0.91623978490E+02 0.  0.
          4    1    3    3  502    0  0.22595583685E+03  0.41439917707E+02 -0.79379796441E+02  0.24305237928E+03  0.00000000000E+00 0. -1.
         -3    1    3    3    0  502  0.11314683467E+04  0.37504401615E+03 -0.49130305333E+03  0.12892855866E+04  0.00000000000E+00 0.  1.
         13    1    5    5    0    0 -0.81924433800E+03  0.85775340849E+02 -0.58562737029E+03  0.10106820030E+04  0.00000000000E+00 0.  1.
        -13    1    5    5    0    0 -0.15363817777E+03  0.48640270402E+02 -0.14385282712E+03  0.21601898399E+03  0.00000000000E+00 0. -1.
          3    1    6    6  503    0 -0.10315207368E+03 -0.85227208831E+02 -0.14513852569E+03  0.19740622855E+03  0.00000000000E+00 0. -1.
         -3    1    6    6    0  503 -0.28138959412E+03 -0.46567233627E+03 -0.63504802858E+03  0.83625165294E+03  0.00000000000E+00 0.  1.
<mgrwt>
<rscale>  0 0.31712292E+04</rscale>
<asrwt>0</asrwt>
<pdfrwt beam="1">  1        2 0.45177280E+00 0.31712292E+04</pdfrwt>
<pdfrwt beam="2">  1       -1 0.13171902E+00 0.31712292E+04</pdfrwt>
<totfact> 0.89649591E-01</totfact>
</mgrwt>
</event>
<event>
12    7  0.1660832E-007  0.1432836E+04  0.7818608E-02  0.8930387E-01
          2   -1    0    0  501    0  0.00000000000E+00  0.00000000000E+00  0.71563192902E+03  0.71563192902E+03  0.00000000000E+00 0. -1.
         -1   -1    0    0    0  501 -0.00000000000E+00 -0.00000000000E+00 -0.71720460567E+03  0.71720460567E+03  0.00000000000E+00 0.  1.
         24    2    1    2    0    0 -0.94496053432E+02  0.30321239975E+03  0.26223909390E+03  0.41978394417E+03  0.81129242191E+02 0.  0.
        254    2    1    2    0    0  0.94496053432E+02 -0.30321239975E+03 -0.26381177055E+03  0.10130525905E+04  0.92510087957E+03 0.  0.
         23    2    4    4    0    0 -0.17180883858E+03 -0.31851710376E+03 -0.51447279721E+03  0.63568403842E+03  0.91872276696E+02 0.  0.
         23    2    4    4    0    0  0.26630489201E+03  0.15304704005E+02  0.25066102667E+03  0.37736855210E+03  0.91779868986E+02 0.  0.
          2    1    3    3  502    0 -0.80141525665E+02  0.18310429625E+03  0.12026610628E+03  0.23326762261E+03  0.00000000000E+00 0. -1.
         -1    1    3    3    0  502 -0.14354527768E+02  0.12010810350E+03  0.14197298761E+03  0.18651632156E+03  0.00000000000E+00 0.  1.
         13    1    5    5    0    0 -0.39023072728E+02 -0.21263605278E+02 -0.37247860955E+02  0.57985724625E+02  0.00000000000E+00 0.  1.
        -13    1    5    5    0    0 -0.13278576585E+03 -0.29725349848E+03 -0.47722493626E+03  0.57769831379E+03  0.00000000000E+00 0. -1.
          2    1    6    6  503    0  0.87240741902E+02  0.37132690887E+02  0.12772780252E+03  0.15907286166E+03  0.00000000000E+00 0. -1.
         -2    1    6    6    0  503  0.17906415011E+03 -0.21827986881E+02  0.12293322414E+03  0.21829569044E+03  0.00000000000E+00 0.  1.
<mgrwt>
<rscale>  0 0.14328357E+04</rscale>
<asrwt>0</asrwt>
<pdfrwt beam="1">  1        2 0.11009722E+00 0.14328357E+04</pdfrwt>
<pdfrwt beam="2">  1       -1 0.11033917E+00 0.14328357E+04</pdfrwt>
<totfact> 0.33484620E+01</totfact>
</mgrwt>
</event>
<event>
12    7  0.1660832E-007  0.1427934E+04  0.7818608E-02  0.8933843E-01
         -1   -1    0    0    0  501 -0.00000000000E+00  0.00000000000E+00  0.28564190861E+03  0.28564190861E+03  0.00000000000E+00 0.  1.
          2   -1    0    0  501    0  0.00000000000E+00 -0.00000000000E+00 -0.17845727391E+04  0.17845727391E+04  0.00000000000E+00 0. -1.
         24    2    1    2    0    0 -0.29231121860E+03  0.24679657461E+03 -0.18305475848E+03  0.43145547617E+03  0.79311950868E+02 0.  0.
        254    2    1    2    0    0  0.29231121860E+03 -0.24679657461E+03 -0.13158760720E+04  0.16387591715E+04  0.89869204274E+03 0.  0.
         23    2    4    4    0    0  0.40135709445E+03  0.19061103563E+03 -0.36320165969E+03  0.58087727663E+03  0.89904842640E+02 0.  0.
         23    2    4    4    0    0 -0.10904587585E+03 -0.43740761024E+03 -0.95267441231E+03  0.10578818949E+04  0.91154523637E+02 0.  0.
          2    1    3    3  502    0 -0.25264430697E+03  0.21893010534E+03 -0.18658692629E+03  0.38285012463E+03  0.00000000000E+00 0. -1.
         -1    1    3    3    0  502 -0.39666911638E+02  0.27866469272E+02  0.35321678112E+01  0.48605351537E+02  0.00000000000E+00 0.  1.
         13    1    5    5    0    0  0.58497948037E+02  0.59503295990E+02 -0.93872266317E+02  0.12559719162E+03  0.00000000000E+00 0.  1.
        -13    1    5    5    0    0  0.34285914642E+03  0.13110773964E+03 -0.26932939337E+03  0.45528008501E+03  0.00000000000E+00 0. -1.
          3    1    6    6  503    0 -0.11089505218E+03 -0.26237363167E+03 -0.59578641646E+03  0.66037798967E+03  0.00000000000E+00 0. -1.
         -3    1    6    6    0  503  0.18491763307E+01 -0.17503397857E+03 -0.35688799585E+03  0.39750390525E+03  0.00000000000E+00 0.  1.
<mgrwt>
<rscale>  0 0.14279338E+04</rscale>
<asrwt>0</asrwt>
<pdfrwt beam="1">  1        2 0.27454965E+00 0.14279338E+04</pdfrwt>
<pdfrwt beam="2">  1       -1 0.43944909E-01 0.14279338E+04</pdfrwt>
<totfact> 0.49855579E+01</totfact>
</mgrwt>
</event>
<event>
12    7  0.1660832E-007  0.1437010E+04  0.7818608E-02  0.8927456E-01
         -1   -1    0    0    0  501 -0.00000000000E+00  0.00000000000E+00  0.26845750820E+03  0.26845750820E+03  0.00000000000E+00 0.  1.
          2   -1    0    0  501    0  0.00000000000E+00 -0.00000000000E+00 -0.19230200216E+04  0.19230200216E+04  0.00000000000E+00 0. -1.
         24    2    1    2    0    0 -0.51214158344E+02 -0.44312952776E+03 -0.59392899531E+03  0.74697679929E+03  0.78968467211E+02 0.  0.
        254    2    1    2    0    0  0.51214158344E+02  0.44312952776E+03 -0.10606335180E+04  0.14445007305E+04  0.87329962346E+03 0.  0.
         23    2    4    4    0    0  0.17141263477E+03 -0.16516992627E+03 -0.56519091946E+02  0.26099149376E+03  0.90877698910E+02 0.  0.
         23    2    4    4    0    0 -0.12019847643E+03  0.60829945403E+03 -0.10041144261E+04  0.11835092367E+04  0.89288482748E+02 0.  0.
          4    1    3    3  502    0 -0.13497322157E+02 -0.18166513056E+03 -0.30684005942E+03  0.35684060788E+03  0.00000000000E+00 0. -1.
         -3    1    3    3    0  502 -0.37716836187E+02 -0.26146439720E+03 -0.28708893589E+03  0.39013619141E+03  0.00000000000E+00 0.  1.
         13    1    5    5    0    0  0.14246513634E+03 -0.16286425212E+03 -0.72047449927E+02  0.22806120830E+03  0.00000000000E+00 0.  1.
        -13    1    5    5    0    0  0.28947498434E+02 -0.23056741449E+01  0.15528357982E+02  0.32930285460E+02  0.00000000000E+00 0. -1.
          2    1    6    6  503    0 -0.84274907246E+02  0.55693594302E+03 -0.91715810767E+03  0.10763172855E+04  0.00000000000E+00 0.  1.
         -2    1    6    6    0  503 -0.35923569184E+02  0.51363511009E+02 -0.86956318430E+02  0.10719195119E+03  0.00000000000E+00 0. -1.
<mgrwt>
<rscale>  0 0.14370096E+04</rscale>
<asrwt>0</asrwt>
<pdfrwt beam="1">  1        2 0.29584922E+00 0.14370096E+04</pdfrwt>
<pdfrwt beam="2">  1       -1 0.41301158E-01 0.14370096E+04</pdfrwt>
<totfact> 0.46835643E+01</totfact>
</mgrwt>
</event>
<event>
12    7  0.1660832E-007  0.1318819E+04  0.7818608E-02  0.9014773E-01
         -1   -1    0    0    0  501 -0.00000000000E+00  0.00000000000E+00  0.72882038584E+03  0.72882038584E+03  0.00000000000E+00 0.  1.
          2   -1    0    0  501    0  0.00000000000E+00 -0.00000000000E+00 -0.59660902495E+03  0.59660902495E+03  0.00000000000E+00 0. -1.
         24    2    1    2    0    0  0.10845055397E+03 -0.30086520979E+03 -0.10709672625E+03  0.34644910782E+03  0.79220441895E+02 0.  0.
        254    2    1    2    0    0 -0.10845055397E+03  0.30086520979E+03  0.23930808714E+03  0.97898030297E+03  0.89378558722E+03 0.  0.
         23    2    4    4    0    0  0.27978077411E+03 -0.14229850630E+03 -0.25054373700E+02  0.32686720824E+03  0.87682972845E+02 0.  0.
         23    2    4    4    0    0 -0.38823132808E+03  0.44316371609E+03  0.26436246084E+03  0.65211309473E+03  0.90809329119E+02 0.  0.
          4    1    3    3  502    0  0.11798142732E+03 -0.28232149402E+03 -0.11050036428E+03  0.32532349083E+03  0.00000000000E+00 0. -1.
         -3    1    3    3    0  502 -0.95308733492E+01 -0.18543715767E+02  0.34036380265E+01  0.21125616987E+02  0.00000000000E+00 0.  1.
         13    1    5    5    0    0  0.45416032962E+02  0.82775996543E+01  0.60886753012E+01  0.46564006195E+02  0.00000000000E+00 0.  1.
        -13    1    5    5    0    0  0.23436474115E+03 -0.15057610595E+03 -0.31143049001E+02  0.28030320205E+03  0.00000000000E+00 0. -1.
          4    1    6    6  503    0 -0.30657786439E+03  0.30350662464E+03  0.16278583741E+03  0.46109162538E+03  0.00000000000E+00 0. -1.
         -4    1    6    6    0  503 -0.81653463692E+02  0.13965709145E+03  0.10157662344E+03  0.19102146935E+03  0.00000000000E+00 0.  1.
<mgrwt>
<rscale>  0 0.13188189E+04</rscale>
<asrwt>0</asrwt>
<pdfrwt beam="1">  1        2 0.91786004E-01 0.13188189E+04</pdfrwt>
<pdfrwt beam="2">  1       -1 0.11212621E+00 0.13188189E+04</pdfrwt>
<totfact> 0.40759597E+01</totfact>
</mgrwt>
</event>
<event>
12    7  0.1660832E-007  0.1755785E+04  0.7818608E-02  0.8730173E-01
         -1   -1    0    0    0  501 -0.00000000000E+00  0.00000000000E+00  0.10002226044E+04  0.10002226044E+04  0.00000000000E+00 0.  1.
          2   -1    0    0  501    0  0.00000000000E+00 -0.00000000000E+00 -0.77052344068E+03  0.77052344068E+03  0.00000000000E+00 0. -1.
         24    2    1    2    0    0 -0.33040770011E+03 -0.51155375024E+03  0.30070484753E+03  0.68392566534E+03  0.80463797494E+02 0.  0.
        254    2    1    2    0    0  0.33040770011E+03  0.51155375024E+03 -0.71005683827E+02  0.10868203797E+04  0.89737408193E+03 0.  0.
         23    2    4    4    0    0  0.20608049318E+03  0.74558878457E+03 -0.15563588060E+03  0.79428311261E+03  0.91056742228E+02 0.  0.
         23    2    4    4    0    0  0.12432720693E+03 -0.23403503432E+03  0.84630196771E+02  0.29253726710E+03  0.90477238924E+02 0.  0.
          4    1    3    3  502    0 -0.16333032204E+03 -0.24970159748E+03  0.10263852844E+03  0.31553502088E+03  0.00000000000E+00 0. -1.
         -3    1    3    3    0  502 -0.16707737808E+03 -0.26185215277E+03  0.19806631909E+03  0.36839064447E+03  0.00000000000E+00 0.  1.
         13    1    5    5    0    0  0.20946989770E+03  0.74388402090E+03 -0.14960969999E+03  0.78716207793E+03  0.00000000000E+00 0. -1.
        -13    1    5    5    0    0 -0.33894045235E+01  0.17047636615E+01 -0.60261806073E+01  0.71210346774E+01  0.00000000000E+00 0.  1.
          4    1    6    6  503    0  0.19141578624E+01 -0.83609409832E+02  0.80235580325E+01  0.84015325366E+02  0.00000000000E+00 0. -1.
         -4    1    6    6    0  503  0.12241304907E+03 -0.15042562449E+03  0.76606638738E+02  0.20852194173E+03  0.00000000000E+00 0.  1.
<mgrwt>
<rscale>  0 0.17557847E+04</rscale>
<asrwt>0</asrwt>
<pdfrwt beam="1">  1        2 0.11854207E+00 0.17557847E+04</pdfrwt>
<pdfrwt beam="2">  1       -1 0.15388040E+00 0.17557847E+04</pdfrwt>
<totfact> 0.12745907E+01</totfact>
</mgrwt>
</event>
<event>
12    7  0.1660832E-007  0.1073996E+04  0.7818608E-02  0.9230915E-01
          2   -1    0    0  501    0  0.00000000000E+00  0.00000000000E+00  0.20309665331E+04  0.20309665331E+04  0.00000000000E+00 0. -1.
         -1   -1    0    0    0  501 -0.00000000000E+00 -0.00000000000E+00 -0.14198497435E+03  0.14198497435E+03  0.00000000000E+00 0.  1.
         24    2    1    2    0    0 -0.47753877449E+02  0.12052994482E+03  0.45523686178E+03  0.47952368674E+03  0.76775421949E+02 0.  0.
        254    2    1    2    0    0  0.47753877449E+02 -0.12052994482E+03  0.14337446970E+04  0.16934278208E+04  0.89177689332E+03 0.  0.
         23    2    4    4    0    0 -0.26675648593E+03  0.23994842644E+03  0.88775651046E+03  0.96174857496E+03  0.90080127860E+02 0.  0.
         23    2    4    4    0    0  0.31451036338E+03 -0.36047837125E+03  0.54598818655E+03  0.73167924579E+03  0.91596910732E+02 0.  0.
          4    1    3    3  502    0 -0.26515987279E+02  0.12177508681E+03  0.42236145851E+03  0.44036515641E+03  0.00000000000E+00 0. -1.
         -3    1    3    3    0  502 -0.21237890170E+02 -0.12451419896E+01  0.32875403271E+02  0.39158530331E+02  0.00000000000E+00 0.  1.
         13    1    5    5    0    0 -0.11802513311E+02  0.40444180598E+01  0.56097218707E+01  0.13679386586E+02  0.00000000000E+00 0. -1.
        -13    1    5    5    0    0 -0.25495397262E+03  0.23590400838E+03  0.88214678859E+03  0.94806918837E+03  0.00000000000E+00 0.  1.
          4    1    6    6  503    0  0.20320037358E+03 -0.26314327098E+03  0.43119768031E+03  0.54448710948E+03  0.00000000000E+00 0. -1.
         -4    1    6    6    0  503  0.11130998980E+03 -0.97335100273E+02  0.11479050624E+03  0.18719213631E+03  0.00000000000E+00 0.  1.
<mgrwt>
<rscale>  0 0.10739958E+04</rscale>
<asrwt>0</asrwt>
<pdfrwt beam="1">  1        2 0.31245637E+00 0.10739958E+04</pdfrwt>
<pdfrwt beam="2">  1       -1 0.21843844E-01 0.10739958E+04</pdfrwt>
<totfact> 0.12860168E+02</totfact>
</mgrwt>
</event>
<event>
12    7  0.1660832E-007  0.1570380E+04  0.7818608E-02  0.8838954E-01
          2   -1    0    0  501    0  0.00000000000E+00  0.00000000000E+00  0.29289617628E+04  0.29289617628E+04  0.00000000000E+00 0. -1.
         -1   -1    0    0    0  501 -0.00000000000E+00 -0.00000000000E+00 -0.21049197756E+03  0.21049197756E+03  0.00000000000E+00 0.  1.
         24    2    1    2    0    0 -0.26182287748E+03 -0.38963880132E+03  0.13912863549E+04  0.14705504206E+04  0.80443791795E+02 0.  0.
        254    2    1    2    0    0  0.26182287748E+03  0.38963880132E+03  0.13271834304E+04  0.16689033198E+04  0.89635529685E+03 0.  0.
         23    2    4    4    0    0 -0.15369449782E+03 -0.16502352227E+03  0.65710362185E+03  0.70087098604E+03  0.92629410382E+02 0.  0.
         23    2    4    4    0    0  0.41551737530E+03  0.55466232359E+03  0.67007980853E+03  0.96803233372E+03  0.88174071895E+02 0.  0.
          4    1    3    3  502    0 -0.22519108873E+03 -0.36892284737E+03  0.13014615707E+04  0.13713560128E+04  0.00000000000E+00 0. -1.
         -3    1    3    3    0  502 -0.36631788748E+02 -0.20715953955E+02  0.89824784166E+02  0.99194407835E+02  0.00000000000E+00 0.  1.
         13    1    5    5    0    0 -0.10980959564E+03 -0.12963681424E+03  0.58599732789E+03  0.61012844483E+03  0.00000000000E+00 0.  1.
        -13    1    5    5    0    0 -0.43884902183E+02 -0.35386708027E+02  0.71106293960E+02  0.90742541210E+02  0.00000000000E+00 0. -1.
          3    1    6    6  503    0  0.14461812360E+02  0.13638237324E+02  0.44964473610E+02  0.49162479811E+02  0.00000000000E+00 0. -1.
         -3    1    6    6    0  503  0.40105556294E+03  0.54102408626E+03  0.62511533492E+03  0.91886985391E+03  0.00000000000E+00 0.  1.
<mgrwt>
<rscale>  0 0.15703795E+04</rscale>
<asrwt>0</asrwt>
<pdfrwt beam="1">  1        2 0.45060947E+00 0.15703795E+04</pdfrwt>
<pdfrwt beam="2">  1       -1 0.32383383E-01 0.15703795E+04</pdfrwt>
<totfact> 0.18916621E+01</totfact>
</mgrwt>
</event>
<event>
12    7  0.1660832E-007  0.1792605E+04  0.7818608E-02  0.8710242E-01
         -1   -1    0    0    0  501 -0.00000000000E+00  0.00000000000E+00  0.15416891743E+03  0.15416891743E+03  0.00000000000E+00 0.  1.
          2   -1    0    0  501    0  0.00000000000E+00 -0.00000000000E+00 -0.52108965245E+04  0.52108965245E+04  0.00000000000E+00 0. -1.
         24    2    1    2    0    0  0.54179192648E+03  0.22698202262E+03 -0.28429416315E+04  0.29041614704E+04  0.82324940572E+02 0.  0.
        254    2    1    2    0    0 -0.54179192648E+03 -0.22698202262E+03 -0.22137859756E+04  0.24609039716E+04  0.90007815289E+03 0.  0.
         23    2    4    4    0    0 -0.14137983661E+03 -0.47240113152E+03 -0.62437476675E+03  0.80099032923E+03  0.92685332740E+02 0.  0.
         23    2    4    4    0    0 -0.40041208987E+03  0.24541910890E+03 -0.15894112088E+04  0.16599136423E+04  0.92330539192E+02 0.  0.
          4    1    3    3  502    0  0.50614275948E+03  0.21932034520E+03 -0.25514619642E+04  0.26104099413E+04  0.00000000000E+00 0. -1.
         -3    1    3    3    0  502  0.35649167006E+02  0.76616774205E+01 -0.29147966726E+03  0.29375152908E+03  0.00000000000E+00 0.  1.
         13    1    5    5    0    0 -0.15681753659E+02 -0.19328297613E+03 -0.27476375150E+03  0.33630246119E+03  0.00000000000E+00 0.  1.
        -13    1    5    5    0    0 -0.12569808295E+03 -0.27911815539E+03 -0.34961101525E+03  0.46468786804E+03  0.00000000000E+00 0. -1.
          2    1    6    6  503    0 -0.18622013663E+03  0.15996344614E+03 -0.90441591553E+03  0.93714160705E+03  0.00000000000E+00 0. -1.
         -2    1    6    6    0  503 -0.21419195324E+03  0.85455662760E+02 -0.68499529331E+03  0.72277203528E+03  0.00000000000E+00 0.  1.
<mgrwt>
<rscale>  0 0.17926051E+04</rscale>
<asrwt>0</asrwt>
<pdfrwt beam="1">  1        2 0.80167620E+00 0.17926051E+04</pdfrwt>
<pdfrwt beam="2">  1       -1 0.23718301E-01 0.17926051E+04</pdfrwt>
<totfact> 0.30514655E-01</totfact>
</mgrwt>
</event>
<event>
12    7  0.1660832E-007  0.2457517E+04  0.7818608E-02  0.8418279E-01
         -1   -1    0    0    0  501 -0.00000000000E+00  0.00000000000E+00  0.46149608274E+03  0.46149608274E+03  0.00000000000E+00 0.  1.
          2   -1    0    0  501    0  0.00000000000E+00 -0.00000000000E+00 -0.32716368955E+04  0.32716368955E+04  0.00000000000E+00 0. -1.
         24    2    1    2    0    0  0.10072092379E+04  0.19594091226E+03 -0.79466026992E+03  0.13004077633E+04  0.81927506105E+02 0.  0.
        254    2    1    2    0    0 -0.10072092379E+04 -0.19594091226E+03 -0.20154805428E+04  0.24327252149E+04  0.89617345589E+03 0.  0.
         23    2    4    4    0    0 -0.71374039323E+03 -0.22041355558E+03 -0.19851884037E+04  0.21229295934E+04  0.88597832956E+02 0.  0.
         23    2    4    4    0    0 -0.29346884462E+03  0.24472643325E+02 -0.30292139089E+02  0.30979562150E+03  0.91284392834E+02 0.  0.
          4    1    3    3  502    0  0.19608632818E+03  0.14549004427E+02 -0.12447770740E+03  0.23271489266E+03  0.00000000000E+00 0. -1.
         -3    1    3    3    0  502  0.81112290968E+03  0.18139190783E+03 -0.67018256252E+03  0.10676928706E+04  0.00000000000E+00 0.  1.
         13    1    5    5    0    0 -0.34428087965E+03 -0.72653434144E+02 -0.84641751205E+03  0.91664085131E+03  0.00000000000E+00 0. -1.
        -13    1    5    5    0    0 -0.36945951358E+03 -0.14776012144E+03 -0.11387708917E+04  0.12062887421E+04  0.00000000000E+00 0.  1.
          1    1    6    6  503    0 -0.57274389918E+02 -0.19250437990E+02  0.21379078370E+02  0.64093682179E+02  0.00000000000E+00 0. -1.
         -1    1    6    6    0  503 -0.23619445471E+03  0.43723081315E+02 -0.51671217459E+02  0.24570193932E+03  0.00000000000E+00 0.  1.
<mgrwt>
<rscale>  0 0.24575171E+04</rscale>
<asrwt>0</asrwt>
<pdfrwt beam="1">  1        2 0.50332874E+00 0.24575171E+04</pdfrwt>
<pdfrwt beam="2">  1       -1 0.70999400E-01 0.24575171E+04</pdfrwt>
<totfact> 0.23749043E+00</totfact>
</mgrwt>
</event>
<event>
12    7  0.1660832E-007  0.2184323E+04  0.7818608E-02  0.8524982E-01
         -1   -1    0    0    0  501 -0.00000000000E+00  0.00000000000E+00  0.79271035148E+03  0.79271035148E+03  0.00000000000E+00 0.  1.
          2   -1    0    0  501    0  0.00000000000E+00 -0.00000000000E+00 -0.15047325052E+04  0.15047325052E+04  0.00000000000E+00 0. -1.
         24    2    1    2    0    0 -0.41082751589E+03  0.51503971606E+03  0.35219785313E+03  0.75126773142E+03  0.79465209871E+02 0.  0.
        254    2    1    2    0    0  0.41082751589E+03 -0.51503971606E+03 -0.10642200068E+04  0.15461751252E+04  0.90777097222E+03 0.  0.
         23    2    4    4    0    0  0.43499890682E+03 -0.59440036935E+03 -0.34923577210E+03  0.82035405098E+03  0.92083095235E+02 0.  0.
         23    2    4    4    0    0 -0.24171390925E+02  0.79360653289E+02 -0.71498423472E+03  0.72582107424E+03  0.93441995318E+02 0.  0.
          4    1    3    3  502    0 -0.72749605316E+01  0.37748792131E+01  0.16688625115E+02  0.18592605305E+02  0.00000000000E+00 0. -1.
         -3    1    3    3    0  502 -0.40355255536E+03  0.51126483685E+03  0.33550922802E+03  0.73267512611E+03  0.00000000000E+00 0.  1.
         13    1    5    5    0    0  0.46165566369E+02 -0.89543753751E+02 -0.18601141041E+02  0.10244679498E+03  0.00000000000E+00 0.  1.
        -13    1    5    5    0    0  0.38883334045E+03 -0.50485661560E+03 -0.33063463106E+03  0.71790725600E+03  0.00000000000E+00 0. -1.
          2    1    6    6  503    0  0.28979826560E+02  0.49450655724E+02 -0.23078675453E+03  0.23779765299E+03  0.00000000000E+00 0.  1.
         -2    1    6    6    0  503 -0.53151217485E+02  0.29909997564E+02 -0.48419748019E+03  0.48802342126E+03  0.00000000000E+00 0. -1.
<mgrwt>
<rscale>  0 0.21843233E+04</rscale>
<asrwt>0</asrwt>
<pdfrwt beam="1">  1        2 0.23149731E+00 0.21843233E+04</pdfrwt>
<pdfrwt beam="2">  1       -1 0.12195544E+00 0.21843233E+04</pdfrwt>
<totfact> 0.78258648E+00</totfact>
</mgrwt>
</event>
<event>
12    7  0.1660832E-007  0.1994447E+04  0.7818608E-02  0.8609221E-01
         -1   -1    0    0    0  501 -0.00000000000E+00  0.00000000000E+00  0.73737880821E+03  0.73737880821E+03  0.00000000000E+00 0.  1.
          2   -1    0    0  501    0  0.00000000000E+00 -0.00000000000E+00 -0.13486348091E+04  0.13486348091E+04  0.00000000000E+00 0. -1.
         24    2    1    2    0    0 -0.72487108836E+03 -0.26705250113E+03 -0.38281461500E+02  0.77781664456E+03  0.82329394251E+02 0.  0.
        254    2    1    2    0    0  0.72487108836E+03  0.26705250113E+03 -0.57297453942E+03  0.13081969728E+04  0.88674932403E+03 0.  0.
         23    2    4    4    0    0  0.46347788373E+02 -0.27882463616E+03 -0.18992638096E+03  0.35241055125E+03  0.90718637705E+02 0.  0.
         23    2    4    4    0    0  0.67852329998E+03  0.54587713729E+03 -0.38304815845E+03  0.95578642153E+03  0.91793650326E+02 0.  0.
          4    1    3    3  502    0 -0.12006057184E+03 -0.16753643233E+02 -0.21012954513E+02  0.12303158021E+03  0.00000000000E+00 0. -1.
         -3    1    3    3    0  502 -0.60481051652E+03 -0.25029885790E+03 -0.17268506987E+02  0.65478506435E+03  0.00000000000E+00 0.  1.
         13    1    5    5    0    0 -0.21188765109E+02 -0.19619871492E+02 -0.15621058940E+02  0.32831701245E+02  0.00000000000E+00 0. -1.
        -13    1    5    5    0    0  0.67536553482E+02 -0.25920476467E+03 -0.17430532202E+03  0.31957885000E+03  0.00000000000E+00 0.  1.
          2    1    6    6  503    0  0.36640289688E+03  0.26494180479E+03 -0.24170008288E+03  0.51270281141E+03  0.00000000000E+00 0. -1.
         -2    1    6    6    0  503  0.31212040310E+03  0.28093533251E+03 -0.14134807558E+03  0.44308361011E+03  0.00000000000E+00 0.  1.
<mgrwt>
<rscale>  0 0.19944470E+04</rscale>
<asrwt>0</asrwt>
<pdfrwt beam="1">  1        2 0.20748228E+00 0.19944470E+04</pdfrwt>
<pdfrwt beam="2">  1       -1 0.11344289E+00 0.19944470E+04</pdfrwt>
<totfact> 0.11638683E+01</totfact>
</mgrwt>
</event>
<event>
12    7  0.1660832E-007  0.1123657E+04  0.7818608E-02  0.9182436E-01
          2   -1    0    0  501    0  0.00000000000E+00  0.00000000000E+00  0.15120072288E+04  0.15120072288E+04  0.00000000000E+00 0. -1.
         -1   -1    0    0    0  501 -0.00000000000E+00 -0.00000000000E+00 -0.20876301068E+03  0.20876301068E+03  0.00000000000E+00 0.  1.
         24    2    1    2    0    0  0.10462765332E+03 -0.76309755772E+02  0.45406837840E+03  0.47885595241E+03  0.79717038554E+02 0.  0.
        254    2    1    2    0    0 -0.10462765332E+03  0.76309755772E+02  0.84917583968E+03  0.12419142870E+04  0.89692885167E+03 0.  0.
         23    2    4    4    0    0  0.32705000643E+03  0.72043382075E+02  0.69099522538E+03  0.77329449540E+03  0.91422204708E+02 0.  0.
         23    2    4    4    0    0 -0.43167765975E+03  0.42663736962E+01  0.15818061429E+03  0.46861979162E+03  0.90662001332E+02 0.  0.
          4    1    3    3  502    0  0.12650974574E+02 -0.30143722049E+02  0.22966164332E+03  0.23197664009E+03  0.00000000000E+00 0. -1.
         -3    1    3    3    0  502  0.91976678751E+02 -0.46166033723E+02  0.22440673508E+03  0.24687931232E+03  0.00000000000E+00 0.  1.
         13    1    5    5    0    0  0.21300475463E+03  0.27357906736E+02  0.52310595744E+03  0.56547265474E+03  0.00000000000E+00 0. -1.
        -13    1    5    5    0    0  0.11404525180E+03  0.44685475339E+02  0.16788926795E+03  0.20782184066E+03  0.00000000000E+00 0.  1.
          4    1    6    6  503    0 -0.39602165283E+03 -0.12552894652E+02  0.16390253116E+03  0.42878288725E+03  0.00000000000E+00 0. -1.
         -4    1    6    6    0  503 -0.35656006924E+02  0.16819268349E+02 -0.57219168667E+01  0.39836904375E+02  0.00000000000E+00 0.  1.
<mgrwt>
<rscale>  0 0.11236569E+04</rscale>
<asrwt>0</asrwt>
<pdfrwt beam="1">  1        2 0.23261649E+00 0.11236569E+04</pdfrwt>
<pdfrwt beam="2">  1       -1 0.32117387E-01 0.11236569E+04</pdfrwt>
<totfact> 0.12762677E+02</totfact>
</mgrwt>
</event>
<event>
12    7  0.1660832E-007  0.1829288E+04  0.7818608E-02  0.8690878E-01
          2   -1    0    0  501    0  0.00000000000E+00  0.00000000000E+00  0.15251187334E+04  0.15251187334E+04  0.00000000000E+00 0. -1.
         -1   -1    0    0    0  501 -0.00000000000E+00 -0.00000000000E+00 -0.54853004999E+03  0.54853004999E+03  0.00000000000E+00 0.  1.
         24    2    1    2    0    0  0.27861660652E+03  0.22649194935E+03  0.10402736351E+04  0.11032673083E+04  0.78126187553E+02 0.  0.
        254    2    1    2    0    0 -0.27861660652E+03 -0.22649194935E+03 -0.63684951684E+02  0.97038147508E+03  0.89925447875E+03 0.  0.
         23    2    4    4    0    0  0.23012028674E+03 -0.30892710448E+03  0.12418376580E+03  0.41459335795E+03  0.89859571073E+02 0.  0.
         23    2    4    4    0    0 -0.50873689326E+03  0.82435155136E+02 -0.18786871748E+03  0.55578811713E+03  0.89425917801E+02 0.  0.
          2    1    3    3  502    0  0.28181710696E+03  0.21500824613E+03  0.98835647144E+03  0.10499990201E+04  0.00000000000E+00 0. -1.
         -1    1    3    3    0  502 -0.32005004335E+01  0.11483703217E+02  0.51917163628E+02  0.53268288144E+02  0.00000000000E+00 0.  1.
         13    1    5    5    0    0  0.37357071799E+02 -0.25325508947E+02 -0.10235010247E+02  0.46278371315E+02  0.00000000000E+00 0. -1.
        -13    1    5    5    0    0  0.19276321494E+03 -0.28360159554E+03  0.13441877604E+03  0.36831498663E+03  0.00000000000E+00 0.  1.
          1    1    6    6  503    0 -0.18658220560E+03  0.20484461471E+02 -0.24474232854E+02  0.18929215695E+03  0.00000000000E+00 0. -1.
         -1    1    6    6    0  503 -0.32215468766E+03  0.61950693665E+02 -0.16339448463E+03  0.36649596018E+03  0.00000000000E+00 0.  1.
<mgrwt>
<rscale>  0 0.18292878E+04</rscale>
<asrwt>0</asrwt>
<pdfrwt beam="1">  1        2 0.23463365E+00 0.18292878E+04</pdfrwt>
<pdfrwt beam="2">  1       -1 0.84389239E-01 0.18292878E+04</pdfrwt>
<totfact> 0.18335822E+01</totfact>
</mgrwt>
</event>
<event>
12    7  0.1660832E-007  0.1894425E+04  0.7818608E-02  0.8657637E-01
         -1   -1    0    0    0  501 -0.00000000000E+00  0.00000000000E+00  0.87074887514E+03  0.87074887514E+03  0.00000000000E+00 0.  1.
          2   -1    0    0  501    0  0.00000000000E+00 -0.00000000000E+00 -0.10303904106E+04  0.10303904106E+04  0.00000000000E+00 0. -1.
         24    2    1    2    0    0  0.99555771659E+02  0.12501493693E+03  0.67220399399E+03  0.69535591961E+03  0.78240394106E+02 0.  0.
        254    2    1    2    0    0 -0.99555771659E+02 -0.12501493693E+03 -0.83184552944E+03  0.12057833661E+04  0.85814127919E+03 0.  0.
         23    2    4    4    0    0  0.30882675134E+03  0.66992580806E+02 -0.61298588399E+03  0.69574532833E+03  0.91912456708E+02 0.  0.
         23    2    4    4    0    0 -0.40838252300E+03 -0.19200751774E+03 -0.21885964545E+03  0.51003803780E+03  0.92715066922E+02 0.  0.
          2    1    3    3  502    0 -0.81402845734E+01 -0.45419876412E+01  0.29518947407E+02  0.30955809482E+02  0.00000000000E+00 0. -1.
         -1    1    3    3    0  502  0.10769605623E+03  0.12955692457E+03  0.64268504659E+03  0.66440011013E+03  0.00000000000E+00 0.  1.
         13    1    5    5    0    0  0.28597852128E+02 -0.25996854888E+01 -0.16674775528E+02  0.33206078508E+02  0.00000000000E+00 0.  1.
        -13    1    5    5    0    0  0.28022889921E+03  0.69592266295E+02 -0.59631110846E+03  0.66253924982E+03  0.00000000000E+00 0. -1.
          3    1    6    6  503    0 -0.39098441305E+03 -0.16536704673E+03 -0.22012480263E+03  0.47819452122E+03  0.00000000000E+00 0. -1.
         -3    1    6    6    0  503 -0.17398109948E+02 -0.26640471006E+02  0.12651571793E+01  0.31843516575E+02  0.00000000000E+00 0.  1.
<mgrwt>
<rscale>  0 0.18944248E+04</rscale>
<asrwt>0</asrwt>
<pdfrwt beam="1">  1        2 0.15852160E+00 0.18944248E+04</pdfrwt>
<pdfrwt beam="2">  1       -1 0.13396137E+00 0.18944248E+04</pdfrwt>
<totfact> 0.12097136E+01</totfact>
</mgrwt>
</event>
<event>
12    7  0.1873698E-007  0.1432117E+04  0.7818608E-02  0.8930893E-01
         -1   -1    0    0    0  501 -0.00000000000E+00  0.00000000000E+00  0.63868578421E+03  0.63868578421E+03  0.00000000000E+00 0.  1.
          2   -1    0    0  501    0  0.00000000000E+00 -0.00000000000E+00 -0.80280488543E+03  0.80280488543E+03  0.00000000000E+00 0. -1.
         24    2    1    2    0    0 -0.23611590574E+03 -0.15254803365E+03  0.27648395233E+03  0.39985618594E+03  0.66482855130E+02 0.  0.
        254    2    1    2    0    0  0.23611590574E+03  0.15254803365E+03 -0.44060305355E+03  0.10416344837E+04  0.90102703805E+03 0.  0.
         23    2    4    4    0    0  0.42350496405E+03 -0.12450551991E+03 -0.51793973085E+03  0.68613550565E+03  0.87534497545E+02 0.  0.
         23    2    4    4    0    0 -0.18738905830E+03  0.27705355356E+03  0.77336677298E+02  0.35549897804E+03  0.92332177587E+02 0.  0.
          2    1    3    3  502    0 -0.14094646368E+02  0.20771638698E+01  0.32696900494E+02  0.35665963717E+02  0.00000000000E+00 0. -1.
         -1    1    3    3    0  502 -0.22202125937E+03 -0.15462519752E+03  0.24378705184E+03  0.36419022223E+03  0.00000000000E+00 0.  1.
         13    1    5    5    0    0  0.36052712172E+03 -0.10550053182E+03 -0.48226548109E+03  0.61130202189E+03  0.00000000000E+00 0. -1.
        -13    1    5    5    0    0  0.62977842327E+02 -0.19004988092E+02 -0.35674249760E+02  0.74833483766E+02  0.00000000000E+00 0.  1.
          1    1    6    6  503    0 -0.16358712553E+03  0.19712263103E+03  0.89228292503E+02  0.27125590774E+03  0.00000000000E+00 0. -1.
         -1    1    6    6    0  503 -0.23801932778E+02  0.79930922534E+02 -0.11891615205E+02  0.84243070299E+02  0.00000000000E+00 0.  1.
<mgrwt>
<rscale>  0 0.14321174E+04</rscale>
<asrwt>0</asrwt>
<pdfrwt beam="1">  1        2 0.12350844E+00 0.14321174E+04</pdfrwt>
<pdfrwt beam="2">  1       -1 0.98259351E-01 0.14321174E+04</pdfrwt>
<totfact> 0.37725285E+01</totfact>
</mgrwt>
</event>
<event>
12    7  0.1660832E-007  0.2823625E+04  0.7818608E-02  0.8295971E-01
          2   -1    0    0  501    0  0.00000000000E+00  0.00000000000E+00  0.13045602820E+04  0.13045602820E+04  0.00000000000E+00 0. -1.
         -1   -1    0    0    0  501 -0.00000000000E+00 -0.00000000000E+00 -0.15278824048E+04  0.15278824048E+04  0.00000000000E+00 0.  1.
         24    2    1    2    0    0  0.56140882944E+03 -0.77667990610E+03  0.72792188022E+03  0.12061109455E+04  0.80136126666E+02 0.  0.
        254    2    1    2    0    0 -0.56140882944E+03  0.77667990610E+03 -0.95124400300E+03  0.16263317414E+04  0.90646468732E+03 0.  0.
         23    2    4    4    0    0 -0.40990368644E+03  0.83859842552E+03 -0.35776729700E+03  0.10038296578E+04  0.91696192140E+02 0.  0.
         23    2    4    4    0    0 -0.15150514299E+03 -0.61918519414E+02 -0.59347670601E+03  0.62250208354E+03  0.92230862760E+02 0.  0.
          2    1    3    3  502    0  0.55184342892E+03 -0.77504329707E+03  0.72428482510E+03  0.11957473773E+04  0.00000000000E+00 0. -1.
         -1    1    3    3    0  502  0.95654005186E+01 -0.16366090338E+01  0.36370551202E+01  0.10363568216E+02  0.00000000000E+00 0.  1.
         13    1    5    5    0    0 -0.38409680986E+03  0.81877761029E+03 -0.33655029651E+03  0.96498354211E+03  0.00000000000E+00 0.  1.
        -13    1    5    5    0    0 -0.25806876580E+02  0.19820815225E+02 -0.21217000490E+02  0.38846115698E+02  0.00000000000E+00 0. -1.
          3    1    6    6  503    0 -0.20292184474E+02 -0.11305576674E+02 -0.25382527430E+03  0.25488597193E+03  0.00000000000E+00 0. -1.
         -3    1    6    6    0  503 -0.13121295852E+03 -0.50612942740E+02 -0.33965143171E+03  0.36761611161E+03  0.00000000000E+00 0.  1.
<mgrwt>
<rscale>  0 0.28236251E+04</rscale>
<asrwt>0</asrwt>
<pdfrwt beam="1">  1        2 0.20070158E+00 0.28236251E+04</pdfrwt>
<pdfrwt beam="2">  1       -1 0.23505883E+00 0.28236251E+04</pdfrwt>
<totfact> 0.14204829E+00</totfact>
</mgrwt>
</event>
<event>
12    7  0.1660832E-007  0.2623507E+04  0.7818608E-02  0.8360260E-01
         -1   -1    0    0    0  501 -0.00000000000E+00  0.00000000000E+00  0.24918525548E+04  0.24918525548E+04  0.00000000000E+00 0.  1.
          2   -1    0    0  501    0  0.00000000000E+00 -0.00000000000E+00 -0.69052926445E+03  0.69052926445E+03  0.00000000000E+00 0. -1.
         24    2    1    2    0    0 -0.99628337477E+03  0.31121869608E+03  0.12642256395E+04  0.16413894010E+04  0.80343378923E+02 0.  0.
        254    2    1    2    0    0  0.99628337477E+03 -0.31121869608E+03  0.53709765088E+03  0.15409924183E+04  0.99837172783E+03 0.  0.
         23    2    4    4    0    0  0.11376549619E+04 -0.21837026058E+03  0.24027107010E+03  0.11865416678E+04  0.90590062498E+02 0.  0.
         23    2    4    4    0    0 -0.14137158708E+03 -0.92848435501E+02  0.29682658078E+03  0.35445075044E+03  0.94459291872E+02 0.  0.
          2    1    3    3  502    0 -0.72913998220E+02  0.39056619087E+02  0.12525521534E+03  0.15010243036E+03  0.00000000000E+00 0. -1.
         -1    1    3    3    0  502 -0.92336937655E+03  0.27216207699E+03  0.11389704242E+04  0.14912869707E+04  0.00000000000E+00 0.  1.
         13    1    5    5    0    0  0.94017148622E+03 -0.14929180801E+03  0.21372316191E+03  0.97564750673E+03  0.00000000000E+00 0.  1.
        -13    1    5    5    0    0  0.19748347563E+03 -0.69078452564E+02  0.26547908190E+02  0.21089416110E+03  0.00000000000E+00 0. -1.
          4    1    6    6  503    0  0.13876595104E+02 -0.30858744772E+01  0.18050556097E+02  0.22976185244E+02  0.00000000000E+00 0. -1.
         -4    1    6    6    0  503 -0.15524818219E+03 -0.89762561024E+02  0.27877602468E+03  0.33147456519E+03  0.00000000000E+00 0.  1.
<mgrwt>
<rscale>  0 0.26235069E+04</rscale>
<asrwt>0</asrwt>
<pdfrwt beam="1">  1        2 0.10623527E+00 0.26235069E+04</pdfrwt>
<pdfrwt beam="2">  1       -1 0.38336193E+00 0.26235069E+04</pdfrwt>
<totfact> 0.38972250E-01</totfact>
</mgrwt>
</event>
<event>
12    7  0.1660832E-007  0.1043372E+04  0.7818608E-02  0.9262214E-01
          2   -1    0    0  501    0  0.00000000000E+00  0.00000000000E+00  0.11775122895E+04  0.11775122895E+04  0.00000000000E+00 0. -1.
         -1   -1    0    0    0  501 -0.00000000000E+00 -0.00000000000E+00 -0.23112814858E+03  0.23112814858E+03  0.00000000000E+00 0.  1.
         24    2    1    2    0    0 -0.37762245493E+02 -0.93491692601E+02  0.47030955894E+02  0.13626518117E+03  0.78674042843E+02 0.  0.
        254    2    1    2    0    0  0.37762245493E+02  0.93491692601E+02  0.89935318498E+03  0.12723752569E+04  0.89439139038E+03 0.  0.
         23    2    4    4    0    0 -0.11311476571E+03 -0.53956852441E+02  0.10071097577E+04  0.10193753402E+04  0.95654210455E+02 0.  0.
         23    2    4    4    0    0  0.15087701120E+03  0.14744854504E+03 -0.10775657273E+03  0.25299991667E+03  0.88839928647E+02 0.  0.
          2    1    3    3  502    0 -0.39527273491E+02 -0.10706467461E+03  0.40516581441E+02  0.12110674329E+03  0.00000000000E+00 0. -1.
         -1    1    3    3    0  502  0.17650279984E+01  0.13572982009E+02  0.65143744525E+01  0.15158437880E+02  0.00000000000E+00 0.  1.
         13    1    5    5    0    0 -0.79122455414E+02 -0.32021323777E+02  0.32355637470E+03  0.33462584440E+03  0.00000000000E+00 0. -1.
        -13    1    5    5    0    0 -0.33992310297E+02 -0.21935528664E+02  0.68355338301E+03  0.68474949581E+03  0.00000000000E+00 0.  1.
          1    1    6    6  503    0  0.90039251888E+01  0.42761308846E+01 -0.38662038733E+02  0.39926297138E+02  0.00000000000E+00 0.  1.
         -1    1    6    6    0  503  0.14187308601E+03  0.14317241416E+03 -0.69094534002E+02  0.21307361953E+03  0.00000000000E+00 0. -1.
<mgrwt>
<rscale>  0 0.10433719E+04</rscale>
<asrwt>0</asrwt>
<pdfrwt beam="1">  1        2 0.18115573E+00 0.10433719E+04</pdfrwt>
<pdfrwt beam="2">  1       -1 0.35558177E-01 0.10433719E+04</pdfrwt>
<totfact> 0.16712395E+02</totfact>
</mgrwt>
</event>
<event>
12    7  0.1660832E-007  0.1590508E+04  0.7818608E-02  0.8826401E-01
          2   -1    0    0  501    0  0.00000000000E+00  0.00000000000E+00  0.14445546224E+04  0.14445546224E+04  0.00000000000E+00 0. -1.
         -1   -1    0    0    0  501 -0.00000000000E+00 -0.00000000000E+00 -0.43780178699E+03  0.43780178699E+03  0.00000000000E+00 0.  1.
         24    2    1    2    0    0  0.48386393582E+03 -0.18040008691E+03  0.27652103033E+03  0.59111096424E+03  0.79245139214E+02 0.  0.
        254    2    1    2    0    0 -0.48386393582E+03  0.18040008691E+03  0.73023180507E+03  0.12912454451E+04  0.93134730938E+03 0.  0.
         23    2    4    4    0    0 -0.52031435802E+03  0.47580254190E+03  0.33306192089E+03  0.78646241773E+03  0.10236113183E+03 0.  0.
         23    2    4    4    0    0  0.36450422200E+02 -0.29540245499E+03  0.39716988418E+03  0.50478302741E+03  0.92036645747E+02 0.  0.
          2    1    3    3  502    0  0.34899560097E+03 -0.10436738743E+03  0.22396201342E+03  0.42760900892E+03  0.00000000000E+00 0. -1.
         -1    1    3    3    0  502  0.13486833485E+03 -0.76032699484E+02  0.52559016914E+02  0.16350195532E+03  0.00000000000E+00 0.  1.
         13    1    5    5    0    0 -0.40822501217E+03  0.31187266972E+03  0.23308432676E+03  0.56412811139E+03  0.00000000000E+00 0.  1.
        -13    1    5    5    0    0 -0.11208934585E+03  0.16392987219E+03  0.99977594125E+02  0.22233430634E+03  0.00000000000E+00 0. -1.
          4    1    6    6  503    0  0.19426155865E+00 -0.17614211761E+03  0.29511555956E+03  0.34368485103E+03  0.00000000000E+00 0. -1.
         -4    1    6    6    0  503  0.36256160642E+02 -0.11926033738E+03  0.10205432463E+03  0.16109817638E+03  0.00000000000E+00 0.  1.
<mgrwt>
<rscale>  0 0.15905076E+04</rscale>
<asrwt>0</asrwt>
<pdfrwt beam="1">  1        2 0.22223917E+00 0.15905076E+04</pdfrwt>
<pdfrwt beam="2">  1       -1 0.67354122E-01 0.15905076E+04</pdfrwt>
<totfact> 0.33320363E+01</totfact>
</mgrwt>
</event>
<event>
12    7  0.1660832E-007  0.1515321E+04  0.7818608E-02  0.8874328E-01
          2   -1    0    0  501    0  0.00000000000E+00  0.00000000000E+00  0.33124316675E+04  0.33124316675E+04  0.00000000000E+00 0. -1.
         -1   -1    0    0    0  501 -0.00000000000E+00 -0.00000000000E+00 -0.17330162826E+03  0.17330162826E+03  0.00000000000E+00 0.  1.
         24    2    1    2    0    0  0.18621517353E+03  0.60361236053E+01 -0.11964926460E+02  0.20412161597E+03  0.82522415143E+02 0.  0.
        254    2    1    2    0    0 -0.18621517353E+03 -0.60361236053E+01  0.31510949657E+04  0.32816116798E+04  0.89714168807E+03 0.  0.
         23    2    4    4    0    0 -0.25117252189E+03 -0.40686335485E+03  0.14138141044E+04  0.14951649358E+04  0.89568064920E+02 0.  0.
         23    2    4    4    0    0  0.64957348358E+02  0.40082723125E+03  0.17372808613E+04  0.17864467440E+04  0.91461749278E+02 0.  0.
          2    1    3    3  502    0  0.83205832827E+02  0.41547712616E+02 -0.19048269421E+02  0.94932921624E+02  0.00000000000E+00 0. -1.
         -1    1    3    3    0  502  0.10300934070E+03 -0.35511589010E+02  0.70833429612E+01  0.10918869435E+03  0.00000000000E+00 0.  1.
         13    1    5    5    0    0 -0.12029396612E+03 -0.27227810224E+03  0.91453120214E+03  0.96175533424E+03  0.00000000000E+00 0. -1.
        -13    1    5    5    0    0 -0.13087855577E+03 -0.13458525261E+03  0.49928290228E+03  0.53340960161E+03  0.00000000000E+00 0.  1.
          3    1    6    6  503    0 -0.38573518140E+01  0.24851829625E+03  0.10832745682E+04  0.11114225177E+04  0.00000000000E+00 0. -1.
         -3    1    6    6    0  503  0.68814700172E+02  0.15230893500E+03  0.65400629313E+03  0.67502422630E+03  0.00000000000E+00 0.  1.
<mgrwt>
<rscale>  0 0.15153215E+04</rscale>
<asrwt>0</asrwt>
<pdfrwt beam="1">  1        2 0.50960482E+00 0.15153215E+04</pdfrwt>
<pdfrwt beam="2">  1       -1 0.26661792E-01 0.15153215E+04</pdfrwt>
<totfact> 0.15220317E+01</totfact>
</mgrwt>
</event>
<event>
12    7  0.1660832E-007  0.2344416E+04  0.7818608E-02  0.8460611E-01
         -1   -1    0    0    0  501 -0.00000000000E+00  0.00000000000E+00  0.66596566067E+03  0.66596566067E+03  0.00000000000E+00 0.  1.
          2   -1    0    0  501    0  0.00000000000E+00 -0.00000000000E+00 -0.20632778234E+04  0.20632778234E+04  0.00000000000E+00 0. -1.
         24    2    1    2    0    0 -0.47549649442E+03 -0.54901167765E+03  0.21395987328E+03  0.76157628010E+03  0.81907659190E+02 0.  0.
        254    2    1    2    0    0  0.47549649442E+03  0.54901167765E+03 -0.16112720360E+04  0.19676672039E+04  0.86487335091E+03 0.  0.
         23    2    4    4    0    0  0.57091006027E+03  0.67940250372E+03 -0.15089146145E+04  0.17533254375E+04  0.98998571440E+02 0.  0.
         23    2    4    4    0    0 -0.95413565848E+02 -0.13039082607E+03 -0.10235742151E+03  0.21434176641E+03  0.96746240331E+02 0.  0.
          2    1    3    3  502    0 -0.12865451428E+03 -0.14632517407E+03  0.20172206268E+02  0.19588251203E+03  0.00000000000E+00 0. -1.
         -1    1    3    3    0  502 -0.34684198014E+03 -0.40268650358E+03  0.19378766701E+03  0.56569376807E+03  0.00000000000E+00 0.  1.
         13    1    5    5    0    0  0.49746761358E+03  0.53503206365E+03 -0.12544841834E+04  0.14517106813E+04  0.00000000000E+00 0. -1.
        -13    1    5    5    0    0  0.73442446681E+02  0.14437044007E+03 -0.25443043106E+03  0.30161475625E+03  0.00000000000E+00 0.  1.
          4    1    6    6  503    0 -0.11467433059E+03 -0.11728706609E+03 -0.96533771979E+02  0.19032925971E+03  0.00000000000E+00 0. -1.
         -4    1    6    6    0  503  0.19260764745E+02 -0.13103759981E+02 -0.58236495356E+01  0.24012506702E+02  0.00000000000E+00 0.  1.
<mgrwt>
<rscale>  0 0.23444165E+04</rscale>
<asrwt>0</asrwt>
<pdfrwt beam="1">  1        2 0.31742735E+00 0.23444165E+04</pdfrwt>
<pdfrwt beam="2">  1       -1 0.10245626E+00 0.23444165E+04</pdfrwt>
<totfact> 0.57067725E+00</totfact>
</mgrwt>
</event>
<event>
12    7  0.1660832E-007  0.1674785E+04  0.7818608E-02  0.8775878E-01
          2   -1    0    0  501    0  0.00000000000E+00  0.00000000000E+00  0.79951925398E+03  0.79951925398E+03  0.00000000000E+00 0. -1.
         -1   -1    0    0    0  501 -0.00000000000E+00 -0.00000000000E+00 -0.87705959641E+03  0.87705959641E+03  0.00000000000E+00 0.  1.
         24    2    1    2    0    0  0.52557119827E+03 -0.27726722501E+03 -0.43877777481E+02  0.60124066943E+03  0.80392068670E+02 0.  0.
        254    2    1    2    0    0 -0.52557119827E+03  0.27726722501E+03 -0.33662564944E+02  0.10753381810E+04  0.89560975690E+03 0.  0.
         23    2    4    4    0    0  0.45900225638E+02  0.38164143636E+03  0.19977031901E+03  0.44270979029E+03  0.91251089865E+02 0.  0.
         23    2    4    4    0    0 -0.57147142391E+03 -0.10437421135E+03 -0.23343288395E+03  0.63262839067E+03  0.90852655644E+02 0.  0.
          4    1    3    3  502    0  0.44223473532E+03 -0.20180135597E+03 -0.21304113668E+02  0.48656881697E+03  0.00000000000E+00 0. -1.
         -3    1    3    3    0  502  0.83336462948E+02 -0.75465869045E+02 -0.22573663813E+02  0.11467185245E+03  0.00000000000E+00 0.  1.
         13    1    5    5    0    0  0.53046462597E+02  0.34895762740E+03  0.15179882672E+03  0.38422420109E+03  0.00000000000E+00 0.  1.
        -13    1    5    5    0    0 -0.71462369587E+01  0.32683808962E+02  0.47971492293E+02  0.58485589197E+02  0.00000000000E+00 0. -1.
          4    1    6    6  503    0 -0.62107746078E+02 -0.41021727468E+02 -0.35969614313E+02  0.82667813575E+02  0.00000000000E+00 0. -1.
         -4    1    6    6    0  503 -0.50936367783E+03 -0.63352483880E+02 -0.19746326964E+03  0.54996057710E+03  0.00000000000E+00 0.  1.
<mgrwt>
<rscale>  0 0.16747848E+04</rscale>
<asrwt>0</asrwt>
<pdfrwt beam="1">  1        2 0.12300296E+00 0.16747848E+04</pdfrwt>
<pdfrwt beam="2">  1       -1 0.13493224E+00 0.16747848E+04</pdfrwt>
<totfact> 0.17309475E+01</totfact>
</mgrwt>
</event>
<event>
12    7  0.1660832E-007  0.4222933E+04  0.7818608E-02  0.7961024E-01
         -1   -1    0    0    0  501 -0.00000000000E+00  0.00000000000E+00  0.23482672373E+04  0.23482672373E+04  0.00000000000E+00 0.  1.
          2   -1    0    0  501    0  0.00000000000E+00 -0.00000000000E+00 -0.18985448847E+04  0.18985448847E+04  0.00000000000E+00 0. -1.
         24    2    1    2    0    0  0.72610404042E+03 -0.10232302296E+04  0.17956275711E+04  0.21919737105E+04  0.79013878618E+02 0.  0.
        254    2    1    2    0    0 -0.72610404042E+03  0.10232302296E+04 -0.13459052185E+04  0.20548384115E+04  0.91469823441E+03 0.  0.
         23    2    4    4    0    0 -0.77974044636E+03  0.60883546036E+03 -0.12826495004E+04  0.16224193813E+04  0.91537568512E+02 0.  0.
         23    2    4    4    0    0  0.53636405939E+02  0.41439476921E+03 -0.63255718133E+02  0.43241903025E+03  0.91569880710E+02 0.  0.
          4    1    3    3  502    0  0.10660711307E+03 -0.11641808871E+03  0.19649803184E+03  0.25205103541E+03  0.00000000000E+00 0. -1.
         -3    1    3    3    0  502  0.61949692734E+03 -0.90681214086E+03  0.15991295393E+04  0.19399226751E+04  0.00000000000E+00 0.  1.
         13    1    5    5    0    0 -0.48507885232E+03  0.37204565212E+03 -0.71916421927E+03  0.94388380350E+03  0.00000000000E+00 0. -1.
        -13    1    5    5    0    0 -0.29466159403E+03  0.23678980823E+03 -0.56348528108E+03  0.67853557775E+03  0.00000000000E+00 0.  1.
          4    1    6    6  503    0  0.70147248874E+01  0.56417484432E+02 -0.42204964863E+02  0.70805352722E+02  0.00000000000E+00 0.  1.
         -4    1    6    6    0  503  0.46621681052E+02  0.35797728478E+03 -0.21050753269E+02  0.36161367752E+03  0.00000000000E+00 0. -1.
<mgrwt>
<rscale>  0 0.42229330E+04</rscale>
<asrwt>0</asrwt>
<pdfrwt beam="1">  1        2 0.29208383E+00 0.42229330E+04</pdfrwt>
<pdfrwt beam="2">  1       -1 0.36127188E+00 0.42229330E+04</pdfrwt>
<totfact> 0.87682759E-02</totfact>
</mgrwt>
</event>
<event>
12    7  0.1660832E-007  0.1713871E+04  0.7818608E-02  0.8753492E-01
         -1   -1    0    0    0  501 -0.00000000000E+00  0.00000000000E+00  0.97462509244E+03  0.97462509244E+03  0.00000000000E+00 0.  1.
          2   -1    0    0  501    0  0.00000000000E+00 -0.00000000000E+00 -0.75345764671E+03  0.75345764671E+03  0.00000000000E+00 0. -1.
         24    2    1    2    0    0 -0.24753850310E+03  0.55173443690E+03  0.18235369850E+03  0.63632318250E+03  0.77253620278E+02 0.  0.
        254    2    1    2    0    0  0.24753850310E+03 -0.55173443690E+03  0.38813747232E+02  0.10917595566E+04  0.90815539594E+03 0.  0.
         23    2    4    4    0    0  0.53028298476E+03 -0.57583475846E+03 -0.20329890284E+02  0.78837794186E+03  0.91327771237E+02 0.  0.
         23    2    4    4    0    0 -0.28274448166E+03  0.24100321556E+02  0.59143637516E+02  0.30338161479E+03  0.89538633716E+02 0.  0.
          2    1    3    3  502    0 -0.29350018545E+02  0.50075706259E+02 -0.45527343373E+01  0.58221364944E+02  0.00000000000E+00 0. -1.
         -1    1    3    3    0  502 -0.21818848456E+03  0.50165873064E+03  0.18690643284E+03  0.57810181755E+03  0.00000000000E+00 0.  1.
         13    1    5    5    0    0  0.35280486649E+03 -0.42159662808E+03  0.18538342181E+02  0.55005332538E+03  0.00000000000E+00 0. -1.
        -13    1    5    5    0    0  0.17747811827E+03 -0.15423813038E+03 -0.38868232465E+02  0.23832461648E+03  0.00000000000E+00 0.  1.
          3    1    6    6  503    0 -0.21044394108E+03 -0.21889804553E+02  0.48171917605E+02  0.21699389283E+03  0.00000000000E+00 0. -1.
         -3    1    6    6    0  503 -0.72300540573E+02  0.45990126109E+02  0.10971719911E+02  0.86387721954E+02  0.00000000000E+00 0.  1.
<mgrwt>
<rscale>  0 0.17138713E+04</rscale>
<asrwt>0</asrwt>
<pdfrwt beam="1">  1        2 0.11591656E+00 0.17138713E+04</pdfrwt>
<pdfrwt beam="2">  1       -1 0.14994232E+00 0.17138713E+04</pdfrwt>
<totfact> 0.14130152E+01</totfact>
</mgrwt>
</event>
<event>
12    7  0.1660832E-007  0.1575643E+04  0.7818608E-02  0.8835653E-01
         -1   -1    0    0    0  501 -0.00000000000E+00  0.00000000000E+00  0.41999471174E+03  0.41999471174E+03  0.00000000000E+00 0.  1.
          2   -1    0    0  501    0  0.00000000000E+00 -0.00000000000E+00 -0.14777864226E+04  0.14777864226E+04  0.00000000000E+00 0. -1.
         24    2    1    2    0    0 -0.41057808417E+03 -0.23312270400E+01 -0.72446002599E+03  0.83665507731E+03  0.81053015493E+02 0.  0.
        254    2    1    2    0    0  0.41057808417E+03  0.23312270400E+01 -0.33333168484E+03  0.10611260570E+04  0.91994494341E+03 0.  0.
         23    2    4    4    0    0  0.64653047554E+03  0.17905774513E+03 -0.12503457943E+03  0.68886276780E+03  0.93994334520E+02 0.  0.
         23    2    4    4    0    0 -0.23595239137E+03 -0.17672651809E+03 -0.20829710541E+03  0.37226328920E+03  0.91030100374E+02 0.  0.
          2    1    3    3  502    0 -0.14537297720E+03  0.37658554993E+02 -0.27025524327E+03  0.30917529943E+03  0.00000000000E+00 0. -1.
         -1    1    3    3    0  502 -0.26520510697E+03 -0.39989782033E+02 -0.45420478272E+03  0.52747977788E+03  0.00000000000E+00 0.  1.
         13    1    5    5    0    0  0.43680270019E+02  0.18164080680E+02  0.14541020804E+02  0.49490818360E+02  0.00000000000E+00 0. -1.
        -13    1    5    5    0    0  0.60285020552E+03  0.16089366444E+03 -0.13957560024E+03  0.63937194944E+03  0.00000000000E+00 0.  1.
          3    1    6    6  503    0 -0.28352478921E+02 -0.49304584816E+02 -0.90992729136E+01  0.57598627696E+02  0.00000000000E+00 0. -1.
         -3    1    6    6    0  503 -0.20759991245E+03 -0.12742193327E+03 -0.19919783249E+03  0.31466466150E+03  0.00000000000E+00 0.  1.
<mgrwt>
<rscale>  0 0.15756427E+04</rscale>
<asrwt>0</asrwt>
<pdfrwt beam="1">  1        2 0.22735175E+00 0.15756427E+04</pdfrwt>
<pdfrwt beam="2">  1       -1 0.64614572E-01 0.15756427E+04</pdfrwt>
<totfact> 0.34741523E+01</totfact>
</mgrwt>
</event>
<event>
12    7  0.1660832E-007  0.3585296E+04  0.7818608E-02  0.8093868E-01
         -1   -1    0    0    0  501 -0.00000000000E+00  0.00000000000E+00  0.12039977046E+04  0.12039977046E+04  0.00000000000E+00 0.  1.
          2   -1    0    0  501    0  0.00000000000E+00 -0.00000000000E+00 -0.26690975714E+04  0.26690975714E+04  0.00000000000E+00 0. -1.
         24    2    1    2    0    0  0.87244650350E+03 -0.71286071516E+03  0.62241517288E+03  0.12898356387E+04  0.83318826414E+02 0.  0.
        254    2    1    2    0    0 -0.87244650350E+03  0.71286071516E+03 -0.20875150398E+04  0.25832596373E+04  0.10228284370E+04 0.  0.
         23    2    4    4    0    0 -0.13657624338E+03 -0.22119838212E+03 -0.16617784754E+03  0.32188919719E+03  0.91737580881E+02 0.  0.
         23    2    4    4    0    0 -0.73587026012E+03  0.93405909728E+03 -0.19213371922E+04  0.22613704401E+04  0.91039684211E+02 0.  0.
          2    1    3    3  502    0  0.92944063942E+02 -0.90174078779E+02  0.44898146225E+02  0.13706132584E+03  0.00000000000E+00 0. -1.
         -1    1    3    3    0  502  0.77950243956E+03 -0.62268663638E+03  0.57751702666E+03  0.11527743129E+04  0.00000000000E+00 0.  1.
         13    1    5    5    0    0 -0.47846425183E+02 -0.13363737016E+02 -0.31292312249E+02  0.58711827392E+02  0.00000000000E+00 0.  1.
        -13    1    5    5    0    0 -0.88729818200E+02 -0.20783464511E+03 -0.13488553529E+03  0.26317736980E+03  0.00000000000E+00 0. -1.
          3    1    6    6  503    0 -0.56766931282E+03  0.66002503393E+03 -0.13741521428E+04  0.16267069821E+04  0.00000000000E+00 0. -1.
         -3    1    6    6    0  503 -0.16820094729E+03  0.27403406335E+03 -0.54718504942E+03  0.63466345795E+03  0.00000000000E+00 0.  1.
<mgrwt>
<rscale>  0 0.35852963E+04</rscale>
<asrwt>0</asrwt>
<pdfrwt beam="1">  1        2 0.41063039E+00 0.35852963E+04</pdfrwt>
<pdfrwt beam="2">  1       -1 0.18523042E+00 0.35852963E+04</pdfrwt>
<totfact> 0.49029786E-01</totfact>
</mgrwt>
</event>
<event>
12    7  0.1660832E-007  0.3087418E+04  0.7818608E-02  0.8219199E-01
         -1   -1    0    0    0  501 -0.00000000000E+00  0.00000000000E+00  0.92949193090E+03  0.92949193090E+03  0.00000000000E+00 0.  1.
          2   -1    0    0  501    0  0.00000000000E+00 -0.00000000000E+00 -0.25638066185E+04  0.25638066185E+04  0.00000000000E+00 0. -1.
         24    2    1    2    0    0  0.12894152798E+04  0.36127880243E+03 -0.26835080348E+03  0.13680412645E+04  0.80066290026E+02 0.  0.
        254    2    1    2    0    0 -0.12894152798E+04 -0.36127880243E+03 -0.13659638842E+04  0.21252572849E+04  0.92614634763E+03 0.  0.
         23    2    4    4    0    0 -0.58621394979E+03  0.29386072360E+03 -0.57967711927E+03  0.88013701429E+03  0.92815308653E+02 0.  0.
         23    2    4    4    0    0 -0.70320133005E+03 -0.65513952603E+03 -0.78628676489E+03  0.12451202706E+04  0.91529790150E+02 0.  0.
          4    1    3    3  502    0  0.20197327021E+03  0.43187356035E+02 -0.68059237648E+02  0.21746358185E+03  0.00000000000E+00 0. -1.
         -3    1    3    3    0  502  0.10874420096E+04  0.31809144639E+03 -0.20029156583E+03  0.11505776827E+04  0.00000000000E+00 0.  1.
         13    1    5    5    0    0 -0.48522299157E+03  0.24485259293E+03 -0.42994253934E+03  0.69299691987E+03  0.00000000000E+00 0. -1.
        -13    1    5    5    0    0 -0.10099095821E+03  0.49008130673E+02 -0.14973457993E+03  0.18714009442E+03  0.00000000000E+00 0.  1.
          1    1    6    6  503    0 -0.29727484300E+03 -0.33902245765E+03 -0.36105257651E+03  0.57763961263E+03  0.00000000000E+00 0. -1.
         -1    1    6    6    0  503 -0.40592648705E+03 -0.31611706838E+03 -0.42523418838E+03  0.66748065798E+03  0.00000000000E+00 0.  1.
<mgrwt>
<rscale>  0 0.30874181E+04</rscale>
<asrwt>0</asrwt>
<pdfrwt beam="1">  1        2 0.39443179E+00 0.30874181E+04</pdfrwt>
<pdfrwt beam="2">  1       -1 0.14299876E+00 0.30874181E+04</pdfrwt>
<totfact> 0.12232487E+00</totfact>
</mgrwt>
</event>
<event>
12    7  0.1660832E-007  0.1431576E+04  0.7818608E-02  0.8931274E-01
         -1   -1    0    0    0  501 -0.00000000000E+00  0.00000000000E+00  0.47117869859E+03  0.47117869859E+03  0.00000000000E+00 0.  1.
          2   -1    0    0  501    0  0.00000000000E+00 -0.00000000000E+00 -0.10873842903E+04  0.10873842903E+04  0.00000000000E+00 0. -1.
         24    2    1    2    0    0 -0.27641460002E+03 -0.24047500754E+03 -0.42568430482E+03  0.56685044467E+03  0.76674890960E+02 0.  0.
        254    2    1    2    0    0  0.27641460002E+03  0.24047500754E+03 -0.19052128691E+03  0.99171254423E+03  0.90164413671E+03 0.  0.
         23    2    4    4    0    0  0.84413149957E+02 -0.10237397909E+03  0.31098623476E+03  0.34804847108E+03  0.82578983564E+02 0.  0.
         23    2    4    4    0    0  0.19200145006E+03  0.34284898663E+03 -0.50150752168E+03  0.64366407315E+03  0.91562330163E+02 0.  0.
          4    1    3    3  502    0 -0.19548788182E+03 -0.14203154298E+03 -0.32187991890E+03  0.40248621509E+03  0.00000000000E+00 0. -1.
         -3    1    3    3    0  502 -0.80926718192E+02 -0.98443464564E+02 -0.10380438591E+03  0.16436422959E+03  0.00000000000E+00 0.  1.
         13    1    5    5    0    0 -0.14618418579E+02 -0.28777600291E+02  0.77833372972E+02  0.84260799833E+02  0.00000000000E+00 0. -1.
        -13    1    5    5    0    0  0.99031568536E+02 -0.73596378802E+02  0.23315286179E+03  0.26378767125E+03  0.00000000000E+00 0.  1.
          1    1    6    6  503    0  0.73759231590E+02  0.11104832452E+03 -0.10640959552E+03  0.17057302437E+03  0.00000000000E+00 0. -1.
         -1    1    6    6    0  503  0.11824221847E+03  0.23180066212E+03 -0.39509792615E+03  0.47309104878E+03  0.00000000000E+00 0.  1.
<mgrwt>
<rscale>  0 0.14315758E+04</rscale>
<asrwt>0</asrwt>
<pdfrwt beam="1">  1        2 0.16728989E+00 0.14315758E+04</pdfrwt>
<pdfrwt beam="2">  1       -1 0.72489031E-01 0.14315758E+04</pdfrwt>
<totfact> 0.47166324E+01</totfact>
</mgrwt>
</event>
<event>
12    7  0.1660832E-007  0.2673064E+04  0.7818608E-02  0.8343798E-01
          2   -1    0    0  501    0  0.00000000000E+00  0.00000000000E+00  0.10905257054E+04  0.10905257054E+04  0.00000000000E+00 0. -1.
         -1   -1    0    0    0  501 -0.00000000000E+00 -0.00000000000E+00 -0.16380338039E+04  0.16380338039E+04  0.00000000000E+00 0.  1.
         24    2    1    2    0    0  0.85170395499E+03 -0.80078914630E+03 -0.67897006452E+02  0.11736808322E+04  0.79081026262E+02 0.  0.
        254    2    1    2    0    0 -0.85170395499E+03  0.80078914630E+03 -0.47961109207E+03  0.15548786770E+04  0.90606733572E+03 0.  0.
         23    2    4    4    0    0 -0.69313848710E+02 -0.17582856388E+03  0.87464312524E+00  0.21134880702E+03  0.94591012929E+02 0.  0.
         23    2    4    4    0    0 -0.78239010628E+03  0.97661771018E+03 -0.48048573519E+03  0.13435298700E+04  0.91046909034E+02 0.  0.
          2    1    3    3  502    0  0.23979714537E+03 -0.25671742097E+03  0.78316196140E+01  0.35137990754E+03  0.00000000000E+00 0. -1.
         -1    1    3    3    0  502  0.61190680962E+03 -0.54407172533E+03 -0.75728626066E+02  0.82230092471E+03  0.00000000000E+00 0.  1.
         13    1    5    5    0    0 -0.55034134885E+02 -0.27965305048E+02  0.99142156740E+01  0.62522843517E+02  0.00000000000E+00 0. -1.
        -13    1    5    5    0    0 -0.14279713825E+02 -0.14786325883E+03 -0.90395725488E+01  0.14882596350E+03  0.00000000000E+00 0.  1.
          2    1    6    6  503    0 -0.75406759286E+03  0.96127902429E+03 -0.46068183023E+03  0.13057193595E+04  0.00000000000E+00 0.  1.
         -2    1    6    6    0  503 -0.28322513417E+02  0.15338685890E+02 -0.19803904961E+02  0.37810510480E+02  0.00000000000E+00 0. -1.
<mgrwt>
<rscale>  0 0.26730641E+04</rscale>
<asrwt>0</asrwt>
<pdfrwt beam="1">  1        2 0.16777319E+00 0.26730641E+04</pdfrwt>
<pdfrwt beam="2">  1       -1 0.25200520E+00 0.26730641E+04</pdfrwt>
<totfact> 0.14968838E+00</totfact>
</mgrwt>
</event>
<event>
12    7  0.1660832E-007  0.1253125E+04  0.7818608E-02  0.9067586E-01
          2   -1    0    0  501    0  0.00000000000E+00  0.00000000000E+00  0.16759836955E+04  0.16759836955E+04  0.00000000000E+00 0. -1.
         -1   -1    0    0    0  501 -0.00000000000E+00 -0.00000000000E+00 -0.23423891637E+03  0.23423891637E+03  0.00000000000E+00 0.  1.
         24    2    1    2    0    0 -0.80197983806E+02  0.19969383576E+03  0.40009883779E+02  0.23217954937E+03  0.77441640588E+02 0.  0.
        254    2    1    2    0    0  0.80197983806E+02 -0.19969383576E+03  0.14017348953E+04  0.16780430625E+04  0.89702756819E+03 0.  0.
         23    2    4    4    0    0  0.46284542730E+03 -0.23595184001E+03  0.81896332287E+03  0.97398098093E+03  0.89659726863E+02 0.  0.
         23    2    4    4    0    0 -0.38264744349E+03  0.36258004247E+02  0.58277157243E+03  0.70406208153E+03  0.91361918369E+02 0.  0.
          2    1    3    3  502    0  0.95434561253E+01  0.16833740366E+00 -0.97770718323E+00  0.95948842428E+01  0.00000000000E+00 0. -1.
         -3    1    3    3    0  502 -0.89741439932E+02  0.19952549836E+03  0.40987590963E+02  0.22258466513E+03  0.00000000000E+00 0.  1.
         13    1    5    5    0    0  0.32369328474E+03 -0.15825657485E+03  0.63907966909E+03  0.73365203571E+03  0.00000000000E+00 0.  1.
        -13    1    5    5    0    0  0.13915214256E+03 -0.77695265160E+02  0.17988365379E+03  0.24032894521E+03  0.00000000000E+00 0. -1.
          3    1    6    6  503    0 -0.28507248382E+03  0.36698777029E+02  0.49709777657E+03  0.57421191275E+03  0.00000000000E+00 0. -1.
         -3    1    6    6    0  503 -0.97574959673E+02 -0.44077278189E+00  0.85673795860E+02  0.12985016878E+03  0.00000000000E+00 0.  1.
<mgrwt>
<rscale>  0 0.12531251E+04</rscale>
<asrwt>0</asrwt>
<pdfrwt beam="1">  1        2 0.25784364E+00 0.12531251E+04</pdfrwt>
<pdfrwt beam="2">  1       -1 0.36036757E-01 0.12531251E+04</pdfrwt>
<totfact> 0.83405498E+01</totfact>
</mgrwt>
</event>
<event>
12    7  0.1660832E-007  0.1739732E+04  0.7818608E-02  0.8739023E-01
          2   -1    0    0  501    0  0.00000000000E+00  0.00000000000E+00  0.14942979510E+04  0.14942979510E+04  0.00000000000E+00 0. -1.
         -1   -1    0    0    0  501 -0.00000000000E+00 -0.00000000000E+00 -0.50636933874E+03  0.50636933874E+03  0.00000000000E+00 0.  1.
         24    2    1    2    0    0 -0.47083896986E+03 -0.16413170437E+03  0.81283051976E+03  0.95689104942E+03  0.79488833764E+02 0.  0.
        254    2    1    2    0    0  0.47083896986E+03  0.16413170437E+03  0.17509809247E+03  0.10437762403E+04  0.90010051989E+03 0.  0.
         23    2    4    4    0    0  0.23023591853E+03  0.46646189080E+03  0.32430941526E+03  0.61981137033E+03  0.91620217297E+02 0.  0.
         23    2    4    4    0    0  0.24060305132E+03 -0.30233018642E+03 -0.14921132279E+03  0.42396486997E+03  0.90492111189E+02 0.  0.
          2    1    3    3  502    0 -0.13624881277E+03 -0.70675629799E+02  0.19583400702E+03  0.24881668339E+03  0.00000000000E+00 0. -1.
         -1    1    3    3    0  502 -0.33459015708E+03 -0.93456074573E+02  0.61699651274E+03  0.70807436602E+03  0.00000000000E+00 0.  1.
         13    1    5    5    0    0 -0.22878989511E+01  0.10156173896E+02  0.23904021360E+02  0.26072678938E+02  0.00000000000E+00 0. -1.
        -13    1    5    5    0    0  0.23252381748E+03  0.45630571690E+03  0.30040539390E+03  0.59373869139E+03  0.00000000000E+00 0.  1.
          4    1    6    6  503    0  0.93180712221E+02 -0.53661451224E+02 -0.34093921342E+02  0.11280333306E+03  0.00000000000E+00 0.  1.
         -4    1    6    6    0  503  0.14742233910E+03 -0.24866873520E+03 -0.11511740145E+03  0.31116153690E+03  0.00000000000E+00 0. -1.
<mgrwt>
<rscale>  0 0.17397318E+04</rscale>
<asrwt>0</asrwt>
<pdfrwt beam="1">  1        2 0.22989199E+00 0.17397318E+04</pdfrwt>
<pdfrwt beam="2">  1       -1 0.77902976E-01 0.17397318E+04</pdfrwt>
<totfact> 0.22814873E+01</totfact>
</mgrwt>
</event>
<event>
12    7  0.1660832E-007  0.2011982E+04  0.7818608E-02  0.8601039E-01
          2   -1    0    0  501    0  0.00000000000E+00  0.00000000000E+00  0.24050322768E+04  0.24050322768E+04  0.00000000000E+00 0. -1.
         -1   -1    0    0    0  501 -0.00000000000E+00 -0.00000000000E+00 -0.42079168255E+03  0.42079168255E+03  0.00000000000E+00 0.  1.
         24    2    1    2    0    0  0.36277426562E+03  0.67948012769E+03  0.49849126274E+03  0.92065554851E+03  0.76254103240E+02 0.  0.
        254    2    1    2    0    0 -0.36277426562E+03 -0.67948012769E+03  0.14857493315E+04  0.19051684108E+04  0.91044889247E+03 0.  0.
         23    2    4    4    0    0 -0.57662796198E+03 -0.18687946330E+03  0.10163192102E+04  0.11861423018E+04  0.81271659965E+02 0.  0.
         23    2    4    4    0    0  0.21385369635E+03 -0.49260066438E+03  0.46943012127E+03  0.71902610901E+03  0.90802470720E+02 0.  0.
          4    1    3    3  502    0  0.35775479183E+03  0.67668202325E+03  0.50052930185E+03  0.91455816309E+03  0.00000000000E+00 0. -1.
         -3    1    3    3    0  502  0.50194737902E+01  0.27981044398E+01 -0.20380391097E+01  0.60973854231E+01  0.00000000000E+00 0.  1.
         13    1    5    5    0    0 -0.69191516539E+02 -0.51534274567E+02  0.15201891014E+03  0.17479415452E+03  0.00000000000E+00 0. -1.
        -13    1    5    5    0    0 -0.50743644544E+03 -0.13534518874E+03  0.86430030006E+03  0.10113481473E+04  0.00000000000E+00 0.  1.
          3    1    6    6  503    0  0.98070277793E+01 -0.46516549389E+01 -0.13729693668E+01  0.10940782989E+02  0.00000000000E+00 0. -1.
         -3    1    6    6    0  503  0.20404666858E+03 -0.48794900944E+03  0.47080309064E+03  0.70808532602E+03  0.00000000000E+00 0.  1.
<mgrwt>
<rscale>  0 0.20119817E+04</rscale>
<asrwt>0</asrwt>
<pdfrwt beam="1">  1        2 0.37000496E+00 0.20119817E+04</pdfrwt>
<pdfrwt beam="2">  1       -1 0.64737184E-01 0.20119817E+04</pdfrwt>
<totfact> 0.10098204E+01</totfact>
</mgrwt>
</event>
<event>
12    7  0.1660832E-007  0.1398618E+04  0.7818608E-02  0.8954820E-01
         -1   -1    0    0    0  501 -0.00000000000E+00  0.00000000000E+00  0.45333720956E+03  0.45333720956E+03  0.00000000000E+00 0.  1.
          2   -1    0    0  501    0  0.00000000000E+00 -0.00000000000E+00 -0.10787401906E+04  0.10787401906E+04  0.00000000000E+00 0. -1.
         24    2    1    2    0    0 -0.18753277099E+03  0.34802578323E+03 -0.31820111681E+03  0.51362597367E+03  0.79178305760E+02 0.  0.
        254    2    1    2    0    0  0.18753277099E+03 -0.34802578323E+03 -0.30720186419E+03  0.10184514264E+04  0.88689336262E+03 0.  0.
         23    2    4    4    0    0  0.47070685572E+03  0.22754078791E+02 -0.62996309004E+02  0.48416257212E+03  0.91444896897E+02 0.  0.
         23    2    4    4    0    0 -0.28317408473E+03 -0.37077986202E+03 -0.24420555519E+03  0.53428885432E+03  0.90349091413E+02 0.  0.
          2    1    3    3  502    0 -0.56413367128E+02  0.91799175178E+02 -0.13382019105E+03  0.17180628651E+03  0.00000000000E+00 0. -1.
         -1    1    3    3    0  502 -0.13111940386E+03  0.25622660806E+03 -0.18438092576E+03  0.34181968716E+03  0.00000000000E+00 0.  1.
         13    1    5    5    0    0  0.42410436197E+03  0.36817923224E+02 -0.32983082679E+02  0.42697535416E+03  0.00000000000E+00 0. -1.
        -13    1    5    5    0    0  0.46602493750E+02 -0.14063844434E+02 -0.30013226325E+02  0.57187217963E+02  0.00000000000E+00 0.  1.
          2    1    6    6  503    0 -0.28561949335E+03 -0.35790240298E+03 -0.24786241462E+03  0.52068070986E+03  0.00000000000E+00 0. -1.
         -2    1    6    6    0  503  0.24454086177E+01 -0.12877459046E+02  0.36568594293E+01  0.13608144462E+02  0.00000000000E+00 0.  1.
<mgrwt>
<rscale>  0 0.13986180E+04</rscale>
<asrwt>0</asrwt>
<pdfrwt beam="1">  1        2 0.16596003E+00 0.13986180E+04</pdfrwt>
<pdfrwt beam="2">  1       -1 0.69744186E-01 0.13986180E+04</pdfrwt>
<totfact> 0.51840773E+01</totfact>
</mgrwt>
</event>
<event>
12    7  0.1660832E-007  0.2010580E+04  0.7818608E-02  0.8601690E-01
          2   -1    0    0  501    0  0.00000000000E+00  0.00000000000E+00  0.11311878214E+04  0.11311878214E+04  0.00000000000E+00 0. -1.
         -1   -1    0    0    0  501 -0.00000000000E+00 -0.00000000000E+00 -0.89340429222E+03  0.89340429222E+03  0.00000000000E+00 0.  1.
         24    2    1    2    0    0 -0.71835629325E+03  0.10182017229E+03  0.44617375128E+03  0.85488292306E+03  0.73148371571E+02 0.  0.
        254    2    1    2    0    0  0.71835629325E+03 -0.10182017229E+03 -0.20839022206E+03  0.11697091906E+04  0.89352671722E+03 0.  0.
         23    2    4    4    0    0 -0.12118403597E+03  0.92215790658E+01  0.17907660499E+03  0.23416612836E+03  0.89413293878E+02 0.  0.
         23    2    4    4    0    0  0.83954032922E+03 -0.11104175136E+03 -0.38746682705E+03  0.93554306225E+03  0.89174235733E+02 0.  0.
          2    1    3    3  502    0 -0.31402329477E+03  0.71113352843E+02  0.16825914363E+03  0.36328897317E+03  0.00000000000E+00 0. -1.
         -1    1    3    3    0  502 -0.40433299848E+03  0.30706819452E+02  0.27791460765E+03  0.49159394989E+03  0.00000000000E+00 0.  1.
         13    1    5    5    0    0 -0.10050770659E+03  0.11739692490E+01  0.69103863812E+02  0.12197754417E+03  0.00000000000E+00 0. -1.
        -13    1    5    5    0    0 -0.20676329377E+02  0.80476098168E+01  0.10997274118E+03  0.11218858419E+03  0.00000000000E+00 0.  1.
          1    1    6    6  503    0  0.65251010514E+03 -0.79428152465E+02 -0.25931859604E+03  0.70662890046E+03  0.00000000000E+00 0. -1.
         -1    1    6    6    0  503  0.18703022408E+03 -0.31613598896E+02 -0.12814823101E+03  0.22891416178E+03  0.00000000000E+00 0.  1.
<mgrwt>
<rscale>  0 0.20105801E+04</rscale>
<asrwt>0</asrwt>
<pdfrwt beam="1">  1        2 0.17402890E+00 0.20105801E+04</pdfrwt>
<pdfrwt beam="2">  1       -1 0.13744681E+00 0.20105801E+04</pdfrwt>
<totfact> 0.97048154E+00</totfact>
</mgrwt>
</event>
<event>
12    7  0.1660832E-007  0.1345498E+04  0.7818608E-02  0.8994243E-01
          2   -1    0    0  501    0  0.00000000000E+00  0.00000000000E+00  0.14228430925E+04  0.14228430925E+04  0.00000000000E+00 0. -1.
         -1   -1    0    0    0  501 -0.00000000000E+00 -0.00000000000E+00 -0.31808919543E+03  0.31808919543E+03  0.00000000000E+00 0.  1.
         24    2    1    2    0    0 -0.23693720054E+03 -0.24680349074E+03  0.47606442639E+03  0.59259699433E+03  0.86502367453E+02 0.  0.
        254    2    1    2    0    0  0.23693720054E+03  0.24680349074E+03  0.62868947067E+03  0.11483352936E+04  0.89798234722E+03 0.  0.
         23    2    4    4    0    0  0.12239949252E+03  0.31558722260E+03 -0.12839043733E+03  0.37400645911E+03  0.93913770167E+02 0.  0.
         23    2    4    4    0    0  0.11453770803E+03 -0.68783731859E+02  0.75707990800E+03  0.77432883447E+03  0.92547655123E+02 0.  0.
          4    1    3    3  502    0 -0.23661540702E+03 -0.22057536751E+03  0.45812178422E+03  0.56081718301E+03  0.00000000000E+00 0. -1.
         -3    1    3    3    0  502 -0.32179352407E+00 -0.26228123227E+02  0.17942642170E+02  0.31779811313E+02  0.00000000000E+00 0.  1.
         13    1    5    5    0    0  0.12614528828E+03  0.29495081620E+03 -0.14002462425E+03  0.35002216091E+03  0.00000000000E+00 0. -1.
        -13    1    5    5    0    0 -0.37457957649E+01  0.20636406399E+02  0.11634186923E+02  0.23984298204E+02  0.00000000000E+00 0.  1.
          2    1    6    6  503    0  0.12985702103E+02 -0.58730569165E+02  0.30497520996E+03  0.31085010359E+03  0.00000000000E+00 0. -1.
         -2    1    6    6    0  503  0.10155200592E+03 -0.10053162693E+02  0.45210469804E+03  0.46347873088E+03  0.00000000000E+00 0.  1.
<mgrwt>
<rscale>  0 0.13454977E+04</rscale>
<asrwt>0</asrwt>
<pdfrwt beam="1">  1        2 0.21889893E+00 0.13454977E+04</pdfrwt>
<pdfrwt beam="2">  1       -1 0.48936800E-01 0.13454977E+04</pdfrwt>
<totfact> 0.65365572E+01</totfact>
</mgrwt>
</event>
<event>
12    7  0.1660832E-007  0.3802188E+04  0.7818608E-02  0.8045685E-01
          2   -1    0    0  501    0  0.00000000000E+00  0.00000000000E+00  0.31798505554E+04  0.31798505554E+04  0.00000000000E+00 0. -1.
         -1   -1    0    0    0  501 -0.00000000000E+00 -0.00000000000E+00 -0.11365812971E+04  0.11365812971E+04  0.00000000000E+00 0.  1.
         24    2    1    2    0    0  0.14655276472E+04  0.33001215193E+03  0.20777102879E+04  0.25651357574E+04  0.79762825778E+02 0.  0.
        254    2    1    2    0    0 -0.14655276472E+04 -0.33001215193E+03 -0.34441029618E+02  0.17512960950E+04  0.89954017297E+03 0.  0.
         23    2    4    4    0    0 -0.95890065616E+03 -0.40362694955E+03 -0.39730923767E+03  0.11172602034E+04  0.89501669746E+02 0.  0.
         23    2    4    4    0    0 -0.50662699103E+03  0.73614797616E+02  0.36286820806E+03  0.63403589166E+03  0.90764139499E+02 0.  0.
          2    1    3    3  502    0  0.14652775201E+04  0.33109563262E+03  0.20717025841E+04  0.25590260112E+04  0.00000000000E+00 0. -1.
         -1    1    3    3    0  502  0.25012707438E+00 -0.10834806917E+01  0.60077038506E+01  0.61097462729E+01  0.00000000000E+00 0.  1.
         13    1    5    5    0    0 -0.90029057973E+03 -0.36268241019E+03 -0.38751147914E+03  0.10450965530E+04  0.00000000000E+00 0. -1.
        -13    1    5    5    0    0 -0.58610076432E+02 -0.40944539356E+02 -0.97977585374E+01  0.72163650370E+02  0.00000000000E+00 0.  1.
          1    1    6    6  503    0 -0.29919470749E+03  0.82717690568E+02  0.24357880719E+03  0.39457613287E+03  0.00000000000E+00 0. -1.
         -1    1    6    6    0  503 -0.20743228355E+03 -0.91028929528E+01  0.11928940087E+03  0.23945975879E+03  0.00000000000E+00 0.  1.
<mgrwt>
<rscale>  0 0.38021881E+04</rscale>
<asrwt>0</asrwt>
<pdfrwt beam="1">  1        2 0.48920777E+00 0.38021881E+04</pdfrwt>
<pdfrwt beam="2">  1       -1 0.17485866E+00 0.38021881E+04</pdfrwt>
<totfact> 0.27553181E-01</totfact>
</mgrwt>
</event>
<event>
12    7  0.1779733E-007  0.1357693E+04  0.7818608E-02  0.8985025E-01
         -1   -1    0    0    0  501 -0.00000000000E+00  0.00000000000E+00  0.46594917057E+03  0.46594917057E+03  0.00000000000E+00 0.  1.
          2   -1    0    0  501    0  0.00000000000E+00 -0.00000000000E+00 -0.98901946370E+03  0.98901946370E+03  0.00000000000E+00 0. -1.
         24    2    1    2    0    0  0.31768835387E+03 -0.18924485310E+02 -0.35970868031E+03  0.48691483607E+03  0.80073070173E+02 0.  0.
        254    2    1    2    0    0 -0.31768835387E+03  0.18924485310E+02 -0.16336161281E+03  0.96805379820E+03  0.89953160775E+03 0.  0.
         23    2    4    4    0    0 -0.39445774760E+02  0.14035416548E+02 -0.50691763674E+03  0.51670238640E+03  0.90900514881E+02 0.  0.
         23    2    4    4    0    0 -0.27824257911E+03  0.48890687620E+01  0.34355602393E+03  0.45135141180E+03  0.90799336619E+02 0.  0.
          4    1    3    3  502    0  0.30971393688E+03 -0.11317496317E+02 -0.36103785922E+03  0.47581419085E+03  0.00000000000E+00 0. -1.
         -3    1    3    3    0  502  0.79744169870E+01 -0.76069889929E+01  0.13291789083E+01  0.11100645224E+02  0.00000000000E+00 0.  1.
         13    1    5    5    0    0 -0.23099688459E+02 -0.23439772283E+02 -0.64602989750E+02  0.72502171114E+02  0.00000000000E+00 0. -1.
        -13    1    5    5    0    0 -0.16346086302E+02  0.37475188831E+02 -0.44231464699E+03  0.44420021529E+03  0.00000000000E+00 0.  1.
          2    1    6    6  503    0 -0.52870932962E+02  0.27591521021E+02  0.11512615790E+03  0.12965592858E+03  0.00000000000E+00 0. -1.
         -2    1    6    6    0  503 -0.22537164614E+03 -0.22702452259E+02  0.22842986604E+03  0.32169548322E+03  0.00000000000E+00 0.  1.
<mgrwt>
<rscale>  0 0.13576933E+04</rscale>
<asrwt>0</asrwt>
<pdfrwt beam="1">  1        2 0.15215684E+00 0.13576933E+04</pdfrwt>
<pdfrwt beam="2">  1       -1 0.71684488E-01 0.13576933E+04</pdfrwt>
<totfact> 0.56029726E+01</totfact>
</mgrwt>
</event>
<event>
12    7  0.1660832E-007  0.1754168E+04  0.7818608E-02  0.8731059E-01
          2   -1    0    0  501    0  0.00000000000E+00  0.00000000000E+00  0.74827469829E+03  0.74827469829E+03  0.00000000000E+00 0. -1.
         -1   -1    0    0    0  501 -0.00000000000E+00 -0.00000000000E+00 -0.10280670645E+04  0.10280670645E+04  0.00000000000E+00 0.  1.
         24    2    1    2    0    0 -0.19768024119E+03  0.48406088144E+03  0.26476654728E+03  0.59135873935E+03  0.78812558310E+02 0.  0.
        254    2    1    2    0    0  0.19768024119E+03 -0.48406088144E+03 -0.54455891354E+03  0.11849830235E+04  0.91337174302E+03 0.  0.
         23    2    4    4    0    0  0.43243784772E+03 -0.28798828509E+03  0.28720377862E+02  0.52817324041E+03  0.90566921643E+02 0.  0.
         23    2    4    4    0    0 -0.23475760653E+03 -0.19607259635E+03 -0.57327929141E+03  0.65680978308E+03  0.95887164614E+02 0.  0.
          2    1    3    3  502    0 -0.18068453212E+03  0.43812728733E+03  0.26374999350E+03  0.54237116362E+03  0.00000000000E+00 0. -1.
         -1    1    3    3    0  502 -0.16995709061E+02  0.45933594109E+02  0.10165537824E+01  0.48987575730E+02  0.00000000000E+00 0.  1.
         13    1    5    5    0    0  0.43142531090E+03 -0.26912326344E+03  0.26915009889E+02  0.50919499955E+03  0.00000000000E+00 0. -1.
        -13    1    5    5    0    0  0.10125368149E+01 -0.18865021648E+02  0.18053679727E+01  0.18978240859E+02  0.00000000000E+00 0.  1.
          3    1    6    6  503    0 -0.15856426133E+03 -0.11941376278E+03 -0.27199258031E+03  0.33672278725E+03  0.00000000000E+00 0. -1.
         -3    1    6    6    0  503 -0.76193345203E+02 -0.76658833565E+02 -0.30128671110E+03  0.32008699583E+03  0.00000000000E+00 0.  1.
<mgrwt>
<rscale>  0 0.17541683E+04</rscale>
<asrwt>0</asrwt>
<pdfrwt beam="1">  1        2 0.11511918E+00 0.17541683E+04</pdfrwt>
<pdfrwt beam="2">  1       -1 0.15816416E+00 0.17541683E+04</pdfrwt>
<totfact> 0.12279691E+01</totfact>
</mgrwt>
</event>
<event>
12    7  0.1660832E-007  0.2183504E+04  0.7818608E-02  0.8525326E-01
          2   -1    0    0  501    0  0.00000000000E+00  0.00000000000E+00  0.24154568552E+04  0.24154568552E+04  0.00000000000E+00 0. -1.
         -1   -1    0    0    0  501 -0.00000000000E+00 -0.00000000000E+00 -0.49345618436E+03  0.49345618436E+03  0.00000000000E+00 0.  1.
         24    2    1    2    0    0  0.82569117135E+03  0.36637129028E+03  0.81630687899E+03  0.12221001292E+04  0.10572593031E+03 0.  0.
        254    2    1    2    0    0 -0.82569117135E+03 -0.36637129028E+03  0.11056937919E+04  0.16868129104E+04  0.89821222460E+03 0.  0.
         23    2    4    4    0    0 -0.80397781694E+03 -0.43673888075E+03  0.45633051643E+03  0.10266116510E+04  0.92589209054E+02 0.  0.
         23    2    4    4    0    0 -0.21713354411E+02  0.70367590474E+02  0.64936327543E+03  0.66020125937E+03  0.93648127875E+02 0.  0.
          2    1    3    3  502    0  0.74544583718E+03  0.29563114461E+03  0.73400398822E+03  0.10871288445E+04  0.00000000000E+00 0. -1.
         -1    1    3    3    0  502  0.80245334171E+02  0.70740145668E+02  0.82302890763E+02  0.13497128470E+03  0.00000000000E+00 0.  1.
         13    1    5    5    0    0 -0.14428580289E+03 -0.39913897165E+02  0.78818010639E+02  0.16918566992E+03  0.00000000000E+00 0.  1.
        -13    1    5    5    0    0 -0.65969201404E+03 -0.39682498358E+03  0.37751250579E+03  0.85742598107E+03  0.00000000000E+00 0. -1.
          3    1    6    6  503    0 -0.33571187504E+02  0.20082629567E+02  0.51119615991E+03  0.51269079429E+03  0.00000000000E+00 0. -1.
         -3    1    6    6    0  503  0.11857833093E+02  0.50284960906E+02  0.13816711551E+03  0.14751046508E+03  0.00000000000E+00 0.  1.
<mgrwt>
<rscale>  0 0.21835037E+04</rscale>
<asrwt>0</asrwt>
<pdfrwt beam="1">  1        2 0.37160874E+00 0.21835037E+04</pdfrwt>
<pdfrwt beam="2">  1       -1 0.75916337E-01 0.21835037E+04</pdfrwt>
<totfact> 0.70715948E+00</totfact>
</mgrwt>
</event>
<event>
12    7  0.1660832E-007  0.1569943E+04  0.7818608E-02  0.8839229E-01
          2   -1    0    0  501    0  0.00000000000E+00  0.00000000000E+00  0.22756183507E+04  0.22756183507E+04  0.00000000000E+00 0. -1.
         -1   -1    0    0    0  501 -0.00000000000E+00 -0.00000000000E+00 -0.27077479613E+03  0.27077479613E+03  0.00000000000E+00 0.  1.
         24    2    1    2    0    0 -0.46927330662E+03 -0.11987097644E+03  0.28291159095E+03  0.56647695605E+03  0.79187664063E+02 0.  0.
        254    2    1    2    0    0  0.46927330662E+03  0.11987097644E+03  0.17219319636E+04  0.19799161908E+04  0.84878262696E+03 0.  0.
         23    2    4    4    0    0  0.19869957434E+03  0.43869106498E+03  0.57283274925E+03  0.75386743691E+03  0.90815100449E+02 0.  0.
         23    2    4    4    0    0  0.27057373228E+03 -0.31882008854E+03  0.11490992144E+04  0.12260487539E+04  0.88939018058E+02 0.  0.
          2    1    3    3  502    0 -0.11877754808E+03 -0.16813310469E+01  0.91858377561E+02  0.15016289265E+03  0.00000000000E+00 0. -1.
         -1    1    3    3    0  502 -0.35049575854E+03 -0.11818964540E+03  0.19105321339E+03  0.41631406340E+03  0.00000000000E+00 0.  1.
         13    1    5    5    0    0  0.14726069589E+03  0.35802046759E+03  0.40216972413E+03  0.55821577797E+03  0.00000000000E+00 0.  1.
        -13    1    5    5    0    0  0.51438878459E+02  0.80670597395E+02  0.17066302513E+03  0.19565165894E+03  0.00000000000E+00 0. -1.
          3    1    6    6  503    0  0.98008214871E+02 -0.12179247990E+03  0.31270320164E+03  0.34960307587E+03  0.00000000000E+00 0. -1.
         -3    1    6    6    0  503  0.17256551741E+03 -0.19702760864E+03  0.83639601273E+03  0.87644567800E+03  0.00000000000E+00 0.  1.
<mgrwt>
<rscale>  0 0.15699428E+04</rscale>
<asrwt>0</asrwt>
<pdfrwt beam="1">  1        2 0.35009512E+00 0.15699428E+04</pdfrwt>
<pdfrwt beam="2">  1       -1 0.41657663E-01 0.15699428E+04</pdfrwt>
<totfact> 0.28992170E+01</totfact>
</mgrwt>
</event>
<event>
12    7  0.1660832E-007  0.1451995E+04  0.7818608E-02  0.8917019E-01
         -1   -1    0    0    0  501 -0.00000000000E+00  0.00000000000E+00  0.85233065923E+03  0.85233065923E+03  0.00000000000E+00 0.  1.
          2   -1    0    0  501    0  0.00000000000E+00 -0.00000000000E+00 -0.61838922620E+03  0.61838922620E+03  0.00000000000E+00 0. -1.
         24    2    1    2    0    0  0.42393860633E+03  0.12602548189E+03  0.61004016237E+02  0.45358122674E+03  0.80050454267E+02 0.  0.
        254    2    1    2    0    0 -0.42393860633E+03 -0.12602548189E+03  0.17293741679E+03  0.10171386587E+04  0.89947614579E+03 0.  0.
         23    2    4    4    0    0  0.38714639444E+02 -0.39528013466E+03 -0.86044595972E+02  0.41647225440E+03  0.91105751879E+02 0.  0.
         23    2    4    4    0    0 -0.46265324578E+03  0.26925465277E+03  0.25898201276E+03  0.60066640429E+03  0.84748760726E+02 0.  0.
          2    1    3    3  502    0  0.28046895581E+03  0.71423782901E+02  0.28731703170E+01  0.28943470255E+03  0.00000000000E+00 0. -1.
         -1    1    3    3    0  502  0.14346965053E+03  0.54601698990E+02  0.58130845920E+02  0.16414652419E+03  0.00000000000E+00 0.  1.
         13    1    5    5    0    0  0.10282317658E+02 -0.29998314725E+03 -0.99269383493E+02  0.31614873903E+03  0.00000000000E+00 0.  1.
        -13    1    5    5    0    0  0.28432321786E+02 -0.95296987404E+02  0.13224787522E+02  0.10032351537E+03  0.00000000000E+00 0. -1.
          3    1    6    6  503    0 -0.22579442539E+03  0.88469563160E+02  0.13842025505E+03  0.27923136133E+03  0.00000000000E+00 0. -1.
         -3    1    6    6    0  503 -0.23685882039E+03  0.18078508961E+03  0.12056175770E+03  0.32143504296E+03  0.00000000000E+00 0.  1.
<mgrwt>
<rscale>  0 0.14519946E+04</rscale>
<asrwt>0</asrwt>
<pdfrwt beam="1">  1        2 0.95136804E-01 0.14519946E+04</pdfrwt>
<pdfrwt beam="2">  1       -1 0.13112779E+00 0.14519946E+04</pdfrwt>
<totfact> 0.26286826E+01</totfact>
</mgrwt>
</event>
<event>
12    7  0.1660832E-007  0.1797811E+04  0.7818608E-02  0.8707464E-01
          2   -1    0    0  501    0  0.00000000000E+00  0.00000000000E+00  0.24018723849E+04  0.24018723849E+04  0.00000000000E+00 0. -1.
         -1   -1    0    0    0  501 -0.00000000000E+00 -0.00000000000E+00 -0.33641715158E+03  0.33641715158E+03  0.00000000000E+00 0.  1.
         24    2    1    2    0    0 -0.99233606169E+02  0.38042644845E+03 -0.52743613435E+02  0.40487414447E+03  0.81053024786E+02 0.  0.
        254    2    1    2    0    0  0.99233606169E+02 -0.38042644845E+03  0.21181988467E+04  0.23334153920E+04  0.89637572816E+03 0.  0.
         23    2    4    4    0    0 -0.14333140891E+02 -0.13851632236E+03  0.20296672710E+04  0.20365058177E+04  0.91730604878E+02 0.  0.
         23    2    4    4    0    0  0.11356674706E+03 -0.24191012609E+03  0.88531575739E+02  0.29690957435E+03  0.94337374864E+02 0.  0.
          2    1    3    3  502    0 -0.43684943680E+02  0.14710824120E+03 -0.60390222776E+02  0.16491266762E+03  0.00000000000E+00 0. -1.
         -3    1    3    3    0  502 -0.55548662489E+02  0.23331820725E+03  0.76466093409E+01  0.23996147685E+03  0.00000000000E+00 0.  1.
         13    1    5    5    0    0  0.27190487277E+02 -0.26712254047E+02  0.25472270357E+03  0.25755877548E+03  0.00000000000E+00 0.  1.
        -13    1    5    5    0    0 -0.41523628168E+02 -0.11180406831E+03  0.17749445674E+04  0.17789470422E+04  0.00000000000E+00 0. -1.
          1    1    6    6  503    0  0.12838736224E+03 -0.21320207705E+03  0.65862060005E+02  0.25744174368E+03  0.00000000000E+00 0. -1.
         -1    1    6    6    0  503 -0.14820615184E+02 -0.28708049039E+02  0.22669515733E+02  0.39467830668E+02  0.00000000000E+00 0.  1.
<mgrwt>
<rscale>  0 0.17978110E+04</rscale>
<asrwt>0</asrwt>
<pdfrwt beam="1">  1        2 0.36951882E+00 0.17978110E+04</pdfrwt>
<pdfrwt beam="2">  1       -1 0.51756486E-01 0.17978110E+04</pdfrwt>
<totfact> 0.16033262E+01</totfact>
</mgrwt>
</event>
<event>
12    7  0.1660832E-007  0.2228377E+04  0.7818608E-02  0.8506709E-01
          2   -1    0    0  501    0  0.00000000000E+00  0.00000000000E+00  0.10955755184E+04  0.10955755184E+04  0.00000000000E+00 0. -1.
         -1   -1    0    0    0  501 -0.00000000000E+00 -0.00000000000E+00 -0.11331171960E+04  0.11331171960E+04  0.00000000000E+00 0.  1.
         24    2    1    2    0    0  0.28633044872E+03  0.39819409205E+03 -0.80685037638E+03  0.94760520017E+03  0.80027649618E+02 0.  0.
        254    2    1    2    0    0 -0.28633044872E+03 -0.39819409205E+03  0.76930869876E+03  0.12810875142E+04  0.89933624650E+03 0.  0.
         23    2    4    4    0    0  0.24992896087E+02  0.24262445208E+03  0.38714342384E+03  0.46762045050E+03  0.96423988189E+02 0.  0.
         23    2    4    4    0    0 -0.31132334481E+03 -0.64081854414E+03  0.38216527491E+03  0.81346706371E+03  0.90042961160E+02 0.  0.
          2    1    3    3  502    0  0.29091799676E+02  0.94535733932E+02 -0.16645002301E+03  0.19362062896E+03  0.00000000000E+00 0. -1.
         -1    1    3    3    0  502  0.25723864905E+03  0.30365835812E+03 -0.64040035338E+03  0.75398457121E+03  0.00000000000E+00 0.  1.
         13    1    5    5    0    0 -0.27290210369E+02  0.40712333816E+02  0.11286068903E+03  0.12304383298E+03  0.00000000000E+00 0.  1.
        -13    1    5    5    0    0  0.52283106456E+02  0.20191211827E+03  0.27428273481E+03  0.34457661752E+03  0.00000000000E+00 0. -1.
          4    1    6    6  503    0 -0.12494040885E+03 -0.16454969730E+03  0.10521063926E+03  0.23185337448E+03  0.00000000000E+00 0. -1.
         -4    1    6    6    0  503 -0.18638293596E+03 -0.47626884684E+03  0.27695463565E+03  0.58161368923E+03  0.00000000000E+00 0.  1.
<mgrwt>
<rscale>  0 0.22283765E+04</rscale>
<asrwt>0</asrwt>
<pdfrwt beam="1">  1        2 0.16855008E+00 0.22283765E+04</pdfrwt>
<pdfrwt beam="2">  1       -1 0.17432572E+00 0.22283765E+04</pdfrwt>
<totfact> 0.52149302E+00</totfact>
</mgrwt>
</event>
<event>
12    7  0.1660832E-007  0.1868081E+04  0.7818608E-02  0.8670910E-01
          2   -1    0    0  501    0  0.00000000000E+00  0.00000000000E+00  0.12846906752E+04  0.12846906752E+04  0.00000000000E+00 0. -1.
         -1   -1    0    0    0  501 -0.00000000000E+00 -0.00000000000E+00 -0.67909838299E+03  0.67909838299E+03  0.00000000000E+00 0.  1.
         24    2    1    2    0    0 -0.37448980496E+03  0.38738582198E+03 -0.26467077915E+03  0.60644141665E+03  0.86082410517E+02 0.  0.
        254    2    1    2    0    0  0.37448980496E+03 -0.38738582198E+03  0.87026307140E+03  0.13573476416E+04  0.89147317265E+03 0.  0.
         23    2    4    4    0    0  0.23544182427E+03 -0.94909710412E+02 -0.13223366546E+03  0.29994311886E+03  0.89662849205E+02 0.  0.
         23    2    4    4    0    0  0.13904798070E+03 -0.29247611157E+03  0.10024967369E+04  0.10574045227E+04  0.90708326243E+02 0.  0.
          2    1    3    3  502    0 -0.17987953578E+03  0.23062816989E+03 -0.17561410389E+03  0.34115438385E+03  0.00000000000E+00 0. -1.
         -1    1    3    3    0  502 -0.19461026919E+03  0.15675765209E+03 -0.89056675267E+02  0.26528703280E+03  0.00000000000E+00 0.  1.
         13    1    5    5    0    0  0.10563156445E+03 -0.28562176828E+01 -0.26693680489E+02  0.10898962320E+03  0.00000000000E+00 0. -1.
        -13    1    5    5    0    0  0.12981025982E+03 -0.92053492729E+02 -0.10553998497E+03  0.19095349566E+03  0.00000000000E+00 0.  1.
          4    1    6    6  503    0  0.12040781647E+03 -0.29390138679E+03  0.94817665083E+03  0.99995751340E+03  0.00000000000E+00 0.  1.
         -4    1    6    6    0  503  0.18640164228E+02  0.14252752240E+01  0.54320086036E+02  0.57447009312E+02  0.00000000000E+00 0. -1.
<mgrwt>
<rscale>  0 0.18680807E+04</rscale>
<asrwt>0</asrwt>
<pdfrwt beam="1">  1        2 0.19764472E+00 0.18680807E+04</pdfrwt>
<pdfrwt beam="2">  1       -1 0.10447667E+00 0.18680807E+04</pdfrwt>
<totfact> 0.15560197E+01</totfact>
</mgrwt>
</event>
<event>
12    7  0.1660832E-007  0.1705427E+04  0.7818608E-02  0.8758275E-01
          2   -1    0    0  501    0  0.00000000000E+00  0.00000000000E+00  0.16963177734E+04  0.16963177734E+04  0.00000000000E+00 0. -1.
         -1   -1    0    0    0  501 -0.00000000000E+00 -0.00000000000E+00 -0.42864607959E+03  0.42864607959E+03  0.00000000000E+00 0.  1.
         24    2    1    2    0    0  0.44187215381E+03  0.56009284813E+02 -0.74302438443E+02  0.45867455507E+03  0.80457782806E+02 0.  0.
        254    2    1    2    0    0 -0.44187215381E+03 -0.56009284813E+02  0.13419741323E+04  0.16662892979E+04  0.88161069211E+03 0.  0.
         23    2    4    4    0    0 -0.24899625515E+03  0.40231034789E+03  0.66955562533E+03  0.82496867263E+03  0.91737801963E+02 0.  0.
         23    2    4    4    0    0 -0.19287589866E+03 -0.45831963271E+03  0.67241850695E+03  0.84132062532E+03  0.91737386522E+02 0.  0.
          4    1    3    3  502    0  0.24428371230E+02  0.58522411279E+01  0.14426929306E+02  0.28967746484E+02  0.00000000000E+00 0. -1.
         -3    1    3    3    0  502  0.41744378258E+03  0.50157043685E+02 -0.88729367749E+02  0.42970680859E+03  0.00000000000E+00 0.  1.
         13    1    5    5    0    0 -0.88018810055E+02  0.21746401953E+03  0.36708675132E+03  0.43564962264E+03  0.00000000000E+00 0.  1.
        -13    1    5    5    0    0 -0.16097744509E+03  0.18484632836E+03  0.30246887401E+03  0.38931904998E+03  0.00000000000E+00 0. -1.
          3    1    6    6  503    0 -0.10232555721E+03 -0.32549027991E+03  0.40793045760E+03  0.53180983463E+03  0.00000000000E+00 0. -1.
         -3    1    6    6    0  503 -0.90550341447E+02 -0.13282935280E+03  0.26448804935E+03  0.30951079069E+03  0.00000000000E+00 0.  1.
<mgrwt>
<rscale>  0 0.17054266E+04</rscale>
<asrwt>0</asrwt>
<pdfrwt beam="1">  1        2 0.26097196E+00 0.17054266E+04</pdfrwt>
<pdfrwt beam="2">  1       -1 0.65945552E-01 0.17054266E+04</pdfrwt>
<totfact> 0.24880734E+01</totfact>
</mgrwt>
</event>
<event>
12    7  0.1660832E-007  0.1257207E+04  0.7818608E-02  0.9064206E-01
          2   -1    0    0  501    0  0.00000000000E+00  0.00000000000E+00  0.79826267544E+03  0.79826267544E+03  0.00000000000E+00 0. -1.
         -1   -1    0    0    0  501 -0.00000000000E+00 -0.00000000000E+00 -0.49500273865E+03  0.49500273865E+03  0.00000000000E+00 0.  1.
         24    2    1    2    0    0 -0.82504818941E+02  0.56397688534E+01 -0.22138272715E+03  0.24980949370E+03  0.80966777891E+02 0.  0.
        254    2    1    2    0    0  0.82504818941E+02 -0.56397688534E+01  0.52464266394E+03  0.10434559204E+04  0.89817118682E+03 0.  0.
         23    2    4    4    0    0  0.44884382472E+03  0.15092615060E+03  0.36453522780E+03  0.60445940417E+03  0.90806151032E+02 0.  0.
         23    2    4    4    0    0 -0.36633900578E+03 -0.15656591945E+03  0.16010743615E+03  0.43899651622E+03  0.91468004546E+02 0.  0.
          4    1    3    3  502    0 -0.47005358236E+00 -0.25813517256E+02 -0.32610225882E+02  0.41593093844E+02  0.00000000000E+00 0. -1.
         -3    1    3    3    0  502 -0.82034765359E+02  0.31453286109E+02 -0.18877250127E+03  0.20821639986E+03  0.00000000000E+00 0.  1.
         13    1    5    5    0    0  0.36580294262E+03  0.15073026293E+03  0.32719992802E+03  0.51341133401E+03  0.00000000000E+00 0.  1.
        -13    1    5    5    0    0  0.83040882095E+02  0.19588767377E+00  0.37335299782E+02  0.91048070166E+02  0.00000000000E+00 0. -1.
          4    1    6    6  503    0 -0.23352038557E+02 -0.14428549480E+02  0.40514753567E+02  0.48938185515E+02  0.00000000000E+00 0. -1.
         -4    1    6    6    0  503 -0.34298696722E+03 -0.14213736997E+03  0.11959268258E+03  0.39005833071E+03  0.00000000000E+00 0.  1.
<mgrwt>
<rscale>  0 0.12572068E+04</rscale>
<asrwt>0</asrwt>
<pdfrwt beam="1">  1        2 0.12280964E+00 0.12572068E+04</pdfrwt>
<pdfrwt beam="2">  1       -1 0.76154267E-01 0.12572068E+04</pdfrwt>
<totfact> 0.67157334E+01</totfact>
</mgrwt>
</event>
<event>
12    7  0.1660832E-007  0.2639484E+04  0.7818608E-02  0.8354912E-01
         -1   -1    0    0    0  501 -0.00000000000E+00  0.00000000000E+00  0.53163162731E+03  0.53163162731E+03  0.00000000000E+00 0.  1.
          2   -1    0    0  501    0  0.00000000000E+00 -0.00000000000E+00 -0.32761751790E+04  0.32761751790E+04  0.00000000000E+00 0. -1.
         24    2    1    2    0    0  0.19147040632E+03 -0.53879725914E+03  0.25109453966E+03  0.62935865248E+03  0.77977193137E+02 0.  0.
        254    2    1    2    0    0 -0.19147040632E+03  0.53879725914E+03 -0.29956380914E+04  0.31784481539E+04  0.89538912729E+03 0.  0.
         23    2    4    4    0    0 -0.25413091514E+03  0.70826105728E+03 -0.16339648891E+04  0.18013692116E+04  0.94199419979E+02 0.  0.
         23    2    4    4    0    0  0.62660508826E+02 -0.16946379813E+03 -0.13616732023E+04  0.13770789422E+04  0.97714814124E+02 0.  0.
          4    1    3    3  502    0 -0.20055418943E+01 -0.12767755203E+00  0.67143552875E+01  0.70086422918E+01  0.00000000000E+00 0. -1.
         -3    1    3    3    0  502  0.19347594821E+03 -0.53866958159E+03  0.24438018437E+03  0.62235001019E+03  0.00000000000E+00 0.  1.
         13    1    5    5    0    0 -0.19529652021E+03  0.40791199677E+03 -0.96582563509E+03  0.10664671047E+04  0.00000000000E+00 0. -1.
        -13    1    5    5    0    0 -0.58834394935E+02  0.30034906050E+03 -0.66813925396E+03  0.73490210699E+03  0.00000000000E+00 0.  1.
          3    1    6    6  503    0  0.44914307244E+02 -0.19040588543E+02 -0.21623529540E+03  0.22166989417E+03  0.00000000000E+00 0. -1.
         -3    1    6    6    0  503  0.17746201582E+02 -0.15042320959E+03 -0.11454379069E+04  0.11554090480E+04  0.00000000000E+00 0.  1.
<mgrwt>
<rscale>  0 0.26394835E+04</rscale>
<asrwt>0</asrwt>
<pdfrwt beam="1">  1        2 0.50402695E+00 0.26394835E+04</pdfrwt>
<pdfrwt beam="2">  1       -1 0.81789482E-01 0.26394835E+04</pdfrwt>
<totfact> 0.17230930E+00</totfact>
</mgrwt>
</event>
<event>
12    7  0.1660832E-007  0.1302649E+04  0.7818608E-02  0.9027467E-01
          2   -1    0    0  501    0  0.00000000000E+00  0.00000000000E+00  0.13031445997E+04  0.13031445997E+04  0.00000000000E+00 0. -1.
         -1   -1    0    0    0  501 -0.00000000000E+00 -0.00000000000E+00 -0.32553851944E+03  0.32553851944E+03  0.00000000000E+00 0.  1.
         24    2    1    2    0    0 -0.26465334947E+03 -0.16413365336E+03  0.38404483839E+03  0.50065030868E+03  0.78606883494E+02 0.  0.
        254    2    1    2    0    0  0.26465334947E+03  0.16413365336E+03  0.59356124183E+03  0.11280328104E+04  0.90728265828E+03 0.  0.
         23    2    4    4    0    0  0.57485199324E+03  0.20436005809E+02  0.48491065632E+03  0.75768694425E+03  0.89881680053E+02 0.  0.
         23    2    4    4    0    0 -0.31019864377E+03  0.14369764755E+03  0.10865058551E+03  0.37034586617E+03  0.92080933672E+02 0.  0.
          2    1    3    3  502    0 -0.11548510701E+03 -0.48971999676E+02  0.20722961743E+03  0.24223786044E+03  0.00000000000E+00 0. -1.
         -1    1    3    3    0  502 -0.14916824246E+03 -0.11516165368E+03  0.17681522097E+03  0.25841244823E+03  0.00000000000E+00 0.  1.
         13    1    5    5    0    0  0.25226052591E+03 -0.25314541184E+02  0.17535924741E+03  0.30826460157E+03  0.00000000000E+00 0.  1.
        -13    1    5    5    0    0  0.32259146733E+03  0.45750546993E+02  0.30955140890E+03  0.44942234268E+03  0.00000000000E+00 0. -1.
          2    1    6    6  503    0 -0.10078704561E+02  0.23068930076E+02 -0.81303219284E+01  0.26454828579E+02  0.00000000000E+00 0. -1.
         -2    1    6    6    0  503 -0.30011993921E+03  0.12062871747E+03  0.11678090744E+03  0.34389103759E+03  0.00000000000E+00 0.  1.
<mgrwt>
<rscale>  0 0.13026492E+04</rscale>
<asrwt>0</asrwt>
<pdfrwt beam="1">  1        2 0.20048378E+00 0.13026492E+04</pdfrwt>
<pdfrwt beam="2">  1       -1 0.50082850E-01 0.13026492E+04</pdfrwt>
<totfact> 0.73558989E+01</totfact>
</mgrwt>
</event>
<event>
12    7  0.1660832E-007  0.2590080E+04  0.7818608E-02  0.8371579E-01
          2   -1    0    0  501    0  0.00000000000E+00  0.00000000000E+00  0.35341502570E+04  0.35341502570E+04  0.00000000000E+00 0. -1.
         -1   -1    0    0    0  501 -0.00000000000E+00 -0.00000000000E+00 -0.47454932244E+03  0.47454932244E+03  0.00000000000E+00 0.  1.
         24    2    1    2    0    0  0.10147985533E+04 -0.50007496159E+03  0.11314082850E+04  0.16019141829E+04  0.78442787471E+02 0.  0.
        254    2    1    2    0    0 -0.10147985533E+04  0.50007496159E+03  0.19281926496E+04  0.24067853966E+04  0.89151443072E+03 0.  0.
         23    2    4    4    0    0 -0.11928213100E+03 -0.90937844052E+02  0.90321336193E+03  0.92012526097E+03  0.91313747352E+02 0.  0.
         23    2    4    4    0    0 -0.89551642233E+03  0.59101280564E+03  0.10249792876E+04  0.14866601356E+04  0.91268940789E+02 0.  0.
          2    1    3    3  502    0  0.37101719325E+03 -0.17126810270E+03  0.46046795563E+03  0.61564377594E+03  0.00000000000E+00 0. -1.
         -1    1    3    3    0  502  0.64378136008E+03 -0.32880685888E+03  0.67094032934E+03  0.98627040692E+03  0.00000000000E+00 0.  1.
         13    1    5    5    0    0 -0.77468124435E+02 -0.86769962194E+02  0.44367507493E+03  0.45866971642E+03  0.00000000000E+00 0.  1.
        -13    1    5    5    0    0 -0.41814006566E+02 -0.41678818579E+01  0.45953828700E+03  0.46145554456E+03  0.00000000000E+00 0. -1.
          1    1    6    6  503    0 -0.59544511778E+03  0.34107308794E+03  0.64364526341E+03  0.94083205978E+03  0.00000000000E+00 0. -1.
         -1    1    6    6    0  503 -0.30007130455E+03  0.24993971770E+03  0.38133402423E+03  0.54582807580E+03  0.00000000000E+00 0.  1.
<mgrwt>
<rscale>  0 0.25900800E+04</rscale>
<asrwt>0</asrwt>
<pdfrwt beam="1">  1        2 0.54371541E+00 0.25900800E+04</pdfrwt>
<pdfrwt beam="2">  1       -1 0.73007590E-01 0.25900800E+04</pdfrwt>
<totfact> 0.14656345E+00</totfact>
</mgrwt>
</event>
<event>
12    7  0.1660832E-007  0.1653926E+04  0.7818608E-02  0.8788087E-01
          2   -1    0    0  501    0  0.00000000000E+00  0.00000000000E+00  0.20970219683E+04  0.20970219683E+04  0.00000000000E+00 0. -1.
         -1   -1    0    0    0  501 -0.00000000000E+00 -0.00000000000E+00 -0.32611370850E+03  0.32611370850E+03  0.00000000000E+00 0.  1.
         24    2    1    2    0    0  0.56107522195E+03 -0.97441360620E+02  0.46912878894E+03  0.74224254405E+03  0.80882322762E+02 0.  0.
        254    2    1    2    0    0 -0.56107522195E+03  0.97441360620E+02  0.13017794709E+04  0.16808931328E+04  0.89803769939E+03 0.  0.
         23    2    4    4    0    0 -0.52776876454E+03 -0.56056702658E+02  0.21582427184E+03  0.57993485028E+03  0.89789150324E+02 0.  0.
         23    2    4    4    0    0 -0.33306457411E+02  0.15349806328E+03  0.10859551990E+04  0.11009582825E+04  0.90219010856E+02 0.  0.
          2    1    3    3  502    0  0.32145682130E+03 -0.57383810120E+02  0.21672197158E+03  0.39191300386E+03  0.00000000000E+00 0. -1.
         -1    1    3    3    0  502  0.23961840065E+03 -0.40057550499E+02  0.25240681736E+03  0.35032954019E+03  0.00000000000E+00 0.  1.
         13    1    5    5    0    0 -0.10690148935E+03 -0.58894863787E+01  0.66159877724E+01  0.10726782262E+03  0.00000000000E+00 0. -1.
        -13    1    5    5    0    0 -0.42086727519E+03 -0.50167216279E+02  0.20920828407E+03  0.47266702766E+03  0.00000000000E+00 0.  1.
          4    1    6    6  503    0 -0.53761992033E+02  0.69786811131E+02  0.39837400428E+03  0.40799803686E+03  0.00000000000E+00 0. -1.
         -4    1    6    6    0  503  0.20455534622E+02  0.83711252147E+02  0.68758119475E+03  0.69296024562E+03  0.00000000000E+00 0.  1.
<mgrwt>
<rscale>  0 0.16539258E+04</rscale>
<asrwt>0</asrwt>
<pdfrwt beam="1">  1        2 0.32261876E+00 0.16539258E+04</pdfrwt>
<pdfrwt beam="2">  1       -1 0.50171341E-01 0.16539258E+04</pdfrwt>
<totfact> 0.25592192E+01</totfact>
</mgrwt>
</event>
<event>
12    7  0.1660832E-007  0.6261578E+04  0.7818608E-02  0.7658789E-01
         -1   -1    0    0    0  501 -0.00000000000E+00  0.00000000000E+00  0.22388831532E+04  0.22388831532E+04  0.00000000000E+00 0.  1.
          2   -1    0    0  501    0  0.00000000000E+00 -0.00000000000E+00 -0.43780043228E+04  0.43780043228E+04  0.00000000000E+00 0. -1.
         24    2    1    2    0    0  0.19534062963E+04 -0.21046986970E+04 -0.21414259823E+04  0.35829243357E+04  0.78030723903E+02 0.  0.
        254    2    1    2    0    0 -0.19534062963E+04  0.21046986970E+04  0.23048126609E+01  0.30339631404E+04  0.97947652421E+03 0.  0.
         23    2    4    4    0    0 -0.88698690125E+03  0.37726471494E+03  0.21164311065E+03  0.99106778059E+03  0.91367999403E+02 0.  0.
         23    2    4    4    0    0 -0.10664193951E+04  0.17274339821E+04 -0.20933829799E+03  0.20428953598E+04  0.91216443308E+02 0.  0.
          2    1    3    3  502    0  0.13745945719E+04 -0.15061478874E+04 -0.15589772155E+04  0.25667881981E+04  0.00000000000E+00 0. -1.
         -1    1    3    3    0  502  0.57881172445E+03 -0.59855080964E+03 -0.58244876675E+03  0.10161361375E+04  0.00000000000E+00 0.  1.
         13    1    5    5    0    0 -0.49448835835E+03  0.20003815790E+03  0.16248334122E+03  0.55761531303E+03  0.00000000000E+00 0.  1.
        -13    1    5    5    0    0 -0.39249854291E+03  0.17722655704E+03  0.49159769427E+02  0.43345246756E+03  0.00000000000E+00 0. -1.
          1    1    6    6  503    0 -0.66612910907E+03  0.11300023309E+04 -0.10055173637E+03  0.13155774053E+04  0.00000000000E+00 0. -1.
         -1    1    6    6    0  503 -0.40029028598E+03  0.59743165121E+03 -0.10878656162E+03  0.72731795448E+03  0.00000000000E+00 0.  1.
<mgrwt>
<rscale>  0 0.62615781E+04</rscale>
<asrwt>0</asrwt>
<pdfrwt beam="1">  1        2 0.67353913E+00 0.62615781E+04</pdfrwt>
<pdfrwt beam="2">  1       -1 0.34444356E+00 0.62615781E+04</pdfrwt>
<totfact> 0.20189183E-03</totfact>
</mgrwt>
</event>
<event>
12    7  0.1660832E-007  0.2678156E+04  0.7818608E-02  0.8342128E-01
         -1   -1    0    0    0  501 -0.00000000000E+00  0.00000000000E+00  0.78065997881E+03  0.78065997881E+03  0.00000000000E+00 0.  1.
          2   -1    0    0  501    0  0.00000000000E+00 -0.00000000000E+00 -0.22969402305E+04  0.22969402305E+04  0.00000000000E+00 0. -1.
         24    2    1    2    0    0 -0.28794100458E+02 -0.88967456751E+03 -0.15708986213E+04  0.18073244408E+04  0.79681990579E+02 0.  0.
        254    2    1    2    0    0  0.28794100458E+02  0.88967456751E+03  0.54618369672E+02  0.12702757685E+04  0.90458135362E+03 0.  0.
         23    2    4    4    0    0  0.34383200108E+03  0.34980352032E+03 -0.26252155023E+03  0.56380492554E+03  0.91517659121E+02 0.  0.
         23    2    4    4    0    0 -0.31503790062E+03  0.53987104719E+03  0.31713991990E+03  0.70647084292E+03  0.88395116812E+02 0.  0.
          4    1    3    3  502    0 -0.30853514614E+02 -0.41270199114E+03 -0.65798019563E+03  0.77731127015E+03  0.00000000000E+00 0. -1.
         -3    1    3    3    0  502  0.20594141555E+01 -0.47697257637E+03 -0.91291842571E+03  0.10300131707E+04  0.00000000000E+00 0.  1.
         13    1    5    5    0    0  0.59734654569E+01  0.16223291589E+02 -0.31185139522E+02  0.35656561901E+02  0.00000000000E+00 0. -1.
        -13    1    5    5    0    0  0.33785853563E+03  0.33358022873E+03 -0.23133641070E+03  0.52814836364E+03  0.00000000000E+00 0.  1.
          2    1    6    6  503    0 -0.26367965866E+02  0.65874302201E+02  0.67483892212E+02  0.97922260096E+02  0.00000000000E+00 0. -1.
         -2    1    6    6    0  503 -0.28866993476E+03  0.47399674499E+03  0.24965602769E+03  0.60854858282E+03  0.00000000000E+00 0.  1.
<mgrwt>
<rscale>  0 0.26781556E+04</rscale>
<asrwt>0</asrwt>
<pdfrwt beam="1">  1        2 0.35337542E+00 0.26781556E+04</pdfrwt>
<pdfrwt beam="2">  1       -1 0.12010153E+00 0.26781556E+04</pdfrwt>
<totfact> 0.28101690E+00</totfact>
</mgrwt>
</event>
<event>
12    7  0.1660832E-007  0.1265361E+04  0.7818608E-02  0.9057495E-01
         -1   -1    0    0    0  501 -0.00000000000E+00  0.00000000000E+00  0.79261926907E+03  0.79261926907E+03  0.00000000000E+00 0.  1.
          2   -1    0    0  501    0  0.00000000000E+00 -0.00000000000E+00 -0.50501460701E+03  0.50501460701E+03  0.00000000000E+00 0. -1.
         24    2    1    2    0    0 -0.13825168878E+03  0.20242257667E+03  0.26865099283E+03  0.37211003187E+03  0.78766051547E+02 0.  0.
        254    2    1    2    0    0  0.13825168878E+03 -0.20242257667E+03  0.18953669237E+02  0.92552384421E+03  0.89227053948E+03 0.  0.
         23    2    4    4    0    0 -0.14294459302E+03  0.28106494362E+03  0.12191595445E+03  0.34971211924E+03  0.89467352630E+02 0.  0.
         23    2    4    4    0    0  0.28119628180E+03 -0.48348752029E+03 -0.10296228521E+03  0.57581172497E+03  0.90146432352E+02 0.  0.
          4    1    3    3  502    0 -0.24990399104E+02  0.78555633848E+02  0.49806839477E+02  0.96313181421E+02  0.00000000000E+00 0. -1.
         -3    1    3    3    0  502 -0.11326128967E+03  0.12386694282E+03  0.21884415335E+03  0.27579685045E+03  0.00000000000E+00 0.  1.
         13    1    5    5    0    0 -0.14964975189E+03  0.23333990646E+03  0.11826968942E+03  0.30138062251E+03  0.00000000000E+00 0. -1.
        -13    1    5    5    0    0  0.67051588679E+01  0.47725037164E+02  0.36462650242E+01  0.48331496732E+02  0.00000000000E+00 0.  1.
          3    1    6    6  503    0  0.15812338998E+03 -0.22021553843E+03 -0.87130512586E+02  0.28476238524E+03  0.00000000000E+00 0. -1.
         -3    1    6    6    0  503  0.12307289182E+03 -0.26327198186E+03 -0.15831772624E+02  0.29104933973E+03  0.00000000000E+00 0.  1.
<mgrwt>
<rscale>  0 0.12653605E+04</rscale>
<asrwt>0</asrwt>
<pdfrwt beam="1">  1        2 0.77694555E-01 0.12653605E+04</pdfrwt>
<pdfrwt beam="2">  1       -1 0.12194143E+00 0.12653605E+04</pdfrwt>
<totfact> 0.40710318E+01</totfact>
</mgrwt>
</event>
<event>
12    7  0.1660832E-007  0.9785450E+03  0.7818608E-02  0.9332394E-01
         -1   -1    0    0    0  501 -0.00000000000E+00  0.00000000000E+00  0.23960057635E+03  0.23960057635E+03  0.00000000000E+00 0.  1.
          2   -1    0    0  501    0  0.00000000000E+00 -0.00000000000E+00 -0.99911109212E+03  0.99911109212E+03  0.00000000000E+00 0. -1.
         24    2    1    2    0    0 -0.81903260620E+02  0.11061482386E+03  0.10084955999E+02  0.15947695001E+03  0.79921260559E+02 0.  0.
        254    2    1    2    0    0  0.81903260620E+02 -0.11061482386E+03 -0.76959547176E+03  0.10792347185E+04  0.74399368546E+03 0.  0.
         23    2    4    4    0    0  0.12333844380E+03 -0.84504439783E+02  0.10308502304E+03  0.19933328885E+03  0.82181908023E+02 0.  0.
         23    2    4    4    0    0 -0.41435183178E+02 -0.26110384076E+02 -0.87268049481E+03  0.87990142961E+03  0.10127513634E+03 0.  0.
          2    1    3    3  502    0 -0.12872746071E+02 -0.12323193713E+02 -0.21722722789E+01  0.17952366461E+02  0.00000000000E+00 0. -1.
         -1    1    3    3    0  502 -0.69030514549E+02  0.12293801757E+03  0.12257228277E+02  0.14152458355E+03  0.00000000000E+00 0.  1.
         13    1    5    5    0    0  0.54481270405E+02 -0.22109477387E+02 -0.22886538877E+01  0.58841105971E+02  0.00000000000E+00 0.  1.
        -13    1    5    5    0    0  0.68857173393E+02 -0.62394962396E+02  0.10537367693E+03  0.14049218288E+03  0.00000000000E+00 0. -1.
          4    1    6    6  503    0  0.16308507726E+02 -0.33109670606E+01 -0.60050126482E+03  0.60073180287E+03  0.00000000000E+00 0. -1.
         -4    1    6    6    0  503 -0.57743690904E+02 -0.22799417016E+02 -0.27217922999E+03  0.27916962674E+03  0.00000000000E+00 0.  1.
<mgrwt>
<rscale>  0 0.97854503E+03</rscale>
<asrwt>0</asrwt>
<pdfrwt beam="1">  1        2 0.15370940E+00 0.97854503E+03</pdfrwt>
<pdfrwt beam="2">  1       -1 0.36861628E-01 0.97854503E+03</pdfrwt>
<totfact> 0.20289269E+02</totfact>
</mgrwt>
</event>
<event>
12    7  0.1660832E-007  0.2045556E+04  0.7818608E-02  0.8585613E-01
         -1   -1    0    0    0  501 -0.00000000000E+00  0.00000000000E+00  0.45498917100E+03  0.45498917100E+03  0.00000000000E+00 0.  1.
          2   -1    0    0  501    0  0.00000000000E+00 -0.00000000000E+00 -0.22991202443E+04  0.22991202443E+04  0.00000000000E+00 0. -1.
         24    2    1    2    0    0 -0.74327586035E+03 -0.10041139367E+03 -0.12007800838E+04  0.14181048782E+04  0.81284582340E+02 0.  0.
        254    2    1    2    0    0  0.74327586035E+03  0.10041139367E+03 -0.64335098948E+03  0.13360045371E+04  0.89914747118E+03 0.  0.
         23    2    4    4    0    0  0.69094303358E+03 -0.25860030203E+03 -0.22711517597E+03  0.77633587444E+03  0.82702448121E+02 0.  0.
         23    2    4    4    0    0  0.52332826774E+02  0.35901169570E+03 -0.41623581351E+03  0.55966866266E+03  0.91370876701E+02 0.  0.
          2    1    3    3  502    0 -0.50496288250E+03 -0.53690066856E+02 -0.74399746511E+03  0.90077875423E+03  0.00000000000E+00 0. -1.
         -1    1    3    3    0  502 -0.23831297785E+03 -0.46721326809E+02 -0.45678261867E+03  0.51732612394E+03  0.00000000000E+00 0.  1.
         13    1    5    5    0    0  0.24204188055E+03 -0.10689591530E+03 -0.43430437088E+02  0.26813655385E+03  0.00000000000E+00 0.  1.
        -13    1    5    5    0    0  0.44890115303E+03 -0.15170438673E+03 -0.18368473888E+03  0.50819932059E+03  0.00000000000E+00 0. -1.
          3    1    6    6  503    0 -0.11358532596E+02  0.16069186170E+03 -0.13811947639E+03  0.21219773900E+03  0.00000000000E+00 0. -1.
         -3    1    6    6    0  503  0.63691359370E+02  0.19831983400E+03 -0.27811633711E+03  0.34747092366E+03  0.00000000000E+00 0.  1.
<mgrwt>
<rscale>  0 0.20455560E+04</rscale>
<asrwt>0</asrwt>
<pdfrwt beam="1">  1        2 0.35371082E+00 0.20455560E+04</pdfrwt>
<pdfrwt beam="2">  1       -1 0.69998332E-01 0.20455560E+04</pdfrwt>
<totfact> 0.98687623E+00</totfact>
</mgrwt>
</event>
<event>
12    7  0.1660832E-007  0.2319778E+04  0.7818608E-02  0.8470163E-01
          2   -1    0    0  501    0  0.00000000000E+00  0.00000000000E+00  0.25477637998E+04  0.25477637998E+04  0.00000000000E+00 0. -1.
         -1   -1    0    0    0  501 -0.00000000000E+00 -0.00000000000E+00 -0.52804856667E+03  0.52804856667E+03  0.00000000000E+00 0.  1.
         24    2    1    2    0    0 -0.15225162045E+03  0.14800167031E+03 -0.40984938283E+03  0.46817143423E+03  0.78249120643E+02 0.  0.
        254    2    1    2    0    0  0.15225162045E+03 -0.14800167031E+03  0.24295646159E+04  0.26076409322E+04  0.92299618525E+03 0.  0.
         23    2    4    4    0    0  0.44856440998E+02  0.18781234694E+03  0.76471177997E+02  0.22654980283E+03  0.90506320971E+02 0.  0.
         23    2    4    4    0    0  0.10739517945E+03 -0.33581401725E+03  0.23530934379E+04  0.23810911294E+04  0.90782487288E+02 0.  0.
          2    1    3    3  502    0 -0.76827150445E+02  0.83900198695E+02 -0.13790078194E+03  0.17876878935E+03  0.00000000000E+00 0. -1.
         -1    1    3    3    0  502 -0.75424470005E+02  0.64101471618E+02 -0.27194860089E+03  0.28940264488E+03  0.00000000000E+00 0.  1.
         13    1    5    5    0    0  0.71967205536E+02  0.12117477717E+03  0.44211925941E+02  0.14770680313E+03  0.00000000000E+00 0. -1.
        -13    1    5    5    0    0 -0.27110764538E+02  0.66637569771E+02  0.32259252057E+02  0.78842999703E+02  0.00000000000E+00 0.  1.
          4    1    6    6  503    0 -0.72562756833E+01 -0.39186691515E+02  0.43411943061E+03  0.43594487078E+03  0.00000000000E+00 0. -1.
         -4    1    6    6    0  503  0.11465145514E+03 -0.29662732574E+03  0.19189740073E+04  0.19451462586E+04  0.00000000000E+00 0.  1.
<mgrwt>
<rscale>  0 0.23197785E+04</rscale>
<asrwt>0</asrwt>
<pdfrwt beam="1">  1        2 0.39196365E+00 0.23197785E+04</pdfrwt>
<pdfrwt beam="2">  1       -1 0.81238243E-01 0.23197785E+04</pdfrwt>
<totfact> 0.50759239E+00</totfact>
</mgrwt>
</event>
<event>
12    7  0.1660832E-007  0.1449197E+04  0.7818608E-02  0.8918958E-01
          2   -1    0    0  501    0  0.00000000000E+00  0.00000000000E+00  0.28683956395E+04  0.28683956395E+04  0.00000000000E+00 0. -1.
         -1   -1    0    0    0  501 -0.00000000000E+00 -0.00000000000E+00 -0.18304402991E+03  0.18304402991E+03  0.00000000000E+00 0.  1.
         24    2    1    2    0    0  0.21549069964E+03  0.38675665235E+03  0.78884946662E+03  0.90804189204E+03  0.78991435876E+02 0.  0.
        254    2    1    2    0    0 -0.21549069964E+03 -0.38675665235E+03  0.18965021430E+04  0.21433977774E+04  0.89521880230E+03 0.  0.
         23    2    4    4    0    0  0.23039641952E+03 -0.28754498981E+03  0.30961011192E+03  0.48973647436E+03  0.90657385916E+02 0.  0.
         23    2    4    4    0    0 -0.44588711917E+03 -0.99211662538E+02  0.15868920311E+04  0.16536613031E+04  0.87812925198E+02 0.  0.
          2    1    3    3  502    0  0.13196081376E+03  0.23632487656E+03  0.40175628800E+03  0.48442875492E+03  0.00000000000E+00 0. -1.
         -1    1    3    3    0  502  0.83529885881E+02  0.15043177579E+03  0.38709317862E+03  0.42361313712E+03  0.00000000000E+00 0.  1.
         13    1    5    5    0    0  0.14416805214E+03 -0.18548211881E+03  0.25114726929E+03  0.34389387103E+03  0.00000000000E+00 0. -1.
        -13    1    5    5    0    0  0.86228367388E+02 -0.10206287100E+03  0.58462842622E+02  0.14584260333E+03  0.00000000000E+00 0.  1.
          2    1    6    6  503    0 -0.41057870810E+02  0.68282729542E+01  0.22877574844E+03  0.23253111005E+03  0.00000000000E+00 0.  1.
         -2    1    6    6    0  503 -0.40482924836E+03 -0.10603993549E+03  0.13581162827E+04  0.14211301930E+04  0.00000000000E+00 0. -1.
<mgrwt>
<rscale>  0 0.14491966E+04</rscale>
<asrwt>0</asrwt>
<pdfrwt beam="1">  1        2 0.44129160E+00 0.14491966E+04</pdfrwt>
<pdfrwt beam="2">  1       -1 0.28160622E-01 0.14491966E+04</pdfrwt>
<totfact> 0.26627706E+01</totfact>
</mgrwt>
</event>
<event>
12    7  0.1660832E-007  0.1630650E+04  0.7818608E-02  0.8801937E-01
         -1   -1    0    0    0  501 -0.00000000000E+00  0.00000000000E+00  0.45433796314E+03  0.45433796314E+03  0.00000000000E+00 0.  1.
          2   -1    0    0  501    0  0.00000000000E+00 -0.00000000000E+00 -0.14631279831E+04  0.14631279831E+04  0.00000000000E+00 0. -1.
         24    2    1    2    0    0 -0.12736372537E+03  0.52905556711E+03 -0.52183777156E+03  0.75824265980E+03  0.80597516591E+02 0.  0.
        254    2    1    2    0    0  0.12736372537E+03 -0.52905556711E+03 -0.48695224836E+03  0.11592232864E+04  0.90030818276E+03 0.  0.
         23    2    4    4    0    0  0.16226727560E+03 -0.74972565534E+03 -0.22865533791E+03  0.80563709546E+03  0.91370887143E+02 0.  0.
         23    2    4    4    0    0 -0.34903550226E+02  0.22067008824E+03 -0.25829691045E+03  0.35358619095E+03  0.91609796529E+02 0.  0.
          2    1    3    3  502    0 -0.12913590559E+03  0.52095064332E+03 -0.49492353013E+03  0.73007873244E+03  0.00000000000E+00 0. -1.
         -1    1    3    3    0  502  0.17721802207E+01  0.81049237891E+01 -0.26914241427E+02  0.28163927353E+02  0.00000000000E+00 0.  1.
         13    1    5    5    0    0 -0.10994853197E+02 -0.72974087920E+02 -0.26239832562E+02  0.78323898764E+02  0.00000000000E+00 0. -1.
        -13    1    5    5    0    0  0.17326212880E+03 -0.67675156742E+03 -0.20241550534E+03  0.72731319670E+03  0.00000000000E+00 0.  1.
          3    1    6    6  503    0 -0.46724337138E+02  0.67216153772E+02 -0.55085375313E+02  0.98669010242E+02  0.00000000000E+00 0. -1.
         -3    1    6    6    0  503  0.11820786912E+02  0.15345393447E+03 -0.20321153514E+03  0.25491718071E+03  0.00000000000E+00 0.  1.
<mgrwt>
<rscale>  0 0.16306497E+04</rscale>
<asrwt>0</asrwt>
<pdfrwt beam="1">  1        2 0.22509661E+00 0.16306497E+04</pdfrwt>
<pdfrwt beam="2">  1       -1 0.69898150E-01 0.16306497E+04</pdfrwt>
<totfact> 0.30049819E+01</totfact>
</mgrwt>
</event>
<event>
12    7  0.1660832E-007  0.1608551E+04  0.7818608E-02  0.8815312E-01
          2   -1    0    0  501    0  0.00000000000E+00  0.00000000000E+00  0.21299711369E+04  0.21299711369E+04  0.00000000000E+00 0. -1.
         -1   -1    0    0    0  501 -0.00000000000E+00 -0.00000000000E+00 -0.30369371719E+03  0.30369371719E+03  0.00000000000E+00 0.  1.
         24    2    1    2    0    0  0.52097313388E+03 -0.65323717248E+02  0.82369151004E+03  0.97996618335E+03  0.78650000163E+02 0.  0.
        254    2    1    2    0    0 -0.52097313388E+03  0.65323717248E+02  0.10025859097E+04  0.14536986708E+04  0.91234923402E+03 0.  0.
         23    2    4    4    0    0 -0.31705588725E+03  0.47814640189E+03  0.53644870329E+03  0.79103418865E+03  0.93858718633E+02 0.  0.
         23    2    4    4    0    0 -0.20391724663E+03 -0.41282268464E+03  0.46613720639E+03  0.66266448211E+03  0.99174130928E+02 0.  0.
          2    1    3    3  502    0  0.40636336521E+03 -0.76168300252E+02  0.68032080953E+03  0.79609622435E+03  0.00000000000E+00 0. -1.
         -1    1    3    3    0  502  0.11460976867E+03  0.10844583004E+02  0.14337070051E+03  0.18386995899E+03  0.00000000000E+00 0.  1.
         13    1    5    5    0    0 -0.39890661300E+02  0.27492174385E+02  0.73432071615E+02  0.87973596341E+02  0.00000000000E+00 0. -1.
        -13    1    5    5    0    0 -0.27716522595E+03  0.45065422751E+03  0.46301663168E+03  0.70306059231E+03  0.00000000000E+00 0.  1.
          3    1    6    6  503    0  0.90734945060E+01 -0.33647376112E+02  0.22905956524E+02  0.41703202108E+02  0.00000000000E+00 0. -1.
         -3    1    6    6    0  503 -0.21299074114E+03 -0.37917530853E+03  0.44323124986E+03  0.62096128001E+03  0.00000000000E+00 0.  1.
<mgrwt>
<rscale>  0 0.16085507E+04</rscale>
<asrwt>0</asrwt>
<pdfrwt beam="1">  1        2 0.32768786E+00 0.16085507E+04</pdfrwt>
<pdfrwt beam="2">  1       -1 0.46722112E-01 0.16085507E+04</pdfrwt>
<totfact> 0.28177013E+01</totfact>
</mgrwt>
</event>
<event>
12    7  0.1660832E-007  0.2082927E+04  0.7818608E-02  0.8568802E-01
         -1   -1    0    0    0  501 -0.00000000000E+00  0.00000000000E+00  0.48278665910E+03  0.48278665910E+03  0.00000000000E+00 0.  1.
          2   -1    0    0  501    0  0.00000000000E+00 -0.00000000000E+00 -0.22466365221E+04  0.22466365221E+04  0.00000000000E+00 0. -1.
         24    2    1    2    0    0 -0.36706690076E+03 -0.74625747298E+03 -0.89463017874E+03  0.12239293229E+04  0.77469381682E+02 0.  0.
        254    2    1    2    0    0  0.36706690076E+03  0.74625747298E+03 -0.86921968429E+03  0.15054938583E+04  0.90516880874E+03 0.  0.
         23    2    4    4    0    0  0.28558353855E+03 -0.16957866041E+02  0.50026601491E+02  0.30435803101E+03  0.91025400147E+02 0.  0.
         23    2    4    4    0    0  0.81483362215E+02  0.76321533902E+03 -0.91924628579E+03  0.12011358273E+04  0.92608583499E+02 0.  0.
          2    1    3    3  502    0 -0.84125724498E+02 -0.24571513845E+03 -0.25794892192E+03  0.36604741921E+03  0.00000000000E+00 0. -1.
         -1    1    3    3    0  502 -0.28294117626E+03 -0.50054233453E+03 -0.63668125682E+03  0.85788190368E+03  0.00000000000E+00 0.  1.
         13    1    5    5    0    0  0.10917916087E+03 -0.36115195234E+02  0.53611597333E+02  0.12688025797E+03  0.00000000000E+00 0. -1.
        -13    1    5    5    0    0  0.17640437768E+03  0.19157329193E+02 -0.35849958415E+01  0.17747777303E+03  0.00000000000E+00 0.  1.
          3    1    6    6  503    0  0.80183785701E+02  0.76584293996E+03 -0.91708901805E+03  0.11974961859E+04  0.00000000000E+00 0. -1.
         -3    1    6    6    0  503  0.12995765136E+01 -0.26276009385E+01 -0.21572677365E+01  0.36396414512E+01  0.00000000000E+00 0.  1.
<mgrwt>
<rscale>  0 0.20829269E+04</rscale>
<asrwt>0</asrwt>
<pdfrwt beam="1">  1        2 0.34563638E+00 0.20829269E+04</pdfrwt>
<pdfrwt beam="2">  1       -1 0.74274871E-01 0.20829269E+04</pdfrwt>
<totfact> 0.93156927E+00</totfact>
</mgrwt>
</event>
<event>
12    7  0.1660832E-007  0.1254401E+04  0.7818608E-02  0.9066528E-01
         -1   -1    0    0    0  501 -0.00000000000E+00  0.00000000000E+00  0.45264898176E+03  0.45264898176E+03  0.00000000000E+00 0.  1.
          2   -1    0    0  501    0  0.00000000000E+00 -0.00000000000E+00 -0.86906273933E+03  0.86906273933E+03  0.00000000000E+00 0. -1.
         24    2    1    2    0    0  0.14304961055E+03  0.10472347141E+03  0.15139887089E+03  0.24610780909E+03  0.78849470800E+02 0.  0.
        254    2    1    2    0    0 -0.14304961055E+03 -0.10472347141E+03 -0.56781262845E+03  0.10756039120E+04  0.89614864724E+03 0.  0.
         23    2    4    4    0    0 -0.33947578619E+02 -0.10612409084E+03  0.22605915306E+03  0.26893287427E+03  0.93847692744E+02 0.  0.
         23    2    4    4    0    0 -0.10910203193E+03  0.14006194298E+01 -0.79387178151E+03  0.80667103773E+03  0.92631217934E+02 0.  0.
          4    1    3    3  502    0  0.11467823554E+03  0.70667346269E+02  0.66251857882E+02  0.15011422387E+03  0.00000000000E+00 0. -1.
         -3    1    3    3    0  502  0.28371375012E+02  0.34056125143E+02  0.85147013003E+02  0.95993585219E+02  0.00000000000E+00 0.  1.
         13    1    5    5    0    0 -0.44655380450E+02 -0.38956983642E+02  0.17239590597E+03  0.18229673056E+03  0.00000000000E+00 0. -1.
        -13    1    5    5    0    0  0.10707801831E+02 -0.67167107200E+02  0.53663247085E+02  0.86636143713E+02  0.00000000000E+00 0.  1.
          3    1    6    6  503    0 -0.32209538537E+02 -0.19333946158E+02 -0.52265987570E+03  0.52400820749E+03  0.00000000000E+00 0. -1.
         -3    1    6    6    0  503 -0.76892493396E+02  0.20734565588E+02 -0.27121190581E+03  0.28266283025E+03  0.00000000000E+00 0.  1.
<mgrwt>
<rscale>  0 0.12544008E+04</rscale>
<asrwt>0</asrwt>
<pdfrwt beam="1">  1        2 0.13370196E+00 0.12544008E+04</pdfrwt>
<pdfrwt beam="2">  1       -1 0.69638306E-01 0.12544008E+04</pdfrwt>
<totfact> 0.72059644E+01</totfact>
</mgrwt>
</event>
<event>
12    7  0.1660832E-007  0.1214549E+04  0.7818608E-02  0.9100217E-01
          4   -1    0    0  501    0  0.00000000000E+00  0.00000000000E+00  0.33260603184E+03  0.33260603184E+03  0.00000000000E+00 0. -1.
         -1   -1    0    0    0  501 -0.00000000000E+00 -0.00000000000E+00 -0.11087656167E+04  0.11087656167E+04  0.00000000000E+00 0.  1.
         24    2    1    2    0    0  0.72240219760E+02 -0.14393047141E+03 -0.43053592228E+03  0.46602222515E+03  0.76687052414E+02 0.  0.
        254    2    1    2    0    0 -0.72240219760E+02  0.14393047141E+03 -0.34562366260E+03  0.97534942341E+03  0.89772832842E+03 0.  0.
         23    2    4    4    0    0 -0.24313362313E+03 -0.25219858180E+03  0.70449490655E+02  0.36912423684E+03  0.92582331648E+02 0.  0.
         23    2    4    4    0    0  0.17089340337E+03  0.39612905321E+03 -0.41607315325E+03  0.60622518657E+03  0.90935833781E+02 0.  0.
          4    1    3    3  502    0  0.71130420828E+01  0.66407382315E+01 -0.74864244253E+01  0.12277675782E+02  0.00000000000E+00 0. -1.
         -3    1    3    3    0  502  0.65127177677E+02 -0.15057120964E+03 -0.42304949786E+03  0.45374454937E+03  0.00000000000E+00 0.  1.
         13    1    5    5    0    0 -0.59458548696E+02 -0.89171252332E+02 -0.16822375309E+02  0.10848881770E+03  0.00000000000E+00 0. -1.
        -13    1    5    5    0    0 -0.18367507443E+03 -0.16302732947E+03  0.87271865964E+02  0.26063541914E+03  0.00000000000E+00 0.  1.
          4    1    6    6  503    0  0.17317714904E+01  0.88113095387E+02 -0.65120450046E+02  0.10957914777E+03  0.00000000000E+00 0. -1.
         -4    1    6    6    0  503  0.16916163188E+03  0.30801595782E+03 -0.35095270320E+03  0.49664603880E+03  0.00000000000E+00 0.  1.
<mgrwt>
<rscale>  0 0.12145487E+04</rscale>
<asrwt>0</asrwt>
<pdfrwt beam="1">  1        4 0.51170159E-01 0.12145487E+04</pdfrwt>
<pdfrwt beam="2">  1       -1 0.17057932E+00 0.12145487E+04</pdfrwt>
<totfact> 0.37068419E+00</totfact>
</mgrwt>
</event>
<event>
12    7  0.1660832E-007  0.1848073E+04  0.7818608E-02  0.8681144E-01
         -1   -1    0    0    0  501 -0.00000000000E+00  0.00000000000E+00  0.58004997967E+03  0.58004997967E+03  0.00000000000E+00 0.  1.
          2   -1    0    0  501    0  0.00000000000E+00 -0.00000000000E+00 -0.14720171525E+04  0.14720171525E+04  0.00000000000E+00 0. -1.
         24    2    1    2    0    0 -0.34124478830E+03  0.35379653339E+03 -0.88853306368E+03  0.10184646561E+04  0.78480939425E+02 0.  0.
        254    2    1    2    0    0  0.34124478830E+03 -0.35379653339E+03 -0.34341091493E+01  0.10336024761E+04  0.90923170472E+03 0.  0.
         23    2    4    4    0    0  0.40207414372E+03  0.23114998252E+02 -0.32595103120E+03  0.52573270371E+03  0.89178925869E+02 0.  0.
         23    2    4    4    0    0 -0.60829355418E+02 -0.37691153164E+03  0.32251692205E+03  0.50786977237E+03  0.90288579096E+02 0.  0.
          4    1    3    3  502    0 -0.29108518268E+03  0.29895574816E+03 -0.80458283426E+03  0.90634356627E+03  0.00000000000E+00 0. -1.
         -3    1    3    3    0  502 -0.50159605618E+02  0.54840785231E+02 -0.83950229418E+02  0.11212108981E+03  0.00000000000E+00 0.  1.
         13    1    5    5    0    0  0.26626675819E+03  0.17630067181E+02 -0.15967683294E+03  0.31097507419E+03  0.00000000000E+00 0.  1.
        -13    1    5    5    0    0  0.13580738553E+03  0.54849310703E+01 -0.16627419826E+03  0.21475762953E+03  0.00000000000E+00 0. -1.
          4    1    6    6  503    0 -0.13802483843E+02 -0.31054342529E+03  0.25028215407E+03  0.39908505885E+03  0.00000000000E+00 0. -1.
         -4    1    6    6    0  503 -0.47026871575E+02 -0.66368106347E+02  0.72234767980E+02  0.10878471352E+03  0.00000000000E+00 0.  1.
<mgrwt>
<rscale>  0 0.18480731E+04</rscale>
<asrwt>0</asrwt>
<pdfrwt beam="1">  1        2 0.22646417E+00 0.18480731E+04</pdfrwt>
<pdfrwt beam="2">  1       -1 0.89238460E-01 0.18480731E+04</pdfrwt>
<totfact> 0.17365547E+01</totfact>
</mgrwt>
</event>
<event>
12    7  0.1660832E-007  0.2682750E+04  0.7818608E-02  0.8340624E-01
          2   -1    0    0  501    0  0.00000000000E+00  0.00000000000E+00  0.30535516164E+04  0.30535516164E+04  0.00000000000E+00 0. -1.
         -1   -1    0    0    0  501 -0.00000000000E+00 -0.00000000000E+00 -0.58924396407E+03  0.58924396407E+03  0.00000000000E+00 0.  1.
         24    2    1    2    0    0  0.68133594397E+03 -0.69841214391E+03  0.20032416758E+04  0.22296562922E+04  0.79948597095E+02 0.  0.
        254    2    1    2    0    0 -0.68133594397E+03  0.69841214391E+03  0.46106597655E+03  0.14131392883E+04  0.91235005462E+03 0.  0.
         23    2    4    4    0    0 -0.74190917306E+03  0.19118680413E+03  0.45196680404E+03  0.89417498580E+03  0.91067547097E+02 0.  0.
         23    2    4    4    0    0  0.60573229092E+02  0.50722533978E+03  0.90991725158E+01  0.51896430253E+03  0.91074095972E+02 0.  0.
          4    1    3    3  502    0  0.68316174958E+03 -0.69455411353E+03  0.19982571111E+04  0.22230939869E+04  0.00000000000E+00 0. -1.
         -3    1    3    3    0  502 -0.18258056092E+01 -0.38580303796E+01  0.49845647307E+01  0.65623052418E+01  0.00000000000E+00 0.  1.
         13    1    5    5    0    0 -0.23722867033E+02  0.69208949454E+01 -0.19946292039E+01  0.24792171199E+02  0.00000000000E+00 0.  1.
        -13    1    5    5    0    0 -0.71818630603E+03  0.18426590919E+03  0.45396143324E+03  0.86938281460E+03  0.00000000000E+00 0. -1.
          3    1    6    6  503    0  0.50177960909E+01 -0.12986650957E+01 -0.50257943086E+01  0.72196549137E+01  0.00000000000E+00 0.  1.
         -3    1    6    6    0  503  0.55555433001E+02  0.50852400488E+03  0.14124966824E+02  0.51174464761E+03  0.00000000000E+00 0. -1.
<mgrwt>
<rscale>  0 0.26827500E+04</rscale>
<asrwt>0</asrwt>
<pdfrwt beam="1">  1        2 0.46977716E+00 0.26827500E+04</pdfrwt>
<pdfrwt beam="2">  1       -1 0.90652919E-01 0.26827500E+04</pdfrwt>
<totfact> 0.19120944E+00</totfact>
</mgrwt>
</event>
<event>
12    7  0.1660832E-007  0.1724218E+04  0.7818608E-02  0.8747671E-01
          2   -1    0    0  501    0  0.00000000000E+00  0.00000000000E+00  0.25383546838E+04  0.25383546838E+04  0.00000000000E+00 0. -1.
         -1   -1    0    0    0  501 -0.00000000000E+00 -0.00000000000E+00 -0.29280078303E+03  0.29280078303E+03  0.00000000000E+00 0.  1.
         24    2    1    2    0    0  0.56723257380E+03  0.33283070200E+02  0.39724848845E+03  0.69737746237E+03  0.75288829888E+02 0.  0.
        254    2    1    2    0    0 -0.56723257380E+03 -0.33283070200E+02  0.18483054123E+04  0.21337780044E+04  0.90217244448E+03 0.  0.
         23    2    4    4    0    0 -0.53321304099E+03  0.13023633993E+03  0.43160767519E+03  0.70450136287E+03  0.93591312021E+02 0.  0.
         23    2    4    4    0    0 -0.34019532804E+02 -0.16351941013E+03  0.14166977371E+04  0.14292766416E+04  0.88900583262E+02 0.  0.
          4    1    3    3  502    0  0.21086623511E+03  0.59190471015E+01  0.10471386279E+03  0.23550922973E+03  0.00000000000E+00 0. -1.
         -3    1    3    3    0  502  0.35636633868E+03  0.27364023099E+02  0.29253462566E+03  0.46186823263E+03  0.00000000000E+00 0.  1.
         13    1    5    5    0    0 -0.31572342226E+02  0.26547979000E+02  0.13877212230E+02  0.43522235718E+02  0.00000000000E+00 0.  1.
        -13    1    5    5    0    0 -0.50164069877E+03  0.10368836093E+03  0.41773046296E+03  0.66097912716E+03  0.00000000000E+00 0. -1.
          2    1    6    6  503    0 -0.10257726573E+02 -0.16211150379E+03  0.11334160366E+04  0.11449966256E+04  0.00000000000E+00 0. -1.
         -2    1    6    6    0  503 -0.23761806231E+02 -0.14079063394E+01  0.28328170052E+03  0.28428001598E+03  0.00000000000E+00 0.  1.
<mgrwt>
<rscale>  0 0.17242184E+04</rscale>
<asrwt>0</asrwt>
<pdfrwt beam="1">  1        2 0.39051609E+00 0.17242184E+04</pdfrwt>
<pdfrwt beam="2">  1       -1 0.45046276E-01 0.17242184E+04</pdfrwt>
<totfact> 0.17510195E+01</totfact>
</mgrwt>
</event>
<event>
12    7  0.1660832E-007  0.1416832E+04  0.7818608E-02  0.8941724E-01
          2   -1    0    0  501    0  0.00000000000E+00  0.00000000000E+00  0.13476438117E+04  0.13476438117E+04  0.00000000000E+00 0. -1.
         -1   -1    0    0    0  501 -0.00000000000E+00 -0.00000000000E+00 -0.37239310887E+03  0.37239310887E+03  0.00000000000E+00 0.  1.
         24    2    1    2    0    0 -0.69659605095E+02 -0.69534504145E+02 -0.20119627971E+03  0.23853358490E+03  0.82041576699E+02 0.  0.
        254    2    1    2    0    0  0.69659605095E+02  0.69534504145E+02  0.11764469825E+04  0.14815033357E+04  0.89506263637E+03 0.  0.
         23    2    4    4    0    0 -0.28546895887E+02 -0.40017882753E+03  0.53186447637E+03  0.67272428291E+03  0.93381584489E+02 0.  0.
         23    2    4    4    0    0  0.98206500981E+02  0.46971333167E+03  0.64458250614E+03  0.80877905274E+03  0.91442977538E+02 0.  0.
          2    1    3    3  502    0 -0.18346046551E+02 -0.30865697414E+02 -0.10659928421E+02  0.37455343741E+02  0.00000000000E+00 0. -1.
         -1    1    3    3    0  502 -0.51313558544E+02 -0.38668806732E+02 -0.19053635129E+03  0.20107824116E+03  0.00000000000E+00 0.  1.
         13    1    5    5    0    0 -0.61013478741E+02 -0.23131381128E+03  0.28943929908E+03  0.37550476925E+03  0.00000000000E+00 0.  1.
        -13    1    5    5    0    0  0.32466582854E+02 -0.16886501625E+03  0.24242517730E+03  0.29721951366E+03  0.00000000000E+00 0. -1.
          4    1    6    6  503    0  0.11123848272E+03  0.33123956543E+03  0.46077495377E+03  0.57827952390E+03  0.00000000000E+00 0.  1.
         -4    1    6    6    0  503 -0.13031981735E+02  0.13847376624E+03  0.18380755238E+03  0.23049952884E+03  0.00000000000E+00 0. -1.
<mgrwt>
<rscale>  0 0.14168321E+04</rscale>
<asrwt>0</asrwt>
<pdfrwt beam="1">  1        2 0.20732981E+00 0.14168321E+04</pdfrwt>
<pdfrwt beam="2">  1       -1 0.57291248E-01 0.14168321E+04</pdfrwt>
<totfact> 0.53019205E+01</totfact>
</mgrwt>
</event>
<event>
12    7  0.1660832E-007  0.1301183E+04  0.7818608E-02  0.9028628E-01
          2   -1    0    0  501    0  0.00000000000E+00  0.00000000000E+00  0.14686248603E+04  0.14686248603E+04  0.00000000000E+00 0. -1.
         -1   -1    0    0    0  501 -0.00000000000E+00 -0.00000000000E+00 -0.28820792850E+03  0.28820792850E+03  0.00000000000E+00 0.  1.
         24    2    1    2    0    0 -0.32682499197E+03 -0.81473806545E+02  0.33823175942E+03  0.48414144580E+03  0.80868163925E+02 0.  0.
        254    2    1    2    0    0  0.32682499197E+03  0.81473806545E+02  0.84218517233E+03  0.12726913430E+04  0.89275687251E+03 0.  0.
         23    2    4    4    0    0  0.21356992176E+03  0.37389962638E+03  0.85427670888E+02  0.44828974543E+03  0.90844740168E+02 0.  0.
         23    2    4    4    0    0  0.11325507021E+03 -0.29242581983E+03  0.75675750144E+03  0.82440159752E+03  0.92825141979E+02 0.  0.
          4    1    3    3  502    0 -0.22320378385E+03 -0.58012222870E+02  0.28081096555E+03  0.36337328672E+03  0.00000000000E+00 0. -1.
         -3    1    3    3    0  502 -0.10362120812E+03 -0.23461583675E+02  0.57420793873E+02  0.12076815909E+03  0.00000000000E+00 0.  1.
         13    1    5    5    0    0  0.20925682218E+03  0.37338025547E+03  0.94413020917E+02  0.43830931010E+03  0.00000000000E+00 0. -1.
        -13    1    5    5    0    0  0.43130995843E+01  0.51937090578E+00 -0.89853500282E+01  0.99804353258E+01  0.00000000000E+00 0.  1.
          2    1    6    6  503    0  0.71472821252E+02 -0.27060320739E+03  0.64439586869E+03  0.70255284186E+03  0.00000000000E+00 0. -1.
         -2    1    6    6    0  503  0.41782248954E+02 -0.21822612440E+02  0.11236163275E+03  0.12184875566E+03  0.00000000000E+00 0.  1.
<mgrwt>
<rscale>  0 0.13011830E+04</rscale>
<asrwt>0</asrwt>
<pdfrwt beam="1">  1        2 0.22594228E+00 0.13011830E+04</pdfrwt>
<pdfrwt beam="2">  1       -1 0.44339682E-01 0.13011830E+04</pdfrwt>
<totfact> 0.74333057E+01</totfact>
</mgrwt>
</event>
<event>
12    7  0.1660832E-007  0.1343914E+04  0.7818608E-02  0.8995448E-01
         -1   -1    0    0    0  501 -0.00000000000E+00  0.00000000000E+00  0.39818585449E+03  0.39818585449E+03  0.00000000000E+00 0.  1.
          2   -1    0    0  501    0  0.00000000000E+00 -0.00000000000E+00 -0.11339577908E+04  0.11339577908E+04  0.00000000000E+00 0. -1.
         24    2    1    2    0    0  0.23470364655E+02 -0.30620477354E+03 -0.42232327282E+03  0.52832069048E+03  0.80334201153E+02 0.  0.
        254    2    1    2    0    0 -0.23470364655E+02  0.30620477354E+03 -0.31344866352E+03  0.10038229548E+04  0.90282791198E+03 0.  0.
         23    2    4    4    0    0 -0.36877948839E+02  0.22212350410E+03  0.29509271059E+03  0.38251319134E+03  0.92400213863E+02 0.  0.
         23    2    4    4    0    0  0.13407584184E+02  0.84081269442E+02 -0.60854137411E+03  0.62130976351E+03  0.91944521524E+02 0.  0.
          2    1    3    3  502    0  0.41778429671E+02 -0.28894236149E+03 -0.39493450931E+03  0.49112767392E+03  0.00000000000E+00 0. -1.
         -1    1    3    3    0  502 -0.18308065016E+02 -0.17262412044E+02 -0.27388763510E+02  0.37193016560E+02  0.00000000000E+00 0.  1.
         13    1    5    5    0    0  0.88804607914E+01  0.17141502204E+03  0.23831515407E+03  0.29369386276E+03  0.00000000000E+00 0.  1.
        -13    1    5    5    0    0 -0.45758409630E+02  0.50708482057E+02  0.56777556521E+02  0.88819328577E+02  0.00000000000E+00 0. -1.
          3    1    6    6  503    0 -0.47362697997E+01  0.99538563990E+02 -0.44360613195E+03  0.45466114666E+03  0.00000000000E+00 0.  1.
         -3    1    6    6    0  503  0.18143853983E+02 -0.15457294548E+02 -0.16493524216E+03  0.16664861685E+03  0.00000000000E+00 0. -1.
<mgrwt>
<rscale>  0 0.13439136E+04</rscale>
<asrwt>0</asrwt>
<pdfrwt beam="1">  1        2 0.17445505E+00 0.13439136E+04</pdfrwt>
<pdfrwt beam="2">  1       -1 0.61259362E-01 0.13439136E+04</pdfrwt>
<totfact> 0.62536563E+01</totfact>
</mgrwt>
</event>
<event>
12    7  0.1660832E-007  0.2605182E+04  0.7818608E-02  0.8366443E-01
          2   -1    0    0  501    0  0.00000000000E+00  0.00000000000E+00  0.34286778359E+04  0.34286778359E+04  0.00000000000E+00 0. -1.
         -1   -1    0    0    0  501 -0.00000000000E+00 -0.00000000000E+00 -0.49486810911E+03  0.49486810911E+03  0.00000000000E+00 0.  1.
         24    2    1    2    0    0  0.67893426534E+03 -0.13536409025E+03 -0.80600588742E+02  0.70140819628E+03  0.78751694081E+02 0.  0.
        254    2    1    2    0    0 -0.67893426534E+03  0.13536409025E+03  0.30144103155E+04  0.32221377487E+04  0.90345279224E+03 0.  0.
         23    2    4    4    0    0 -0.66003520979E+03 -0.18738774829E+03  0.25897790012E+04  0.26806710851E+04  0.91002993787E+02 0.  0.
         23    2    4    4    0    0 -0.18899055545E+02  0.32275183855E+03  0.42463131430E+03  0.54146666363E+03  0.91369968548E+02 0.  0.
          4    1    3    3  502    0  0.69051385765E+02 -0.36996080502E+02 -0.18783332717E+02  0.80558161825E+02  0.00000000000E+00 0. -1.
         -1    1    3    3    0  502  0.60988287957E+03 -0.98368009750E+02 -0.61817256024E+02  0.62085003445E+03  0.00000000000E+00 0.  1.
         13    1    5    5    0    0 -0.62797362542E+03 -0.17435037421E+03  0.25181173358E+04  0.26010889727E+04  0.00000000000E+00 0. -1.
        -13    1    5    5    0    0 -0.32061584374E+02 -0.13037374085E+02  0.71661665381E+02  0.79582112316E+02  0.00000000000E+00 0.  1.
          3    1    6    6  503    0  0.16810048071E+02  0.13275273651E+03  0.11501015689E+03  0.17644603412E+03  0.00000000000E+00 0. -1.
         -3    1    6    6    0  503 -0.35709103616E+02  0.18999910203E+03  0.30962115740E+03  0.36502062951E+03  0.00000000000E+00 0.  1.
<mgrwt>
<rscale>  0 0.26051820E+04</rscale>
<asrwt>0</asrwt>
<pdfrwt beam="1">  1        2 0.52748888E+00 0.26051820E+04</pdfrwt>
<pdfrwt beam="2">  1       -1 0.76133557E-01 0.26051820E+04</pdfrwt>
<totfact> 0.15877996E+00</totfact>
</mgrwt>
</event>
<event>
12    7  0.1660832E-007  0.1409175E+04  0.7818608E-02  0.8947204E-01
         -1   -1    0    0    0  501 -0.00000000000E+00  0.00000000000E+00  0.29248345541E+03  0.29248345541E+03  0.00000000000E+00 0.  1.
          2   -1    0    0  501    0  0.00000000000E+00 -0.00000000000E+00 -0.16973388433E+04  0.16973388433E+04  0.00000000000E+00 0. -1.
         24    2    1    2    0    0  0.19961989222E+03 -0.32051454783E+03 -0.64908945746E+03  0.75511682876E+03  0.79414259087E+02 0.  0.
        254    2    1    2    0    0 -0.19961989222E+03  0.32051454783E+03 -0.75576593047E+03  0.12347054700E+04  0.90040978407E+03 0.  0.
         23    2    4    4    0    0 -0.28145705130E+03 -0.25302710748E+03 -0.32605273004E+03  0.50773726636E+03  0.90807268661E+02 0.  0.
         23    2    4    4    0    0  0.81837159081E+02  0.57354165531E+03 -0.42971320043E+03  0.72696820364E+03  0.90454317180E+02 0.  0.
          4    1    3    3  502    0  0.17093982238E+03 -0.28420926010E+03 -0.61091252098E+03  0.69513267417E+03  0.00000000000E+00 0. -1.
         -3    1    3    3    0  502  0.28680069839E+02 -0.36305287728E+02 -0.38176936480E+02  0.59984154591E+02  0.00000000000E+00 0.  1.
         13    1    5    5    0    0 -0.26874826546E+03 -0.20496316961E+03 -0.26829462236E+03  0.43152929851E+03  0.00000000000E+00 0. -1.
        -13    1    5    5    0    0 -0.12708785833E+02 -0.48063937873E+02 -0.57758107687E+02  0.76207967856E+02  0.00000000000E+00 0.  1.
          3    1    6    6  503    0  0.85237966476E+02  0.29197600394E+03 -0.23981670403E+03  0.38733389903E+03  0.00000000000E+00 0. -1.
         -3    1    6    6    0  503 -0.34008073950E+01  0.28156565137E+03 -0.18989649640E+03  0.33963430461E+03  0.00000000000E+00 0.  1.
<mgrwt>
<rscale>  0 0.14091750E+04</rscale>
<asrwt>0</asrwt>
<pdfrwt beam="1">  1        2 0.26112906E+00 0.14091750E+04</pdfrwt>
<pdfrwt beam="2">  1       -1 0.44997453E-01 0.14091750E+04</pdfrwt>
<totfact> 0.53406667E+01</totfact>
</mgrwt>
</event>
<event>
12    7  0.1660832E-007  0.1456135E+04  0.7818608E-02  0.8914159E-01
         -1   -1    0    0    0  501 -0.00000000000E+00  0.00000000000E+00  0.33406257348E+03  0.33406257348E+03  0.00000000000E+00 0.  1.
          2   -1    0    0  501    0  0.00000000000E+00 -0.00000000000E+00 -0.15867746127E+04  0.15867746127E+04  0.00000000000E+00 0. -1.
         24    2    1    2    0    0 -0.25180991935E+02 -0.43085680506E+03 -0.22033848510E+03  0.49114129560E+03  0.79994096079E+02 0.  0.
        254    2    1    2    0    0  0.25180991935E+02  0.43085680506E+03 -0.10323735541E+04  0.14296958906E+04  0.88992331996E+03 0.  0.
         23    2    4    4    0    0 -0.10883833124E+02  0.60209119208E+03 -0.31608561965E+03  0.68661789935E+03  0.94349135423E+02 0.  0.
         23    2    4    4    0    0  0.36064825059E+02 -0.17123438701E+03 -0.71628793446E+03  0.74307799120E+03  0.92057639881E+02 0.  0.
          2    1    3    3  502    0 -0.29637298202E+02 -0.53079161714E+02 -0.37408720873E+02  0.71380524307E+02  0.00000000000E+00 0. -1.
         -1    1    3    3    0  502  0.44563062663E+01 -0.37777764335E+03 -0.18292976422E+03  0.41976077130E+03  0.00000000000E+00 0.  1.
         13    1    5    5    0    0  0.58185587912E+01  0.22030327653E+03 -0.66550589873E+02  0.23020940530E+03  0.00000000000E+00 0.  1.
        -13    1    5    5    0    0 -0.16702391915E+02  0.38178791555E+03 -0.24953502978E+03  0.45640849405E+03  0.00000000000E+00 0. -1.
          4    1    6    6  503    0 -0.11809468824E+02 -0.28774163973E+02 -0.42107953287E+02  0.52349744949E+02  0.00000000000E+00 0. -1.
         -4    1    6    6    0  503  0.47874293883E+02 -0.14246022304E+03 -0.67417998117E+03  0.69072824626E+03  0.00000000000E+00 0.  1.
<mgrwt>
<rscale>  0 0.14561346E+04</rscale>
<asrwt>0</asrwt>
<pdfrwt beam="1">  1        2 0.24411917E+00 0.14561346E+04</pdfrwt>
<pdfrwt beam="2">  1       -1 0.51394242E-01 0.14561346E+04</pdfrwt>
<totfact> 0.47707952E+01</totfact>
</mgrwt>
</event>
<event>
12    7  0.1660832E-007  0.2403392E+04  0.7818608E-02  0.8438235E-01
         -1   -1    0    0    0  501 -0.00000000000E+00  0.00000000000E+00  0.10579105913E+04  0.10579105913E+04  0.00000000000E+00 0.  1.
          2   -1    0    0  501    0  0.00000000000E+00 -0.00000000000E+00 -0.13650237569E+04  0.13650237569E+04  0.00000000000E+00 0. -1.
         24    2    1    2    0    0  0.73066148084E+03 -0.13669695769E+03  0.48981212244E+03  0.89386399589E+03  0.80775429700E+02 0.  0.
        254    2    1    2    0    0 -0.73066148084E+03  0.13669695769E+03 -0.79692528803E+03  0.15290703523E+04  0.10725735265E+04 0.  0.
         23    2    4    4    0    0  0.14954937728E+03  0.34610479195E+03 -0.31801779088E+03  0.50167609081E+03  0.91597169821E+02 0.  0.
         23    2    4    4    0    0 -0.88021085812E+03 -0.20940783426E+03 -0.47890749715E+03  0.10273942615E+04  0.86970005452E+02 0.  0.
          2    1    3    3  502    0  0.16594192109E+03 -0.21855100612E+02  0.72755842138E+02  0.18250418944E+03  0.00000000000E+00 0. -1.
         -1    1    3    3    0  502  0.56471955975E+03 -0.11484185707E+03  0.41705628030E+03  0.71135980646E+03  0.00000000000E+00 0.  1.
         13    1    5    5    0    0  0.16886030398E+02  0.13771452271E+03 -0.89160013275E+02  0.16492403025E+03  0.00000000000E+00 0.  1.
        -13    1    5    5    0    0  0.13266334688E+03  0.20839026924E+03 -0.22885777760E+03  0.33675206056E+03  0.00000000000E+00 0. -1.
          2    1    6    6  503    0 -0.73310974844E+03 -0.14164212469E+03 -0.38298528555E+03  0.83916036828E+03  0.00000000000E+00 0. -1.
         -2    1    6    6    0  503 -0.14710110968E+03 -0.67765709572E+02 -0.95922211594E+02  0.18823389318E+03  0.00000000000E+00 0.  1.
<mgrwt>
<rscale>  0 0.24033918E+04</rscale>
<asrwt>0</asrwt>
<pdfrwt beam="1">  1        2 0.21000366E+00 0.24033918E+04</pdfrwt>
<pdfrwt beam="2">  1       -1 0.16275547E+00 0.24033918E+04</pdfrwt>
<totfact> 0.43248294E+00</totfact>
</mgrwt>
</event>
<event>
12    7  0.1660832E-007  0.1966067E+04  0.7818608E-02  0.8622652E-01
         -1   -1    0    0    0  501 -0.00000000000E+00  0.00000000000E+00  0.40107160722E+03  0.40107160722E+03  0.00000000000E+00 0.  1.
          2   -1    0    0  501    0  0.00000000000E+00 -0.00000000000E+00 -0.24094333526E+04  0.24094333526E+04  0.00000000000E+00 0. -1.
         24    2    1    2    0    0 -0.19577007357E+03 -0.33338958605E+02 -0.18673916402E+04  0.18796137940E+04  0.79743770482E+02 0.  0.
        254    2    1    2    0    0  0.19577007357E+03  0.33338958605E+02 -0.14097010523E+03  0.93089116585E+03  0.89847002411E+03 0.  0.
         23    2    4    4    0    0 -0.33904326659E+03  0.11453469567E+03 -0.25696265024E+02  0.37011235543E+03  0.90853312959E+02 0.  0.
         23    2    4    4    0    0  0.53481334016E+03 -0.81195737065E+02 -0.11527384021E+03  0.56077881042E+03  0.92556790415E+02 0.  0.
          4    1    3    3  502    0 -0.12119833794E+03 -0.12268967560E+02 -0.14486132721E+04  0.14537262386E+04  0.00000000000E+00 0. -1.
         -1    1    3    3    0  502 -0.74571735629E+02 -0.21069991045E+02 -0.41877836802E+03  0.42588755534E+03  0.00000000000E+00 0.  1.
         13    1    5    5    0    0 -0.30688491077E+03  0.93014453718E+02 -0.49813424230E+02  0.32451720184E+03  0.00000000000E+00 0. -1.
        -13    1    5    5    0    0 -0.32158355822E+02  0.21520241952E+02  0.24117159206E+02  0.45595153591E+02  0.00000000000E+00 0.  1.
          4    1    6    6  503    0  0.48278099744E+03 -0.88166686989E+02 -0.12711943506E+03  0.50696174111E+03  0.00000000000E+00 0. -1.
         -4    1    6    6    0  503  0.52032342716E+02  0.69709499242E+01  0.11845594846E+02  0.53817069306E+02  0.00000000000E+00 0.  1.
<mgrwt>
<rscale>  0 0.19660675E+04</rscale>
<asrwt>0</asrwt>
<pdfrwt beam="1">  1        2 0.37068206E+00 0.19660675E+04</pdfrwt>
<pdfrwt beam="2">  1       -1 0.61703324E-01 0.19660675E+04</pdfrwt>
<totfact> 0.11097562E+01</totfact>
</mgrwt>
</event>
<event>
12    7  0.1660832E-007  0.2221411E+04  0.7818608E-02  0.8509569E-01
          2   -1    0    0  501    0  0.00000000000E+00  0.00000000000E+00  0.77330531695E+03  0.77330531695E+03  0.00000000000E+00 0. -1.
         -1   -1    0    0    0  501 -0.00000000000E+00 -0.00000000000E+00 -0.15953161801E+04  0.15953161801E+04  0.00000000000E+00 0.  1.
         24    2    1    2    0    0 -0.49818325832E+03 -0.66323488011E+02 -0.11805797567E+04  0.12855165562E+04  0.78733032244E+02 0.  0.
        254    2    1    2    0    0  0.49818325832E+03  0.66323488011E+02  0.35856889355E+03  0.10831049409E+04  0.88992095017E+03 0.  0.
         23    2    4    4    0    0  0.15940173129E+03 -0.24195952478E+03  0.50902712237E+03  0.59268292686E+03  0.90615213499E+02 0.  0.
         23    2    4    4    0    0  0.33878152703E+03  0.30828301279E+03 -0.15045822882E+03  0.49042201400E+03  0.89803864962E+02 0.  0.
          2    1    3    3  502    0 -0.14729217066E+03 -0.54273528893E+02 -0.39504391631E+03  0.42508857347E+03  0.00000000000E+00 0. -1.
         -1    1    3    3    0  502 -0.35089108766E+03 -0.12049959118E+02 -0.78553584042E+03  0.86042798275E+03  0.00000000000E+00 0.  1.
         13    1    5    5    0    0  0.43624882558E+02 -0.90797346496E+02  0.26265514745E+03  0.28130946481E+03  0.00000000000E+00 0. -1.
        -13    1    5    5    0    0  0.11577684873E+03 -0.15116217828E+03  0.24637197492E+03  0.31137346205E+03  0.00000000000E+00 0.  1.
          1    1    6    6  503    0  0.33068949432E+03  0.26869190104E+03 -0.13261585752E+03  0.44624863585E+03  0.00000000000E+00 0. -1.
         -1    1    6    6    0  503  0.80920327136E+01  0.39591111751E+02 -0.17842371297E+02  0.44173378143E+02  0.00000000000E+00 0.  1.
<mgrwt>
<rscale>  0 0.22214108E+04</rscale>
<asrwt>0</asrwt>
<pdfrwt beam="1">  1        2 0.11897005E+00 0.22214108E+04</pdfrwt>
<pdfrwt beam="2">  1       -1 0.24543326E+00 0.22214108E+04</pdfrwt>
<totfact> 0.28012800E+00</totfact>
</mgrwt>
</event>
<event>
12    7  0.1660832E-007  0.3446849E+04  0.7818608E-02  0.8126503E-01
         -1   -1    0    0    0  501 -0.00000000000E+00  0.00000000000E+00  0.10838129242E+04  0.10838129242E+04  0.00000000000E+00 0.  1.
          2   -1    0    0  501    0  0.00000000000E+00 -0.00000000000E+00 -0.27405025084E+04  0.27405025084E+04  0.00000000000E+00 0. -1.
         24    2    1    2    0    0 -0.15758145519E+04  0.22080080900E+03 -0.55016779945E+03  0.16855192976E+04  0.79663012774E+02 0.  0.
        254    2    1    2    0    0  0.15758145519E+04 -0.22080080900E+03 -0.11065217847E+04  0.21387961351E+04  0.90449651640E+03 0.  0.
         23    2    4    4    0    0  0.60659584273E+02  0.22297678368E+03 -0.17668751188E+03  0.30425554155E+03  0.89189273373E+02 0.  0.
         23    2    4    4    0    0  0.15151549676E+04 -0.44377759268E+03 -0.92983427287E+03  0.18345405936E+04  0.91182710632E+02 0.  0.
          4    1    3    3  502    0 -0.57301099682E+03  0.10887084850E+03 -0.22903552533E+03  0.62661929111E+03  0.00000000000E+00 0. -1.
         -3    1    3    3    0  502 -0.10028035551E+04  0.11192996049E+03 -0.32113227412E+03  0.10589000064E+04  0.00000000000E+00 0.  1.
         13    1    5    5    0    0  0.41391271876E+02  0.18712521842E+03 -0.18064003803E+03  0.26336269306E+03  0.00000000000E+00 0. -1.
        -13    1    5    5    0    0  0.19268312397E+02  0.35851565257E+02  0.39525261573E+01  0.40892848483E+02  0.00000000000E+00 0.  1.
          4    1    6    6  503    0  0.12154270361E+04 -0.39299681700E+03 -0.75711677769E+03  0.14849024188E+04  0.00000000000E+00 0. -1.
         -4    1    6    6    0  503  0.29972793155E+03 -0.50780775675E+02 -0.17271749517E+03  0.34963817478E+03  0.00000000000E+00 0.  1.
<mgrwt>
<rscale>  0 0.34468490E+04</rscale>
<asrwt>0</asrwt>
<pdfrwt beam="1">  1        2 0.42161577E+00 0.34468490E+04</pdfrwt>
<pdfrwt beam="2">  1       -1 0.16674045E+00 0.34468490E+04</pdfrwt>
<totfact> 0.61220299E-01</totfact>
</mgrwt>
</event>
<event>
12    7  0.2437876E-007  0.2756486E+04  0.7818608E-02  0.8316906E-01
         -1   -1    0    0    0  501 -0.00000000000E+00  0.00000000000E+00  0.10520077059E+04  0.10520077059E+04  0.00000000000E+00 0.  1.
          2   -1    0    0  501    0  0.00000000000E+00 -0.00000000000E+00 -0.18056466530E+04  0.18056466530E+04  0.00000000000E+00 0. -1.
         24    2    1    2    0    0 -0.26637569979E+03 -0.45029744383E+03 -0.14900104830E+04  0.15812675719E+04  0.80945002370E+02 0.  0.
        254    2    1    2    0    0  0.26637569979E+03  0.45029744383E+03  0.73637153578E+03  0.12763867869E+04  0.90177402369E+03 0.  0.
         23    2    4    4    0    0  0.24480464957E+03 -0.71675368940E+02 -0.95915623720E+02  0.28922971227E+03  0.96888310028E+02 0.  0.
         23    2    4    4    0    0  0.21571050222E+02  0.52197281277E+03  0.83228715950E+03  0.98715707467E+03  0.94107633761E+02 0.  0.
          4    1    3    3  502    0 -0.23163172856E+03 -0.42991247344E+03 -0.13516514677E+04  0.14371637633E+04  0.00000000000E+00 0. -1.
         -3    1    3    3    0  502 -0.34743971229E+02 -0.20384970388E+02 -0.13835901525E+03  0.14410380861E+03  0.00000000000E+00 0.  1.
         13    1    5    5    0    0  0.23546398542E+03 -0.39183859189E+02 -0.88780257571E+02  0.25467743792E+03  0.00000000000E+00 0. -1.
        -13    1    5    5    0    0  0.93406641554E+01 -0.32491509751E+02 -0.71353661492E+01  0.34552274351E+02  0.00000000000E+00 0.  1.
          4    1    6    6  503    0 -0.12876254996E+01  0.43573861158E+03  0.74026842970E+03  0.85899193455E+03  0.00000000000E+00 0. -1.
         -4    1    6    6    0  503  0.22858675721E+02  0.86234201189E+02  0.92018729798E+02  0.12816514013E+03  0.00000000000E+00 0.  1.
<mgrwt>
<rscale>  0 0.27564863E+04</rscale>
<asrwt>0</asrwt>
<pdfrwt beam="1">  1        2 0.27779179E+00 0.27564863E+04</pdfrwt>
<pdfrwt beam="2">  1       -1 0.16184734E+00 0.27564863E+04</pdfrwt>
<totfact> 0.24094375E+00</totfact>
</mgrwt>
</event>
<event>
12    7  0.1660832E-007  0.1342434E+04  0.7818608E-02  0.8996575E-01
          2   -1    0    0  501    0  0.00000000000E+00  0.00000000000E+00  0.10791771711E+04  0.10791771711E+04  0.00000000000E+00 0. -1.
         -1   -1    0    0    0  501 -0.00000000000E+00 -0.00000000000E+00 -0.41747784089E+03  0.41747784089E+03  0.00000000000E+00 0.  1.
         24    2    1    2    0    0 -0.15467988180E+03  0.28737606569E+03  0.10923907866E+02  0.33593258658E+03  0.78870159153E+02 0.  0.
        254    2    1    2    0    0  0.15467988180E+03 -0.28737606569E+03  0.65077542239E+03  0.11607224254E+04  0.90402269307E+03 0.  0.
         23    2    4    4    0    0  0.16577188788E+03 -0.39980957258E+03  0.82374414967E+03  0.93447571130E+03  0.85804532206E+02 0.  0.
         23    2    4    4    0    0 -0.11092006087E+02  0.11243350690E+03 -0.17296872728E+03  0.22624671415E+03  0.92222930854E+02 0.  0.
          2    1    3    3  502    0  0.43430217086E+01 -0.17585769257E+01  0.35348454775E+01  0.58693750020E+01  0.00000000000E+00 0. -1.
         -1    1    3    3    0  502 -0.15902290351E+03  0.28913464261E+03  0.73890623881E+01  0.33006321158E+03  0.00000000000E+00 0.  1.
         13    1    5    5    0    0  0.71572085400E+02 -0.11203911001E+03  0.18747041168E+03  0.22982706724E+03  0.00000000000E+00 0. -1.
        -13    1    5    5    0    0  0.94199802484E+02 -0.28777046258E+03  0.63627373799E+03  0.70464864406E+03  0.00000000000E+00 0.  1.
          1    1    6    6  503    0 -0.17401849729E+02  0.97388033179E+02 -0.68069350092E+02  0.12008617657E+03  0.00000000000E+00 0. -1.
         -1    1    6    6    0  503  0.63098436419E+01  0.15045473720E+02 -0.10489937718E+03  0.10616053758E+03  0.00000000000E+00 0.  1.
<mgrwt>
<rscale>  0 0.13424344E+04</rscale>
<asrwt>0</asrwt>
<pdfrwt beam="1">  1        2 0.16602726E+00 0.13424344E+04</pdfrwt>
<pdfrwt beam="2">  1       -1 0.64227361E-01 0.13424344E+04</pdfrwt>
<totfact> 0.61503397E+01</totfact>
</mgrwt>
</event>
<event>
12    7  0.1660832E-007  0.2081650E+04  0.7818608E-02  0.8569370E-01
         -1   -1    0    0    0  501 -0.00000000000E+00  0.00000000000E+00  0.17858961836E+04  0.17858961836E+04  0.00000000000E+00 0.  1.
          2   -1    0    0  501    0  0.00000000000E+00 -0.00000000000E+00 -0.60659531680E+03  0.60659531680E+03  0.00000000000E+00 0. -1.
         24    2    1    2    0    0 -0.39602527265E+03  0.38049626542E+03  0.12046330337E+04  0.13263306054E+04  0.79991901537E+02 0.  0.
        254    2    1    2    0    0  0.39602527265E+03 -0.38049626542E+03 -0.25332166904E+02  0.10661608950E+04  0.91347901497E+03 0.  0.
         23    2    4    4    0    0  0.14887299984E+03 -0.56199047401E+02  0.41766422299E+03  0.45687173955E+03  0.94693612368E+02 0.  0.
         23    2    4    4    0    0  0.24715227280E+03 -0.32429721802E+03 -0.44299638989E+03  0.60928915546E+03  0.93458771302E+02 0.  0.
          4    1    3    3  502    0 -0.70331382726E+00  0.16885024903E+02  0.52409162128E+02  0.55066496087E+02  0.00000000000E+00 0. -1.
         -3    1    3    3    0  502 -0.39532195882E+03  0.36361124052E+03  0.11522238716E+04  0.12712641093E+04  0.00000000000E+00 0.  1.
         13    1    5    5    0    0  0.15588317095E+03 -0.67760501279E+02  0.40008571400E+03  0.43469486662E+03  0.00000000000E+00 0. -1.
        -13    1    5    5    0    0 -0.70101711042E+01  0.11561453878E+02  0.17578508986E+02  0.22176872928E+02  0.00000000000E+00 0.  1.
          1    1    6    6  503    0  0.22808222936E+03 -0.24101814795E+03 -0.36907198908E+03  0.49631178116E+03  0.00000000000E+00 0. -1.
         -1    1    6    6    0  503  0.19070043442E+02 -0.83279070067E+02 -0.73924400815E+02  0.11297737430E+03  0.00000000000E+00 0.  1.
<mgrwt>
<rscale>  0 0.20816496E+04</rscale>
<asrwt>0</asrwt>
<pdfrwt beam="1">  1        2 0.93322357E-01 0.20816496E+04</pdfrwt>
<pdfrwt beam="2">  1       -1 0.27475326E+00 0.20816496E+04</pdfrwt>
<totfact> 0.24827516E+00</totfact>
</mgrwt>
</event>
<event>
12    7  0.1669492E-007  0.2640991E+04  0.7818608E-02  0.8354409E-01
          2   -1    0    0  501    0  0.00000000000E+00  0.00000000000E+00  0.22496654954E+04  0.22496654954E+04  0.00000000000E+00 0. -1.
         -1   -1    0    0    0  501 -0.00000000000E+00 -0.00000000000E+00 -0.77509658656E+03  0.77509658656E+03  0.00000000000E+00 0.  1.
         24    2    1    2    0    0  0.37488662071E+03 -0.43207323088E+03 -0.51043971785E+03  0.77079522365E+03  0.79682595363E+02 0.  0.
        254    2    1    2    0    0 -0.37488662071E+03  0.43207323088E+03  0.19850086267E+04  0.22539668583E+04  0.90159863306E+03 0.  0.
         23    2    4    4    0    0 -0.12280159903E+02 -0.25522403360E+03  0.36301029166E+03  0.45317911507E+03  0.91130284913E+02 0.  0.
         23    2    4    4    0    0 -0.36260646081E+03  0.68729726449E+03  0.16219983350E+04  0.18007877433E+04  0.89982899557E+02 0.  0.
          2    1    3    3  502    0  0.21586392221E+02 -0.55093371506E+02 -0.35461290448E+02  0.68983730207E+02  0.00000000000E+00 0. -1.
         -1    1    3    3    0  502  0.35330022849E+03 -0.37697985938E+03 -0.47497842740E+03  0.70181149344E+03  0.00000000000E+00 0.  1.
         13    1    5    5    0    0 -0.26203770253E+02 -0.16156548851E+03  0.29228516460E+03  0.33499352546E+03  0.00000000000E+00 0.  1.
        -13    1    5    5    0    0  0.13923610350E+02 -0.93658545096E+02  0.70725127059E+02  0.11818558961E+03  0.00000000000E+00 0. -1.
          1    1    6    6  503    0  0.21525985464E+01  0.29266049043E+01  0.90072527452E+00  0.37429938269E+01  0.00000000000E+00 0. -1.
         -1    1    6    6    0  503 -0.36475905935E+03  0.68437065958E+03  0.16210976098E+04  0.17970447494E+04  0.00000000000E+00 0.  1.
<mgrwt>
<rscale>  0 0.26409908E+04</rscale>
<asrwt>0</asrwt>
<pdfrwt beam="1">  1        2 0.34610238E+00 0.26409908E+04</pdfrwt>
<pdfrwt beam="2">  1       -1 0.11924563E+00 0.26409908E+04</pdfrwt>
<totfact> 0.30514605E+00</totfact>
</mgrwt>
</event>
<event>
12    7  0.1660832E-007  0.9756460E+03  0.7818608E-02  0.9335667E-01
         -1   -1    0    0    0  501 -0.00000000000E+00  0.00000000000E+00  0.18971017725E+03  0.18971017725E+03  0.00000000000E+00 0.  1.
          2   -1    0    0  501    0  0.00000000000E+00 -0.00000000000E+00 -0.12543937396E+04  0.12543937396E+04  0.00000000000E+00 0. -1.
         24    2    1    2    0    0  0.52733496682E+01  0.73166915460E+02 -0.26713122767E+03  0.28829470436E+03  0.79834441383E+02 0.  0.
        254    2    1    2    0    0 -0.52733496682E+01 -0.73166915460E+02 -0.79755233467E+03  0.11558092125E+04  0.83332106862E+03 0.  0.
         23    2    4    4    0    0 -0.24115642970E+03  0.29317751358E+03 -0.37434033011E+03  0.54236076669E+03  0.99574296086E+02 0.  0.
         23    2    4    4    0    0  0.23588308003E+03 -0.36634442904E+03 -0.42321200455E+03  0.61344844580E+03  0.85799339865E+02 0.  0.
          2    1    3    3  502    0  0.15595572647E+02  0.84031279718E+02 -0.25522475703E+03  0.26915451781E+03  0.00000000000E+00 0. -1.
         -1    1    3    3    0  502 -0.10322222979E+02 -0.10864364258E+02 -0.11906470634E+02  0.19140186544E+02  0.00000000000E+00 0.  1.
         13    1    5    5    0    0 -0.65534817290E+02  0.69469131932E+02 -0.40332783945E+02  0.10367017907E+03  0.00000000000E+00 0.  1.
        -13    1    5    5    0    0 -0.17562161241E+03  0.22370838164E+03 -0.33400754617E+03  0.43869058762E+03  0.00000000000E+00 0. -1.
          1    1    6    6  503    0  0.22300592965E+03 -0.29978341490E+03 -0.38075102331E+03  0.53345391766E+03  0.00000000000E+00 0. -1.
         -1    1    6    6    0  503  0.12877150384E+02 -0.66561014134E+02 -0.42460981239E+02  0.79994528140E+02  0.00000000000E+00 0.  1.
<mgrwt>
<rscale>  0 0.97564596E+03</rscale>
<asrwt>0</asrwt>
<pdfrwt beam="1">  1        2 0.19298366E+00 0.97564596E+03</pdfrwt>
<pdfrwt beam="2">  1       -1 0.29186181E-01 0.97564596E+03</pdfrwt>
<totfact> 0.21415162E+02</totfact>
</mgrwt>
</event>
<event>
12    7  0.1660832E-007  0.2837309E+04  0.7818608E-02  0.8291778E-01
         -1   -1    0    0    0  501 -0.00000000000E+00  0.00000000000E+00  0.83837668968E+03  0.83837668968E+03  0.00000000000E+00 0.  1.
          2   -1    0    0  501    0  0.00000000000E+00 -0.00000000000E+00 -0.24005681626E+04  0.24005681626E+04  0.00000000000E+00 0. -1.
         24    2    1    2    0    0  0.36636705685E+03  0.11861326422E+04 -0.37256268352E+03  0.12986288115E+04  0.80612478968E+02 0.  0.
        254    2    1    2    0    0 -0.36636705685E+03 -0.11861326422E+04 -0.11896287894E+04  0.19403160407E+04  0.89915194282E+03 0.  0.
         23    2    4    4    0    0  0.14678743947E+03  0.33330930847E+02 -0.25064559222E+02  0.17538205242E+03  0.86447260472E+02 0.  0.
         23    2    4    4    0    0 -0.51315449633E+03 -0.12194635730E+04 -0.11645642302E+04  0.17649339883E+04  0.91450500136E+02 0.  0.
          2    1    3    3  502    0  0.34882733869E+02  0.67987956642E+02 -0.38011123822E+02  0.85346428775E+02  0.00000000000E+00 0. -1.
         -1    1    3    3    0  502  0.33148432298E+03  0.11181446855E+04 -0.33455155969E+03  0.12132823827E+04  0.00000000000E+00 0.  1.
         13    1    5    5    0    0  0.92373605716E+02  0.42119352020E+02 -0.51964534833E+02  0.11404926886E+03  0.00000000000E+00 0.  1.
        -13    1    5    5    0    0  0.54413833755E+02 -0.87884211724E+01  0.26899975611E+02  0.61332783554E+02  0.00000000000E+00 0. -1.
          1    1    6    6  503    0 -0.20891231490E+03 -0.56592723457E+03 -0.57958439842E+03  0.83656205092E+03  0.00000000000E+00 0. -1.
         -1    1    6    6    0  503 -0.30424218142E+03 -0.65353633845E+03 -0.58497983174E+03  0.92837193741E+03  0.00000000000E+00 0.  1.
<mgrwt>
<rscale>  0 0.28373089E+04</rscale>
<asrwt>0</asrwt>
<pdfrwt beam="1">  1        2 0.36931818E+00 0.28373089E+04</pdfrwt>
<pdfrwt beam="2">  1       -1 0.12898103E+00 0.28373089E+04</pdfrwt>
<totfact> 0.20265075E+00</totfact>
</mgrwt>
</event>
<event>
12    7  0.1660832E-007  0.3103046E+04  0.7818608E-02  0.8214903E-01
         -1   -1    0    0    0  501 -0.00000000000E+00  0.00000000000E+00  0.13780669532E+04  0.13780669532E+04  0.00000000000E+00 0.  1.
          2   -1    0    0  501    0  0.00000000000E+00 -0.00000000000E+00 -0.17468113611E+04  0.17468113611E+04  0.00000000000E+00 0. -1.
         24    2    1    2    0    0 -0.36628067746E+03 -0.13488945236E+04  0.91833903322E+02  0.14030962452E+04  0.81040959641E+02 0.  0.
        254    2    1    2    0    0  0.36628067746E+03  0.13488945236E+04 -0.46057831125E+03  0.17217820691E+04  0.89371312088E+03 0.  0.
         23    2    4    4    0    0 -0.18783694030E+03  0.18532173146E+03 -0.31648782314E+03  0.42196332698E+03  0.90893601696E+02 0.  0.
         23    2    4    4    0    0  0.55411761776E+03  0.11635727921E+04 -0.14409048811E+03  0.12998187421E+04  0.88423508560E+02 0.  0.
          2    1    3    3  502    0 -0.32016791524E+02 -0.70720596855E+02 -0.87073805657E+01  0.78117195516E+02  0.00000000000E+00 0. -1.
         -1    1    3    3    0  502 -0.33426388594E+03 -0.12781739267E+04  0.10054128389E+03  0.13249790497E+04  0.00000000000E+00 0.  1.
         13    1    5    5    0    0 -0.12156455406E+03  0.15859473656E+03 -0.18501110129E+03  0.27232212336E+03  0.00000000000E+00 0. -1.
        -13    1    5    5    0    0 -0.66272386238E+02  0.26726994900E+02 -0.13147672185E+03  0.14964120363E+03  0.00000000000E+00 0.  1.
          2    1    6    6  503    0  0.55209597277E+03  0.11250786200E+04 -0.14101218146E+03  0.12611488015E+04  0.00000000000E+00 0. -1.
         -2    1    6    6    0  503  0.20216449849E+01  0.38494172138E+02 -0.30783066497E+01  0.38669940637E+02  0.00000000000E+00 0.  1.
<mgrwt>
<rscale>  0 0.31030456E+04</rscale>
<asrwt>0</asrwt>
<pdfrwt beam="1">  1        2 0.26874021E+00 0.31030456E+04</pdfrwt>
<pdfrwt beam="2">  1       -1 0.21201030E+00 0.31030456E+04</pdfrwt>
<totfact> 0.11115740E+00</totfact>
</mgrwt>
</event>
<event>
12    7  0.1660832E-007  0.1597061E+04  0.7818608E-02  0.8822356E-01
         -3   -1    0    0    0  501 -0.00000000000E+00  0.00000000000E+00  0.67242273001E+03  0.67242273001E+03  0.00000000000E+00 0.  1.
          2   -1    0    0  501    0  0.00000000000E+00 -0.00000000000E+00 -0.94828879032E+03  0.94828879032E+03  0.00000000000E+00 0. -1.
         24    2    1    2    0    0  0.31626699320E+03 -0.62470852318E+02  0.36049817742E+03  0.49004065647E+03  0.79079015511E+02 0.  0.
        254    2    1    2    0    0 -0.31626699320E+03  0.62470852318E+02 -0.63636423773E+03  0.11306708639E+04  0.87722844285E+03 0.  0.
         23    2    4    4    0    0  0.15670024722E+03 -0.11381789536E+03 -0.57546811929E+03  0.61409966339E+03  0.91898636986E+02 0.  0.
         23    2    4    4    0    0 -0.47296724042E+03  0.17628874768E+03 -0.60896118444E+02  0.51657120047E+03  0.91442522096E+02 0.  0.
          4    1    3    3  502    0  0.25646592431E+02  0.12027380783E+02  0.54961203009E+02  0.61831540722E+02  0.00000000000E+00 0. -1.
         -3    1    3    3    0  502  0.29062040077E+03 -0.74498233101E+02  0.30553697441E+03  0.42820911575E+03  0.00000000000E+00 0.  1.
         13    1    5    5    0    0 -0.91747751917E+01 -0.19734465127E+02 -0.37835316440E+02  0.43647872615E+02  0.00000000000E+00 0. -1.
        -13    1    5    5    0    0  0.16587502241E+03 -0.94083430231E+02 -0.53763280285E+03  0.57045179078E+03  0.00000000000E+00 0.  1.
          3    1    6    6  503    0 -0.75417449830E+02  0.59408366568E+02 -0.31963839261E+02  0.10118711765E+03  0.00000000000E+00 0. -1.
         -3    1    6    6    0  503 -0.39754979059E+03  0.11688038111E+03 -0.28932279182E+02  0.41538408282E+03  0.00000000000E+00 0.  1.
<mgrwt>
<rscale>  0 0.15970610E+04</rscale>
<asrwt>0</asrwt>
<pdfrwt beam="1">  1        2 0.14589058E+00 0.15970610E+04</pdfrwt>
<pdfrwt beam="2">  1       -3 0.10344965E+00 0.15970610E+04</pdfrwt>
<totfact> 0.13342399E+01</totfact>
</mgrwt>
</event>
<event>
12    7  0.1660832E-007  0.1399718E+04  0.7818608E-02  0.8954023E-01
         -1   -1    0    0    0  501 -0.00000000000E+00  0.00000000000E+00  0.36687813838E+03  0.36687813838E+03  0.00000000000E+00 0.  1.
          2   -1    0    0  501    0  0.00000000000E+00 -0.00000000000E+00 -0.13350556295E+04  0.13350556295E+04  0.00000000000E+00 0. -1.
         24    2    1    2    0    0  0.38858580984E+03  0.10292306578E+03 -0.27231970596E+03  0.49283027617E+03  0.84448622152E+02 0.  0.
        254    2    1    2    0    0 -0.38858580984E+03 -0.10292306578E+03 -0.69585778514E+03  0.12091034917E+04  0.90339421482E+03 0.  0.
         23    2    4    4    0    0 -0.27366408459E+02  0.85669984517E+02  0.19003056798E+03  0.22989359483E+03  0.93011728400E+02 0.  0.
         23    2    4    4    0    0 -0.36121940138E+03 -0.18859305030E+03 -0.88588835312E+03  0.97920989684E+03  0.89482139774E+02 0.  0.
          2    1    3    3  502    0  0.27426301439E+03  0.59113850442E+02 -0.23160949899E+03  0.36380985198E+03  0.00000000000E+00 0. -1.
         -1    1    3    3    0  502  0.11432279544E+03  0.43809215336E+02 -0.40710206968E+02  0.12902042419E+03  0.00000000000E+00 0.  1.
         13    1    5    5    0    0 -0.26259647966E+02 -0.31461802558E+01  0.84703633106E+01  0.27770751090E+02  0.00000000000E+00 0.  1.
        -13    1    5    5    0    0 -0.11067604935E+01  0.88816164773E+02  0.18156020467E+03  0.20212284374E+03  0.00000000000E+00 0. -1.
          2    1    6    6  503    0 -0.34945960048E+03 -0.15672178357E+03 -0.80433727877E+03  0.89086597635E+03  0.00000000000E+00 0. -1.
         -2    1    6    6    0  503 -0.11759800896E+02 -0.31871266722E+02 -0.81551074352E+02  0.88343920490E+02  0.00000000000E+00 0.  1.
<mgrwt>
<rscale>  0 0.13997181E+04</rscale>
<asrwt>0</asrwt>
<pdfrwt beam="1">  1        2 0.20539317E+00 0.13997181E+04</pdfrwt>
<pdfrwt beam="2">  1       -1 0.56442791E-01 0.13997181E+04</pdfrwt>
<totfact> 0.55583526E+01</totfact>
</mgrwt>
</event>
<event>
12    7  0.1660832E-007  0.2473676E+04  0.7818608E-02  0.8412424E-01
          2   -1    0    0  501    0  0.00000000000E+00  0.00000000000E+00  0.27570413309E+04  0.27570413309E+04  0.00000000000E+00 0. -1.
         -1   -1    0    0    0  501 -0.00000000000E+00 -0.00000000000E+00 -0.55485866352E+03  0.55485866352E+03  0.00000000000E+00 0.  1.
         24    2    1    2    0    0  0.96859268011E+03 -0.27035090885E+03  0.47238526476E+03  0.11139242683E+04  0.80112691656E+02 0.  0.
        254    2    1    2    0    0 -0.96859268011E+03  0.27035090885E+03  0.17297974026E+04  0.21979757260E+04  0.90974548332E+03 0.  0.
         23    2    4    4    0    0 -0.99083948242E+03  0.47494574432E+03  0.12421942571E+04  0.16609109660E+04  0.90787249561E+02 0.  0.
         23    2    4    4    0    0  0.22246802317E+02 -0.20459483547E+03  0.48760314544E+03  0.53706476000E+03  0.91256572775E+02 0.  0.
          4    1    3    3  502    0  0.60548618393E+02 -0.29093114933E+02  0.50306770921E+02  0.83924464409E+02  0.00000000000E+00 0. -1.
         -3    1    3    3    0  502  0.90804406171E+03 -0.24125779392E+03  0.42207849384E+03  0.10299998039E+04  0.00000000000E+00 0.  1.
         13    1    5    5    0    0 -0.89592972333E+03  0.45586525732E+03  0.11465975150E+04  0.15248570632E+04  0.00000000000E+00 0.  1.
        -13    1    5    5    0    0 -0.94909759099E+02  0.19080487001E+02  0.95596742191E+02  0.13605390282E+03  0.00000000000E+00 0. -1.
          3    1    6    6  503    0 -0.15052813746E+02 -0.61273110756E+00  0.16498420931E+02  0.22341900866E+02  0.00000000000E+00 0. -1.
         -3    1    6    6    0  503  0.37299616063E+02 -0.20398210436E+03  0.47110472451E+03  0.51472285913E+03  0.00000000000E+00 0.  1.
<mgrwt>
<rscale>  0 0.24736760E+04</rscale>
<asrwt>0</asrwt>
<pdfrwt beam="1">  1        2 0.42416020E+00 0.24736760E+04</pdfrwt>
<pdfrwt beam="2">  1       -1 0.85362873E-01 0.24736760E+04</pdfrwt>
<totfact> 0.33846930E+00</totfact>
</mgrwt>
</event>
<event>
12    7  0.1660832E-007  0.1922420E+04  0.7818608E-02  0.8643776E-01
          2   -1    0    0  501    0  0.00000000000E+00  0.00000000000E+00  0.18069027189E+04  0.18069027189E+04  0.00000000000E+00 0. -1.
         -1   -1    0    0    0  501 -0.00000000000E+00 -0.00000000000E+00 -0.51133052582E+03  0.51133052582E+03  0.00000000000E+00 0.  1.
         24    2    1    2    0    0  0.40776741507E+03 -0.56397604807E+03  0.17608551697E+03  0.72212445310E+03  0.78194430014E+02 0.  0.
        254    2    1    2    0    0 -0.40776741507E+03  0.56397604807E+03  0.11194866761E+04  0.15961087916E+04  0.89998311599E+03 0.  0.
         23    2    4    4    0    0 -0.25025811209E+03  0.78252390764E+03  0.97095547262E+03  0.12752212460E+04  0.91988627945E+02 0.  0.
         23    2    4    4    0    0 -0.15750930298E+03 -0.21854785956E+03  0.14853120346E+03  0.32088754562E+03  0.91295953287E+02 0.  0.
          4    1    3    3  502    0  0.43738809856E+02 -0.10942222960E+03  0.34918003574E+02  0.12290473868E+03  0.00000000000E+00 0. -1.
         -3    1    3    3    0  502  0.36402860521E+03 -0.45455381848E+03  0.14116751340E+03  0.59921971442E+03  0.00000000000E+00 0.  1.
         13    1    5    5    0    0 -0.67215353206E+02  0.29016208572E+03  0.29558246479E+03  0.41961998664E+03  0.00000000000E+00 0. -1.
        -13    1    5    5    0    0 -0.18304275889E+03  0.49236182191E+03  0.67537300783E+03  0.85560125933E+03  0.00000000000E+00 0.  1.
          3    1    6    6  503    0 -0.54021998650E+02 -0.32690296667E+02  0.69637996981E+02  0.94002566230E+02  0.00000000000E+00 0. -1.
         -3    1    6    6    0  503 -0.10348730433E+03 -0.18585756290E+03  0.78893206480E+02  0.22688497939E+03  0.00000000000E+00 0.  1.
<mgrwt>
<rscale>  0 0.19224198E+04</rscale>
<asrwt>0</asrwt>
<pdfrwt beam="1">  1        2 0.27798503E+00 0.19224198E+04</pdfrwt>
<pdfrwt beam="2">  1       -1 0.78666236E-01 0.19224198E+04</pdfrwt>
<totfact> 0.14721566E+01</totfact>
</mgrwt>
</event>
<event>
12    7  0.1660832E-007  0.1609699E+04  0.7818608E-02  0.8814612E-01
         -1   -1    0    0    0  501 -0.00000000000E+00  0.00000000000E+00  0.48487771077E+03  0.48487771077E+03  0.00000000000E+00 0.  1.
          2   -1    0    0  501    0  0.00000000000E+00 -0.00000000000E+00 -0.13359705401E+04  0.13359705401E+04  0.00000000000E+00 0. -1.
         24    2    1    2    0    0 -0.25657021379E+03  0.18381814947E+03  0.21183331221E+03  0.38849890594E+03  0.80253729376E+02 0.  0.
        254    2    1    2    0    0  0.25657021379E+03 -0.18381814947E+03 -0.10629261416E+04  0.14323493450E+04  0.90674984253E+03 0.  0.
         23    2    4    4    0    0  0.46650317638E+03 -0.35329045963E+03 -0.41173048679E+03  0.72116474710E+03  0.90095706119E+02 0.  0.
         23    2    4    4    0    0 -0.20993296259E+03  0.16947231016E+03 -0.65119565478E+03  0.71118459787E+03  0.94525333905E+02 0.  0.
          2    1    3    3  502    0 -0.21363701087E+01  0.23816862213E+02  0.75106360666E+01  0.25064250578E+02  0.00000000000E+00 0. -1.
         -1    1    3    3    0  502 -0.25443384368E+03  0.16000128725E+03  0.20432267614E+03  0.36343465536E+03  0.00000000000E+00 0.  1.
         13    1    5    5    0    0  0.12216754180E+03 -0.10178816712E+03 -0.16205554663E+03  0.22704127253E+03  0.00000000000E+00 0. -1.
        -13    1    5    5    0    0  0.34433563458E+03 -0.25150229251E+03 -0.24967494016E+03  0.49412347457E+03  0.00000000000E+00 0.  1.
          1    1    6    6  503    0 -0.12469009091E+03  0.12942860260E+03 -0.32174385350E+03  0.36853560100E+03  0.00000000000E+00 0. -1.
         -1    1    6    6    0  503 -0.85242871685E+02  0.40043707566E+02 -0.32945180128E+03  0.34264899687E+03  0.00000000000E+00 0.  1.
<mgrwt>
<rscale>  0 0.16096985E+04</rscale>
<asrwt>0</asrwt>
<pdfrwt beam="1">  1        2 0.20553392E+00 0.16096985E+04</pdfrwt>
<pdfrwt beam="2">  1       -1 0.74596573E-01 0.16096985E+04</pdfrwt>
<totfact> 0.31115684E+01</totfact>
</mgrwt>
</event>
<event>
12    7  0.1660832E-007  0.1976091E+04  0.7818608E-02  0.8617881E-01
          2   -1    0    0  501    0  0.00000000000E+00  0.00000000000E+00  0.16678819724E+04  0.16678819724E+04  0.00000000000E+00 0. -1.
         -1   -1    0    0    0  501 -0.00000000000E+00 -0.00000000000E+00 -0.58531341442E+03  0.58531341442E+03  0.00000000000E+00 0.  1.
         24    2    1    2    0    0  0.70478908665E+03  0.14932376531E+03  0.78552386146E+03  0.10688836867E+04  0.80245593758E+02 0.  0.
        254    2    1    2    0    0 -0.70478908665E+03 -0.14932376531E+03  0.29704469653E+03  0.11843117001E+04  0.89181467114E+03 0.  0.
         23    2    4    4    0    0 -0.76905437137E+02 -0.33194653358E+03 -0.15460210038E+03  0.38500567422E+03  0.90689648350E+02 0.  0.
         23    2    4    4    0    0 -0.62788364951E+03  0.18262276827E+03  0.45164679691E+03  0.79930602586E+03  0.85535612467E+02 0.  0.
          2    1    3    3  502    0  0.54263145458E+03  0.85881380913E+02  0.56752578230E+03  0.78987975076E+03  0.00000000000E+00 0. -1.
         -1    1    3    3    0  502  0.16215763207E+03  0.63442384401E+02  0.21799807916E+03  0.27900393598E+03  0.00000000000E+00 0.  1.
         13    1    5    5    0    0 -0.46313118696E+02 -0.31321785213E+03 -0.13595161515E+03  0.34457679770E+03  0.00000000000E+00 0. -1.
        -13    1    5    5    0    0 -0.30592318441E+02 -0.18728681457E+02 -0.18650485236E+02  0.40428876515E+02  0.00000000000E+00 0.  1.
          3    1    6    6  503    0 -0.60522694981E+03  0.17663688665E+03  0.45218089187E+03  0.77586584502E+03  0.00000000000E+00 0. -1.
         -3    1    6    6    0  503 -0.22656699704E+02  0.59858816187E+01 -0.53409495998E+00  0.23440180837E+02  0.00000000000E+00 0.  1.
<mgrwt>
<rscale>  0 0.19760908E+04</rscale>
<asrwt>0</asrwt>
<pdfrwt beam="1">  1        2 0.25659722E+00 0.19760908E+04</pdfrwt>
<pdfrwt beam="2">  1       -1 0.90048218E-01 0.19760908E+04</pdfrwt>
<totfact> 0.13072636E+01</totfact>
</mgrwt>
</event>
<event>
12    7  0.1660832E-007  0.1391694E+04  0.7818608E-02  0.8959853E-01
          2   -1    0    0  501    0  0.00000000000E+00  0.00000000000E+00  0.40086288198E+03  0.40086288198E+03  0.00000000000E+00 0. -1.
         -1   -1    0    0    0  501 -0.00000000000E+00 -0.00000000000E+00 -0.12079023450E+04  0.12079023450E+04  0.00000000000E+00 0.  1.
         24    2    1    2    0    0  0.27750114905E+03  0.18398414312E+03  0.14417301404E+02  0.34305245611E+03  0.81363852056E+02 0.  0.
        254    2    1    2    0    0 -0.27750114905E+03 -0.18398414312E+03 -0.82145676446E+03  0.12657127709E+04  0.90353779662E+03 0.  0.
         23    2    4    4    0    0  0.15451589020E+03 -0.30901391771E+03 -0.39698092049E+02  0.35952848899E+03  0.91214221574E+02 0.  0.
         23    2    4    4    0    0 -0.43201703925E+03  0.12502977459E+03 -0.78175867241E+03  0.90618428193E+03  0.88046375184E+02 0.  0.
          2    1    3    3  502    0  0.21633921557E+03  0.17248860041E+03  0.31617649308E+02  0.27848635373E+03  0.00000000000E+00 0. -1.
         -1    1    3    3    0  502  0.61161933481E+02  0.11495542711E+02 -0.17200347903E+02  0.64566102386E+02  0.00000000000E+00 0.  1.
         13    1    5    5    0    0  0.13004800762E+01  0.63701919193E+01 -0.23531772857E+01  0.69143356047E+01  0.00000000000E+00 0.  1.
        -13    1    5    5    0    0  0.15321541012E+03 -0.31538410963E+03 -0.37344914764E+02  0.35261415338E+03  0.00000000000E+00 0. -1.
          4    1    6    6  503    0 -0.42974034794E+03  0.11187414755E+03 -0.76706999509E+03  0.88633456939E+03  0.00000000000E+00 0. -1.
         -4    1    6    6    0  503 -0.22766913118E+01  0.13155627040E+02 -0.14688677323E+02  0.19849712533E+02  0.00000000000E+00 0.  1.
<mgrwt>
<rscale>  0 0.13916942E+04</rscale>
<asrwt>0</asrwt>
<pdfrwt beam="1">  1        2 0.61671215E-01 0.13916942E+04</pdfrwt>
<pdfrwt beam="2">  1       -1 0.18583112E+00 0.13916942E+04</pdfrwt>
<totfact> 0.16712949E+01</totfact>
</mgrwt>
</event>
<event>
12    7  0.1660832E-007  0.1345206E+04  0.7818608E-02  0.8994465E-01
          2   -1    0    0  501    0  0.00000000000E+00  0.00000000000E+00  0.12975593255E+04  0.12975593255E+04  0.00000000000E+00 0. -1.
         -1   -1    0    0    0  501 -0.00000000000E+00 -0.00000000000E+00 -0.34865081924E+03  0.34865081924E+03  0.00000000000E+00 0.  1.
         24    2    1    2    0    0 -0.29233839210E+03 -0.14686862398E+03  0.10632996099E+03  0.35378086460E+03  0.82599705499E+02 0.  0.
        254    2    1    2    0    0  0.29233839210E+03  0.14686862398E+03  0.84257854522E+03  0.12924292801E+04  0.92379798168E+03 0.  0.
         23    2    4    4    0    0  0.28126201742E+03  0.51281260764E+03  0.60447250215E+03  0.84599752609E+03  0.90772877549E+02 0.  0.
         23    2    4    4    0    0  0.11076374675E+02 -0.36594398366E+03  0.23810604307E+03  0.44643175400E+03  0.92569638517E+02 0.  0.
          4    1    3    3  502    0 -0.20853462088E+03 -0.12336914557E+03  0.11123185424E+03  0.26660675081E+03  0.00000000000E+00 0. -1.
         -3    1    3    3    0  502 -0.83803771224E+02 -0.23499478413E+02 -0.49018932513E+01  0.87174113787E+02  0.00000000000E+00 0.  1.
         13    1    5    5    0    0  0.40348635300E+02  0.25699449587E+02  0.59946377246E+02  0.76694473234E+02  0.00000000000E+00 0.  1.
        -13    1    5    5    0    0  0.24091338212E+03  0.48711315805E+03  0.54452612490E+03  0.76930305286E+03  0.00000000000E+00 0. -1.
          4    1    6    6  503    0 -0.32936475150E+02 -0.25137905402E+03  0.14227122613E+03  0.29071866466E+03  0.00000000000E+00 0. -1.
         -4    1    6    6    0  503  0.44012849825E+02 -0.11456492964E+03  0.95834816942E+02  0.15571308934E+03  0.00000000000E+00 0.  1.
<mgrwt>
<rscale>  0 0.13452065E+04</rscale>
<asrwt>0</asrwt>
<pdfrwt beam="1">  1        2 0.19962451E+00 0.13452065E+04</pdfrwt>
<pdfrwt beam="2">  1       -1 0.53638588E-01 0.13452065E+04</pdfrwt>
<totfact> 0.64783714E+01</totfact>
</mgrwt>
</event>
<event>
12    7  0.1660832E-007  0.1917530E+04  0.7818608E-02  0.8646180E-01
         -1   -1    0    0    0  501 -0.00000000000E+00  0.00000000000E+00  0.55526887268E+03  0.55526887268E+03  0.00000000000E+00 0.  1.
          2   -1    0    0  501    0  0.00000000000E+00 -0.00000000000E+00 -0.16554679948E+04  0.16554679948E+04  0.00000000000E+00 0. -1.
         24    2    1    2    0    0  0.53370349206E+03  0.28778802175E+03 -0.91603094512E+03  0.11014233264E+04  0.79745148036E+02 0.  0.
        254    2    1    2    0    0 -0.53370349206E+03 -0.28778802175E+03 -0.18416817699E+03  0.11093135411E+04  0.91049286218E+03 0.  0.
         23    2    4    4    0    0  0.14280331738E+03  0.13167739263E+03  0.12751334127E+03  0.24974366287E+03  0.91545189702E+02 0.  0.
         23    2    4    4    0    0 -0.67650680945E+03 -0.41946541437E+03 -0.31168151826E+03  0.85956987820E+03  0.90012830190E+02 0.  0.
          2    1    3    3  502    0  0.50564892478E+03  0.26873797843E+03 -0.82476450212E+03  0.10040604664E+04  0.00000000000E+00 0. -1.
         -3    1    3    3    0  502  0.28054567286E+02  0.19050043318E+02 -0.91266442996E+02  0.97362860030E+02  0.00000000000E+00 0.  1.
         13    1    5    5    0    0  0.13006012398E+03  0.14531146831E+03  0.10878825928E+03  0.22330683829E+03  0.00000000000E+00 0. -1.
        -13    1    5    5    0    0  0.12743193409E+02 -0.13634075688E+02  0.18725081992E+02  0.26436824577E+02  0.00000000000E+00 0.  1.
          2    1    6    6  503    0 -0.34415954321E+03 -0.24652252964E+03 -0.12771527308E+03  0.44218812714E+03  0.00000000000E+00 0. -1.
         -2    1    6    6    0  503 -0.33234726624E+03 -0.17294288473E+03 -0.18396624517E+03  0.41738175106E+03  0.00000000000E+00 0.  1.
<mgrwt>
<rscale>  0 0.19175295E+04</rscale>
<asrwt>0</asrwt>
<pdfrwt beam="1">  1        2 0.25468738E+00 0.19175295E+04</pdfrwt>
<pdfrwt beam="2">  1       -1 0.85425981E-01 0.19175295E+04</pdfrwt>
<totfact> 0.14980854E+01</totfact>
</mgrwt>
</event>
<event>
12    7  0.1660832E-007  0.1389458E+04  0.7818608E-02  0.8961485E-01
          4   -1    0    0  501    0  0.00000000000E+00  0.00000000000E+00  0.94801196081E+03  0.94801196081E+03  0.00000000000E+00 0. -1.
         -1   -1    0    0    0  501 -0.00000000000E+00 -0.00000000000E+00 -0.50911604959E+03  0.50911604959E+03  0.00000000000E+00 0.  1.
         24    2    1    2    0    0  0.33292962952E+02  0.15778090938E+02  0.54326463915E+03  0.54991288053E+03  0.76878725806E+02 0.  0.
        254    2    1    2    0    0 -0.33292962952E+02 -0.15778090938E+02 -0.10436872794E+03  0.90721512988E+03  0.90043827716E+03 0.  0.
         23    2    4    4    0    0 -0.10852698804E+03 -0.30185326573E+03 -0.37096404591E+03  0.49898176462E+03  0.92059637748E+02 0.  0.
         23    2    4    4    0    0  0.75234025089E+02  0.28607517479E+03  0.26659531798E+03  0.40823336526E+03  0.89901350267E+02 0.  0.
          4    1    3    3  502    0  0.42310139667E+02 -0.11107500657E+02  0.45739551591E+03  0.45948251595E+03  0.00000000000E+00 0. -1.
         -3    1    3    3    0  502 -0.90171767148E+01  0.26885591594E+02  0.85869123246E+02  0.90430364582E+02  0.00000000000E+00 0.  1.
         13    1    5    5    0    0 -0.25495557936E+02 -0.19041714545E+03 -0.24567561847E+03  0.31187372808E+03  0.00000000000E+00 0. -1.
        -13    1    5    5    0    0 -0.83031430106E+02 -0.11143612028E+03 -0.12528842744E+03  0.18710803654E+03  0.00000000000E+00 0.  1.
          3    1    6    6  503    0  0.49983816218E+02  0.21245965185E+03  0.24361309080E+03  0.32708534598E+03  0.00000000000E+00 0. -1.
         -3    1    6    6    0  503  0.25250208871E+02  0.73615522944E+02  0.22982227175E+02  0.81148019275E+02  0.00000000000E+00 0.  1.
<mgrwt>
<rscale>  0 0.13894576E+04</rscale>
<asrwt>0</asrwt>
<pdfrwt beam="1">  1        4 0.14584799E+00 0.13894576E+04</pdfrwt>
<pdfrwt beam="2">  1       -1 0.78325546E-01 0.13894576E+04</pdfrwt>
<totfact> 0.20960348E+00</totfact>
</mgrwt>
</event>
<event>
12    7  0.1660832E-007  0.1179000E+04  0.7818608E-02  0.9131439E-01
          2   -1    0    0  501    0  0.00000000000E+00  0.00000000000E+00  0.19208700812E+04  0.19208700812E+04  0.00000000000E+00 0. -1.
         -1   -1    0    0    0  501 -0.00000000000E+00 -0.00000000000E+00 -0.18091299234E+03  0.18091299234E+03  0.00000000000E+00 0.  1.
         24    2    1    2    0    0  0.15010642878E+03  0.57620699429E+01  0.69188671992E+03  0.71241325939E+03  0.79121915703E+02 0.  0.
        254    2    1    2    0    0 -0.15010642878E+03 -0.57620699429E+01  0.10480703689E+04  0.13893698141E+04  0.89962872385E+03 0.  0.
         23    2    4    4    0    0  0.21163931195E+03  0.10021139512E+03 -0.21215442449E+02  0.25194086699E+03  0.90501841896E+02 0.  0.
         23    2    4    4    0    0 -0.36174574073E+03 -0.10597346507E+03  0.10692858114E+04  0.11374289471E+04  0.91006082991E+02 0.  0.
          2    1    3    3  502    0  0.15742205266E+03  0.80580052460E+01  0.68156545715E+03  0.69955564932E+03  0.00000000000E+00 0. -1.
         -1    1    3    3    0  502 -0.73156238785E+01 -0.22959353031E+01  0.10321262768E+02  0.12857610072E+02  0.00000000000E+00 0.  1.
         13    1    5    5    0    0  0.67608730114E+02  0.51917881503E+02  0.31892264343E+02  0.91013863407E+02  0.00000000000E+00 0.  1.
        -13    1    5    5    0    0  0.14403058183E+03  0.48293513620E+02 -0.53107706792E+02  0.16092700358E+03  0.00000000000E+00 0. -1.
          3    1    6    6  503    0 -0.30356843475E+03 -0.64726270766E+02  0.78018211474E+03  0.83965910754E+03  0.00000000000E+00 0. -1.
         -3    1    6    6    0  503 -0.58177305978E+02 -0.41247194300E+02  0.28910369664E+03  0.29776983961E+03  0.00000000000E+00 0.  1.
<mgrwt>
<rscale>  0 0.11790002E+04</rscale>
<asrwt>0</asrwt>
<pdfrwt beam="1">  1        2 0.29551846E+00 0.11790002E+04</pdfrwt>
<pdfrwt beam="2">  1       -1 0.27832769E-01 0.11790002E+04</pdfrwt>
<totfact> 0.96913644E+01</totfact>
</mgrwt>
</event>
<event>
12    7  0.1660832E-007  0.1344899E+04  0.7818608E-02  0.8994698E-01
          2   -1    0    0  501    0  0.00000000000E+00  0.00000000000E+00  0.16283905173E+04  0.16283905173E+04  0.00000000000E+00 0. -1.
         -1   -1    0    0    0  501 -0.00000000000E+00 -0.00000000000E+00 -0.27769049177E+03  0.27769049177E+03  0.00000000000E+00 0.  1.
         24    2    1    2    0    0 -0.30357849049E+03 -0.17525892514E+03  0.28823524476E+03  0.46079608129E+03  0.79861639603E+02 0.  0.
        254    2    1    2    0    0  0.30357849049E+03  0.17525892514E+03  0.10624647808E+04  0.14452849278E+04  0.91495438213E+03 0.  0.
         23    2    4    4    0    0  0.11146431949E+03  0.32443760073E+03  0.34328909082E+01  0.35489466954E+03  0.90853675973E+02 0.  0.
         23    2    4    4    0    0  0.19211417100E+03 -0.14917867559E+03  0.10590318899E+04  0.10903902583E+04  0.90775765372E+02 0.  0.
          4    1    3    3  502    0 -0.16192304138E+03 -0.12167729963E+03  0.20410606795E+03  0.28754777612E+03  0.00000000000E+00 0. -1.
         -3    1    3    3    0  502 -0.14165544911E+03 -0.53581625508E+02  0.84129176809E+02  0.17324830517E+03  0.00000000000E+00 0.  1.
         13    1    5    5    0    0  0.13983133716E+02  0.14141645491E+03 -0.28931916603E+02  0.14502136927E+03  0.00000000000E+00 0. -1.
        -13    1    5    5    0    0  0.97481185776E+02  0.18302114582E+03  0.32364807511E+02  0.20987330027E+03  0.00000000000E+00 0.  1.
          1    1    6    6  503    0  0.26265531344E+02 -0.47853609198E+02  0.12575817928E+03  0.13709473260E+03  0.00000000000E+00 0. -1.
         -1    1    6    6    0  503  0.16584863965E+03 -0.10132506639E+03  0.93327371059E+03  0.95329552565E+03  0.00000000000E+00 0.  1.
<mgrwt>
<rscale>  0 0.13448993E+04</rscale>
<asrwt>0</asrwt>
<pdfrwt beam="1">  1        2 0.25052161E+00 0.13448993E+04</pdfrwt>
<pdfrwt beam="2">  1       -1 0.42721615E-01 0.13448993E+04</pdfrwt>
<totfact> 0.64563209E+01</totfact>
</mgrwt>
</event>
<event>
12    7  0.1660832E-007  0.3072084E+04  0.7818608E-02  0.8223441E-01
         -1   -1    0    0    0  501 -0.00000000000E+00  0.00000000000E+00  0.94903608146E+03  0.94903608146E+03  0.00000000000E+00 0.  1.
          2   -1    0    0  501    0  0.00000000000E+00 -0.00000000000E+00 -0.24861275436E+04  0.24861275436E+04  0.00000000000E+00 0. -1.
         24    2    1    2    0    0  0.22862618550E+03  0.60085202861E+03  0.69213655616E+03  0.94798296294E+03  0.79533594603E+02 0.  0.
        254    2    1    2    0    0 -0.22862618550E+03 -0.60085202861E+03 -0.22292280183E+04  0.24871806622E+04  0.89627952977E+03 0.  0.
         23    2    4    4    0    0 -0.14357577128E+03 -0.79149972203E+03 -0.20228258089E+04  0.21792508522E+04  0.10111484292E+03 0.  0.
         23    2    4    4    0    0 -0.85050414222E+02  0.19064769343E+03 -0.20640220945E+03  0.30792981000E+03  0.92945036722E+02 0.  0.
          2    1    3    3  502    0  0.55879459350E+02  0.16155029482E+03  0.13544311330E+03  0.21809596208E+03  0.00000000000E+00 0. -1.
         -1    1    3    3    0  502  0.17274672615E+03  0.43930173379E+03  0.55669344286E+03  0.72988700086E+03  0.00000000000E+00 0.  1.
         13    1    5    5    0    0 -0.67860750940E+02 -0.59582542273E+03 -0.14438419733E+04  0.15634233783E+04  0.00000000000E+00 0.  1.
        -13    1    5    5    0    0 -0.75715020337E+02 -0.19567429930E+03 -0.57898383560E+03  0.61582747389E+03  0.00000000000E+00 0. -1.
          4    1    6    6  503    0 -0.31655304815E+02  0.11436263466E+03 -0.56418791634E+02  0.13139235358E+03  0.00000000000E+00 0. -1.
         -4    1    6    6    0  503 -0.53395109406E+02  0.76285058769E+02 -0.14998341782E+03  0.17653745642E+03  0.00000000000E+00 0.  1.
<mgrwt>
<rscale>  0 0.30720838E+04</rscale>
<asrwt>0</asrwt>
<pdfrwt beam="1">  1        2 0.38248115E+00 0.30720838E+04</pdfrwt>
<pdfrwt beam="2">  1       -1 0.14600555E+00 0.30720838E+04</pdfrwt>
<totfact> 0.12862898E+00</totfact>
</mgrwt>
</event>
<event>
12    7  0.1660832E-007  0.2953090E+04  0.7818608E-02  0.8257255E-01
          2   -1    0    0  501    0  0.00000000000E+00  0.00000000000E+00  0.11253277965E+04  0.11253277965E+04  0.00000000000E+00 0. -1.
         -1   -1    0    0    0  501 -0.00000000000E+00 -0.00000000000E+00 -0.19373781991E+04  0.19373781991E+04  0.00000000000E+00 0.  1.
         24    2    1    2    0    0 -0.11802070179E+04 -0.30197532354E+03 -0.98713188165E+03  0.15701220454E+04  0.82317583025E+02 0.  0.
        254    2    1    2    0    0  0.11802070179E+04  0.30197532354E+03  0.17508147907E+03  0.14925839502E+04  0.84443805158E+03 0.  0.
         23    2    4    4    0    0  0.20812423085E+03 -0.23511348632E+03  0.19139887085E+03  0.37864670045E+03  0.90253803692E+02 0.  0.
         23    2    4    4    0    0  0.97208278707E+03  0.53708880986E+03 -0.16317391779E+02  0.11139372498E+04  0.84738447906E+02 0.  0.
          2    1    3    3  502    0 -0.53988723807E+03 -0.13781028775E+03 -0.39895609942E+03  0.68529984277E+03  0.00000000000E+00 0. -1.
         -3    1    3    3    0  502 -0.64031977986E+03 -0.16416503579E+03 -0.58817578222E+03  0.88482220262E+03  0.00000000000E+00 0.  1.
         13    1    5    5    0    0  0.17035057739E+02 -0.76394304535E+02  0.43628452468E+02  0.89608731842E+02  0.00000000000E+00 0. -1.
        -13    1    5    5    0    0  0.19108917312E+03 -0.15871918179E+03  0.14777041838E+03  0.28903796861E+03  0.00000000000E+00 0.  1.
          1    1    6    6  503    0  0.31637721112E+03  0.13233843697E+03  0.71259905977E+01  0.34301425825E+03  0.00000000000E+00 0. -1.
         -1    1    6    6    0  503  0.65570557595E+03  0.40475037289E+03 -0.23443382377E+02  0.77092299152E+03  0.00000000000E+00 0.  1.
<mgrwt>
<rscale>  0 0.29530903E+04</rscale>
<asrwt>0</asrwt>
<pdfrwt beam="1">  1        2 0.17312735E+00 0.29530903E+04</pdfrwt>
<pdfrwt beam="2">  1       -1 0.29805818E+00 0.29530903E+04</pdfrwt>
<totfact> 0.69957606E-01</totfact>
</mgrwt>
</event>
<event>
12    7  0.1660832E-007  0.2474900E+04  0.7818608E-02  0.8411983E-01
          2   -1    0    0  501    0  0.00000000000E+00  0.00000000000E+00  0.18222050080E+04  0.18222050080E+04  0.00000000000E+00 0. -1.
         -1   -1    0    0    0  501 -0.00000000000E+00 -0.00000000000E+00 -0.84034569382E+03  0.84034569382E+03  0.00000000000E+00 0.  1.
         24    2    1    2    0    0  0.20491685162E+03 -0.11390329980E+03 -0.69655843952E+03  0.73966300607E+03  0.83323616708E+02 0.  0.
        254    2    1    2    0    0 -0.20491685162E+03  0.11390329980E+03  0.16784177537E+04  0.19228876957E+04  0.90854061919E+03 0.  0.
         23    2    4    4    0    0  0.34565085492E+03  0.12434993985E+03  0.73449234437E+03  0.82610330396E+03  0.89611627782E+02 0.  0.
         23    2    4    4    0    0 -0.55056770654E+03 -0.10446640051E+02  0.94392540933E+03  0.10967843918E+04  0.93310727679E+02 0.  0.
          4    1    3    3  502    0  0.40487956912E+02  0.88715421210E+01 -0.84467920175E+02  0.94089364187E+02  0.00000000000E+00 0. -1.
         -3    1    3    3    0  502  0.16442889471E+03 -0.12277484192E+03 -0.61209051935E+03  0.64557364188E+03  0.00000000000E+00 0.  1.
         13    1    5    5    0    0  0.27581578673E+03  0.11041178621E+03  0.65589013019E+03  0.72003956393E+03  0.00000000000E+00 0.  1.
        -13    1    5    5    0    0  0.69835068190E+02  0.13938153637E+02  0.78602214183E+02  0.10606374004E+03  0.00000000000E+00 0. -1.
          4    1    6    6  503    0 -0.20367590018E+03 -0.38512298850E+02  0.29693225544E+03  0.36212682005E+03  0.00000000000E+00 0. -1.
         -4    1    6    6    0  503 -0.34689180636E+03  0.28065658798E+02  0.64699315389E+03  0.73465757173E+03  0.00000000000E+00 0.  1.
<mgrwt>
<rscale>  0 0.24748997E+04</rscale>
<asrwt>0</asrwt>
<pdfrwt beam="1">  1        2 0.28033923E+00 0.24748997E+04</pdfrwt>
<pdfrwt beam="2">  1       -1 0.12928395E+00 0.24748997E+04</pdfrwt>
<totfact> 0.43878779E+00</totfact>
</mgrwt>
</event>
<event>
12    7  0.1660832E-007  0.2203146E+04  0.7818608E-02  0.8517120E-01
          2   -1    0    0  501    0  0.00000000000E+00  0.00000000000E+00  0.80278603305E+03  0.80278603305E+03  0.00000000000E+00 0. -1.
         -1   -1    0    0    0  501 -0.00000000000E+00 -0.00000000000E+00 -0.15115651411E+04  0.15115651411E+04  0.00000000000E+00 0.  1.
         24    2    1    2    0    0 -0.29091531466E+02 -0.85058219700E+03 -0.63542743992E+03  0.10652211425E+04  0.81189038604E+02 0.  0.
        254    2    1    2    0    0  0.29091531466E+02  0.85058219700E+03 -0.73351668099E+02  0.12491300316E+04  0.91137751650E+03 0.  0.
         23    2    4    4    0    0 -0.12197995374E+03 -0.45695879667E+02 -0.27225435972E+03  0.31407755739E+03  0.86919808655E+02 0.  0.
         23    2    4    4    0    0  0.15107148520E+03  0.89627807667E+03  0.19890269162E+03  0.93505247422E+03  0.92864764274E+02 0.  0.
          4    1    3    3  502    0 -0.27959752185E+01 -0.35299267700E+03 -0.31244144984E+03  0.47141415663E+03  0.00000000000E+00 0. -1.
         -3    1    3    3    0  502 -0.26295556247E+02 -0.49758952000E+03 -0.32298599008E+03  0.59380698588E+03  0.00000000000E+00 0.  1.
         13    1    5    5    0    0  0.32478877527E+01  0.11228933093E+02 -0.35619324580E+01  0.12219863997E+02  0.00000000000E+00 0.  1.
        -13    1    5    5    0    0 -0.12522784149E+03 -0.56924812761E+02 -0.26869242726E+03  0.30185769339E+03  0.00000000000E+00 0. -1.
          3    1    6    6  503    0  0.14283861944E+03  0.58404285161E+03  0.12613805181E+03  0.61434496159E+03  0.00000000000E+00 0. -1.
         -3    1    6    6    0  503  0.82328657687E+01  0.31223522506E+03  0.72764639813E+02  0.32070751263E+03  0.00000000000E+00 0.  1.
<mgrwt>
<rscale>  0 0.22031463E+04</rscale>
<asrwt>0</asrwt>
<pdfrwt beam="1">  1        2 0.12350554E+00 0.22031463E+04</pdfrwt>
<pdfrwt beam="2">  1       -1 0.23254848E+00 0.22031463E+04</pdfrwt>
<totfact> 0.32452956E+00</totfact>
</mgrwt>
</event>
<event>
12    7  0.1660832E-007  0.2164675E+04  0.7818608E-02  0.8533277E-01
          2   -1    0    0  501    0  0.00000000000E+00  0.00000000000E+00  0.12230765732E+04  0.12230765732E+04  0.00000000000E+00 0. -1.
         -1   -1    0    0    0  501 -0.00000000000E+00 -0.00000000000E+00 -0.95779293840E+03  0.95779293840E+03  0.00000000000E+00 0.  1.
         24    2    1    2    0    0  0.38927746388E+03  0.72819206567E+03 -0.32375925289E+03  0.89055812515E+03  0.80455528304E+02 0.  0.
        254    2    1    2    0    0 -0.38927746388E+03 -0.72819206567E+03  0.58904288767E+03  0.12903113864E+04  0.79757841122E+03 0.  0.
         23    2    4    4    0    0 -0.62535724588E+03 -0.56301494315E+03  0.43487183822E+03  0.95101140033E+03  0.85156659681E+02 0.  0.
         23    2    4    4    0    0  0.23607978200E+03 -0.16517712253E+03  0.15417104945E+03  0.33929998611E+03  0.91316059972E+02 0.  0.
          4    1    3    3  502    0  0.22137939800E+03  0.45631110690E+03 -0.16212560285E+03  0.53245974049E+03  0.00000000000E+00 0. -1.
         -3    1    3    3    0  502  0.16789806588E+03  0.27188095878E+03 -0.16163365004E+03  0.35809838466E+03  0.00000000000E+00 0.  1.
         13    1    5    5    0    0 -0.34430032071E+02 -0.50230457233E+02  0.51421113765E+02  0.79703556276E+02  0.00000000000E+00 0. -1.
        -13    1    5    5    0    0 -0.59092721381E+03 -0.51278448591E+03  0.38345072446E+03  0.87130784405E+03  0.00000000000E+00 0.  1.
          4    1    6    6  503    0  0.23165071572E+03 -0.15341562755E+03  0.11956057392E+03  0.30247832932E+03  0.00000000000E+00 0.  1.
         -4    1    6    6    0  503  0.44290662785E+01 -0.11761494981E+02  0.34610475536E+02  0.36821656795E+02  0.00000000000E+00 0. -1.
<mgrwt>
<rscale>  0 0.21646747E+04</rscale>
<asrwt>0</asrwt>
<pdfrwt beam="1">  1        2 0.18816563E+00 0.21646747E+04</pdfrwt>
<pdfrwt beam="2">  1       -1 0.14735276E+00 0.21646747E+04</pdfrwt>
<totfact> 0.70189004E+00</totfact>
</mgrwt>
</event>
<event>
12    7  0.1660832E-007  0.1177728E+04  0.7818608E-02  0.9132577E-01
          2   -1    0    0  501    0  0.00000000000E+00  0.00000000000E+00  0.32156936012E+04  0.32156936012E+04  0.00000000000E+00 0. -1.
         -1   -1    0    0    0  501 -0.00000000000E+00 -0.00000000000E+00 -0.10783395541E+03  0.10783395541E+03  0.00000000000E+00 0.  1.
         24    2    1    2    0    0 -0.93423822771E+02 -0.13397767471E+03  0.10735245177E+04  0.10888506286E+04  0.80391376234E+02 0.  0.
        254    2    1    2    0    0  0.93423822771E+02  0.13397767471E+03  0.20343351281E+04  0.22346769280E+04  0.91026563767E+03 0.  0.
         23    2    4    4    0    0  0.31494390661E+03 -0.34527728953E+02  0.21739509483E+03  0.39424003933E+03  0.88219912568E+02 0.  0.
         23    2    4    4    0    0 -0.22152008384E+03  0.16850540366E+03  0.18169400332E+04  0.18404368886E+04  0.92041502071E+02 0.  0.
          4    1    3    3  502    0 -0.58419162009E+02 -0.12853896640E+03  0.94673092467E+03  0.95720139370E+03  0.00000000000E+00 0. -1.
         -3    1    3    3    0  502 -0.35004660762E+02 -0.54387083035E+01  0.12679359305E+03  0.13164923494E+03  0.00000000000E+00 0.  1.
         13    1    5    5    0    0  0.19989577255E+03 -0.25631151311E+02  0.18696816456E+03  0.27490429309E+03  0.00000000000E+00 0. -1.
        -13    1    5    5    0    0  0.11504813405E+03 -0.88965776420E+01  0.30426930276E+02  0.11933574623E+03  0.00000000000E+00 0.  1.
          1    1    6    6  503    0 -0.21952800904E+03  0.16941034779E+03  0.16253560114E+04  0.16488403732E+04  0.00000000000E+00 0. -1.
         -1    1    6    6    0  503 -0.19920748011E+01 -0.90494412479E+00  0.19158402185E+03  0.19159651541E+03  0.00000000000E+00 0.  1.
<mgrwt>
<rscale>  0 0.11777283E+04</rscale>
<asrwt>0</asrwt>
<pdfrwt beam="1">  1        2 0.49472202E+00 0.11777283E+04</pdfrwt>
<pdfrwt beam="2">  1       -1 0.16589842E-01 0.11777283E+04</pdfrwt>
<totfact> 0.40571490E+01</totfact>
</mgrwt>
</event>
<event>
12    7  0.1660832E-007  0.3782771E+04  0.7818608E-02  0.8049862E-01
         -1   -1    0    0    0  501 -0.00000000000E+00  0.00000000000E+00  0.13197039136E+04  0.13197039136E+04  0.00000000000E+00 0.  1.
          2   -1    0    0  501    0  0.00000000000E+00 -0.00000000000E+00 -0.27107127484E+04  0.27107127484E+04  0.00000000000E+00 0. -1.
         24    2    1    2    0    0 -0.26694079711E+03  0.37130291564E+03 -0.24948086128E+04  0.25376094537E+04  0.79173739585E+02 0.  0.
        254    2    1    2    0    0  0.26694079711E+03 -0.37130291564E+03  0.11037997780E+04  0.14928072082E+04  0.89497271841E+03 0.  0.
         23    2    4    4    0    0 -0.26456346425E+03 -0.37078416678E+03  0.54351804211E+03  0.71520452289E+03  0.92902758402E+02 0.  0.
         23    2    4    4    0    0  0.53150426137E+03 -0.51874885843E+00  0.56028173588E+03  0.77760268533E+03  0.90847475013E+02 0.  0.
          2    1    3    3  502    0 -0.26862255445E+03  0.37252542892E+03 -0.24452595509E+04  0.24880167892E+04  0.00000000000E+00 0. -1.
         -1    1    3    3    0  502  0.16817573368E+01 -0.12225132860E+01 -0.49549061861E+02  0.49592664557E+02  0.00000000000E+00 0.  1.
         13    1    5    5    0    0 -0.21045624936E+03 -0.32927903116E+03  0.41710167674E+03  0.57156830038E+03  0.00000000000E+00 0.  1.
        -13    1    5    5    0    0 -0.54107214892E+02 -0.41505135620E+02  0.12641636536E+03  0.14363622251E+03  0.00000000000E+00 0. -1.
          3    1    6    6  503    0  0.66240612874E+02 -0.23833404719E+02  0.10351234741E+03  0.12518249095E+03  0.00000000000E+00 0. -1.
         -3    1    6    6    0  503  0.46526364849E+03  0.23314655861E+02  0.45676938847E+03  0.65242019438E+03  0.00000000000E+00 0.  1.
<mgrwt>
<rscale>  0 0.37827705E+04</rscale>
<asrwt>0</asrwt>
<pdfrwt beam="1">  1        2 0.41703272E+00 0.37827705E+04</pdfrwt>
<pdfrwt beam="2">  1       -1 0.20303138E+00 0.37827705E+04</pdfrwt>
<totfact> 0.34231333E-01</totfact>
</mgrwt>
</event>
<event>
12    7  0.1660832E-007  0.3105151E+04  0.7818608E-02  0.8214326E-01
          2   -1    0    0  501    0  0.00000000000E+00  0.00000000000E+00  0.29058556320E+04  0.29058556320E+04  0.00000000000E+00 0. -1.
         -1   -1    0    0    0  501 -0.00000000000E+00 -0.00000000000E+00 -0.82952857327E+03  0.82952857327E+03  0.00000000000E+00 0.  1.
         24    2    1    2    0    0  0.72762009139E+02 -0.11123362104E+04 -0.10805555413E+03  0.11220515112E+04  0.68829034865E+02 0.  0.
        254    2    1    2    0    0 -0.72762009139E+02  0.11123362104E+04  0.21843826128E+04  0.26133326941E+04  0.90299181373E+03 0.  0.
         23    2    4    4    0    0  0.16374753615E+03 -0.50945721246E+02  0.11661864264E+03  0.22752366682E+03  0.93586265253E+02 0.  0.
         23    2    4    4    0    0 -0.23650954529E+03  0.11632819316E+04  0.20677639702E+04  0.23858090272E+04  0.85295137764E+02 0.  0.
          2    1    3    3  502    0  0.32779955930E+02 -0.61218105493E+03 -0.25779350123E+02  0.61359982433E+03  0.00000000000E+00 0. -1.
         -1    1    3    3    0  502  0.39982053209E+02 -0.50015515546E+03 -0.82276204011E+02  0.50845168685E+03  0.00000000000E+00 0.  1.
         13    1    5    5    0    0  0.61655773397E+02 -0.27488306743E+01 -0.45830603443E+01  0.61886952627E+02  0.00000000000E+00 0. -1.
        -13    1    5    5    0    0  0.10209176275E+03 -0.48196890572E+02  0.12120170299E+03  0.16563671420E+03  0.00000000000E+00 0.  1.
          4    1    6    6  503    0 -0.44512286731E+02  0.14631756606E+03  0.31863663021E+03  0.35343949400E+03  0.00000000000E+00 0. -1.
         -4    1    6    6    0  503 -0.19199725856E+03  0.10169643656E+04  0.17491273400E+04  0.20323695332E+04  0.00000000000E+00 0.  1.
<mgrwt>
<rscale>  0 0.31051507E+04</rscale>
<asrwt>0</asrwt>
<pdfrwt beam="1">  1        2 0.44705471E+00 0.31051507E+04</pdfrwt>
<pdfrwt beam="2">  1       -1 0.12761978E+00 0.31051507E+04</pdfrwt>
<totfact> 0.10200810E+00</totfact>
</mgrwt>
</event>
<event>
12    7  0.1660832E-007  0.1419363E+04  0.7818608E-02  0.8939921E-01
         -1   -1    0    0    0  501 -0.00000000000E+00  0.00000000000E+00  0.66788741259E+03  0.66788741259E+03  0.00000000000E+00 0.  1.
          2   -1    0    0  501    0  0.00000000000E+00 -0.00000000000E+00 -0.75409061051E+03  0.75409061051E+03  0.00000000000E+00 0. -1.
         24    2    1    2    0    0  0.10786215165E+03  0.26218206885E+02 -0.44863170137E+03  0.46873491291E+03  0.78232838269E+02 0.  0.
        254    2    1    2    0    0 -0.10786215165E+03 -0.26218206885E+02  0.36242850345E+03  0.95324311018E+03  0.87464070845E+03 0.  0.
         23    2    4    4    0    0 -0.10878609850E+03 -0.43714048296E+03  0.18026568388E+03  0.49414231884E+03  0.93566540053E+02 0.  0.
         23    2    4    4    0    0  0.92394685552E+00  0.41092227607E+03  0.18216281957E+03  0.45910079134E+03  0.93446632488E+02 0.  0.
          2    1    3    3  502    0  0.85151716567E+02  0.46613410020E+02 -0.39752792131E+03  0.40920908232E+03  0.00000000000E+00 0. -1.
         -1    1    3    3    0  502  0.22710435081E+02 -0.20395203135E+02 -0.51103780054E+02  0.59525830597E+02  0.00000000000E+00 0.  1.
         13    1    5    5    0    0 -0.11793715823E+03 -0.31852366356E+03  0.11595851087E+03  0.35890510414E+03  0.00000000000E+00 0. -1.
        -13    1    5    5    0    0  0.91510597251E+01 -0.11861681940E+03  0.64307173011E+02  0.13523721470E+03  0.00000000000E+00 0.  1.
          3    1    6    6  503    0  0.39204641382E+02  0.10496166243E+03  0.34605204577E+02  0.11726668184E+03  0.00000000000E+00 0. -1.
         -3    1    6    6    0  503 -0.38280694527E+02  0.30596061365E+03  0.14755761499E+03  0.34183410950E+03  0.00000000000E+00 0.  1.
<mgrwt>
<rscale>  0 0.14193627E+04</rscale>
<asrwt>0</asrwt>
<pdfrwt beam="1">  1        2 0.11601394E+00 0.14193627E+04</pdfrwt>
<pdfrwt beam="2">  1       -1 0.10275191E+00 0.14193627E+04</pdfrwt>
<totfact> 0.37015797E+01</totfact>
</mgrwt>
</event>
<event>
12    7  0.1660832E-007  0.4701438E+04  0.7818608E-02  0.7876290E-01
          2   -1    0    0  501    0  0.00000000000E+00  0.00000000000E+00  0.29547028174E+04  0.29547028174E+04  0.00000000000E+00 0. -1.
         -1   -1    0    0    0  501 -0.00000000000E+00 -0.00000000000E+00 -0.18701981528E+04  0.18701981528E+04  0.00000000000E+00 0.  1.
         24    2    1    2    0    0  0.13400251919E+04  0.10836351586E+04 -0.98520858637E+03  0.19866275848E+04  0.78233818253E+02 0.  0.
        254    2    1    2    0    0 -0.13400251919E+04 -0.10836351586E+04  0.20697132509E+04  0.28382733854E+04  0.89562838125E+03 0.  0.
         23    2    4    4    0    0 -0.10691424998E+04 -0.88755464696E+03  0.20673434471E+04  0.24925674278E+04  0.90357718609E+02 0.  0.
         23    2    4    4    0    0 -0.27088269207E+03 -0.19608051161E+03  0.23698038084E+01  0.34570595762E+03  0.87646980938E+02 0.  0.
          2    1    3    3  502    0  0.18221755691E+03  0.15717005200E+03 -0.10823514363E+03  0.26385698703E+03  0.00000000000E+00 0. -1.
         -1    1    3    3    0  502  0.11578076350E+04  0.92646510657E+03 -0.87697344274E+03  0.17227705978E+04  0.00000000000E+00 0.  1.
         13    1    5    5    0    0 -0.34654705828E+03 -0.33107992818E+03  0.76101698160E+03  0.89936401348E+03  0.00000000000E+00 0. -1.
        -13    1    5    5    0    0 -0.72259544153E+03 -0.55647471878E+03  0.13063264655E+04  0.15932034143E+04  0.00000000000E+00 0.  1.
          1    1    6    6  503    0 -0.24646757632E+03 -0.18121707446E+03 -0.23945021620E+02  0.30685380609E+03  0.00000000000E+00 0. -1.
         -1    1    6    6    0  503 -0.24415115750E+02 -0.14863437149E+02  0.26314825429E+02  0.38852151528E+02  0.00000000000E+00 0.  1.
<mgrwt>
<rscale>  0 0.47014380E+04</rscale>
<asrwt>0</asrwt>
<pdfrwt beam="1">  1        2 0.45456966E+00 0.47014380E+04</pdfrwt>
<pdfrwt beam="2">  1       -1 0.28772279E+00 0.47014380E+04</pdfrwt>
<totfact> 0.62419789E-02</totfact>
</mgrwt>
</event>
<event>
12    7  0.1660832E-007  0.1226510E+04  0.7818608E-02  0.9089964E-01
          2   -1    0    0  501    0  0.00000000000E+00  0.00000000000E+00  0.31579602355E+04  0.31579602355E+04  0.00000000000E+00 0. -1.
         -1   -1    0    0    0  501 -0.00000000000E+00 -0.00000000000E+00 -0.11909002880E+03  0.11909002880E+03  0.00000000000E+00 0.  1.
         24    2    1    2    0    0  0.13602284198E+02 -0.81253720257E+02  0.60038354123E+01  0.11429344904E+03  0.78992134189E+02 0.  0.
        254    2    1    2    0    0 -0.13602284198E+02  0.81253720257E+02  0.30328663713E+04  0.31627568153E+04  0.89328889903E+03 0.  0.
         23    2    4    4    0    0  0.41421186173E+03  0.34589249694E+02  0.18999434637E+04  0.19470849733E+04  0.92665233471E+02 0.  0.
         23    2    4    4    0    0 -0.42781414593E+03  0.46664470563E+02  0.11329229077E+04  0.12156718420E+04  0.95609604365E+02 0.  0.
          2    1    3    3  502    0  0.82873189534E+01 -0.40358962876E+01  0.31484878432E+02  0.32806488446E+02  0.00000000000E+00 0. -1.
         -3    1    3    3    0  502  0.53149652443E+01 -0.77217823969E+02 -0.25481043020E+02  0.81486960598E+02  0.00000000000E+00 0.  1.
         13    1    5    5    0    0  0.51689666619E+02 -0.17834926749E+02  0.16260813553E+03  0.17155556531E+03  0.00000000000E+00 0. -1.
        -13    1    5    5    0    0  0.36252219512E+03  0.52424176444E+02  0.17373353281E+04  0.17755294080E+04  0.00000000000E+00 0.  1.
          1    1    6    6  503    0 -0.86079809088E+02  0.26284927699E+02  0.15107401408E+03  0.17585217851E+03  0.00000000000E+00 0. -1.
         -1    1    6    6    0  503 -0.34173433684E+03  0.20379542864E+02  0.98184889357E+03  0.10398196635E+04  0.00000000000E+00 0.  1.
<mgrwt>
<rscale>  0 0.12265098E+04</rscale>
<asrwt>0</asrwt>
<pdfrwt beam="1">  1        2 0.48583997E+00 0.12265098E+04</pdfrwt>
<pdfrwt beam="2">  1       -1 0.18321545E-01 0.12265098E+04</pdfrwt>
<totfact> 0.37300256E+01</totfact>
</mgrwt>
</event>
<event>
12    7  0.1660832E-007  0.1671026E+04  0.7818608E-02  0.8778064E-01
          2   -1    0    0  501    0  0.00000000000E+00  0.00000000000E+00  0.38021371876E+04  0.38021371876E+04  0.00000000000E+00 0. -1.
         -1   -1    0    0    0  501 -0.00000000000E+00 -0.00000000000E+00 -0.18360261434E+03  0.18360261434E+03  0.00000000000E+00 0.  1.
         24    2    1    2    0    0 -0.42564478280E+03 -0.29667188293E+03  0.62547390744E+03  0.81685824392E+03  0.82777379259E+02 0.  0.
        254    2    1    2    0    0  0.42564478280E+03  0.29667188293E+03  0.29930606658E+04  0.31688815580E+04  0.90233613043E+03 0.  0.
         23    2    4    4    0    0  0.27194106494E+02  0.47268624757E+03  0.22646624396E+04  0.23154741586E+04  0.92481379828E+02 0.  0.
         23    2    4    4    0    0  0.39845067631E+03 -0.17601436464E+03  0.72839822623E+03  0.85340739946E+03  0.89421560455E+02 0.  0.
          4    1    3    3  502    0 -0.92366903135E+02 -0.50360359311E+02  0.17951076241E+03  0.20806711514E+03  0.00000000000E+00 0. -1.
         -1    1    3    3    0  502 -0.33327787967E+03 -0.24631152362E+03  0.44596314504E+03  0.60879112877E+03  0.00000000000E+00 0.  1.
         13    1    5    5    0    0  0.52450715264E+02  0.32024184287E+03  0.16566385135E+04  0.16881223534E+04  0.00000000000E+00 0. -1.
        -13    1    5    5    0    0 -0.25256608770E+02  0.15244440470E+03  0.60802392608E+03  0.62735180520E+03  0.00000000000E+00 0.  1.
          4    1    6    6  503    0  0.15333561653E+03 -0.99268228605E+02  0.36809898941E+03  0.41092926217E+03  0.00000000000E+00 0. -1.
         -4    1    6    6    0  503  0.24511505977E+03 -0.76746136034E+02  0.36029923682E+03  0.44247813729E+03  0.00000000000E+00 0.  1.
<mgrwt>
<rscale>  0 0.16710264E+04</rscale>
<asrwt>0</asrwt>
<pdfrwt beam="1">  1        2 0.58494412E+00 0.16710264E+04</pdfrwt>
<pdfrwt beam="2">  1       -1 0.28246559E-01 0.16710264E+04</pdfrwt>
<totfact> 0.61139581E+00</totfact>
</mgrwt>
</event>
<event>
12    7  0.1660832E-007  0.2591041E+04  0.7818608E-02  0.8371251E-01
          2   -1    0    0  501    0  0.00000000000E+00  0.00000000000E+00  0.16731450089E+04  0.16731450089E+04  0.00000000000E+00 0. -1.
         -1   -1    0    0    0  501 -0.00000000000E+00 -0.00000000000E+00 -0.10031247271E+04  0.10031247271E+04  0.00000000000E+00 0.  1.
         24    2    1    2    0    0 -0.55595498867E+03 -0.18390755776E+03  0.13587605246E+04  0.14817345412E+04  0.79994676157E+02 0.  0.
        254    2    1    2    0    0  0.55595498867E+03  0.18390755776E+03 -0.68874024282E+03  0.11945351948E+04  0.78079656140E+03 0.  0.
         23    2    4    4    0    0  0.58286646995E+03 -0.11025593261E+03 -0.23248350024E+03  0.64329392571E+03  0.88818942336E+02 0.  0.
         23    2    4    4    0    0 -0.26911481272E+02  0.29416349037E+03 -0.45625674258E+03  0.55124126908E+03  0.91871294186E+02 0.  0.
          2    1    3    3  502    0 -0.53407634709E+03 -0.18453028153E+03  0.12651987474E+04  0.13856467225E+04  0.00000000000E+00 0. -1.
         -1    1    3    3    0  502 -0.21878641586E+02  0.62272377116E+00  0.93561777212E+02  0.96087818675E+02  0.00000000000E+00 0.  1.
         13    1    5    5    0    0  0.98221082698E+02  0.11542011295E+02 -0.53865920535E+02  0.11261499237E+03  0.00000000000E+00 0.  1.
        -13    1    5    5    0    0  0.48464538725E+03 -0.12179794390E+03 -0.17861757970E+03  0.53067893335E+03  0.00000000000E+00 0. -1.
          2    1    6    6  503    0  0.14338691359E+02  0.24339437619E+03 -0.36585416638E+03  0.43965405888E+03  0.00000000000E+00 0. -1.
         -2    1    6    6    0  503 -0.41250172631E+02  0.50769114177E+02 -0.90402576200E+02  0.11158721020E+03  0.00000000000E+00 0.  1.
<mgrwt>
<rscale>  0 0.25910408E+04</rscale>
<asrwt>0</asrwt>
<pdfrwt beam="1">  1        2 0.25740692E+00 0.25910408E+04</pdfrwt>
<pdfrwt beam="2">  1       -1 0.15432688E+00 0.25910408E+04</pdfrwt>
<totfact> 0.33039303E+00</totfact>
</mgrwt>
</event>
<event>
12    7  0.1660832E-007  0.1866859E+04  0.7818608E-02  0.8671531E-01
         -1   -1    0    0    0  501 -0.00000000000E+00  0.00000000000E+00  0.11895670974E+04  0.11895670974E+04  0.00000000000E+00 0.  1.
          2   -1    0    0  501    0  0.00000000000E+00 -0.00000000000E+00 -0.73244357822E+03  0.73244357822E+03  0.00000000000E+00 0. -1.
         24    2    1    2    0    0 -0.42601043901E+03 -0.55055710177E+03  0.37046638205E+02  0.70170162435E+03  0.80091820748E+02 0.  0.
        254    2    1    2    0    0  0.42601043901E+03  0.55055710177E+03  0.42007688101E+03  0.12203090513E+04  0.90999537267E+03 0.  0.
         23    2    4    4    0    0  0.41786149613E+03  0.58903106992E+03 -0.60195062622E+02  0.73037860913E+03  0.90904542441E+02 0.  0.
         23    2    4    4    0    0  0.81489428859E+01 -0.38473968147E+02  0.48027194364E+03  0.48993044218E+03  0.88453642278E+02 0.  0.
          4    1    3    3  502    0 -0.88109972262E+02 -0.99759069977E+02  0.37654928177E+02  0.13832256819E+03  0.00000000000E+00 0. -1.
         -3    1    3    3    0  502 -0.33790046675E+03 -0.45079803179E+03 -0.60828997248E+00  0.56337905616E+03  0.00000000000E+00 0.  1.
         13    1    5    5    0    0  0.32148858725E+03  0.48974465621E+03 -0.77470785813E+02  0.59093693629E+03  0.00000000000E+00 0.  1.
        -13    1    5    5    0    0  0.96372908875E+02  0.99286413707E+02  0.17275723192E+02  0.13944167284E+03  0.00000000000E+00 0. -1.
          4    1    6    6  503    0 -0.45991370711E+01 -0.52216362750E+02  0.45723928502E+03  0.46023414081E+03  0.00000000000E+00 0.  1.
         -4    1    6    6    0  503  0.12748079957E+02  0.13742394603E+02  0.23032658618E+02  0.29696301369E+02  0.00000000000E+00 0. -1.
<mgrwt>
<rscale>  0 0.18668592E+04</rscale>
<asrwt>0</asrwt>
<pdfrwt beam="1">  1        2 0.11268363E+00 0.18668592E+04</pdfrwt>
<pdfrwt beam="2">  1       -1 0.18301032E+00 0.18668592E+04</pdfrwt>
<totfact> 0.82081916E+00</totfact>
</mgrwt>
</event>
<event>
12    7  0.1660832E-007  0.2012532E+04  0.7818608E-02  0.8600784E-01
          2   -1    0    0  501    0  0.00000000000E+00  0.00000000000E+00  0.31622662770E+04  0.31622662770E+04  0.00000000000E+00 0. -1.
         -1   -1    0    0    0  501 -0.00000000000E+00 -0.00000000000E+00 -0.32020443133E+03  0.32020443133E+03  0.00000000000E+00 0.  1.
         24    2    1    2    0    0  0.11187458258E+03  0.64915386955E+03  0.18825114666E+04  0.19960071194E+04  0.79235915418E+02 0.  0.
        254    2    1    2    0    0 -0.11187458258E+03 -0.64915386955E+03  0.95955037903E+03  0.14864635889E+04  0.92461905809E+03 0.  0.
         23    2    4    4    0    0 -0.44657607036E+03 -0.72989536348E+02  0.35953045433E+03  0.58571267539E+03  0.95076450719E+02 0.  0.
         23    2    4    4    0    0  0.33470148778E+03 -0.57616433320E+03  0.60001992470E+03  0.90075091349E+03  0.85661387674E+02 0.  0.
          2    1    3    3  502    0  0.44614537612E+02  0.33604252567E+03  0.10800957459E+04  0.11320432220E+04  0.00000000000E+00 0. -1.
         -1    1    3    3    0  502  0.67260044969E+02  0.31311134388E+03  0.80241572070E+03  0.86396389748E+03  0.00000000000E+00 0.  1.
         13    1    5    5    0    0 -0.12963925328E+02  0.13322848670E+02  0.25689811570E+02  0.31710062679E+02  0.00000000000E+00 0. -1.
        -13    1    5    5    0    0 -0.43361214503E+03 -0.86312385018E+02  0.33384064276E+03  0.55400261271E+03  0.00000000000E+00 0.  1.
          1    1    6    6  503    0  0.32629466835E+01 -0.70261207262E+01 -0.24735972857E+01  0.81321508255E+01  0.00000000000E+00 0. -1.
         -1    1    6    6    0  503  0.33143854110E+03 -0.56913821248E+03  0.60249352198E+03  0.89261876266E+03  0.00000000000E+00 0.  1.
<mgrwt>
<rscale>  0 0.20125324E+04</rscale>
<asrwt>0</asrwt>
<pdfrwt beam="1">  1        2 0.48650248E+00 0.20125324E+04</pdfrwt>
<pdfrwt beam="2">  1       -1 0.49262222E-01 0.20125324E+04</pdfrwt>
<totfact> 0.60043385E+00</totfact>
</mgrwt>
</event>
<event>
12    7  0.1660832E-007  0.2302030E+04  0.7818608E-02  0.8477121E-01
         -1   -1    0    0    0  501 -0.00000000000E+00  0.00000000000E+00  0.54565894076E+03  0.54565894076E+03  0.00000000000E+00 0.  1.
          2   -1    0    0  501    0  0.00000000000E+00 -0.00000000000E+00 -0.24279549717E+04  0.24279549717E+04  0.00000000000E+00 0. -1.
         24    2    1    2    0    0  0.97969276696E+02 -0.47716365231E+03 -0.18854587033E+04  0.19489285724E+04  0.78005949039E+02 0.  0.
        254    2    1    2    0    0 -0.97969276696E+02  0.47716365231E+03  0.31626723852E+01  0.10246853401E+04  0.90149149379E+03 0.  0.
         23    2    4    4    0    0  0.17250525048E+03 -0.18682828330E+03 -0.11200666899E+03  0.29281095777E+03  0.92357426366E+02 0.  0.
         23    2    4    4    0    0 -0.27047452718E+03  0.66399193561E+03  0.11516934137E+03  0.73187438229E+03  0.91292791877E+02 0.  0.
          2    1    3    3  502    0  0.83838397770E+02 -0.46871658136E+03 -0.18388319723E+04  0.18994807535E+04  0.00000000000E+00 0. -1.
         -1    1    3    3    0  502  0.14130878927E+02 -0.84470709498E+01 -0.46626731069E+02  0.49447818932E+02  0.00000000000E+00 0.  1.
         13    1    5    5    0    0  0.12209875584E+03 -0.17183822624E+03 -0.60757704627E+02  0.21938090356E+03  0.00000000000E+00 0.  1.
        -13    1    5    5    0    0  0.50406494643E+02 -0.14990057063E+02 -0.51248964362E+02  0.73430054209E+02  0.00000000000E+00 0. -1.
          4    1    6    6  503    0  0.24646104337E+00  0.58053300753E+01  0.11219924907E+02  0.12635241005E+02  0.00000000000E+00 0. -1.
         -4    1    6    6    0  503 -0.27072098822E+03  0.65818660554E+03  0.10394941647E+03  0.71923914129E+03  0.00000000000E+00 0.  1.
<mgrwt>
<rscale>  0 0.23020298E+04</rscale>
<asrwt>0</asrwt>
<pdfrwt beam="1">  1        2 0.37353154E+00 0.23020298E+04</pdfrwt>
<pdfrwt beam="2">  1       -1 0.83947528E-01 0.23020298E+04</pdfrwt>
<totfact> 0.55574819E+00</totfact>
</mgrwt>
</event>
<event>
12    7  0.1660832E-007  0.2494628E+04  0.7818608E-02  0.8404902E-01
          2   -1    0    0  501    0  0.00000000000E+00  0.00000000000E+00  0.38543128004E+04  0.38543128004E+04  0.00000000000E+00 0. -1.
         -1   -1    0    0    0  501 -0.00000000000E+00 -0.00000000000E+00 -0.40364978332E+03  0.40364978332E+03  0.00000000000E+00 0.  1.
         24    2    1    2    0    0 -0.24042962043E+03 -0.10535990419E+04  0.16566798826E+04  0.19795975326E+04  0.79629229814E+02 0.  0.
        254    2    1    2    0    0  0.24042962043E+03  0.10535990419E+04  0.17939831345E+04  0.22783650511E+04  0.89704764419E+03 0.  0.
         23    2    4    4    0    0  0.48069675805E+03  0.32249616349E+03  0.50203974925E+03  0.77174702221E+03  0.92067408992E+02 0.  0.
         23    2    4    4    0    0 -0.24026713762E+03  0.73110287839E+03  0.12919433852E+04  0.15066180289E+04  0.92414599449E+02 0.  0.
          2    1    3    3  502    0 -0.74449589238E+02 -0.19630511845E+03  0.34411732000E+03  0.40310689747E+03  0.00000000000E+00 0. -1.
         -1    1    3    3    0  502 -0.16598003119E+03 -0.85729392344E+03  0.13125625626E+04  0.15764906351E+04  0.00000000000E+00 0.  1.
         13    1    5    5    0    0  0.46123060130E+03  0.29255688031E+03  0.44532237988E+03  0.70472350451E+03  0.00000000000E+00 0.  1.
        -13    1    5    5    0    0  0.19466156748E+02  0.29939283182E+02  0.56717369375E+02  0.67023517699E+02  0.00000000000E+00 0. -1.
          2    1    6    6  503    0 -0.92243321275E+02  0.20106841687E+03  0.30761041399E+03  0.37889511132E+03  0.00000000000E+00 0. -1.
         -2    1    6    6    0  503 -0.14802381635E+03  0.53003446152E+03  0.98433297125E+03  0.11277229176E+04  0.00000000000E+00 0.  1.
<mgrwt>
<rscale>  0 0.24946283E+04</rscale>
<asrwt>0</asrwt>
<pdfrwt beam="1">  1        2 0.59297118E+00 0.24946283E+04</pdfrwt>
<pdfrwt beam="2">  1       -1 0.62099969E-01 0.24946283E+04</pdfrwt>
<totfact> 0.11941567E+00</totfact>
</mgrwt>
</event>
<event>
12    7  0.1660832E-007  0.1665034E+04  0.7818608E-02  0.8781562E-01
         -1   -1    0    0    0  501 -0.00000000000E+00  0.00000000000E+00  0.61477946998E+03  0.61477946998E+03  0.00000000000E+00 0.  1.
          2   -1    0    0  501    0  0.00000000000E+00 -0.00000000000E+00 -0.11273704084E+04  0.11273704084E+04  0.00000000000E+00 0. -1.
         24    2    1    2    0    0  0.12744576482E+03 -0.30654669972E+03 -0.69056828664E+03  0.77098435614E+03  0.85551252630E+02 0.  0.
        254    2    1    2    0    0 -0.12744576482E+03  0.30654669972E+03  0.17797734817E+03  0.97116552228E+03  0.89513866698E+03 0.  0.
         23    2    4    4    0    0 -0.21832000307E+03  0.46167320617E+03 -0.18884274273E+03  0.55194443410E+03  0.90417386748E+02 0.  0.
         23    2    4    4    0    0  0.90874238249E+02 -0.15512650645E+03  0.36682009090E+03  0.41922108818E+03  0.94164651046E+02 0.  0.
          2    1    3    3  502    0  0.14022309814E+03 -0.28741642807E+03 -0.64175734560E+03  0.71702385666E+03  0.00000000000E+00 0. -1.
         -1    1    3    3    0  502 -0.12777333322E+02 -0.19130271648E+02 -0.48810941033E+02  0.53960499485E+02  0.00000000000E+00 0.  1.
         13    1    5    5    0    0 -0.53510804524E+02  0.49279398582E+02 -0.43000353662E+02  0.84503820863E+02  0.00000000000E+00 0.  1.
        -13    1    5    5    0    0 -0.16480919854E+03  0.41239380759E+03 -0.14584238907E+03  0.46744061324E+03  0.00000000000E+00 0. -1.
          1    1    6    6  503    0  0.89708947813E+02 -0.13533081620E+03  0.36478479543E+03  0.39928695459E+03  0.00000000000E+00 0. -1.
         -1    1    6    6    0  503  0.11652904363E+01 -0.19795690244E+02  0.20352954660E+01  0.19934133582E+02  0.00000000000E+00 0.  1.
<mgrwt>
<rscale>  0 0.16650336E+04</rscale>
<asrwt>0</asrwt>
<pdfrwt beam="1">  1        2 0.17344160E+00 0.16650336E+04</pdfrwt>
<pdfrwt beam="2">  1       -1 0.94581458E-01 0.16650336E+04</pdfrwt>
<totfact> 0.24667573E+01</totfact>
</mgrwt>
</event>
<event>
12    7  0.1660832E-007  0.1813773E+04  0.7818608E-02  0.8699009E-01
         -1   -1    0    0    0  501 -0.00000000000E+00  0.00000000000E+00  0.42699293668E+03  0.42699293668E+03  0.00000000000E+00 0.  1.
          2   -1    0    0  501    0  0.00000000000E+00 -0.00000000000E+00 -0.19261274142E+04  0.19261274142E+04  0.00000000000E+00 0. -1.
         24    2    1    2    0    0  0.26995130994E+03 -0.24875793148E+03 -0.12954195722E+04  0.13488282049E+04  0.80445261649E+02 0.  0.
        254    2    1    2    0    0 -0.26995130994E+03  0.24875793148E+03 -0.20371490532E+03  0.10042921460E+04  0.91233148230E+03 0.  0.
         23    2    4    4    0    0 -0.10276433832E+02  0.12070229291E+03  0.34504662835E+03  0.37675946727E+03  0.90641446563E+02 0.  0.
         23    2    4    4    0    0 -0.25967487610E+03  0.12805563857E+03 -0.54876153367E+03  0.62753267870E+03  0.93961450344E+02 0.  0.
          2    1    3    3  502    0  0.18676063247E+02 -0.15428093947E+02 -0.18747875753E+03  0.18903731364E+03  0.00000000000E+00 0. -1.
         -1    1    3    3    0  502  0.25127524669E+03 -0.23332983753E+03 -0.11079408147E+04  0.11597908913E+04  0.00000000000E+00 0.  1.
         13    1    5    5    0    0 -0.32248157275E+02  0.15253307442E+02  0.41812380557E+02  0.54962552737E+02  0.00000000000E+00 0.  1.
        -13    1    5    5    0    0  0.21971723443E+02  0.10544898547E+03  0.30323424779E+03  0.32179691453E+03  0.00000000000E+00 0. -1.
          1    1    6    6  503    0 -0.22480447067E+03  0.67858170314E+02 -0.42153005932E+03  0.48252396025E+03  0.00000000000E+00 0. -1.
         -1    1    6    6    0  503 -0.34870405437E+02  0.60197468253E+02 -0.12723147435E+03  0.14500871844E+03  0.00000000000E+00 0.  1.
<mgrwt>
<rscale>  0 0.18137726E+04</rscale>
<asrwt>0</asrwt>
<pdfrwt beam="1">  1        2 0.29632730E+00 0.18137726E+04</pdfrwt>
<pdfrwt beam="2">  1       -1 0.65691219E-01 0.18137726E+04</pdfrwt>
<totfact> 0.18525721E+01</totfact>
</mgrwt>
</event>
<event>
12    7  0.2305016E-007  0.1882447E+04  0.7818608E-02  0.8663643E-01
         -1   -1    0    0    0  501 -0.00000000000E+00  0.00000000000E+00  0.51783654097E+03  0.51783654097E+03  0.00000000000E+00 0.  1.
          2   -1    0    0  501    0  0.00000000000E+00 -0.00000000000E+00 -0.17107754294E+04  0.17107754294E+04  0.00000000000E+00 0. -1.
         24    2    1    2    0    0  0.14496957706E+03 -0.17352132492E+03 -0.12711716660E+04  0.12934105974E+04  0.76861827169E+02 0.  0.
        254    2    1    2    0    0 -0.14496957706E+03  0.17352132492E+03  0.78232777538E+02  0.93520137303E+03  0.90407710520E+03 0.  0.
         23    2    4    4    0    0 -0.87797833138E+02  0.10073543358E+03 -0.40363796637E+03  0.43598933354E+03  0.96472814710E+02 0.  0.
         23    2    4    4    0    0 -0.57171743921E+02  0.72785891345E+02  0.48187074391E+03  0.49921203949E+03  0.91906758447E+02 0.  0.
          2    1    3    3  502    0  0.14497923263E+03 -0.14805913173E+03 -0.12013570590E+04  0.12190977269E+04  0.00000000000E+00 0. -1.
         -1    1    3    3    0  502 -0.96555663011E-02 -0.25462193196E+02 -0.69814606956E+02  0.74312870487E+02  0.00000000000E+00 0.  1.
         13    1    5    5    0    0 -0.25671099940E+02 -0.12167452097E+02 -0.32767390374E+02  0.43367662315E+02  0.00000000000E+00 0.  1.
        -13    1    5    5    0    0 -0.62126733197E+02  0.11290288567E+03 -0.37087057600E+03  0.39262167122E+03  0.00000000000E+00 0. -1.
          1    1    6    6  503    0 -0.20383440277E+02  0.69765760729E+02  0.42660944633E+03  0.43275670498E+03  0.00000000000E+00 0. -1.
         -1    1    6    6    0  503 -0.36788303644E+02  0.30201306155E+01  0.55261297585E+02  0.66455334509E+02  0.00000000000E+00 0.  1.
<mgrwt>
<rscale>  0 0.18824474E+04</rscale>
<asrwt>0</asrwt>
<pdfrwt beam="1">  1        2 0.26319622E+00 0.18824474E+04</pdfrwt>
<pdfrwt beam="2">  1       -1 0.79667161E-01 0.18824474E+04</pdfrwt>
<totfact> 0.16261117E+01</totfact>
</mgrwt>
</event>
<event>
12    7  0.1660832E-007  0.2834690E+04  0.7818608E-02  0.8292579E-01
          2   -1    0    0  501    0  0.00000000000E+00  0.00000000000E+00  0.10935387000E+04  0.10935387000E+04  0.00000000000E+00 0. -1.
         -1   -1    0    0    0  501 -0.00000000000E+00 -0.00000000000E+00 -0.18370330193E+04  0.18370330193E+04  0.00000000000E+00 0.  1.
         24    2    1    2    0    0  0.21528112723E+03  0.46430447654E+03 -0.15143589148E+04  0.16005746134E+04  0.81434387814E+02 0.  0.
        254    2    1    2    0    0 -0.21528112723E+03 -0.46430447654E+03  0.77086459546E+03  0.13299971059E+04  0.95537189960E+03 0.  0.
         23    2    4    4    0    0 -0.26110305302E+03  0.15210392412E+03  0.60769553505E+03  0.68477073417E+03  0.91141028264E+02 0.  0.
         23    2    4    4    0    0  0.45821925790E+02 -0.61640840066E+03  0.16316906042E+03  0.64522637175E+03  0.87372554243E+02 0.  0.
          2    1    3    3  502    0  0.34929527280E+02  0.45337919446E+02 -0.11003320420E+03  0.12402783898E+03  0.00000000000E+00 0. -1.
         -1    1    3    3    0  502  0.18035159995E+03  0.41896655709E+03 -0.14043257106E+04  0.14765467744E+04  0.00000000000E+00 0.  1.
         13    1    5    5    0    0 -0.28311826489E+02  0.57571334955E+02  0.11373781882E+03  0.13058449203E+03  0.00000000000E+00 0.  1.
        -13    1    5    5    0    0 -0.23279122653E+03  0.94532589166E+02  0.49395771622E+03  0.55418624214E+03  0.00000000000E+00 0. -1.
          3    1    6    6  503    0  0.68344066556E+02 -0.53043612207E+03  0.14937062952E+03  0.55528819184E+03  0.00000000000E+00 0. -1.
         -3    1    6    6    0  503 -0.22522140766E+02 -0.85972278587E+02  0.13798430898E+02  0.89938179910E+02  0.00000000000E+00 0.  1.
<mgrwt>
<rscale>  0 0.28346899E+04</rscale>
<asrwt>0</asrwt>
<pdfrwt beam="1">  1        2 0.16823672E+00 0.28346899E+04</pdfrwt>
<pdfrwt beam="2">  1       -1 0.28262046E+00 0.28346899E+04</pdfrwt>
<totfact> 0.93052918E-01</totfact>
</mgrwt>
</event>
<event>
12    7  0.1660832E-007  0.1827916E+04  0.7818608E-02  0.8691593E-01
         -1   -1    0    0    0  501 -0.00000000000E+00  0.00000000000E+00  0.31025166842E+03  0.31025166842E+03  0.00000000000E+00 0.  1.
          2   -1    0    0  501    0  0.00000000000E+00 -0.00000000000E+00 -0.26923922386E+04  0.26923922386E+04  0.00000000000E+00 0. -1.
         24    2    1    2    0    0  0.81948699567E+02  0.10132951859E+03 -0.20550014164E+04  0.20605826810E+04  0.77375081218E+02 0.  0.
        254    2    1    2    0    0 -0.81948699567E+02 -0.10132951859E+03 -0.32713915375E+03  0.94206122596E+03  0.87377117534E+03 0.  0.
         23    2    4    4    0    0 -0.35945006764E+03  0.23201208824E+03 -0.13498210429E+03  0.45850297502E+03  0.94714568058E+02 0.  0.
         23    2    4    4    0    0  0.27750136807E+03 -0.33334160683E+03 -0.19215704946E+03  0.48355825095E+03  0.93704931992E+02 0.  0.
          2    1    3    3  502    0  0.49640698674E+02  0.10758420851E+03 -0.15671476220E+04  0.15716202563E+04  0.00000000000E+00 0. -1.
         -1    1    3    3    0  502  0.32308000892E+02 -0.62546899288E+01 -0.48785379442E+03  0.48896242473E+03  0.00000000000E+00 0.  1.
         13    1    5    5    0    0 -0.14808463956E+03  0.44908740538E+02 -0.63828703789E+02  0.16739163324E+03  0.00000000000E+00 0.  1.
        -13    1    5    5    0    0 -0.21136542808E+03  0.18710334770E+03 -0.71153400502E+02  0.29111134178E+03  0.00000000000E+00 0. -1.
          4    1    6    6  503    0  0.21453235818E+03 -0.30823323755E+03 -0.17010629897E+03  0.41227177249E+03  0.00000000000E+00 0. -1.
         -4    1    6    6    0  503  0.62969009893E+02 -0.25108369273E+02 -0.22050750483E+02  0.71286478460E+02  0.00000000000E+00 0.  1.
<mgrwt>
<rscale>  0 0.18279160E+04</rscale>
<asrwt>0</asrwt>
<pdfrwt beam="1">  1        2 0.41421420E+00 0.18279160E+04</pdfrwt>
<pdfrwt beam="2">  1       -1 0.47731025E-01 0.18279160E+04</pdfrwt>
<totfact> 0.12639190E+01</totfact>
</mgrwt>
</event>
<event>
12    7  0.1660832E-007  0.1709933E+04  0.7818608E-02  0.8755719E-01
          2   -1    0    0  501    0  0.00000000000E+00  0.00000000000E+00  0.14486145575E+04  0.14486145575E+04  0.00000000000E+00 0. -1.
         -1   -1    0    0    0  501 -0.00000000000E+00 -0.00000000000E+00 -0.50459808424E+03  0.50459808424E+03  0.00000000000E+00 0.  1.
         24    2    1    2    0    0  0.32631844414E+03  0.51739569005E+03  0.40354025778E+03  0.73718544394E+03  0.80097515869E+02 0.  0.
        254    2    1    2    0    0 -0.32631844414E+03 -0.51739569005E+03  0.54047621544E+03  0.12160271978E+04  0.90134653668E+03 0.  0.
         23    2    4    4    0    0  0.47071158435E+02  0.12262938961E+03 -0.13639591313E+03  0.20831939652E+03  0.86830090954E+02 0.  0.
         23    2    4    4    0    0 -0.37338960257E+03 -0.64002507966E+03  0.67687212857E+03  0.10077078012E+04  0.90924344169E+02 0.  0.
          2    1    3    3  502    0  0.20921190476E+03  0.39750618322E+03  0.30065450146E+03  0.54053114253E+03  0.00000000000E+00 0. -1.
         -1    1    3    3    0  502  0.11710653938E+03  0.11988950682E+03  0.10288575632E+03  0.19665430142E+03  0.00000000000E+00 0.  1.
         13    1    5    5    0    0  0.59051483854E+02  0.12933977129E+03 -0.13170302519E+03  0.19380800042E+03  0.00000000000E+00 0.  1.
        -13    1    5    5    0    0 -0.11980325419E+02 -0.67103816805E+01 -0.46928879349E+01  0.14511396095E+02  0.00000000000E+00 0. -1.
          1    1    6    6  503    0 -0.15480563490E+03 -0.23880146114E+03  0.31775843538E+03  0.42656927421E+03  0.00000000000E+00 0. -1.
         -1    1    6    6    0  503 -0.21858396768E+03 -0.40122361852E+03  0.35911369319E+03  0.58113852704E+03  0.00000000000E+00 0.  1.
<mgrwt>
<rscale>  0 0.17099335E+04</rscale>
<asrwt>0</asrwt>
<pdfrwt beam="1">  1        2 0.22286378E+00 0.17099335E+04</pdfrwt>
<pdfrwt beam="2">  1       -1 0.77630475E-01 0.17099335E+04</pdfrwt>
<totfact> 0.24457752E+01</totfact>
</mgrwt>
</event>
<event>
12    7  0.1660832E-007  0.1703514E+04  0.7818608E-02  0.8759363E-01
          2   -1    0    0  501    0  0.00000000000E+00  0.00000000000E+00  0.65278836037E+03  0.65278836037E+03  0.00000000000E+00 0. -1.
         -1   -1    0    0    0  501 -0.00000000000E+00 -0.00000000000E+00 -0.11113703985E+04  0.11113703985E+04  0.00000000000E+00 0.  1.
         24    2    1    2    0    0  0.40283242305E+03  0.25204461316E+03  0.23189353045E+03  0.53472823984E+03  0.79744798793E+02 0.  0.
        254    2    1    2    0    0 -0.40283242305E+03 -0.25204461316E+03 -0.69047556858E+03  0.12294305190E+04  0.89941227600E+03 0.  0.
         23    2    4    4    0    0 -0.63439235107E+03 -0.15360622635E+03 -0.69963660311E+03  0.96125824968E+03  0.92073439587E+02 0.  0.
         23    2    4    4    0    0  0.23155992803E+03 -0.98438386816E+02  0.91610345300E+01  0.26817226935E+03  0.92316440730E+02 0.  0.
          4    1    3    3  502    0  0.28496588472E+03  0.14346496704E+03  0.12811479746E+03  0.34380394638E+03  0.00000000000E+00 0. -1.
         -3    1    3    3    0  502  0.11786653833E+03  0.10857964613E+03  0.10377873299E+03  0.19092429346E+03  0.00000000000E+00 0.  1.
         13    1    5    5    0    0 -0.47830428915E+02  0.26912110552E+01 -0.83881108968E+02  0.96597272161E+02  0.00000000000E+00 0. -1.
        -13    1    5    5    0    0 -0.58656192216E+03 -0.15629743740E+03 -0.61575549415E+03  0.86466097751E+03  0.00000000000E+00 0.  1.
          1    1    6    6  503    0  0.30323171202E+02 -0.26781472745E+02  0.34357862721E+02  0.53077346626E+02  0.00000000000E+00 0. -1.
         -1    1    6    6    0  503  0.20123675683E+03 -0.71656914071E+02 -0.25196828191E+02  0.21509492273E+03  0.00000000000E+00 0.  1.
<mgrwt>
<rscale>  0 0.17035136E+04</rscale>
<asrwt>0</asrwt>
<pdfrwt beam="1">  1        2 0.10042898E+00 0.17035136E+04</pdfrwt>
<pdfrwt beam="2">  1       -1 0.17098006E+00 0.17035136E+04</pdfrwt>
<totfact> 0.11759865E+01</totfact>
</mgrwt>
</event>
<event>
12    7  0.1660832E-007  0.1174711E+04  0.7818608E-02  0.9135284E-01
          2   -1    0    0  501    0  0.00000000000E+00  0.00000000000E+00  0.12418078176E+04  0.12418078176E+04  0.00000000000E+00 0. -1.
         -1   -1    0    0    0  501 -0.00000000000E+00 -0.00000000000E+00 -0.27780998173E+03  0.27780998173E+03  0.00000000000E+00 0.  1.
         24    2    1    2    0    0 -0.11507882000E+03  0.12008895079E+03 -0.62614069498E+01  0.18465197758E+03  0.79954091159E+02 0.  0.
        254    2    1    2    0    0  0.11507882000E+03 -0.12008895079E+03  0.97025924281E+03  0.13349658217E+04  0.90170186648E+03 0.  0.
         23    2    4    4    0    0  0.47699163038E+03  0.76935739404E+02  0.57804945282E+03  0.75889006173E+03  0.91284349324E+02 0.  0.
         23    2    4    4    0    0 -0.36191281038E+03 -0.19702469020E+03  0.39220978999E+03  0.57607576000E+03  0.90747732945E+02 0.  0.
          2    1    3    3  502    0 -0.93797201170E+02  0.48899831418E+02  0.16238945307E+02  0.10701781069E+03  0.00000000000E+00 0. -1.
         -1    1    3    3    0  502 -0.21281618827E+02  0.71189119374E+02 -0.22500352257E+02  0.77634166891E+02  0.00000000000E+00 0.  1.
         13    1    5    5    0    0  0.16105234223E+02 -0.10060569308E+01  0.55435496303E+02  0.57736340119E+02  0.00000000000E+00 0. -1.
        -13    1    5    5    0    0  0.46088639616E+03  0.77941796335E+02  0.52261395652E+03  0.70115372161E+03  0.00000000000E+00 0.  1.
          3    1    6    6  503    0 -0.18234804602E+03 -0.49068826613E+02  0.16269165363E+03  0.24925315202E+03  0.00000000000E+00 0. -1.
         -3    1    6    6    0  503 -0.17956476436E+03 -0.14795586358E+03  0.22951813636E+03  0.32682260798E+03  0.00000000000E+00 0.  1.
<mgrwt>
<rscale>  0 0.11747112E+04</rscale>
<asrwt>0</asrwt>
<pdfrwt beam="1">  1        2 0.19104735E+00 0.11747112E+04</pdfrwt>
<pdfrwt beam="2">  1       -1 0.42739998E-01 0.11747112E+04</pdfrwt>
<totfact> 0.10855861E+02</totfact>
</mgrwt>
</event>
<event>
12    7  0.1660832E-007  0.1383074E+04  0.7818608E-02  0.8966162E-01
         -1   -1    0    0    0  501 -0.00000000000E+00  0.00000000000E+00  0.37976290900E+03  0.37976290900E+03  0.00000000000E+00 0.  1.
          2   -1    0    0  501    0  0.00000000000E+00 -0.00000000000E+00 -0.12592680739E+04  0.12592680739E+04  0.00000000000E+00 0. -1.
         24    2    1    2    0    0  0.80523853519E+02  0.14837228896E+03  0.16537484119E+03  0.24965914642E+03  0.80513503047E+02 0.  0.
        254    2    1    2    0    0 -0.80523853519E+02 -0.14837228896E+03 -0.10448800061E+04  0.13893718365E+04  0.90004524653E+03 0.  0.
         23    2    4    4    0    0  0.10593214912E+03 -0.48756191983E+03 -0.68895579781E+03  0.85568214186E+03  0.92701621736E+02 0.  0.
         23    2    4    4    0    0 -0.18645600264E+03  0.33918963087E+03 -0.35592420832E+03  0.53368969467E+03  0.91253501380E+02 0.  0.
          4    1    3    3  502    0 -0.20086637575E+01  0.10882137907E+02 -0.78778113583E+01  0.13583650736E+02  0.00000000000E+00 0. -1.
         -3    1    3    3    0  502  0.82532517277E+02  0.13749015105E+03  0.17325265255E+03  0.23607549568E+03  0.00000000000E+00 0.  1.
         13    1    5    5    0    0  0.93565506392E+02 -0.41238843280E+03 -0.51921770338E+03  0.66963105289E+03  0.00000000000E+00 0. -1.
        -13    1    5    5    0    0  0.12366642725E+02 -0.75173487033E+02 -0.16973809443E+03  0.18605108897E+03  0.00000000000E+00 0.  1.
          1    1    6    6  503    0 -0.15734605880E+03  0.25407967148E+03 -0.31704345525E+03  0.43569578170E+03  0.00000000000E+00 0. -1.
         -1    1    6    6    0  503 -0.29109943840E+02  0.85109959399E+02 -0.38880753073E+02  0.97993912968E+02  0.00000000000E+00 0.  1.
<mgrwt>
<rscale>  0 0.13830738E+04</rscale>
<asrwt>0</asrwt>
<pdfrwt beam="1">  1        2 0.19373355E+00 0.13830738E+04</pdfrwt>
<pdfrwt beam="2">  1       -1 0.58425062E-01 0.13830738E+04</pdfrwt>
<totfact> 0.57599043E+01</totfact>
</mgrwt>
</event>
<event>
12    7  0.1660832E-007  0.1212470E+04  0.7818608E-02  0.9102011E-01
         -1   -1    0    0    0  501 -0.00000000000E+00  0.00000000000E+00  0.22553599728E+03  0.22553599728E+03  0.00000000000E+00 0.  1.
          2   -1    0    0  501    0  0.00000000000E+00 -0.00000000000E+00 -0.16295439474E+04  0.16295439474E+04  0.00000000000E+00 0. -1.
         24    2    1    2    0    0 -0.21277214579E+02  0.24671711318E+03 -0.18720878582E+03  0.31984645174E+03  0.77023174498E+02 0.  0.
        254    2    1    2    0    0  0.21277214579E+02 -0.24671711318E+03 -0.12167991643E+04  0.15352334929E+04  0.90278436949E+03 0.  0.
         23    2    4    4    0    0  0.24597483352E+03  0.21661549176E+03 -0.79146260270E+03  0.86136786337E+03  0.90086927876E+02 0.  0.
         23    2    4    4    0    0 -0.22469761894E+03 -0.46333260494E+03 -0.42533656159E+03  0.67386562956E+03  0.89540903048E+02 0.  0.
          4    1    3    3  502    0 -0.41627937211E+02  0.70105310043E+02 -0.56956645350E+02  0.99457021382E+02  0.00000000000E+00 0. -1.
         -3    1    3    3    0  502  0.20350722632E+02  0.17661180314E+03 -0.13025214047E+03  0.22038943036E+03  0.00000000000E+00 0.  1.
         13    1    5    5    0    0  0.23874696790E+03  0.20234792906E+03 -0.67753782455E+03  0.74632586902E+03  0.00000000000E+00 0. -1.
        -13    1    5    5    0    0  0.72278656238E+01  0.14267562704E+02 -0.11392477814E+03  0.11504199434E+03  0.00000000000E+00 0.  1.
          2    1    6    6  503    0 -0.22177283333E+03 -0.41043897187E+03 -0.35724655289E+03  0.58759547206E+03  0.00000000000E+00 0. -1.
         -2    1    6    6    0  503 -0.29247856102E+01 -0.52893633067E+02 -0.68090008703E+02  0.86270157500E+02  0.00000000000E+00 0.  1.
<mgrwt>
<rscale>  0 0.12124699E+04</rscale>
<asrwt>0</asrwt>
<pdfrwt beam="1">  1        2 0.25069907E+00 0.12124699E+04</pdfrwt>
<pdfrwt beam="2">  1       -1 0.34697845E-01 0.12124699E+04</pdfrwt>
<totfact> 0.95017435E+01</totfact>
</mgrwt>
</event>
<event>
12    7  0.1660832E-007  0.3671680E+04  0.7818608E-02  0.8074267E-01
          2   -1    0    0  501    0  0.00000000000E+00  0.00000000000E+00  0.34586985864E+04  0.34586985864E+04  0.00000000000E+00 0. -1.
         -1   -1    0    0    0  501 -0.00000000000E+00 -0.00000000000E+00 -0.97444422894E+03  0.97444422894E+03  0.00000000000E+00 0.  1.
         24    2    1    2    0    0  0.94241916114E+03  0.11485504824E+03 -0.56920970995E+03  0.11097436233E+04  0.78648955114E+02 0.  0.
        254    2    1    2    0    0 -0.94241916114E+03 -0.11485504824E+03  0.30534640674E+04  0.33233991921E+04  0.90553510217E+03 0.  0.
         23    2    4    4    0    0 -0.12022453552E+03 -0.34099437702E+03  0.46207555012E+03  0.59349014959E+03  0.89362405652E+02 0.  0.
         23    2    4    4    0    0 -0.82219462562E+03  0.22613932878E+03  0.25913885173E+04  0.27299090425E+04  0.99829524952E+02 0.  0.
          4    1    3    3  502    0  0.38872945188E+03  0.78395207177E+02 -0.26481457518E+03  0.47684709761E+03  0.00000000000E+00 0. -1.
         -3    1    3    3    0  502  0.55368970926E+03  0.36459841062E+02 -0.30439513477E+03  0.63289652569E+03  0.00000000000E+00 0.  1.
         13    1    5    5    0    0 -0.26589072383E+02 -0.10631997100E+03  0.20835672275E+03  0.23542183187E+03  0.00000000000E+00 0. -1.
        -13    1    5    5    0    0 -0.93635463136E+02 -0.23467440602E+03  0.25371882737E+03  0.35806831773E+03  0.00000000000E+00 0.  1.
          1    1    6    6  503    0 -0.67860626138E+03  0.22491250117E+03  0.21468735127E+04  0.22627766064E+04  0.00000000000E+00 0.  1.
         -1    1    6    6    0  503 -0.14358836424E+03  0.12268276120E+01  0.44451500463E+03  0.46713243603E+03  0.00000000000E+00 0. -1.
<mgrwt>
<rscale>  0 0.36716802E+04</rscale>
<asrwt>0</asrwt>
<pdfrwt beam="1">  1        2 0.53210747E+00 0.36716802E+04</pdfrwt>
<pdfrwt beam="2">  1       -1 0.14991450E+00 0.36716802E+04</pdfrwt>
<totfact> 0.27872441E-01</totfact>
</mgrwt>
</event>
<event>
12    7  0.1660832E-007  0.1876576E+04  0.7818608E-02  0.8666604E-01
          2   -1    0    0  501    0  0.00000000000E+00  0.00000000000E+00  0.59134760906E+03  0.59134760906E+03  0.00000000000E+00 0. -1.
         -1   -1    0    0    0  501 -0.00000000000E+00 -0.00000000000E+00 -0.14887770107E+04  0.14887770107E+04  0.00000000000E+00 0.  1.
         24    2    1    2    0    0 -0.19788132270E+03 -0.62780763921E+03 -0.26146828749E+02  0.66364450026E+03  0.80255319791E+02 0.  0.
        254    2    1    2    0    0  0.19788132270E+03  0.62780763921E+03 -0.87128257293E+03  0.14164801195E+04  0.90221015148E+03 0.  0.
         23    2    4    4    0    0 -0.27694712345E+03  0.55517298381E+03 -0.50110773715E+03  0.80288782822E+03  0.92753163426E+02 0.  0.
         23    2    4    4    0    0  0.47482844615E+03  0.72634655394E+02 -0.37017483578E+03  0.61359229132E+03  0.93425074149E+02 0.  0.
          2    1    3    3  502    0 -0.20423309012E+03 -0.61701742651E+03 -0.29735011292E+02  0.65061957442E+03  0.00000000000E+00 0. -1.
         -1    1    3    3    0  502  0.63517674164E+01 -0.10790212695E+02  0.35881825430E+01  0.13024925845E+02  0.00000000000E+00 0.  1.
         13    1    5    5    0    0 -0.16625191673E+03  0.42426095881E+03 -0.37308752100E+03  0.58892389942E+03  0.00000000000E+00 0. -1.
        -13    1    5    5    0    0 -0.11069520673E+03  0.13091202500E+03 -0.12802021615E+03  0.21396392880E+03  0.00000000000E+00 0.  1.
          3    1    6    6  503    0  0.41932337824E+03  0.34633244048E+02 -0.33407558151E+03  0.53725045491E+03  0.00000000000E+00 0. -1.
         -3    1    6    6    0  503  0.55505067912E+02  0.38001411346E+02 -0.36099254266E+02  0.76341836412E+02  0.00000000000E+00 0.  1.
<mgrwt>
<rscale>  0 0.18765764E+04</rscale>
<asrwt>0</asrwt>
<pdfrwt beam="1">  1        2 0.90976556E-01 0.18765764E+04</pdfrwt>
<pdfrwt beam="2">  1       -1 0.22904262E+00 0.18765764E+04</pdfrwt>
<totfact> 0.51809760E+00</totfact>
</mgrwt>
</event>
<event>
12    7  0.1660832E-007  0.2024723E+04  0.7818608E-02  0.8595148E-01
         -1   -1    0    0    0  501 -0.00000000000E+00  0.00000000000E+00  0.62070278992E+03  0.62070278992E+03  0.00000000000E+00 0.  1.
          2   -1    0    0  501    0  0.00000000000E+00 -0.00000000000E+00 -0.16511543068E+04  0.16511543068E+04  0.00000000000E+00 0. -1.
         24    2    1    2    0    0 -0.65432250717E+03 -0.11013833574E+02 -0.92687904902E+03  0.11374600656E+04  0.80320491856E+02 0.  0.
        254    2    1    2    0    0  0.65432250717E+03  0.11013833574E+02 -0.10357246790E+03  0.11343970312E+04  0.92079863178E+03 0.  0.
         23    2    4    4    0    0 -0.81030873100E+02  0.28462798820E+03 -0.14654101438E+03  0.34398149572E+03  0.96280353359E+02 0.  0.
         23    2    4    4    0    0  0.73535338027E+03 -0.27361415462E+03  0.42968546476E+02  0.79041553544E+03  0.85446610246E+02 0.  0.
          4    1    3    3  502    0 -0.25001630569E+03  0.26150247031E+02 -0.39739538561E+03  0.47022875394E+03  0.00000000000E+00 0. -1.
         -3    1    3    3    0  502 -0.40430620148E+03 -0.37164080605E+02 -0.52948366341E+03  0.66723131166E+03  0.00000000000E+00 0.  1.
         13    1    5    5    0    0 -0.66850250445E+02  0.74949814358E+02 -0.37355214430E+02  0.10715336067E+03  0.00000000000E+00 0. -1.
        -13    1    5    5    0    0 -0.14180622655E+02  0.20967817384E+03 -0.10918579995E+03  0.23682813505E+03  0.00000000000E+00 0.  1.
          2    1    6    6  503    0  0.72636304549E+03 -0.27017792280E+03  0.31749213702E+02  0.77563354517E+03  0.00000000000E+00 0. -1.
         -2    1    6    6    0  503  0.89903347813E+01 -0.34362318180E+01  0.11219332774E+02  0.14781990275E+02  0.00000000000E+00 0.  1.
<mgrwt>
<rscale>  0 0.20247233E+04</rscale>
<asrwt>0</asrwt>
<pdfrwt beam="1">  1        2 0.25402374E+00 0.20247233E+04</pdfrwt>
<pdfrwt beam="2">  1       -1 0.95492738E-01 0.20247233E+04</pdfrwt>
<totfact> 0.11670506E+01</totfact>
</mgrwt>
</event>
<event>
12    7  0.1660832E-007  0.1560264E+04  0.7818608E-02  0.8845338E-01
          2   -1    0    0  501    0  0.00000000000E+00  0.00000000000E+00  0.14204433957E+04  0.14204433957E+04  0.00000000000E+00 0. -1.
         -1   -1    0    0    0  501 -0.00000000000E+00 -0.00000000000E+00 -0.42846178876E+03  0.42846178876E+03  0.00000000000E+00 0.  1.
         24    2    1    2    0    0  0.42827901063E+03  0.14948628070E+03  0.44204087292E+02  0.46276074419E+03  0.80152641672E+02 0.  0.
        254    2    1    2    0    0 -0.42827901063E+03 -0.14948628070E+03  0.94777751965E+03  0.13861444403E+04  0.90407141502E+03 0.  0.
         23    2    4    4    0    0 -0.53680263081E+03 -0.11705173130E+03  0.15243266285E+03  0.57799461903E+03  0.94783388228E+02 0.  0.
         23    2    4    4    0    0  0.10852362018E+03 -0.32434549400E+02  0.79534485680E+03  0.80814982123E+03  0.87768537580E+02 0.  0.
          2    1    3    3  502    0  0.41909675566E+02  0.26799302656E+02  0.27938121221E+02  0.57054028309E+02  0.00000000000E+00 0. -1.
         -1    1    3    3    0  502  0.38636933506E+03  0.12268697804E+03  0.16265966071E+02  0.40570671588E+03  0.00000000000E+00 0.  1.
         13    1    5    5    0    0 -0.42136001163E+02 -0.23811786367E+02  0.38600964550E+02  0.61907012755E+02  0.00000000000E+00 0.  1.
        -13    1    5    5    0    0 -0.49466662965E+03 -0.93239944930E+02  0.11383169830E+03  0.51608760628E+03  0.00000000000E+00 0. -1.
          1    1    6    6  503    0  0.12231147747E+03 -0.38001552113E+02  0.69394750641E+03  0.70566802190E+03  0.00000000000E+00 0. -1.
         -1    1    6    6    0  503 -0.13787857289E+02  0.55670027133E+01  0.10139735039E+03  0.10248179933E+03  0.00000000000E+00 0.  1.
<mgrwt>
<rscale>  0 0.15602637E+04</rscale>
<asrwt>0</asrwt>
<pdfrwt beam="1">  1        2 0.21852975E+00 0.15602637E+04</pdfrwt>
<pdfrwt beam="2">  1       -1 0.65917199E-01 0.15602637E+04</pdfrwt>
<totfact> 0.36016811E+01</totfact>
</mgrwt>
</event>
<event>
12    7  0.1660832E-007  0.1873395E+04  0.7818608E-02  0.8668214E-01
         -1   -1    0    0    0  501 -0.00000000000E+00  0.00000000000E+00  0.24906530181E+03  0.24906530181E+03  0.00000000000E+00 0.  1.
          2   -1    0    0  501    0  0.00000000000E+00 -0.00000000000E+00 -0.35227779246E+04  0.35227779246E+04  0.00000000000E+00 0. -1.
         24    2    1    2    0    0 -0.23462539499E+03 -0.27835197408E+03 -0.24999461098E+04  0.25275811790E+04  0.80044781391E+02 0.  0.
        254    2    1    2    0    0  0.23462539499E+03  0.27835197408E+03 -0.77376651300E+03  0.12442620474E+04  0.90384983740E+03 0.  0.
         23    2    4    4    0    0  0.37299025842E+02  0.37786478867E+03 -0.89548649880E+03  0.97629595115E+03  0.84170653136E+02 0.  0.
         23    2    4    4    0    0  0.19732636915E+03 -0.99512814585E+02  0.12171998580E+03  0.26796609627E+03  0.90275010827E+02 0.  0.
          2    1    3    3  502    0 -0.74328453386E+02 -0.51158080634E+02 -0.45933262193E+03  0.46811144588E+03  0.00000000000E+00 0. -1.
         -1    1    3    3    0  502 -0.16029694160E+03 -0.22719389345E+03 -0.20406134878E+04  0.20594697331E+04  0.00000000000E+00 0.  1.
         13    1    5    5    0    0  0.45086094331E+02  0.10697035381E+03 -0.22685828604E+03  0.25483346413E+03  0.00000000000E+00 0. -1.
        -13    1    5    5    0    0 -0.77870684883E+01  0.27089443486E+03 -0.66862821276E+03  0.72146248701E+03  0.00000000000E+00 0.  1.
          2    1    6    6  503    0  0.13374607590E+02 -0.44087122957E+02  0.16623013466E+02  0.48978353540E+02  0.00000000000E+00 0. -1.
         -2    1    6    6    0  503  0.18395176156E+03 -0.55425691628E+02  0.10509697234E+03  0.21898774273E+03  0.00000000000E+00 0.  1.
<mgrwt>
<rscale>  0 0.18733945E+04</rscale>
<asrwt>0</asrwt>
<pdfrwt beam="1">  1        2 0.54196582E+00 0.18733945E+04</pdfrwt>
<pdfrwt beam="2">  1       -1 0.38317739E-01 0.18733945E+04</pdfrwt>
<totfact> 0.55563332E+00</totfact>
</mgrwt>
</event>
<event>
12    7  0.1660832E-007  0.2595137E+04  0.7818608E-02  0.8369855E-01
          2   -1    0    0  501    0  0.00000000000E+00  0.00000000000E+00  0.16200185695E+04  0.16200185695E+04  0.00000000000E+00 0. -1.
         -1   -1    0    0    0  501 -0.00000000000E+00 -0.00000000000E+00 -0.10392995734E+04  0.10392995734E+04  0.00000000000E+00 0.  1.
         24    2    1    2    0    0 -0.11101939228E+03 -0.54190408928E+03  0.12728123090E+04  0.13902676828E+04  0.82508838703E+02 0.  0.
        254    2    1    2    0    0  0.11101939228E+03  0.54190408928E+03 -0.69209331292E+03  0.12690504601E+04  0.90857612172E+03 0.  0.
         23    2    4    4    0    0 -0.10501194593E+03  0.58073876513E+03 -0.80789240612E+03  0.10046382667E+04  0.91229846897E+02 0.  0.
         23    2    4    4    0    0  0.21603133821E+03 -0.38834675851E+02  0.11579909320E+03  0.26441219335E+03  0.91250791043E+02 0.  0.
          2    1    3    3  502    0 -0.83065507933E+02 -0.51040255026E+03  0.11721976589E+04  0.12811939718E+04  0.00000000000E+00 0. -1.
         -1    1    3    3    0  502 -0.27953884351E+02 -0.31501539020E+02  0.10061465013E+03  0.10907371100E+03  0.00000000000E+00 0.  1.
         13    1    5    5    0    0 -0.68464770018E+01  0.27539770363E+03 -0.40163962896E+03  0.48703712483E+03  0.00000000000E+00 0.  1.
        -13    1    5    5    0    0 -0.98165468928E+02  0.30534106150E+03 -0.40625277716E+03  0.51760114189E+03  0.00000000000E+00 0. -1.
          3    1    6    6  503    0  0.83237097490E+02  0.13158672408E+02  0.60998540615E+01  0.84491261546E+02  0.00000000000E+00 0. -1.
         -3    1    6    6    0  503  0.13279424072E+03 -0.51993348259E+02  0.10969923914E+03  0.17992093180E+03  0.00000000000E+00 0.  1.
<mgrwt>
<rscale>  0 0.25951375E+04</rscale>
<asrwt>0</asrwt>
<pdfrwt beam="1">  1        2 0.24923363E+00 0.25951375E+04</pdfrwt>
<pdfrwt beam="2">  1       -1 0.15989224E+00 0.25951375E+04</pdfrwt>
<totfact> 0.32063305E+00</totfact>
</mgrwt>
</event>
<event>
12    7  0.1660832E-007  0.1788784E+04  0.7818608E-02  0.8712287E-01
          2   -1    0    0  501    0  0.00000000000E+00  0.00000000000E+00  0.16658666698E+04  0.16658666698E+04  0.00000000000E+00 0. -1.
         -1   -1    0    0    0  501 -0.00000000000E+00 -0.00000000000E+00 -0.48019253607E+03  0.48019253607E+03  0.00000000000E+00 0.  1.
         24    2    1    2    0    0  0.21742575430E+03 -0.12750067474E+03  0.11807037294E+04  0.12099712424E+04  0.80241697650E+02 0.  0.
        254    2    1    2    0    0 -0.21742575430E+03  0.12750067474E+03  0.49704043141E+01  0.93608796348E+03  0.90150185233E+03 0.  0.
         23    2    4    4    0    0 -0.48206060794E+02  0.47641920991E+03  0.15444415417E+03  0.51192908299E+03  0.94442053047E+02 0.  0.
         23    2    4    4    0    0 -0.16921969351E+03 -0.34891853517E+03 -0.14947374986E+03  0.42415888050E+03  0.84787411529E+02 0.  0.
          2    1    3    3  502    0  0.19675189296E+03 -0.81333791077E+02  0.90903987974E+03  0.93363804331E+03  0.00000000000E+00 0. -1.
         -1    1    3    3    0  502  0.20673861347E+02 -0.46166883663E+02  0.27166384971E+03  0.27633319911E+03  0.00000000000E+00 0.  1.
         13    1    5    5    0    0  0.57580305943E+01  0.70375941343E+01 -0.82005496459E+01  0.12244658510E+02  0.00000000000E+00 0. -1.
        -13    1    5    5    0    0 -0.53964091388E+02  0.46938161577E+03  0.16264470382E+03  0.49968442448E+03  0.00000000000E+00 0.  1.
          3    1    6    6  503    0 -0.32462954258E+02 -0.47658386920E+02  0.71593020340E+01  0.58106977623E+02  0.00000000000E+00 0. -1.
         -3    1    6    6    0  503 -0.13675673925E+03 -0.30126014825E+03 -0.15663305189E+03  0.36605190287E+03  0.00000000000E+00 0.  1.
<mgrwt>
<rscale>  0 0.17887837E+04</rscale>
<asrwt>0</asrwt>
<pdfrwt beam="1">  1        2 0.25628718E+00 0.17887837E+04</pdfrwt>
<pdfrwt beam="2">  1       -1 0.73875776E-01 0.17887837E+04</pdfrwt>
<totfact> 0.20350050E+01</totfact>
</mgrwt>
</event>
<event>
12    7  0.1660832E-007  0.1432751E+04  0.7818608E-02  0.8930447E-01
         -1   -1    0    0    0  501 -0.00000000000E+00  0.00000000000E+00  0.65314606481E+03  0.65314606481E+03  0.00000000000E+00 0.  1.
          2   -1    0    0  501    0  0.00000000000E+00 -0.00000000000E+00 -0.78572616937E+03  0.78572616937E+03  0.00000000000E+00 0. -1.
         24    2    1    2    0    0  0.11106071911E+03  0.40034148692E+03 -0.14930376950E+03  0.44886959243E+03  0.81144968683E+02 0.  0.
        254    2    1    2    0    0 -0.11106071911E+03 -0.40034148692E+03  0.16723664940E+02  0.99000264175E+03  0.89845298165E+03 0.  0.
         23    2    4    4    0    0 -0.25845906763E+03  0.14238319878E+03  0.22615810684E+03  0.38281178927E+03  0.91232186069E+02 0.  0.
         23    2    4    4    0    0  0.14739834853E+03 -0.54272468570E+03 -0.20943444190E+03  0.60719085248E+03  0.92420713399E+02 0.  0.
          4    1    3    3  502    0  0.70997373296E+02  0.29493045152E+03 -0.70918579920E+02  0.31153497914E+03  0.00000000000E+00 0. -1.
         -3    1    3    3    0  502  0.40063345810E+02  0.10541103539E+03 -0.78385189583E+02  0.13733461328E+03  0.00000000000E+00 0.  1.
         13    1    5    5    0    0 -0.97682600915E+02  0.23492354182E+02  0.35586152689E+02  0.10658403018E+03  0.00000000000E+00 0.  1.
        -13    1    5    5    0    0 -0.16077646672E+03  0.11889084460E+03  0.19057195415E+03  0.27622775909E+03  0.00000000000E+00 0. -1.
          3    1    6    6  503    0  0.10515170767E+03 -0.45744395731E+03 -0.14142538076E+03  0.49021729266E+03  0.00000000000E+00 0. -1.
         -3    1    6    6    0  503  0.42246640862E+02 -0.85280728393E+02 -0.68009061143E+02  0.11697355982E+03  0.00000000000E+00 0.  1.
<mgrwt>
<rscale>  0 0.14327511E+04</rscale>
<asrwt>0</asrwt>
<pdfrwt beam="1">  1        2 0.12088095E+00 0.14327511E+04</pdfrwt>
<pdfrwt beam="2">  1       -1 0.10048401E+00 0.14327511E+04</pdfrwt>
<totfact> 0.36884143E+01</totfact>
</mgrwt>
</event>
<event>
12    7  0.1660832E-007  0.1928364E+04  0.7818608E-02  0.8640865E-01
          4   -1    0    0  501    0  0.00000000000E+00  0.00000000000E+00  0.17508262191E+04  0.17508262191E+04  0.00000000000E+00 0. -1.
         -3   -1    0    0    0  501 -0.00000000000E+00 -0.00000000000E+00 -0.53097619359E+03  0.53097619359E+03  0.00000000000E+00 0.  1.
         24    2    1    2    0    0 -0.50192700409E+03 -0.16823453214E+03  0.11150603807E+04  0.12368607785E+04  0.78938947478E+02 0.  0.
        254    2    1    2    0    0  0.50192700409E+03  0.16823453214E+03  0.10478964485E+03  0.10449416343E+04  0.89481203285E+03 0.  0.
         23    2    4    4    0    0  0.42966316511E+03  0.18857147643E+03  0.46426435574E+03  0.66645280499E+03  0.91914700145E+02 0.  0.
         23    2    4    4    0    0  0.72263838984E+02 -0.20336944290E+02 -0.35947471088E+03  0.37848882928E+03  0.91630084559E+02 0.  0.
          2    1    3    3  502    0 -0.37538125116E+03 -0.93340912234E+02  0.84611154107E+03  0.93033776100E+03  0.00000000000E+00 0. -1.
         -1    1    3    3    0  502 -0.12654575293E+03 -0.74893619907E+02  0.26894883963E+03  0.30652301745E+03  0.00000000000E+00 0.  1.
         13    1    5    5    0    0  0.38502767912E+03  0.19323774465E+03  0.39858411901E+03  0.58690411447E+03  0.00000000000E+00 0. -1.
        -13    1    5    5    0    0  0.44635485982E+02 -0.46662682243E+01  0.65680236723E+02  0.79548690524E+02  0.00000000000E+00 0.  1.
          4    1    6    6  503    0  0.69408871246E+02 -0.44917731435E+02 -0.32901803404E+03  0.33924631277E+03  0.00000000000E+00 0. -1.
         -4    1    6    6    0  503  0.28549677381E+01  0.24580787145E+02 -0.30456676839E+02  0.39242516504E+02  0.00000000000E+00 0.  1.
<mgrwt>
<rscale>  0 0.19283641E+04</rscale>
<asrwt>0</asrwt>
<pdfrwt beam="1">  1        4 0.26935788E+00 0.19283641E+04</pdfrwt>
<pdfrwt beam="2">  1       -3 0.81688646E-01 0.19283641E+04</pdfrwt>
<totfact> 0.14186328E-01</totfact>
</mgrwt>
</event>
<event>
12    7  0.1660832E-007  0.1393681E+04  0.7818608E-02  0.8958405E-01
         -1   -1    0    0    0  501 -0.00000000000E+00  0.00000000000E+00  0.16275002139E+04  0.16275002139E+04  0.00000000000E+00 0.  1.
          2   -1    0    0  501    0  0.00000000000E+00 -0.00000000000E+00 -0.29836361517E+03  0.29836361517E+03  0.00000000000E+00 0. -1.
         24    2    1    2    0    0  0.50655291937E+01 -0.38155911327E+03  0.22270654822E+03  0.44874089381E+03  0.78467615326E+02 0.  0.
        254    2    1    2    0    0 -0.50655291937E+01  0.38155911327E+03  0.11064300505E+04  0.14771229352E+04  0.90116130225E+03 0.  0.
         23    2    4    4    0    0  0.12780201103E+03  0.63405863464E+03  0.90429964006E+03  0.11156222795E+04  0.92149473106E+02 0.  0.
         23    2    4    4    0    0 -0.13286754023E+03 -0.25249952137E+03  0.20213041041E+03  0.36150065569E+03  0.91740011529E+02 0.  0.
          2    1    3    3  502    0  0.19726627889E+02 -0.70391495749E+02  0.15848034687E+02  0.74801488789E+02  0.00000000000E+00 0. -1.
         -1    1    3    3    0  502 -0.14661098695E+02 -0.31116761752E+03  0.20685851353E+03  0.37393940503E+03  0.00000000000E+00 0.  1.
         13    1    5    5    0    0  0.64269960592E+02  0.20580210216E+03  0.23923300233E+03  0.32205211146E+03  0.00000000000E+00 0.  1.
        -13    1    5    5    0    0  0.63532050440E+02  0.42825653248E+03  0.66506663773E+03  0.79357016808E+03  0.00000000000E+00 0. -1.
          3    1    6    6  503    0 -0.59605097889E+02 -0.15941680210E+03  0.69952471551E+02  0.18401041482E+03  0.00000000000E+00 0. -1.
         -3    1    6    6    0  503 -0.73262442337E+02 -0.93082719268E+02  0.13217793886E+03  0.17749024087E+03  0.00000000000E+00 0.  1.
<mgrwt>
<rscale>  0 0.13936812E+04</rscale>
<asrwt>0</asrwt>
<pdfrwt beam="1">  1        2 0.45902096E-01 0.13936812E+04</pdfrwt>
<pdfrwt beam="2">  1       -1 0.25038464E+00 0.13936812E+04</pdfrwt>
<totfact> 0.85489037E+00</totfact>
</mgrwt>
</event>
<event>
12    7  0.1660832E-007  0.1504302E+04  0.7818608E-02  0.8881597E-01
          2   -1    0    0  501    0  0.00000000000E+00  0.00000000000E+00  0.64392573824E+03  0.64392573824E+03  0.00000000000E+00 0. -1.
         -1   -1    0    0    0  501 -0.00000000000E+00 -0.00000000000E+00 -0.87856612664E+03  0.87856612664E+03  0.00000000000E+00 0.  1.
         24    2    1    2    0    0 -0.47364385137E+03  0.65361739149E+02 -0.66204263047E+02  0.48928926976E+03  0.80064537594E+02 0.  0.
        254    2    1    2    0    0  0.47364385137E+03 -0.65361739149E+02 -0.16843612536E+03  0.10332025951E+04  0.90029229662E+03 0.  0.
         23    2    4    4    0    0  0.27604975096E+03 -0.27432604560E+03 -0.46287971822E+03  0.61174237916E+03  0.92265164670E+02 0.  0.
         23    2    4    4    0    0  0.19759410041E+03  0.20896430645E+03  0.29444359286E+03  0.42146021596E+03  0.90676206208E+02 0.  0.
          4    1    3    3  502    0 -0.21666626668E+03  0.91835395266E+01 -0.64455768307E+02  0.22623694346E+03  0.00000000000E+00 0. -1.
         -3    1    3    3    0  502 -0.25697758468E+03  0.56178199623E+02 -0.17484947398E+01  0.26305232631E+03  0.00000000000E+00 0.  1.
         13    1    5    5    0    0  0.68843127081E+02 -0.12835844967E+03 -0.14998817889E+03  0.20907348362E+03  0.00000000000E+00 0.  1.
        -13    1    5    5    0    0  0.20720662388E+03 -0.14596759593E+03 -0.31289153934E+03  0.40266889553E+03  0.00000000000E+00 0. -1.
          4    1    6    6  503    0  0.63513011736E+01  0.15661170720E+02  0.60302982804E+02  0.62626360504E+02  0.00000000000E+00 0. -1.
         -4    1    6    6    0  503  0.19124279923E+03  0.19330313573E+03  0.23414061006E+03  0.35883385546E+03  0.00000000000E+00 0.  1.
<mgrwt>
<rscale>  0 0.15043023E+04</rscale>
<asrwt>0</asrwt>
<pdfrwt beam="1">  1        2 0.99065499E-01 0.15043023E+04</pdfrwt>
<pdfrwt beam="2">  1       -1 0.13516402E+00 0.15043023E+04</pdfrwt>
<totfact> 0.23054071E+01</totfact>
</mgrwt>
</event>
<event>
12    7  0.1660832E-007  0.2408756E+04  0.7818608E-02  0.8436233E-01
         -1   -1    0    0    0  501 -0.00000000000E+00  0.00000000000E+00  0.12824202966E+04  0.12824202966E+04  0.00000000000E+00 0.  1.
          2   -1    0    0  501    0  0.00000000000E+00 -0.00000000000E+00 -0.11310849413E+04  0.11310849413E+04  0.00000000000E+00 0. -1.
         24    2    1    2    0    0  0.67496040475E+03  0.63116619169E+03  0.53799527682E+03  0.10725827090E+04  0.83978808249E+02 0.  0.
        254    2    1    2    0    0 -0.67496040475E+03 -0.63116619169E+03 -0.38665992151E+03  0.13409225289E+04  0.89141742412E+03 0.  0.
         23    2    4    4    0    0  0.15721978328E+03 -0.16226824320E+03  0.10186690571E+03  0.26414145556E+03  0.91349871712E+02 0.  0.
         23    2    4    4    0    0 -0.83218018803E+03 -0.46889794849E+03 -0.48852682723E+03  0.10767810733E+04  0.91705329672E+02 0.  0.
          4    1    3    3  502    0  0.65478464823E+02  0.95184001122E+02  0.81477481934E+02  0.14137186243E+03  0.00000000000E+00 0. -1.
         -3    1    3    3    0  502  0.60948193993E+03  0.53598219057E+03  0.45651779489E+03  0.93121084656E+03  0.00000000000E+00 0.  1.
         13    1    5    5    0    0  0.14725867785E+03 -0.17048332022E+03  0.80599132105E+02  0.23926115600E+03  0.00000000000E+00 0. -1.
        -13    1    5    5    0    0  0.99611054278E+01  0.82150770247E+01  0.21267773606E+02  0.24880299556E+02  0.00000000000E+00 0.  1.
          3    1    6    6  503    0 -0.19584614258E+03 -0.84879197427E+02 -0.14471199605E+03  0.25787933519E+03  0.00000000000E+00 0.  1.
         -3    1    6    6    0  503 -0.63633404545E+03 -0.38401875107E+03 -0.34381483118E+03  0.81890173813E+03  0.00000000000E+00 0. -1.
<mgrwt>
<rscale>  0 0.24087559E+04</rscale>
<asrwt>0</asrwt>
<pdfrwt beam="1">  1        2 0.17401307E+00 0.24087559E+04</pdfrwt>
<pdfrwt beam="2">  1       -1 0.19729543E+00 0.24087559E+04</pdfrwt>
<totfact> 0.33556939E+00</totfact>
</mgrwt>
</event>
<event>
12    7  0.1660832E-007  0.2064311E+04  0.7818608E-02  0.8577129E-01
          2   -1    0    0  501    0  0.00000000000E+00  0.00000000000E+00  0.15720516715E+04  0.15720516715E+04  0.00000000000E+00 0. -1.
         -1   -1    0    0    0  501 -0.00000000000E+00 -0.00000000000E+00 -0.67767836103E+03  0.67767836103E+03  0.00000000000E+00 0.  1.
         24    2    1    2    0    0  0.18219461400E+03 -0.32214490024E+02 -0.50367531791E+03  0.54225881141E+03  0.78250507602E+02 0.  0.
        254    2    1    2    0    0 -0.18219461400E+03  0.32214490024E+02  0.13980486284E+04  0.17074712211E+04  0.96264497758E+03 0.  0.
         23    2    4    4    0    0 -0.56318365412E+02  0.83476257043E+02 -0.11930429812E+03  0.18113888015E+03  0.91857142235E+02 0.  0.
         23    2    4    4    0    0 -0.12587624859E+03 -0.51261767019E+02  0.15173529265E+04  0.15263323409E+04  0.94116485185E+02 0.  0.
          2    1    3    3  502    0  0.12873290729E+03 -0.45190079945E+02 -0.27402628176E+03  0.30611224713E+03  0.00000000000E+00 0. -1.
         -1    1    3    3    0  502  0.53461706709E+02  0.12975589921E+02 -0.22964903615E+03  0.23614656428E+03  0.00000000000E+00 0.  1.
         13    1    5    5    0    0  0.25069508430E+02  0.26683302624E+02 -0.25846493253E+02  0.44816515988E+02  0.00000000000E+00 0.  1.
        -13    1    5    5    0    0 -0.81387873842E+02  0.56792954419E+02 -0.93457804870E+02  0.13632236416E+03  0.00000000000E+00 0. -1.
          2    1    6    6  503    0 -0.12561432848E+03 -0.69155607081E+02  0.12115237634E+04  0.12199800354E+04  0.00000000000E+00 0. -1.
         -2    1    6    6    0  503 -0.26192010852E+00  0.17893840062E+02  0.30582916313E+03  0.30635230558E+03  0.00000000000E+00 0.  1.
<mgrwt>
<rscale>  0 0.20643114E+04</rscale>
<asrwt>0</asrwt>
<pdfrwt beam="1">  1        2 0.24185410E+00 0.20643114E+04</pdfrwt>
<pdfrwt beam="2">  1       -1 0.10425821E+00 0.20643114E+04</pdfrwt>
<totfact> 0.10535889E+01</totfact>
</mgrwt>
</event>
<event>
12    7  0.1660832E-007  0.1308711E+04  0.7818608E-02  0.9022686E-01
         -1   -1    0    0    0  501 -0.00000000000E+00  0.00000000000E+00  0.22670274380E+03  0.22670274380E+03  0.00000000000E+00 0.  1.
          2   -1    0    0  501    0  0.00000000000E+00 -0.00000000000E+00 -0.18887338071E+04  0.18887338071E+04  0.00000000000E+00 0. -1.
         24    2    1    2    0    0  0.87694609389E+02 -0.80760697295E+02 -0.94701937000E+03  0.96086168989E+03  0.11043941870E+03 0.  0.
        254    2    1    2    0    0 -0.87694609389E+02  0.80760697295E+02 -0.71501169329E+03  0.11545748610E+04  0.89865942011E+03 0.  0.
         23    2    4    4    0    0  0.24485055827E+03 -0.25842751186E+02 -0.74678529407E+03  0.79204830234E+03  0.95039960695E+02 0.  0.
         23    2    4    4    0    0 -0.33254516766E+03  0.10660344848E+03  0.31773600787E+02  0.36252655865E+03  0.92007392413E+02 0.  0.
          2    1    3    3  502    0  0.11361173245E+03 -0.63827329589E+02 -0.80763643185E+03  0.81808200066E+03  0.00000000000E+00 0. -1.
         -1    1    3    3    0  502 -0.25917123060E+02 -0.16933367707E+02 -0.13938293815E+03  0.14277968923E+03  0.00000000000E+00 0.  1.
         13    1    5    5    0    0  0.23655494482E+03 -0.44426904274E+02 -0.71382176161E+03  0.75330836918E+03  0.00000000000E+00 0. -1.
        -13    1    5    5    0    0  0.82956134498E+01  0.18584153087E+02 -0.32963532468E+02  0.38739933160E+02  0.00000000000E+00 0.  1.
          4    1    6    6  503    0 -0.91417781861E+02 -0.50745065618E+01 -0.14786279664E+02  0.92744787042E+02  0.00000000000E+00 0.  1.
         -4    1    6    6    0  503 -0.24112738579E+03  0.11167795504E+03  0.46559880451E+02  0.26978177161E+03  0.00000000000E+00 0. -1.
<mgrwt>
<rscale>  0 0.13087110E+04</rscale>
<asrwt>0</asrwt>
<pdfrwt beam="1">  1        2 0.29057443E+00 0.13087110E+04</pdfrwt>
<pdfrwt beam="2">  1       -1 0.34877346E-01 0.13087110E+04</pdfrwt>
<totfact> 0.67156806E+01</totfact>
</mgrwt>
</event>
<event>
12    7  0.1660832E-007  0.1647230E+04  0.7818608E-02  0.8792047E-01
          2   -1    0    0  501    0  0.00000000000E+00  0.00000000000E+00  0.23517361225E+04  0.23517361225E+04  0.00000000000E+00 0. -1.
         -1   -1    0    0    0  501 -0.00000000000E+00 -0.00000000000E+00 -0.28844304510E+03  0.28844304510E+03  0.00000000000E+00 0.  1.
         24    2    1    2    0    0  0.28530131430E+03  0.38567601967E+03  0.20958147982E+03  0.52955953031E+03  0.79787639244E+02 0.  0.
        254    2    1    2    0    0 -0.28530131430E+03 -0.38567601967E+03  0.18537115976E+04  0.21106196373E+04  0.88787709409E+03 0.  0.
         23    2    4    4    0    0  0.18865572554E+03 -0.46459922689E+03  0.79026833372E+03  0.94019945780E+03  0.89484952682E+02 0.  0.
         23    2    4    4    0    0 -0.47395703984E+03  0.78923207220E+02  0.10634432638E+04  0.11704201795E+04  0.90042616903E+02 0.  0.
          4    1    3    3  502    0  0.14730057200E+03  0.14542045220E+03  0.11501388060E+03  0.23679687321E+03  0.00000000000E+00 0. -1.
         -3    1    3    3    0  502  0.13800074230E+03  0.24025556747E+03  0.94567599211E+02  0.29276265710E+03  0.00000000000E+00 0.  1.
         13    1    5    5    0    0  0.49948875288E+02 -0.12443021965E+03  0.14357292569E+03  0.19644580600E+03  0.00000000000E+00 0. -1.
        -13    1    5    5    0    0  0.13870685025E+03 -0.34016900724E+03  0.64669540802E+03  0.74375365179E+03  0.00000000000E+00 0.  1.
          2    1    6    6  503    0 -0.44289587883E+03  0.49128383299E+02  0.97878118463E+03  0.10754454728E+04  0.00000000000E+00 0.  1.
         -2    1    6    6    0  503 -0.31061161007E+02  0.29794823921E+02  0.84662079204E+02  0.94974706689E+02  0.00000000000E+00 0. -1.
<mgrwt>
<rscale>  0 0.16472303E+04</rscale>
<asrwt>0</asrwt>
<pdfrwt beam="1">  1        2 0.36180554E+00 0.16472303E+04</pdfrwt>
<pdfrwt beam="2">  1       -1 0.44375855E-01 0.16472303E+04</pdfrwt>
<totfact> 0.23199724E+01</totfact>
</mgrwt>
</event>
<event>
12    7  0.1660832E-007  0.1726192E+04  0.7818608E-02  0.8746566E-01
         -1   -1    0    0    0  501 -0.00000000000E+00  0.00000000000E+00  0.60995136141E+03  0.60995136141E+03  0.00000000000E+00 0.  1.
          2   -1    0    0  501    0  0.00000000000E+00 -0.00000000000E+00 -0.12213016627E+04  0.12213016627E+04  0.00000000000E+00 0. -1.
         24    2    1    2    0    0 -0.53455160256E+03  0.69481735194E+02 -0.56541328065E+03  0.78529479035E+03  0.80141141086E+02 0.  0.
        254    2    1    2    0    0  0.53455160256E+03 -0.69481735194E+02 -0.45937020687E+02  0.10459582338E+04  0.89517891488E+03 0.  0.
         23    2    4    4    0    0  0.10381593299E+03 -0.25041887853E+03  0.33200954758E+03  0.43849625114E+03  0.92527076661E+02 0.  0.
         23    2    4    4    0    0  0.43073566957E+03  0.18093714334E+03 -0.37794656827E+03  0.60746198265E+03  0.88853728253E+02 0.  0.
          2    1    3    3  502    0 -0.36963432308E+03  0.23755541224E+02 -0.42640124570E+03  0.56481136751E+03  0.00000000000E+00 0. -1.
         -1    1    3    3    0  502 -0.16491727948E+03  0.45726193970E+02 -0.13901203495E+03  0.22048342284E+03  0.00000000000E+00 0.  1.
         13    1    5    5    0    0  0.27537614794E+02 -0.17293905280E+02  0.82188181299E+02  0.88387196662E+02  0.00000000000E+00 0. -1.
        -13    1    5    5    0    0  0.76278318192E+02 -0.23312497325E+03  0.24982136628E+03  0.35010905448E+03  0.00000000000E+00 0.  1.
          3    1    6    6  503    0  0.25041017614E+03  0.69368008188E+02 -0.17029818816E+03  0.31067450775E+03  0.00000000000E+00 0. -1.
         -3    1    6    6    0  503  0.18032549343E+03  0.11156913515E+03 -0.20764838011E+03  0.29678747490E+03  0.00000000000E+00 0.  1.
<mgrwt>
<rscale>  0 0.17261919E+04</rscale>
<asrwt>0</asrwt>
<pdfrwt beam="1">  1        2 0.18789256E+00 0.17261919E+04</pdfrwt>
<pdfrwt beam="2">  1       -1 0.93838672E-01 0.17261919E+04</pdfrwt>
<totfact> 0.21925075E+01</totfact>
</mgrwt>
</event>
<event>
12    7  0.1660832E-007  0.2215930E+04  0.7818608E-02  0.8511827E-01
          2   -1    0    0  501    0  0.00000000000E+00  0.00000000000E+00  0.28840402740E+04  0.28840402740E+04  0.00000000000E+00 0. -1.
         -1   -1    0    0    0  501 -0.00000000000E+00 -0.00000000000E+00 -0.42564827806E+03  0.42564827806E+03  0.00000000000E+00 0.  1.
         24    2    1    2    0    0 -0.34126341692E+03  0.49930555095E+03 -0.11209947307E+02  0.61037949767E+03  0.81674447179E+02 0.  0.
        254    2    1    2    0    0  0.34126341692E+03 -0.49930555095E+03  0.24696019432E+04  0.26993090544E+04  0.90640435795E+03 0.  0.
         23    2    4    4    0    0 -0.18477900420E+03 -0.18776325713E+03  0.18908116322E+03  0.33649040970E+03  0.89865390552E+02 0.  0.
         23    2    4    4    0    0  0.52604242112E+03 -0.31154229382E+03  0.22805207800E+04  0.23628186447E+04  0.91420401963E+02 0.  0.
          2    1    3    3  502    0 -0.12581785215E+03  0.15825391332E+03  0.31920163182E+02  0.20467860127E+03  0.00000000000E+00 0. -1.
         -1    1    3    3    0  502 -0.21544556477E+03  0.34105163763E+03 -0.43130110489E+02  0.40570089640E+03  0.00000000000E+00 0.  1.
         13    1    5    5    0    0 -0.62987958501E+02 -0.65535731725E+02  0.12020553527E+03  0.15070429907E+03  0.00000000000E+00 0. -1.
        -13    1    5    5    0    0 -0.12179104570E+03 -0.12222752540E+03  0.68875627941E+02  0.18578611063E+03  0.00000000000E+00 0.  1.
          3    1    6    6  503    0  0.40712056505E+03 -0.22091361063E+03  0.15787721400E+04  0.16453180385E+04  0.00000000000E+00 0. -1.
         -3    1    6    6    0  503  0.11892185607E+03 -0.90628683198E+02  0.70174864004E+03  0.71750060618E+03  0.00000000000E+00 0.  1.
<mgrwt>
<rscale>  0 0.22159303E+04</rscale>
<asrwt>0</asrwt>
<pdfrwt beam="1">  1        2 0.44369849E+00 0.22159303E+04</pdfrwt>
<pdfrwt beam="2">  1       -1 0.65484352E-01 0.22159303E+04</pdfrwt>
<totfact> 0.50498694E+00</totfact>
</mgrwt>
</event>
<event>
12    7  0.1660832E-007  0.1840563E+04  0.7818608E-02  0.8685021E-01
         -1   -1    0    0    0  501 -0.00000000000E+00  0.00000000000E+00  0.69590233466E+03  0.69590233466E+03  0.00000000000E+00 0.  1.
          2   -1    0    0  501    0  0.00000000000E+00 -0.00000000000E+00 -0.12170075290E+04  0.12170075290E+04  0.00000000000E+00 0. -1.
         24    2    1    2    0    0  0.40634114332E+03  0.49492746235E+03  0.95166652823E+02  0.65230379609E+03  0.79857578480E+02 0.  0.
        254    2    1    2    0    0 -0.40634114332E+03 -0.49492746235E+03 -0.61627184719E+03  0.12606060676E+04  0.89401921135E+03 0.  0.
         23    2    4    4    0    0  0.11945996938E+02 -0.48829351811E+03  0.15823332862E+02  0.49688204650E+03  0.89822734323E+02 0.  0.
         23    2    4    4    0    0 -0.41828714026E+03 -0.66339442372E+01 -0.63209518005E+03  0.76372402109E+03  0.93391235266E+02 0.  0.
          4    1    3    3  502    0  0.22673873236E+02  0.31049417824E+02 -0.13189891964E+02  0.40646575806E+02  0.00000000000E+00 0. -1.
         -3    1    3    3    0  502  0.38366727009E+03  0.46387804452E+03  0.10835654479E+03  0.61165722028E+03  0.00000000000E+00 0.  1.
         13    1    5    5    0    0  0.11575756428E+02 -0.48776446698E+03  0.69154747883E+01  0.48795081430E+03  0.00000000000E+00 0. -1.
        -13    1    5    5    0    0  0.37024051011E+00 -0.52905112801E+00  0.89078580733E+01  0.89312321986E+01  0.00000000000E+00 0.  1.
          3    1    6    6  503    0 -0.32313307984E+03  0.20371998670E+02 -0.53352658125E+03  0.62408382331E+03  0.00000000000E+00 0. -1.
         -3    1    6    6    0  503 -0.95154060422E+02 -0.27005942907E+02 -0.98568598801E+02  0.13964019778E+03  0.00000000000E+00 0.  1.
<mgrwt>
<rscale>  0 0.18405634E+04</rscale>
<asrwt>0</asrwt>
<pdfrwt beam="1">  1        2 0.18723192E+00 0.18405634E+04</pdfrwt>
<pdfrwt beam="2">  1       -1 0.10706190E+00 0.18405634E+04</pdfrwt>
<totfact> 0.16151308E+01</totfact>
</mgrwt>
</event>
<event>
12    7  0.1660832E-007  0.1827514E+04  0.7818608E-02  0.8691803E-01
          2   -1    0    0  501    0  0.00000000000E+00  0.00000000000E+00  0.98904450807E+03  0.98904450807E+03  0.00000000000E+00 0. -1.
         -1   -1    0    0    0  501 -0.00000000000E+00 -0.00000000000E+00 -0.84420034049E+03  0.84420034049E+03  0.00000000000E+00 0.  1.
         24    2    1    2    0    0  0.32348768966E+03 -0.57550910472E+03  0.25784388652E+03  0.71326396984E+03  0.80043774737E+02 0.  0.
        254    2    1    2    0    0 -0.32348768966E+03  0.57550910472E+03 -0.11299971894E+03  0.11199808787E+04  0.89762643524E+03 0.  0.
         23    2    4    4    0    0 -0.51000952219E+02  0.16674650412E+03 -0.46657551663E+03  0.50604416680E+03  0.89344794316E+02 0.  0.
         23    2    4    4    0    0 -0.27248673744E+03  0.40876260061E+03  0.35357579769E+03  0.61393671192E+03  0.10279375371E+03 0.  0.
          2    1    3    3  502    0  0.18853900428E+03 -0.35028050918E+03  0.11365871552E+03  0.41371692600E+03  0.00000000000E+00 0. -1.
         -1    1    3    3    0  502  0.13494868538E+03 -0.22522859555E+03  0.14418517100E+03  0.29954704384E+03  0.00000000000E+00 0.  1.
         13    1    5    5    0    0 -0.51494011874E+02  0.32707918636E+02 -0.12442293735E+03  0.13857311622E+03  0.00000000000E+00 0.  1.
        -13    1    5    5    0    0  0.49305965575E+00  0.13403858548E+03 -0.34215257928E+03  0.36747105058E+03  0.00000000000E+00 0. -1.
          3    1    6    6  503    0 -0.27781309113E+03  0.40927507257E+03  0.34256660355E+03  0.60169600007E+03  0.00000000000E+00 0. -1.
         -3    1    6    6    0  503  0.53263536902E+01 -0.51247196273E+00  0.11009194140E+02  0.12240711857E+02  0.00000000000E+00 0.  1.
<mgrwt>
<rscale>  0 0.18275138E+04</rscale>
<asrwt>0</asrwt>
<pdfrwt beam="1">  1        2 0.15216069E+00 0.18275138E+04</pdfrwt>
<pdfrwt beam="2">  1       -1 0.12987698E+00 0.18275138E+04</pdfrwt>
<totfact> 0.13988799E+01</totfact>
</mgrwt>
</event>
<event>
12    7  0.1660832E-007  0.1467783E+04  0.7818608E-02  0.8906164E-01
         -1   -1    0    0    0  501 -0.00000000000E+00  0.00000000000E+00  0.30738057567E+03  0.30738057567E+03  0.00000000000E+00 0.  1.
          2   -1    0    0  501    0  0.00000000000E+00 -0.00000000000E+00 -0.17522140216E+04  0.17522140216E+04  0.00000000000E+00 0. -1.
         24    2    1    2    0    0  0.19521736146E+01  0.43662525490E+03 -0.29608354285E+03  0.53356007112E+03  0.79846483655E+02 0.  0.
        254    2    1    2    0    0 -0.19521736146E+01 -0.43662525490E+03 -0.11487499031E+04  0.15260345262E+04  0.90471520989E+03 0.  0.
         23    2    4    4    0    0 -0.32921290702E+03  0.51675503604E+02 -0.70172985009E+03  0.78231859677E+03  0.92445164948E+02 0.  0.
         23    2    4    4    0    0  0.32726073341E+03 -0.48830075850E+03 -0.44702005301E+03  0.74371592941E+03  0.88029753328E+02 0.  0.
          4    1    3    3  502    0  0.13251840256E+02  0.40233306018E+03 -0.29183007232E+03  0.49720447876E+03  0.00000000000E+00 0. -1.
         -3    1    3    3    0  502 -0.11299666641E+02  0.34292194715E+02 -0.42534705300E+01  0.36355592364E+02  0.00000000000E+00 0.  1.
         13    1    5    5    0    0 -0.30433233447E+03  0.73062599582E+02 -0.63856243782E+03  0.71113873489E+03  0.00000000000E+00 0. -1.
        -13    1    5    5    0    0 -0.24880572554E+02 -0.21387095977E+02 -0.63167412262E+02  0.71179861877E+02  0.00000000000E+00 0.  1.
          2    1    6    6  503    0  0.11975365934E+03 -0.25586130879E+03 -0.20095090242E+03  0.34668027554E+03  0.00000000000E+00 0. -1.
         -2    1    6    6    0  503  0.20750707407E+03 -0.23243944971E+03 -0.24606915060E+03  0.39703565387E+03  0.00000000000E+00 0.  1.
<mgrwt>
<rscale>  0 0.14677828E+04</rscale>
<asrwt>0</asrwt>
<pdfrwt beam="1">  1        2 0.26957139E+00 0.14677828E+04</pdfrwt>
<pdfrwt beam="2">  1       -1 0.47289318E-01 0.14677828E+04</pdfrwt>
<totfact> 0.45152745E+01</totfact>
</mgrwt>
</event>
<event>
12    7  0.1660832E-007  0.2637489E+04  0.7818608E-02  0.8355577E-01
         -1   -1    0    0    0  501 -0.00000000000E+00  0.00000000000E+00  0.13112851478E+04  0.13112851478E+04  0.00000000000E+00 0.  1.
          2   -1    0    0  501    0  0.00000000000E+00 -0.00000000000E+00 -0.13262467246E+04  0.13262467246E+04  0.00000000000E+00 0. -1.
         24    2    1    2    0    0 -0.62189257805E+03  0.74721367978E+03 -0.64766246227E+03  0.11709072557E+04  0.80488970858E+02 0.  0.
        254    2    1    2    0    0  0.62189257805E+03 -0.74721367978E+03  0.63270088547E+03  0.14666246167E+04  0.89755149939E+03 0.  0.
         23    2    4    4    0    0  0.36338629338E+03 -0.92251154583E+03  0.44012318745E+03  0.10887601937E+04  0.92807267781E+02 0.  0.
         23    2    4    4    0    0  0.25850628467E+03  0.17529786606E+03  0.19257769803E+03  0.37786442299E+03  0.90224782202E+02 0.  0.
          4    1    3    3  502    0 -0.39422935889E+03  0.41254607904E+03 -0.38679694994E+03  0.68936415284E+03  0.00000000000E+00 0. -1.
         -3    1    3    3    0  502 -0.22766321916E+03  0.33466760074E+03 -0.26086551234E+03  0.48154310282E+03  0.00000000000E+00 0.  1.
         13    1    5    5    0    0  0.20061885458E+01 -0.14628952683E+01 -0.36294169910E+01  0.43974450243E+01  0.00000000000E+00 0. -1.
        -13    1    5    5    0    0  0.36138010483E+03 -0.92104865057E+03  0.44375260444E+03  0.10843627487E+04  0.00000000000E+00 0.  1.
          1    1    6    6  503    0  0.14295137267E+03  0.57058801409E+02  0.12866400515E+03  0.20061213321E+03  0.00000000000E+00 0. -1.
         -1    1    6    6    0  503  0.11555491200E+03  0.11823906465E+03  0.63913692872E+02  0.17725228978E+03  0.00000000000E+00 0.  1.
<mgrwt>
<rscale>  0 0.26374894E+04</rscale>
<asrwt>0</asrwt>
<pdfrwt beam="1">  1        2 0.20403796E+00 0.26374894E+04</pdfrwt>
<pdfrwt beam="2">  1       -1 0.20173618E+00 0.26374894E+04</pdfrwt>
<totfact> 0.23476289E+00</totfact>
</mgrwt>
</event>
<event>
12    7  0.1660832E-007  0.1952385E+04  0.7818608E-02  0.8629211E-01
          2   -1    0    0  501    0  0.00000000000E+00  0.00000000000E+00  0.19239357226E+04  0.19239357226E+04  0.00000000000E+00 0. -1.
         -1   -1    0    0    0  501 -0.00000000000E+00 -0.00000000000E+00 -0.49531389691E+03  0.49531389691E+03  0.00000000000E+00 0.  1.
         24    2    1    2    0    0 -0.14425389768E+03  0.69589892386E+03  0.93904535700E+03  0.11804026533E+04  0.80372521526E+02 0.  0.
        254    2    1    2    0    0  0.14425389768E+03 -0.69589892386E+03  0.48957646866E+03  0.12388469662E+04  0.88880379594E+03 0.  0.
         23    2    4    4    0    0  0.13258219332E+01 -0.87678491871E+03  0.31550582444E+03  0.93603714958E+03  0.88702134441E+02 0.  0.
         23    2    4    4    0    0  0.14292807575E+03  0.18088599485E+03  0.17407064422E+03  0.30280981658E+03  0.90802080760E+02 0.  0.
          4    1    3    3  502    0 -0.14123866144E+03  0.51139573643E+03  0.68589598461E+03  0.86713739420E+03  0.00000000000E+00 0. -1.
         -3    1    3    3    0  502 -0.30152362360E+01  0.18450318743E+03  0.25314937239E+03  0.31326525911E+03  0.00000000000E+00 0.  1.
         13    1    5    5    0    0  0.34803425183E+02 -0.20625415830E+03  0.58918183331E+02  0.21730947644E+03  0.00000000000E+00 0. -1.
        -13    1    5    5    0    0 -0.33477603250E+02 -0.67053076041E+03  0.25658764111E+03  0.71872767314E+03  0.00000000000E+00 0.  1.
          4    1    6    6  503    0  0.15099701309E+03  0.14806705523E+03  0.16377143176E+03  0.26747903220E+03  0.00000000000E+00 0.  1.
         -4    1    6    6    0  503 -0.80689373454E+01  0.32818939624E+02  0.10299212465E+02  0.35330784386E+02  0.00000000000E+00 0. -1.
<mgrwt>
<rscale>  0 0.19523853E+04</rscale>
<asrwt>0</asrwt>
<pdfrwt beam="1">  1        2 0.29599011E+00 0.19523853E+04</pdfrwt>
<pdfrwt beam="2">  1       -1 0.76202139E-01 0.19523853E+04</pdfrwt>
<totfact> 0.13523404E+01</totfact>
</mgrwt>
</event>
<event>
12    7  0.1660832E-007  0.1594766E+04  0.7818608E-02  0.8823770E-01
          2   -1    0    0  501    0  0.00000000000E+00  0.00000000000E+00  0.17386727220E+04  0.17386727220E+04  0.00000000000E+00 0. -1.
         -1   -1    0    0    0  501 -0.00000000000E+00 -0.00000000000E+00 -0.36569255982E+03  0.36569255982E+03  0.00000000000E+00 0.  1.
         24    2    1    2    0    0 -0.31269316039E+03  0.41738094032E+03  0.29448552549E+03  0.60516693731E+03  0.86726209384E+02 0.  0.
        254    2    1    2    0    0  0.31269316039E+03 -0.41738094032E+03  0.10784946367E+04  0.14991983445E+04  0.90136625905E+03 0.  0.
         23    2    4    4    0    0  0.15883145011E+03 -0.67352342611E+02  0.10889950104E+04  0.11063407074E+04  0.91191340583E+02 0.  0.
         23    2    4    4    0    0  0.15386171028E+03 -0.35002859771E+03 -0.10500373667E+02  0.39285763715E+03  0.89629348533E+02 0.  0.
          2    1    3    3  502    0 -0.28689088097E+02  0.20251996471E+02  0.44409554699E+02  0.56616390608E+02  0.00000000000E+00 0. -1.
         -1    1    3    3    0  502 -0.28400407229E+03  0.39712894385E+03  0.25007597080E+03  0.54855054670E+03  0.00000000000E+00 0.  1.
         13    1    5    5    0    0  0.27734142493E+02 -0.57259139300E+02  0.34570735304E+03  0.35151296653E+03  0.00000000000E+00 0.  1.
        -13    1    5    5    0    0  0.13109730762E+03 -0.10093203311E+02  0.74328765733E+03  0.75482774085E+03  0.00000000000E+00 0. -1.
          1    1    6    6  503    0  0.24224527805E+02 -0.16469209594E+03 -0.83087990639E+01  0.16667138433E+03  0.00000000000E+00 0. -1.
         -1    1    6    6    0  503  0.12963718247E+03 -0.18533650177E+03 -0.21915746031E+01  0.22618625283E+03  0.00000000000E+00 0.  1.
<mgrwt>
<rscale>  0 0.15947660E+04</rscale>
<asrwt>0</asrwt>
<pdfrwt beam="1">  1        2 0.26748811E+00 0.15947660E+04</pdfrwt>
<pdfrwt beam="2">  1       -1 0.56260395E-01 0.15947660E+04</pdfrwt>
<totfact> 0.32604464E+01</totfact>
</mgrwt>
</event>
<event>
12    7  0.1660832E-007  0.2234849E+04  0.7818608E-02  0.8504061E-01
          2   -1    0    0  501    0  0.00000000000E+00  0.00000000000E+00  0.77293143483E+03  0.77293143483E+03  0.00000000000E+00 0. -1.
         -1   -1    0    0    0  501 -0.00000000000E+00 -0.00000000000E+00 -0.16154575123E+04  0.16154575123E+04  0.00000000000E+00 0.  1.
         24    2    1    2    0    0  0.87219688162E+03 -0.20795532521E+03 -0.61761230566E+03  0.10914417077E+04  0.76336254100E+02 0.  0.
        254    2    1    2    0    0 -0.87219688162E+03  0.20795532521E+03 -0.22491377176E+03  0.12969472394E+04  0.90967748095E+03 0.  0.
         23    2    4    4    0    0 -0.49100394262E+03  0.43374696308E+03  0.18405829721E+03  0.68670342737E+03  0.91993699464E+02 0.  0.
         23    2    4    4    0    0 -0.38119293900E+03 -0.22579163787E+03 -0.40897206897E+03  0.61024381198E+03  0.94071442969E+02 0.  0.
          4    1    3    3  502    0  0.52154682019E+03 -0.10528781296E+03 -0.40539572494E+03  0.66891128187E+03  0.00000000000E+00 0. -1.
         -3    1    3    3    0  502  0.35065006143E+03 -0.10266751225E+03 -0.21221658072E+03  0.42253042587E+03  0.00000000000E+00 0.  1.
         13    1    5    5    0    0 -0.47137412103E+03  0.42287676851E+03  0.19378565796E+03  0.66224708724E+03  0.00000000000E+00 0.  1.
        -13    1    5    5    0    0 -0.19629821588E+02  0.10870194566E+02 -0.97273607476E+01  0.24456340131E+02  0.00000000000E+00 0. -1.
          1    1    6    6  503    0 -0.30544292058E+02 -0.24291352307E+02 -0.79654611523E+02  0.88701075028E+02  0.00000000000E+00 0. -1.
         -1    1    6    6    0  503 -0.35064864694E+03 -0.20150028557E+03 -0.32931745745E+03  0.52154273695E+03  0.00000000000E+00 0.  1.
<mgrwt>
<rscale>  0 0.22348493E+04</rscale>
<asrwt>0</asrwt>
<pdfrwt beam="1">  1        2 0.11891253E+00 0.22348493E+04</pdfrwt>
<pdfrwt beam="2">  1       -1 0.24853192E+00 0.22348493E+04</pdfrwt>
<totfact> 0.26722289E+00</totfact>
</mgrwt>
</event>
<event>
12    7  0.1660832E-007  0.1948542E+04  0.7818608E-02  0.8631064E-01
          2   -1    0    0  501    0  0.00000000000E+00  0.00000000000E+00  0.29085428131E+04  0.29085428131E+04  0.00000000000E+00 0. -1.
         -1   -1    0    0    0  501 -0.00000000000E+00 -0.00000000000E+00 -0.32635035399E+03  0.32635035399E+03  0.00000000000E+00 0.  1.
         24    2    1    2    0    0  0.61598676379E+03 -0.20351244682E+03  0.17109054895E+04  0.18316479266E+04  0.82942895952E+02 0.  0.
        254    2    1    2    0    0 -0.61598676379E+03  0.20351244682E+03  0.87128696959E+03  0.14032452404E+04  0.88831256451E+03 0.  0.
         23    2    4    4    0    0 -0.73081855723E+03  0.30232482770E+03  0.92099813017E+03  0.12174470435E+04  0.91889514506E+02 0.  0.
         23    2    4    4    0    0  0.11483179344E+03 -0.98812380871E+02 -0.49711160577E+02  0.18579819696E+03  0.95391525349E+02 0.  0.
          2    1    3    3  502    0  0.50865028587E+03 -0.19867610754E+03  0.14022967343E+04  0.15048699080E+04  0.00000000000E+00 0. -1.
         -1    1    3    3    0  502  0.10733647792E+03 -0.48363392805E+01  0.30860875521E+03  0.32677801863E+03  0.00000000000E+00 0.  1.
         13    1    5    5    0    0 -0.78725807051E+02  0.26801139297E+02  0.58726501899E+02  0.10180793578E+03  0.00000000000E+00 0. -1.
        -13    1    5    5    0    0 -0.65209275018E+03  0.27552368840E+03  0.86227162827E+03  0.11156391077E+04  0.00000000000E+00 0.  1.
          1    1    6    6  503    0  0.68437611724E-01  0.13374086394E+02  0.76014253363E+01  0.15383515129E+02  0.00000000000E+00 0. -1.
         -1    1    6    6    0  503  0.11476335583E+03 -0.11218646726E+03 -0.57312585914E+02  0.17041468183E+03  0.00000000000E+00 0.  1.
<mgrwt>
<rscale>  0 0.19485420E+04</rscale>
<asrwt>0</asrwt>
<pdfrwt beam="1">  1        2 0.44746811E+00 0.19485420E+04</pdfrwt>
<pdfrwt beam="2">  1       -1 0.50207749E-01 0.19485420E+04</pdfrwt>
<totfact> 0.84128408E+00</totfact>
</mgrwt>
</event>
<event>
12    7  0.1660832E-007  0.1907823E+04  0.7818608E-02  0.8650972E-01
          2   -1    0    0  501    0  0.00000000000E+00  0.00000000000E+00  0.92963700438E+03  0.92963700438E+03  0.00000000000E+00 0. -1.
         -1   -1    0    0    0  501 -0.00000000000E+00 -0.00000000000E+00 -0.97881935585E+03  0.97881935585E+03  0.00000000000E+00 0.  1.
         24    2    1    2    0    0  0.11607195592E+03  0.58309947695E+03  0.41654604798E+03  0.73035444438E+03  0.80182949443E+02 0.  0.
        254    2    1    2    0    0 -0.11607195592E+03 -0.58309947695E+03 -0.46572839944E+03  0.11781019158E+04  0.90418111190E+03 0.  0.
         23    2    4    4    0    0  0.20449014071E+03  0.12571126199E+03  0.18793315239E+02  0.25740279099E+03  0.91013565322E+02 0.  0.
         23    2    4    4    0    0 -0.32056209663E+03 -0.70881073893E+03 -0.48452171468E+03  0.92069912486E+03  0.88050355449E+02 0.  0.
          2    1    3    3  502    0  0.11027008711E+03  0.55104758775E+03  0.41336423674E+03  0.69762663960E+03  0.00000000000E+00 0. -1.
         -1    1    3    3    0  502  0.58018688099E+01  0.32051889200E+02  0.31818112393E+01  0.32727804780E+02  0.00000000000E+00 0.  1.
         13    1    5    5    0    0  0.16868039454E+03  0.13207086351E+03  0.35883625789E+02  0.21721745577E+03  0.00000000000E+00 0. -1.
        -13    1    5    5    0    0  0.35809746172E+02 -0.63596015192E+01 -0.17090310550E+02  0.40185335225E+02  0.00000000000E+00 0.  1.
          2    1    6    6  503    0 -0.28550094259E+03 -0.59773534303E+03 -0.37702578813E+03  0.76219864435E+03  0.00000000000E+00 0. -1.
         -2    1    6    6    0  503 -0.35061154037E+02 -0.11107539590E+03 -0.10749592655E+03  0.15850048051E+03  0.00000000000E+00 0.  1.
<mgrwt>
<rscale>  0 0.19078225E+04</rscale>
<asrwt>0</asrwt>
<pdfrwt beam="1">  1        2 0.14302108E+00 0.19078225E+04</pdfrwt>
<pdfrwt beam="2">  1       -1 0.15058759E+00 0.19078225E+04</pdfrwt>
<totfact> 0.10326487E+01</totfact>
</mgrwt>
</event>
<event>
12    7  0.1660832E-007  0.2952000E+04  0.7818608E-02  0.8257572E-01
         -1   -1    0    0    0  501 -0.00000000000E+00  0.00000000000E+00  0.10765825902E+04  0.10765825902E+04  0.00000000000E+00 0.  1.
          2   -1    0    0  501    0  0.00000000000E+00 -0.00000000000E+00 -0.20236029022E+04  0.20236029022E+04  0.00000000000E+00 0. -1.
         24    2    1    2    0    0 -0.33999501011E+03  0.10790549734E+03  0.92391774037E+03  0.99357347332E+03  0.79523912472E+02 0.  0.
        254    2    1    2    0    0  0.33999501011E+03 -0.10790549734E+03 -0.18709380524E+04  0.21066120190E+04  0.90009155072E+03 0.  0.
         23    2    4    4    0    0 -0.15412175940E+03 -0.98989019019E+02 -0.14095467791E+04  0.14243839039E+04  0.92168544642E+02 0.  0.
         23    2    4    4    0    0  0.49411676951E+03 -0.89164783162E+01 -0.46139127326E+03  0.68222811511E+03  0.91227235631E+02 0.  0.
          4    1    3    3  502    0 -0.64066381594E+02  0.49676039201E+02  0.16225534079E+03  0.18138083067E+03  0.00000000000E+00 0. -1.
         -1    1    3    3    0  502 -0.27592862851E+03  0.58229458135E+02  0.76166239959E+03  0.81219264265E+03  0.00000000000E+00 0.  1.
         13    1    5    5    0    0 -0.10279449281E+03 -0.92007950235E+02 -0.12237423173E+04  0.12314939829E+04  0.00000000000E+00 0. -1.
        -13    1    5    5    0    0 -0.51327266593E+02 -0.69810687841E+01 -0.18580446181E+03  0.19288992105E+03  0.00000000000E+00 0.  1.
          4    1    6    6  503    0  0.33022640131E+03 -0.36598262688E+01 -0.24740764848E+03  0.41264199372E+03  0.00000000000E+00 0. -1.
         -4    1    6    6    0  503  0.16389036820E+03 -0.52566520474E+01 -0.21398362478E+03  0.26958612140E+03  0.00000000000E+00 0.  1.
<mgrwt>
<rscale>  0 0.29519998E+04</rscale>
<asrwt>0</asrwt>
<pdfrwt beam="1">  1        2 0.31132352E+00 0.29519998E+04</pdfrwt>
<pdfrwt beam="2">  1       -1 0.16562809E+00 0.29519998E+04</pdfrwt>
<totfact> 0.16798789E+00</totfact>
</mgrwt>
</event>
<event>
12    7  0.1660832E-007  0.3217317E+04  0.7818608E-02  0.8184259E-01
          2   -1    0    0  501    0  0.00000000000E+00  0.00000000000E+00  0.20255728142E+04  0.20255728142E+04  0.00000000000E+00 0. -1.
         -1   -1    0    0    0  501 -0.00000000000E+00 -0.00000000000E+00 -0.12775555298E+04  0.12775555298E+04  0.00000000000E+00 0.  1.
         24    2    1    2    0    0  0.47828110716E+03  0.12286546706E+04  0.10384390545E+04  0.16801922184E+04  0.79656158426E+02 0.  0.
        254    2    1    2    0    0 -0.47828110716E+03 -0.12286546706E+04 -0.29042177009E+03  0.16229361257E+04  0.90068404360E+03 0.  0.
         23    2    4    4    0    0 -0.65029302643E+03 -0.46918459582E+03 -0.20835398158E+03  0.83464194233E+03  0.10099794596E+03 0.  0.
         23    2    4    4    0    0  0.17201191927E+03 -0.75947007479E+03 -0.82067788509E+02  0.78829418334E+03  0.91047804510E+02 0.  0.
          2    1    3    3  502    0  0.28258809275E+03  0.66424914838E+03  0.60973141059E+03  0.94491023613E+03  0.00000000000E+00 0. -1.
         -1    1    3    3    0  502  0.19569301442E+03  0.56440552222E+03  0.42870764396E+03  0.73528198223E+03  0.00000000000E+00 0.  1.
         13    1    5    5    0    0 -0.52528821144E+03 -0.33236456321E+03 -0.14051932610E+03  0.63729081977E+03  0.00000000000E+00 0.  1.
        -13    1    5    5    0    0 -0.12500481499E+03 -0.13682003261E+03 -0.67834655472E+02  0.19735112256E+03  0.00000000000E+00 0. -1.
          4    1    6    6  503    0  0.14319534178E+03 -0.48968891464E+03 -0.23549420724E+02  0.51073937996E+03  0.00000000000E+00 0. -1.
         -4    1    6    6    0  503  0.28816577491E+02 -0.26978116015E+03 -0.58518367785E+02  0.27755480338E+03  0.00000000000E+00 0.  1.
<mgrwt>
<rscale>  0 0.32173167E+04</rscale>
<asrwt>0</asrwt>
<pdfrwt beam="1">  1        2 0.31162659E+00 0.32173167E+04</pdfrwt>
<pdfrwt beam="2">  1       -1 0.19654700E+00 0.32173167E+04</pdfrwt>
<totfact> 0.98338841E-01</totfact>
</mgrwt>
</event>
<event>
12    7  0.1660832E-007  0.1925510E+04  0.7818608E-02  0.8642261E-01
         -1   -1    0    0    0  501 -0.00000000000E+00  0.00000000000E+00  0.86524526818E+03  0.86524526818E+03  0.00000000000E+00 0.  1.
          2   -1    0    0  501    0  0.00000000000E+00 -0.00000000000E+00 -0.10712541068E+04  0.10712541068E+04  0.00000000000E+00 0. -1.
         24    2    1    2    0    0  0.48872806063E+03 -0.29908848068E+03  0.40636371458E+03  0.70700984404E+03  0.80139968238E+02 0.  0.
        254    2    1    2    0    0 -0.48872806063E+03  0.29908848068E+03 -0.61237255316E+03  0.12294895309E+04  0.89907470557E+03 0.  0.
         23    2    4    4    0    0 -0.27374207156E+03  0.46782504826E+03  0.33578790810E+01  0.54973606898E+03  0.91670456895E+02 0.  0.
         23    2    4    4    0    0 -0.21498598908E+03 -0.16873656758E+03 -0.61573043224E+03  0.67975346192E+03  0.90828404514E+02 0.  0.
          2    1    3    3  502    0  0.15682833979E+03 -0.14083363098E+03  0.14245709930E+03  0.25440767465E+03  0.00000000000E+00 0. -1.
         -1    1    3    3    0  502  0.33189972084E+03 -0.15825484970E+03  0.26390661528E+03  0.45260216939E+03  0.00000000000E+00 0.  1.
         13    1    5    5    0    0 -0.15118092097E+03  0.32196117079E+03 -0.27431222737E+02  0.35674520087E+03  0.00000000000E+00 0.  1.
        -13    1    5    5    0    0 -0.12256115059E+03  0.14586387747E+03  0.30789101818E+02  0.19299086811E+03  0.00000000000E+00 0. -1.
          2    1    6    6  503    0 -0.18147970008E+03 -0.15320400951E+03 -0.43820793103E+03  0.49843007623E+03  0.00000000000E+00 0. -1.
         -2    1    6    6    0  503 -0.33506289000E+02 -0.15532558067E+02 -0.17752250121E+03  0.18132338569E+03  0.00000000000E+00 0.  1.
<mgrwt>
<rscale>  0 0.19255104E+04</rscale>
<asrwt>0</asrwt>
<pdfrwt beam="1">  1        2 0.16480832E+00 0.19255104E+04</pdfrwt>
<pdfrwt beam="2">  1       -1 0.13311466E+00 0.19255104E+04</pdfrwt>
<totfact> 0.11557198E+01</totfact>
</mgrwt>
</event>
<event>
12    7  0.1660832E-007  0.1421924E+04  0.7818608E-02  0.8938100E-01
         -1   -1    0    0    0  501 -0.00000000000E+00  0.00000000000E+00  0.61419851393E+03  0.61419851393E+03  0.00000000000E+00 0.  1.
          2   -1    0    0  501    0  0.00000000000E+00 -0.00000000000E+00 -0.82296965750E+03  0.82296965750E+03  0.00000000000E+00 0. -1.
         24    2    1    2    0    0  0.95678219888E+02  0.10071719363E+03  0.34203831827E+03  0.37750265338E+03  0.78865501257E+02 0.  0.
        254    2    1    2    0    0 -0.95678219888E+02 -0.10071719363E+03 -0.55080946184E+03  0.10596655181E+04  0.89453992200E+03 0.  0.
         23    2    4    4    0    0  0.11982152269E+03 -0.17851252611E+02  0.21021586069E+03  0.25921625757E+03  0.91249633319E+02 0.  0.
         23    2    4    4    0    0 -0.21549974258E+03 -0.82865941024E+02 -0.76102532253E+03  0.80044926049E+03  0.90843678124E+02 0.  0.
          2    1    3    3  502    0  0.17201901812E+02  0.47202762800E+02  0.20294391216E+03  0.20906993501E+03  0.00000000000E+00 0. -1.
         -1    1    3    3    0  502  0.78476318076E+02  0.53514430835E+02  0.13909440611E+03  0.16843271837E+03  0.00000000000E+00 0.  1.
         13    1    5    5    0    0  0.14185466329E+02 -0.13461022477E+02  0.11588821366E+03  0.11752661250E+03  0.00000000000E+00 0.  1.
        -13    1    5    5    0    0  0.10563605636E+03 -0.43902301343E+01  0.94327647035E+02  0.14168964507E+03  0.00000000000E+00 0. -1.
          1    1    6    6  503    0  0.75770127377E+01 -0.37093346131E+01 -0.10426413920E+02  0.13411949617E+02  0.00000000000E+00 0. -1.
         -1    1    6    6    0  503 -0.22307675531E+03 -0.79156606411E+02 -0.75059890861E+03  0.78703731088E+03  0.00000000000E+00 0.  1.
<mgrwt>
<rscale>  0 0.14219237E+04</rscale>
<asrwt>0</asrwt>
<pdfrwt beam="1">  1        2 0.12661072E+00 0.14219237E+04</pdfrwt>
<pdfrwt beam="2">  1       -1 0.94492079E-01 0.14219237E+04</pdfrwt>
<totfact> 0.39887050E+01</totfact>
</mgrwt>
</event>
<event>
12    7  0.1660832E-007  0.1613548E+04  0.7818608E-02  0.8812268E-01
         -1   -1    0    0    0  501 -0.00000000000E+00  0.00000000000E+00  0.25170571568E+03  0.25170571568E+03  0.00000000000E+00 0.  1.
          2   -1    0    0  501    0  0.00000000000E+00 -0.00000000000E+00 -0.25858950984E+04  0.25858950984E+04  0.00000000000E+00 0. -1.
         24    2    1    2    0    0  0.40917764494E+03 -0.34170435874E+03 -0.80008231505E+03  0.96467319320E+03  0.79211393867E+02 0.  0.
        254    2    1    2    0    0 -0.40917764494E+03  0.34170435874E+03 -0.15341070677E+04  0.18729276209E+04  0.93283715841E+03 0.  0.
         23    2    4    4    0    0  0.10693308843E+03 -0.24077785860E+03 -0.28818762697E+03  0.40109840469E+03  0.91755977021E+02 0.  0.
         23    2    4    4    0    0 -0.51611073337E+03  0.58248221733E+03 -0.12459194407E+04  0.14718292162E+04  0.91160113597E+02 0.  0.
          4    1    3    3  502    0  0.40591680562E+03 -0.33940445706E+03 -0.80153376271E+03  0.96042709839E+03  0.00000000000E+00 0. -1.
         -3    1    3    3    0  502  0.32608393267E+01 -0.22999016767E+01  0.14514476589E+01  0.42460948110E+01  0.00000000000E+00 0.  1.
         13    1    5    5    0    0  0.96837899250E+02 -0.21000189245E+03 -0.19517633936E+03  0.30260895064E+03  0.00000000000E+00 0. -1.
        -13    1    5    5    0    0  0.10095189176E+02 -0.30775966153E+02 -0.93011287610E+02  0.98489454055E+02  0.00000000000E+00 0.  1.
          1    1    6    6  503    0 -0.42308398883E+03  0.41916357470E+03 -0.94067917073E+03  0.11133622349E+04  0.00000000000E+00 0. -1.
         -1    1    6    6    0  503 -0.93026744538E+02  0.16331864263E+03 -0.30524027001E+03  0.35846698128E+03  0.00000000000E+00 0.  1.
<mgrwt>
<rscale>  0 0.16135484E+04</rscale>
<asrwt>0</asrwt>
<pdfrwt beam="1">  1        2 0.39783000E+00 0.16135484E+04</pdfrwt>
<pdfrwt beam="2">  1       -1 0.38723958E-01 0.16135484E+04</pdfrwt>
<totfact> 0.21924530E+01</totfact>
</mgrwt>
</event>
<event>
12    7  0.1796021E-007  0.1627372E+04  0.7818608E-02  0.8803906E-01
         -1   -1    0    0    0  501 -0.00000000000E+00  0.00000000000E+00  0.41452753296E+03  0.41452753296E+03  0.00000000000E+00 0.  1.
          2   -1    0    0  501    0  0.00000000000E+00 -0.00000000000E+00 -0.15972042768E+04  0.15972042768E+04  0.00000000000E+00 0. -1.
         24    2    1    2    0    0  0.69449389285E+02  0.55709968350E+03 -0.30909571521E+03  0.64545172277E+03  0.76710431096E+02 0.  0.
        254    2    1    2    0    0 -0.69449389285E+02 -0.55709968350E+03 -0.87358102864E+03  0.13662800870E+04  0.88791564211E+03 0.  0.
         23    2    4    4    0    0 -0.46021063722E+03 -0.19490998183E+03 -0.46306089405E+03  0.68731776525E+03  0.90535005397E+02 0.  0.
         23    2    4    4    0    0  0.39076124793E+03 -0.36218970167E+03 -0.41052013460E+03  0.67896232175E+03  0.92667796836E+02 0.  0.
          4    1    3    3  502    0 -0.42357139951E+00  0.14948176862E+02  0.40263225836E+01  0.15486725857E+02  0.00000000000E+00 0. -1.
         -3    1    3    3    0  502  0.69872960684E+02  0.54215150664E+03 -0.31312203779E+03  0.62996499691E+03  0.00000000000E+00 0.  1.
         13    1    5    5    0    0 -0.21493261225E+03 -0.91780840969E+02 -0.27813647646E+03  0.36329003580E+03  0.00000000000E+00 0. -1.
        -13    1    5    5    0    0 -0.24527802497E+03 -0.10312914086E+03 -0.18492441759E+03  0.32402772944E+03  0.00000000000E+00 0.  1.
          1    1    6    6  503    0  0.32607660835E+03 -0.30666554966E+03 -0.29780409058E+03  0.53764020518E+03  0.00000000000E+00 0. -1.
         -1    1    6    6    0  503  0.64684639587E+02 -0.55524152013E+02 -0.11271604401E+03  0.14132211657E+03  0.00000000000E+00 0.  1.
<mgrwt>
<rscale>  0 0.16273723E+04</rscale>
<asrwt>0</asrwt>
<pdfrwt beam="1">  1        2 0.24572373E+00 0.16273723E+04</pdfrwt>
<pdfrwt beam="2">  1       -1 0.63773468E-01 0.16273723E+04</pdfrwt>
<totfact> 0.30426777E+01</totfact>
</mgrwt>
</event>
<event>
12    7  0.1660832E-007  0.1664717E+04  0.7818608E-02  0.8781748E-01
          2   -1    0    0  501    0  0.00000000000E+00  0.00000000000E+00  0.14529489225E+04  0.14529489225E+04  0.00000000000E+00 0. -1.
         -1   -1    0    0    0  501 -0.00000000000E+00 -0.00000000000E+00 -0.47683746361E+03  0.47683746361E+03  0.00000000000E+00 0.  1.
         24    2    1    2    0    0  0.41915480667E+01 -0.47377716843E+03 -0.54255396464E+02  0.48356233604E+03  0.80040679644E+02 0.  0.
        254    2    1    2    0    0 -0.41915480667E+01  0.47377716843E+03  0.10303668553E+04  0.14462240500E+04  0.89745516431E+03 0.  0.
         23    2    4    4    0    0 -0.36709001211E+03  0.68697955872E+02  0.16019821425E+03  0.41611453537E+03  0.89517331074E+02 0.  0.
         23    2    4    4    0    0  0.36289846405E+03  0.40507921255E+03  0.87016864106E+03  0.10301095146E+04  0.90264525942E+02 0.  0.
          2    1    3    3  502    0 -0.85910152923E+01 -0.43212237981E+03 -0.28952740953E+02  0.43317642813E+03  0.00000000000E+00 0. -1.
         -1    1    3    3    0  502  0.12782563359E+02 -0.41654788615E+02 -0.25302655511E+02  0.50385907915E+02  0.00000000000E+00 0.  1.
         13    1    5    5    0    0 -0.13904193199E+03  0.20669409447E+02  0.10805584453E+03  0.17730185807E+03  0.00000000000E+00 0.  1.
        -13    1    5    5    0    0 -0.22804808012E+03  0.48028546426E+02  0.52142369726E+02  0.23881267730E+03  0.00000000000E+00 0. -1.
          2    1    6    6  503    0  0.32765739858E+03  0.31657889872E+03  0.70385125827E+03  0.83844389421E+03  0.00000000000E+00 0. -1.
         -2    1    6    6    0  503  0.35241065464E+02  0.88500313835E+02  0.16631738278E+03  0.19166562044E+03  0.00000000000E+00 0.  1.
<mgrwt>
<rscale>  0 0.16647168E+04</rscale>
<asrwt>0</asrwt>
<pdfrwt beam="1">  1        2 0.22353060E+00 0.16647168E+04</pdfrwt>
<pdfrwt beam="2">  1       -1 0.73359610E-01 0.16647168E+04</pdfrwt>
<totfact> 0.27482269E+01</totfact>
</mgrwt>
</event>
<event>
12    7  0.1660832E-007  0.1557211E+04  0.7818608E-02  0.8847275E-01
         -1   -1    0    0    0  501 -0.00000000000E+00  0.00000000000E+00  0.37315879716E+03  0.37315879716E+03  0.00000000000E+00 0.  1.
          2   -1    0    0  501    0  0.00000000000E+00 -0.00000000000E+00 -0.16245815820E+04  0.16245815820E+04  0.00000000000E+00 0. -1.
         24    2    1    2    0    0  0.64403249155E+02 -0.46895623336E+03 -0.67885631277E+03  0.83161195965E+03  0.81638414576E+02 0.  0.
        254    2    1    2    0    0 -0.64403249155E+02  0.46895623336E+03 -0.57256647202E+03  0.11661284195E+04  0.89886339255E+03 0.  0.
         23    2    4    4    0    0  0.22437894251E+03  0.16390696953E+03 -0.66442827079E+03  0.72651752842E+03  0.95662884979E+02 0.  0.
         23    2    4    4    0    0 -0.28878219166E+03  0.30504926384E+03  0.91861798772E+02  0.43961089104E+03  0.91481899090E+02 0.  0.
          4    1    3    3  502    0  0.68671624938E+02 -0.36317937802E+03 -0.57326748803E+03  0.68209285697E+03  0.00000000000E+00 0. -1.
         -3    1    3    3    0  502 -0.42683757833E+01 -0.10577685534E+03 -0.10558882474E+03  0.14951910269E+03  0.00000000000E+00 0.  1.
         13    1    5    5    0    0  0.10759112264E+02  0.40318999577E+02 -0.15404829649E+03  0.15960030662E+03  0.00000000000E+00 0. -1.
        -13    1    5    5    0    0  0.21361983025E+03  0.12358796995E+03 -0.51037997431E+03  0.56691722179E+03  0.00000000000E+00 0.  1.
          3    1    6    6  503    0 -0.82446656034E+02  0.14143740863E+03  0.59989757075E+02  0.17435814465E+03  0.00000000000E+00 0. -1.
         -3    1    6    6    0  503 -0.20633553563E+03  0.16361185520E+03  0.31872041697E+02  0.26525274639E+03  0.00000000000E+00 0.  1.
<mgrwt>
<rscale>  0 0.15572115E+04</rscale>
<asrwt>0</asrwt>
<pdfrwt beam="1">  1        2 0.24993563E+00 0.15572115E+04</pdfrwt>
<pdfrwt beam="2">  1       -1 0.57409045E-01 0.15572115E+04</pdfrwt>
<totfact> 0.36387332E+01</totfact>
</mgrwt>
</event>
<event>
12    7  0.1660832E-007  0.2159133E+04  0.7818608E-02  0.8535633E-01
         -1   -1    0    0    0  501 -0.00000000000E+00  0.00000000000E+00  0.33644900792E+03  0.33644900792E+03  0.00000000000E+00 0.  1.
          2   -1    0    0  501    0  0.00000000000E+00 -0.00000000000E+00 -0.34640143958E+04  0.34640143958E+04  0.00000000000E+00 0. -1.
         24    2    1    2    0    0 -0.57197941288E+03 -0.56034825567E+03 -0.61405260583E+03  0.10126380781E+04  0.84997989301E+02 0.  0.
        254    2    1    2    0    0  0.57197941288E+03  0.56034825567E+03 -0.25135127821E+04  0.27878253256E+04  0.90170556394E+03 0.  0.
         23    2    4    4    0    0  0.51558796429E+01  0.52847535037E+03 -0.67815160748E+03  0.86441578687E+03  0.89511288745E+02 0.  0.
         23    2    4    4    0    0  0.56682353323E+03  0.31872905295E+02 -0.18353611746E+04  0.19234095387E+04  0.92998992309E+02 0.  0.
          2    1    3    3  502    0 -0.48212974036E+02 -0.47126486198E+02 -0.24496423420E+02  0.71731940773E+02  0.00000000000E+00 0. -1.
         -1    1    3    3    0  502 -0.52376643884E+03 -0.51322176947E+03 -0.58955618241E+03  0.94090613737E+03  0.00000000000E+00 0.  1.
         13    1    5    5    0    0 -0.35786533409E+01  0.33619753833E+02 -0.87552982866E+02  0.93854245595E+02  0.00000000000E+00 0.  1.
        -13    1    5    5    0    0  0.87345329838E+01  0.49485559654E+03 -0.59059862461E+03  0.77056154127E+03  0.00000000000E+00 0. -1.
          4    1    6    6  503    0  0.55693736883E+03  0.31835694903E+02 -0.18275984695E+04  0.19108398442E+04  0.00000000000E+00 0. -1.
         -4    1    6    6    0  503  0.98861644064E+01  0.37210391677E-01 -0.77627050538E+01  0.12569694548E+02  0.00000000000E+00 0.  1.
<mgrwt>
<rscale>  0 0.21591334E+04</rscale>
<asrwt>0</asrwt>
<pdfrwt beam="1">  1        2 0.53292529E+00 0.21591334E+04</pdfrwt>
<pdfrwt beam="2">  1       -1 0.51761386E-01 0.21591334E+04</pdfrwt>
<totfact> 0.33893485E+00</totfact>
</mgrwt>
</event>
<event>
12    7  0.1660832E-007  0.2792044E+04  0.7818608E-02  0.8305743E-01
         -1   -1    0    0    0  501 -0.00000000000E+00  0.00000000000E+00  0.84789396263E+03  0.84789396263E+03  0.00000000000E+00 0.  1.
          2   -1    0    0  501    0  0.00000000000E+00 -0.00000000000E+00 -0.22984916908E+04  0.22984916908E+04  0.00000000000E+00 0. -1.
         24    2    1    2    0    0  0.53362458059E+03 -0.11091499230E+04 -0.48041713002E+03  0.13236386163E+04  0.79055822523E+02 0.  0.
        254    2    1    2    0    0 -0.53362458059E+03  0.11091499230E+04 -0.97018059815E+03  0.18227470371E+04  0.93069201332E+03 0.  0.
         23    2    4    4    0    0 -0.31367820768E+03  0.11092830848E+04 -0.43102269642E+03  0.12341497620E+04  0.91880846566E+02 0.  0.
         23    2    4    4    0    0 -0.21994637291E+03 -0.13316180182E+00 -0.53915790173E+03  0.58859727516E+03  0.85901598595E+02 0.  0.
          2    1    3    3  502    0  0.40490578750E+03 -0.76128234478E+03 -0.34666463293E+03  0.92934163414E+03  0.00000000000E+00 0. -1.
         -1    1    3    3    0  502  0.12871879309E+03 -0.34786757821E+03 -0.13375249710E+03  0.39429698217E+03  0.00000000000E+00 0.  1.
         13    1    5    5    0    0 -0.24672940677E+03  0.96528060884E+03 -0.35110294774E+03  0.10563689383E+04  0.00000000000E+00 0. -1.
        -13    1    5    5    0    0 -0.66948800906E+02  0.14400247595E+03 -0.79919748688E+02  0.17778082364E+03  0.00000000000E+00 0.  1.
          1    1    6    6  503    0 -0.15311827582E+03 -0.34127714312E+02 -0.30911230537E+03  0.34664149291E+03  0.00000000000E+00 0. -1.
         -1    1    6    6    0  503 -0.66828097087E+02  0.33994552511E+02 -0.23004559636E+03  0.24195578225E+03  0.00000000000E+00 0.  1.
<mgrwt>
<rscale>  0 0.27920439E+04</rscale>
<asrwt>0</asrwt>
<pdfrwt beam="1">  1        2 0.35361411E+00 0.27920439E+04</pdfrwt>
<pdfrwt beam="2">  1       -1 0.13044522E+00 0.27920439E+04</pdfrwt>
<totfact> 0.22609468E+00</totfact>
</mgrwt>
</event>
<event>
12    7  0.1660832E-007  0.1804596E+04  0.7818608E-02  0.8703859E-01
         -1   -1    0    0    0  501 -0.00000000000E+00  0.00000000000E+00  0.31014098271E+03  0.31014098271E+03  0.00000000000E+00 0.  1.
          2   -1    0    0  501    0  0.00000000000E+00 -0.00000000000E+00 -0.26250704793E+04  0.26250704793E+04  0.00000000000E+00 0. -1.
         24    2    1    2    0    0 -0.55540247270E+03 -0.31730290475E+03 -0.12047732781E+04  0.13663849242E+04  0.79850293351E+02 0.  0.
        254    2    1    2    0    0  0.55540247270E+03  0.31730290475E+03 -0.11101562184E+04  0.15688265378E+04  0.90532692231E+03 0.  0.
         23    2    4    4    0    0  0.20553976025E+03  0.59997939026E+03 -0.74135127208E+03  0.97919210545E+03  0.83627800198E+02 0.  0.
         23    2    4    4    0    0  0.34986271245E+03 -0.28267648552E+03 -0.36880494636E+03  0.58963443233E+03  0.96652792542E+02 0.  0.
          4    1    3    3  502    0 -0.52706328945E+03 -0.31900661286E+03 -0.11456132699E+04  0.13007654263E+04  0.00000000000E+00 0. -1.
         -3    1    3    3    0  502 -0.28339183247E+02  0.17037081171E+01 -0.59160008222E+02  0.65619497875E+02  0.00000000000E+00 0.  1.
         13    1    5    5    0    0  0.61079690716E+02  0.18868247125E+03 -0.17496531228E+03  0.26447053536E+03  0.00000000000E+00 0. -1.
        -13    1    5    5    0    0  0.14446006954E+03  0.41129691902E+03 -0.56638595980E+03  0.71472157008E+03  0.00000000000E+00 0.  1.
          1    1    6    6  503    0  0.43759949802E+02 -0.67619261297E+01 -0.60486006772E+02  0.74961415855E+02  0.00000000000E+00 0. -1.
         -1    1    6    6    0  503  0.30610276264E+03 -0.27591455939E+03 -0.30831893958E+03  0.51467301647E+03  0.00000000000E+00 0.  1.
<mgrwt>
<rscale>  0 0.18045963E+04</rscale>
<asrwt>0</asrwt>
<pdfrwt beam="1">  1        2 0.40385700E+00 0.18045963E+04</pdfrwt>
<pdfrwt beam="2">  1       -1 0.47713997E-01 0.18045963E+04</pdfrwt>
<totfact> 0.13888481E+01</totfact>
</mgrwt>
</event>
<event>
12    7  0.1660832E-007  0.1440241E+04  0.7818608E-02  0.8925194E-01
         -3   -1    0    0    0  501 -0.00000000000E+00  0.00000000000E+00  0.16951196425E+04  0.16951196425E+04  0.00000000000E+00 0.  1.
          2   -1    0    0  501    0  0.00000000000E+00 -0.00000000000E+00 -0.30592141523E+03  0.30592141523E+03  0.00000000000E+00 0. -1.
         24    2    1    2    0    0 -0.19998700449E+03 -0.16688383659E+03  0.81341997248E+03  0.85782578806E+03  0.79799837983E+02 0.  0.
        254    2    1    2    0    0  0.19998700449E+03  0.16688383659E+03  0.57577825480E+03  0.11432152697E+04  0.95266759011E+03 0.  0.
         23    2    4    4    0    0  0.52159205534E+02 -0.24963505226E+03  0.63277689098E+03  0.68815984004E+03  0.90106213114E+02 0.  0.
         23    2    4    4    0    0  0.14782779896E+03  0.41651888885E+03 -0.56998636176E+02  0.45505542965E+03  0.92117080975E+02 0.  0.
          2    1    3    3  502    0 -0.49639777884E+02 -0.87335775417E+02  0.25497010182E+03  0.27404634286E+03  0.00000000000E+00 0. -1.
         -1    1    3    3    0  502 -0.15034722661E+03 -0.79548061175E+02  0.55844987066E+03  0.58377944519E+03  0.00000000000E+00 0.  1.
         13    1    5    5    0    0  0.13313345001E+02 -0.28619249568E+00  0.11531098160E+02  0.17615143657E+02  0.00000000000E+00 0.  1.
        -13    1    5    5    0    0  0.38845860532E+02 -0.24934885977E+03  0.62124579282E+03  0.67054469638E+03  0.00000000000E+00 0. -1.
          2    1    6    6  503    0 -0.31875343588E+01  0.10088899851E+03 -0.22871944552E+02  0.10349819439E+03  0.00000000000E+00 0.  1.
         -2    1    6    6    0  503  0.15101533332E+03  0.31562989034E+03 -0.34126691624E+02  0.35155723525E+03  0.00000000000E+00 0. -1.
<mgrwt>
<rscale>  0 0.14402408E+04</rscale>
<asrwt>0</asrwt>
<pdfrwt beam="1">  1        2 0.47064834E-01 0.14402408E+04</pdfrwt>
<pdfrwt beam="2">  1       -3 0.26078763E+00 0.14402408E+04</pdfrwt>
<totfact> 0.41154934E+00</totfact>
</mgrwt>
</event>
<event>
12    7  0.1660832E-007  0.3681949E+04  0.7818608E-02  0.8071974E-01
          2   -1    0    0  501    0  0.00000000000E+00  0.00000000000E+00  0.13200299766E+04  0.13200299766E+04  0.00000000000E+00 0. -1.
         -1   -1    0    0    0  501 -0.00000000000E+00 -0.00000000000E+00 -0.25675080784E+04  0.25675080784E+04  0.00000000000E+00 0.  1.
         24    2    1    2    0    0  0.10826381642E+03  0.16228290570E+04 -0.12108380329E+04  0.20291995479E+04  0.78910462361E+02 0.  0.
        254    2    1    2    0    0 -0.10826381642E+03 -0.16228290570E+04 -0.36640068881E+02  0.18583385071E+04  0.89821172892E+03 0.  0.
         23    2    4    4    0    0  0.18200177398E+03 -0.13282075518E+04  0.22185511935E+03  0.13617679561E+04  0.89063604971E+02 0.  0.
         23    2    4    4    0    0 -0.29026559040E+03 -0.29462150519E+03 -0.25849518823E+03  0.49657055100E+03  0.93309192954E+02 0.  0.
          2    1    3    3  502    0  0.93627868769E+02  0.15633953848E+04 -0.11778351014E+04  0.19596598769E+04  0.00000000000E+00 0. -1.
         -1    1    3    3    0  502  0.14635947646E+02  0.59433672230E+02 -0.33002931493E+02  0.69539671019E+02  0.00000000000E+00 0.  1.
         13    1    5    5    0    0  0.87221473284E+02 -0.73191326581E+03  0.16486309427E+03  0.75530421283E+03  0.00000000000E+00 0.  1.
        -13    1    5    5    0    0  0.94780300698E+02 -0.59629428604E+03  0.56992025082E+02  0.60646374326E+03  0.00000000000E+00 0. -1.
          4    1    6    6  503    0 -0.19000134524E+03 -0.14104960713E+03 -0.11179565063E+03  0.26171314518E+03  0.00000000000E+00 0. -1.
         -4    1    6    6    0  503 -0.10026424516E+03 -0.15357189806E+03 -0.14669953761E+03  0.23485740581E+03  0.00000000000E+00 0.  1.
<mgrwt>
<rscale>  0 0.36819493E+04</rscale>
<asrwt>0</asrwt>
<pdfrwt beam="1">  1        2 0.20308154E+00 0.36819493E+04</pdfrwt>
<pdfrwt beam="2">  1       -1 0.39500124E+00 0.36819493E+04</pdfrwt>
<totfact> 0.11475646E-01</totfact>
</mgrwt>
</event>
<event>
12    7  0.1660832E-007  0.1717048E+04  0.7818608E-02  0.8751701E-01
          2   -1    0    0  501    0  0.00000000000E+00  0.00000000000E+00  0.51789554346E+03  0.51789554346E+03  0.00000000000E+00 0. -1.
         -1   -1    0    0    0  501 -0.00000000000E+00 -0.00000000000E+00 -0.14231895007E+04  0.14231895007E+04  0.00000000000E+00 0.  1.
         24    2    1    2    0    0 -0.39383900506E+02 -0.36048394838E+03  0.23904389999E+03  0.44123324318E+03  0.77749727382E+02 0.  0.
        254    2    1    2    0    0  0.39383900506E+02  0.36048394838E+03 -0.11443378572E+04  0.14998518010E+04  0.89919215119E+03 0.  0.
         23    2    4    4    0    0 -0.34275513264E+03 -0.93906072788E+02 -0.47708506581E+03  0.60193013124E+03  0.91707641033E+02 0.  0.
         23    2    4    4    0    0  0.38213903315E+03  0.45439002117E+03 -0.66725279142E+03  0.89792166974E+03  0.92393210434E+02 0.  0.
          2    1    3    3  502    0  0.17748810793E+02 -0.19463433045E+03  0.12406821092E+03  0.23149614216E+03  0.00000000000E+00 0. -1.
         -1    1    3    3    0  502 -0.57132711299E+02 -0.16584961793E+03  0.11497568906E+03  0.20973710102E+03  0.00000000000E+00 0.  1.
         13    1    5    5    0    0 -0.79389762040E+02 -0.28762034917E+02 -0.18457374822E+03  0.20297156821E+03  0.00000000000E+00 0.  1.
        -13    1    5    5    0    0 -0.26336537060E+03 -0.65144037871E+02 -0.29251131759E+03  0.39895856304E+03  0.00000000000E+00 0. -1.
          2    1    6    6  503    0  0.35799080491E+03  0.40866573909E+03 -0.63988968445E+03  0.83941879355E+03  0.00000000000E+00 0. -1.
         -2    1    6    6    0  503  0.24148228231E+02  0.45724282082E+02 -0.27363106971E+02  0.58502876183E+02  0.00000000000E+00 0.  1.
<mgrwt>
<rscale>  0 0.17170480E+04</rscale>
<asrwt>0</asrwt>
<pdfrwt beam="1">  1        2 0.79676239E-01 0.17170480E+04</pdfrwt>
<pdfrwt beam="2">  1       -1 0.21895223E+00 0.17170480E+04</pdfrwt>
<totfact> 0.71776356E+00</totfact>
</mgrwt>
</event>
<event>
12    7  0.1660832E-007  0.1846173E+04  0.7818608E-02  0.8682123E-01
          2   -1    0    0  501    0  0.00000000000E+00  0.00000000000E+00  0.44936480463E+04  0.44936480463E+04  0.00000000000E+00 0. -1.
         -1   -1    0    0    0  501 -0.00000000000E+00 -0.00000000000E+00 -0.18962065874E+03  0.18962065874E+03  0.00000000000E+00 0.  1.
         24    2    1    2    0    0  0.48603016325E+03 -0.49476507578E+03  0.18986941825E+04  0.20227315786E+04  0.73386924415E+02 0.  0.
        254    2    1    2    0    0 -0.48603016325E+03  0.49476507578E+03  0.24053332051E+04  0.26605371264E+04  0.90100620079E+03 0.  0.
         23    2    4    4    0    0  0.25750015967E+03  0.13014351576E+03  0.59213955203E+03  0.66502682549E+03  0.91584729155E+02 0.  0.
         23    2    4    4    0    0 -0.74353032292E+03  0.36462156002E+03  0.18131936530E+04  0.19955103009E+04  0.92757288620E+02 0.  0.
          2    1    3    3  502    0  0.36442160444E+03 -0.37534432094E+03  0.15181967796E+04  0.16058044485E+04  0.00000000000E+00 0. -1.
         -1    1    3    3    0  502  0.12160855880E+03 -0.11942075484E+03  0.38049740284E+03  0.41692713012E+03  0.00000000000E+00 0.  1.
         13    1    5    5    0    0  0.67352346670E+02  0.36509805983E+02  0.80028222738E+02  0.11078727801E+03  0.00000000000E+00 0. -1.
        -13    1    5    5    0    0  0.19014781300E+03  0.93633709781E+02  0.51211132929E+03  0.55423954748E+03  0.00000000000E+00 0.  1.
          4    1    6    6  503    0 -0.73073700456E+03  0.34334337288E+03  0.17744228055E+04  0.19494710909E+04  0.00000000000E+00 0. -1.
         -4    1    6    6    0  503 -0.12793318360E+02  0.21278187143E+02  0.38770847501E+02  0.46039210014E+02  0.00000000000E+00 0.  1.
<mgrwt>
<rscale>  0 0.18461728E+04</rscale>
<asrwt>0</asrwt>
<pdfrwt beam="1">  1        2 0.69133039E+00 0.18461728E+04</pdfrwt>
<pdfrwt beam="2">  1       -1 0.29172412E-01 0.18461728E+04</pdfrwt>
<totfact> 0.14630186E+00</totfact>
</mgrwt>
</event>
<event>
12    7  0.1660832E-007  0.1358402E+04  0.7818608E-02  0.8984493E-01
         -1   -1    0    0    0  501 -0.00000000000E+00  0.00000000000E+00  0.81562432932E+03  0.81562432932E+03  0.00000000000E+00 0.  1.
          2   -1    0    0  501    0  0.00000000000E+00 -0.00000000000E+00 -0.56559578575E+03  0.56559578575E+03  0.00000000000E+00 0. -1.
         24    2    1    2    0    0 -0.20323287925E+03  0.26048478984E+03  0.25563927553E+03  0.42525412694E+03  0.79584573516E+02 0.  0.
        254    2    1    2    0    0  0.20323287925E+03 -0.26048478984E+03 -0.56107319647E+01  0.95596598813E+03  0.89704156046E+03 0.  0.
         23    2    4    4    0    0  0.51711670342E+03 -0.33115407521E+03  0.18939165991E+02  0.62119428473E+03  0.91928999171E+02 0.  0.
         23    2    4    4    0    0 -0.31388382416E+03  0.70669285371E+02 -0.24549897955E+02  0.33477170340E+03  0.89175069038E+02 0.  0.
          4    1    3    3  502    0 -0.15024869842E+03  0.19870538148E+03  0.14612871535E+03  0.28881153276E+03  0.00000000000E+00 0. -1.
         -3    1    3    3    0  502 -0.52984180829E+02  0.61779408358E+02  0.10951056018E+03  0.13644259418E+03  0.00000000000E+00 0.  1.
         13    1    5    5    0    0  0.86427089775E+02 -0.27274391265E+02  0.25158321682E+02  0.94055703791E+02  0.00000000000E+00 0.  1.
        -13    1    5    5    0    0  0.43068961364E+03 -0.30387968395E+03 -0.62191556913E+01  0.52713858094E+03  0.00000000000E+00 0. -1.
          2    1    6    6  503    0  0.76451481219E+00  0.53548794153E+01 -0.12009335032E+02  0.13171307618E+02  0.00000000000E+00 0. -1.
         -2    1    6    6    0  503 -0.31464833898E+03  0.65314405956E+02 -0.12540562923E+02  0.32160039578E+03  0.00000000000E+00 0.  1.
<mgrwt>
<rscale>  0 0.13584015E+04</rscale>
<asrwt>0</asrwt>
<pdfrwt beam="1">  1        2 0.87014736E-01 0.13584015E+04</pdfrwt>
<pdfrwt beam="2">  1       -1 0.12548067E+00 0.13584015E+04</pdfrwt>
<totfact> 0.32944506E+01</totfact>
</mgrwt>
</event>
<event>
12    7  0.1660832E-007  0.2367430E+04  0.7818608E-02  0.8451799E-01
          2   -1    0    0  501    0  0.00000000000E+00  0.00000000000E+00  0.14724704047E+04  0.14724704047E+04  0.00000000000E+00 0. -1.
         -1   -1    0    0    0  501 -0.00000000000E+00 -0.00000000000E+00 -0.95158562114E+03  0.95158562114E+03  0.00000000000E+00 0.  1.
         24    2    1    2    0    0 -0.40493839214E+03  0.39602445318E+03 -0.63543635948E+03  0.85507781903E+03  0.81044683388E+02 0.  0.
        254    2    1    2    0    0  0.40493839214E+03 -0.39602445318E+03  0.11563211431E+04  0.15689782068E+04  0.89655092365E+03 0.  0.
         23    2    4    4    0    0  0.68161526044E+03 -0.32040404416E+03  0.78263148780E+03  0.10891876324E+04  0.80990975617E+02 0.  0.
         23    2    4    4    0    0 -0.27667686830E+03 -0.75620409019E+02  0.37368965526E+03  0.47979057442E+03  0.91030221059E+02 0.  0.
          2    1    3    3  502    0 -0.13824524185E+03  0.16058694993E+03 -0.18652062072E+03  0.28229392012E+03  0.00000000000E+00 0. -1.
         -1    1    3    3    0  502 -0.26669315029E+03  0.23543750325E+03 -0.44891573876E+03  0.57278389891E+03  0.00000000000E+00 0.  1.
         13    1    5    5    0    0  0.58781734013E+03 -0.27370030538E+03  0.63014454497E+03  0.90416991217E+03  0.00000000000E+00 0. -1.
        -13    1    5    5    0    0  0.93797920312E+02 -0.46703738782E+02  0.15248694283E+03  0.18501772024E+03  0.00000000000E+00 0.  1.
          2    1    6    6  503    0 -0.18634910041E+03 -0.50855353055E+02  0.31421883743E+03  0.36884377716E+03  0.00000000000E+00 0. -1.
         -2    1    6    6    0  503 -0.90327767889E+02 -0.24765055964E+02  0.59470817832E+02  0.11094679726E+03  0.00000000000E+00 0.  1.
<mgrwt>
<rscale>  0 0.23674304E+04</rscale>
<asrwt>0</asrwt>
<pdfrwt beam="1">  1        2 0.22653391E+00 0.23674304E+04</pdfrwt>
<pdfrwt beam="2">  1       -1 0.14639779E+00 0.23674304E+04</pdfrwt>
<totfact> 0.50334396E+00</totfact>
</mgrwt>
</event>
<event>
12    7  0.1660832E-007  0.2087397E+04  0.7818608E-02  0.8566816E-01
         -1   -1    0    0    0  501 -0.00000000000E+00  0.00000000000E+00  0.40724244204E+03  0.40724244204E+03  0.00000000000E+00 0.  1.
          2   -1    0    0  501    0  0.00000000000E+00 -0.00000000000E+00 -0.26748345745E+04  0.26748345745E+04  0.00000000000E+00 0. -1.
         24    2    1    2    0    0  0.64679996118E+03  0.54396438840E+02 -0.11429337945E+03  0.66408976879E+03  0.81505104627E+02 0.  0.
        254    2    1    2    0    0 -0.64679996118E+03 -0.54396438840E+02 -0.21532987530E+04  0.24179872477E+04  0.88806398882E+03 0.  0.
         23    2    4    4    0    0 -0.14577586366E+03  0.34050130392E+03 -0.12578395420E+04  0.13145921098E+04  0.93810240487E+02 0.  0.
         23    2    4    4    0    0 -0.50102409752E+03 -0.39489774276E+03 -0.89545921091E+03  0.11033951379E+04  0.93081998346E+02 0.  0.
          2    1    3    3  502    0  0.18092823975E+03  0.51372191204E+02 -0.25110280431E+02  0.18974892925E+03  0.00000000000E+00 0. -1.
         -1    1    3    3    0  502  0.46587172143E+03  0.30242476362E+01 -0.89183099022E+02  0.47434083954E+03  0.00000000000E+00 0.  1.
         13    1    5    5    0    0 -0.72208995577E+02  0.16930665669E+03 -0.46392399738E+03  0.49910355477E+03  0.00000000000E+00 0.  1.
        -13    1    5    5    0    0 -0.73566868086E+02  0.17119464723E+03 -0.79391554467E+03  0.81548855503E+03  0.00000000000E+00 0. -1.
          4    1    6    6  503    0 -0.28138809645E+02 -0.27480032408E+02 -0.24207661312E+02  0.46183932872E+02  0.00000000000E+00 0. -1.
         -4    1    6    6    0  503 -0.47288528787E+03 -0.36741771035E+03 -0.87125154960E+03  0.10572112050E+04  0.00000000000E+00 0.  1.
<mgrwt>
<rscale>  0 0.20873966E+04</rscale>
<asrwt>0</asrwt>
<pdfrwt beam="1">  1        2 0.41151302E+00 0.20873966E+04</pdfrwt>
<pdfrwt beam="2">  1       -1 0.62652683E-01 0.20873966E+04</pdfrwt>
<totfact> 0.74624084E+00</totfact>
</mgrwt>
</event>
<event>
12    7  0.1660832E-007  0.1795672E+04  0.7818608E-02  0.8708604E-01
         -1   -1    0    0    0  501 -0.00000000000E+00  0.00000000000E+00  0.16895831710E+04  0.16895831710E+04  0.00000000000E+00 0.  1.
          2   -1    0    0  501    0  0.00000000000E+00 -0.00000000000E+00 -0.47710560888E+03  0.47710560888E+03  0.00000000000E+00 0. -1.
         24    2    1    2    0    0 -0.39507422470E+03  0.42333420489E+03  0.48487166952E+02  0.58649317543E+03  0.79547139612E+02 0.  0.
        254    2    1    2    0    0  0.39507422470E+03 -0.42333420489E+03  0.11639903951E+04  0.15801956044E+04  0.89824774766E+03 0.  0.
         23    2    4    4    0    0  0.54049849690E+03 -0.23615996705E+01  0.35760646391E+03  0.65474781047E+03  0.93102685171E+02 0.  0.
         23    2    4    4    0    0 -0.14542427220E+03 -0.42097260521E+03  0.80638393122E+03  0.92544779393E+03  0.88500968801E+02 0.  0.
          4    1    3    3  502    0 -0.35469541118E+03  0.40529888868E+03  0.32855525326E+02  0.53958827769E+03  0.00000000000E+00 0. -1.
         -3    1    3    3    0  502 -0.40378813521E+02  0.18035316201E+02  0.15631641626E+02  0.46904897737E+02  0.00000000000E+00 0.  1.
         13    1    5    5    0    0  0.15196081877E+02 -0.66916952846E-01 -0.54991539703E+01  0.16160633549E+02  0.00000000000E+00 0.  1.
        -13    1    5    5    0    0  0.52530241502E+03 -0.22946827176E+01  0.36310561788E+03  0.63858717692E+03  0.00000000000E+00 0. -1.
          3    1    6    6  503    0  0.68281991953E+01 -0.76505104885E+02  0.11855334575E+03  0.14126057896E+03  0.00000000000E+00 0.  1.
         -3    1    6    6    0  503 -0.15225247139E+03 -0.34446750033E+03  0.68783058547E+03  0.78418721498E+03  0.00000000000E+00 0. -1.
<mgrwt>
<rscale>  0 0.17956721E+04</rscale>
<asrwt>0</asrwt>
<pdfrwt beam="1">  1        2 0.73400864E-01 0.17956721E+04</pdfrwt>
<pdfrwt beam="2">  1       -1 0.25993587E+00 0.17956721E+04</pdfrwt>
<totfact> 0.42161642E+00</totfact>
</mgrwt>
</event>
<event>
12    7  0.1660832E-007  0.5140902E+04  0.7818608E-02  0.7807132E-01
         -1   -1    0    0    0  501 -0.00000000000E+00  0.00000000000E+00  0.21063301676E+04  0.21063301676E+04  0.00000000000E+00 0.  1.
          2   -1    0    0  501    0  0.00000000000E+00 -0.00000000000E+00 -0.31368391994E+04  0.31368391994E+04  0.00000000000E+00 0. -1.
         24    2    1    2    0    0  0.19422419460E+04 -0.15658861831E+04 -0.49833118916E+03  0.25451209533E+04  0.70734558213E+02 0.  0.
        254    2    1    2    0    0 -0.19422419460E+04  0.15658861831E+04 -0.53217784271E+03  0.26980484137E+04  0.87860609567E+03 0.  0.
         23    2    4    4    0    0 -0.71998422406E+03  0.10370175455E+04 -0.50541983422E+03  0.13629085161E+04  0.91037035812E+02 0.  0.
         23    2    4    4    0    0 -0.12222577219E+04  0.52886863757E+03 -0.26758008495E+02  0.13351398976E+04  0.90920737560E+02 0.  0.
          4    1    3    3  502    0  0.15158356480E+04 -0.12270922267E+04 -0.35990058400E+03  0.19831897224E+04  0.00000000000E+00 0. -1.
         -3    1    3    3    0  502  0.42640629793E+03 -0.33879395639E+03 -0.13843060516E+03  0.56193123088E+03  0.00000000000E+00 0.  1.
         13    1    5    5    0    0 -0.62760845480E+03  0.94730125529E+03 -0.44091874135E+03  0.12188853011E+04  0.00000000000E+00 0.  1.
        -13    1    5    5    0    0 -0.92375769257E+02  0.89716290228E+02 -0.64501092871E+02  0.14402321500E+03  0.00000000000E+00 0. -1.
          3    1    6    6  503    0 -0.13247805281E+02 -0.33265491886E+01  0.23445567536E+01  0.13858831864E+02  0.00000000000E+00 0. -1.
         -3    1    6    6    0  503 -0.12090099166E+04  0.53219518675E+03 -0.29102565248E+02  0.13212810657E+04  0.00000000000E+00 0.  1.
<mgrwt>
<rscale>  0 0.51409023E+04</rscale>
<asrwt>0</asrwt>
<pdfrwt beam="1">  1        2 0.48259065E+00 0.51409023E+04</pdfrwt>
<pdfrwt beam="2">  1       -1 0.32405079E+00 0.51409023E+04</pdfrwt>
<totfact> 0.26832924E-02</totfact>
</mgrwt>
</event>
<event>
12    7  0.1660832E-007  0.2260400E+04  0.7818608E-02  0.8493700E-01
          2   -1    0    0  501    0  0.00000000000E+00  0.00000000000E+00  0.79419387005E+03  0.79419387005E+03  0.00000000000E+00 0. -1.
         -1   -1    0    0    0  501 -0.00000000000E+00 -0.00000000000E+00 -0.16083636805E+04  0.16083636805E+04  0.00000000000E+00 0.  1.
         24    2    1    2    0    0 -0.13646152854E+03 -0.46878269930E+03  0.52264857966E+03  0.71938172758E+03  0.77262955067E+02 0.  0.
        254    2    1    2    0    0  0.13646152854E+03  0.46878269930E+03 -0.13368183901E+04  0.16831758230E+04  0.89867595659E+03 0.  0.
         23    2    4    4    0    0  0.31477060783E+03  0.91193417917E+02 -0.11794014036E+04  0.12275993179E+04  0.92820468904E+02 0.  0.
         23    2    4    4    0    0 -0.17830907929E+03  0.37758928138E+03 -0.15741698653E+03  0.45557650509E+03  0.91662703306E+02 0.  0.
          2    1    3    3  502    0 -0.99682316811E+02 -0.22624630493E+03  0.29278667039E+03  0.38320750141E+03  0.00000000000E+00 0. -1.
         -1    1    3    3    0  502 -0.36779211728E+02 -0.24253639437E+03  0.22986190927E+03  0.33617422617E+03  0.00000000000E+00 0.  1.
         13    1    5    5    0    0  0.22636516361E+03  0.24158538712E+02 -0.85309199621E+03  0.88294437893E+03  0.00000000000E+00 0. -1.
        -13    1    5    5    0    0  0.88405444211E+02  0.67034879205E+02 -0.32630940736E+03  0.34465493893E+03  0.00000000000E+00 0.  1.
          1    1    6    6  503    0 -0.70726388968E+01  0.10712972530E+03 -0.36737115328E+02  0.11347429624E+03  0.00000000000E+00 0. -1.
         -1    1    6    6    0  503 -0.17123644039E+03  0.27045955608E+03 -0.12067987120E+03  0.34210220886E+03  0.00000000000E+00 0.  1.
<mgrwt>
<rscale>  0 0.22604005E+04</rscale>
<asrwt>0</asrwt>
<pdfrwt beam="1">  1        2 0.12218367E+00 0.22604005E+04</pdfrwt>
<pdfrwt beam="2">  1       -1 0.24744056E+00 0.22604005E+04</pdfrwt>
<totfact> 0.26151440E+00</totfact>
</mgrwt>
</event>
<event>
12    7  0.1660832E-007  0.1670415E+04  0.7818608E-02  0.8778420E-01
          2   -1    0    0  501    0  0.00000000000E+00  0.00000000000E+00  0.35627463097E+04  0.35627463097E+04  0.00000000000E+00 0. -1.
         -1   -1    0    0    0  501 -0.00000000000E+00 -0.00000000000E+00 -0.19579612309E+03  0.19579612309E+03  0.00000000000E+00 0.  1.
         24    2    1    2    0    0 -0.38942073128E+03 -0.16117904080E+03  0.27262566065E+03  0.50925711633E+03  0.85970172398E+02 0.  0.
        254    2    1    2    0    0  0.38942073128E+03  0.16117904080E+03  0.30943245260E+04  0.32492853165E+04  0.89743167242E+03 0.  0.
         23    2    4    4    0    0  0.52529289995E+03 -0.17552605089E+03  0.23336264186E+04  0.24001981436E+04  0.91634281724E+02 0.  0.
         23    2    4    4    0    0 -0.13587216867E+03  0.33670509169E+03  0.76069810733E+03  0.84908717285E+03  0.10225385867E+03 0.  0.
          2    1    3    3  502    0 -0.93464686671E+02 -0.14899682002E+02  0.29082952262E+02  0.99012455229E+02  0.00000000000E+00 0. -1.
         -1    1    3    3    0  502 -0.29595604461E+03 -0.14627935880E+03  0.24354270839E+03  0.41024466110E+03  0.00000000000E+00 0.  1.
         13    1    5    5    0    0  0.12761780237E+03 -0.17358978638E+02  0.67985973026E+03  0.69195150875E+03  0.00000000000E+00 0. -1.
        -13    1    5    5    0    0  0.39767509757E+03 -0.15816707225E+03  0.16537666884E+04  0.17082466349E+04  0.00000000000E+00 0.  1.
          1    1    6    6  503    0 -0.88461294574E+02  0.26336743886E+03  0.47439863896E+03  0.54976529277E+03  0.00000000000E+00 0. -1.
         -1    1    6    6    0  503 -0.47410874092E+02  0.73337652837E+02  0.28629946836E+03  0.29932188007E+03  0.00000000000E+00 0.  1.
<mgrwt>
<rscale>  0 0.16704154E+04</rscale>
<asrwt>0</asrwt>
<pdfrwt beam="1">  1        2 0.54811477E+00 0.16704154E+04</pdfrwt>
<pdfrwt beam="2">  1       -1 0.30122483E-01 0.16704154E+04</pdfrwt>
<totfact> 0.81680674E+00</totfact>
</mgrwt>
</event>
<event>
12    7  0.1660832E-007  0.1333431E+04  0.7818608E-02  0.9003466E-01
         -1   -1    0    0    0  501 -0.00000000000E+00  0.00000000000E+00  0.19156771333E+03  0.19156771333E+03  0.00000000000E+00 0.  1.
          2   -1    0    0  501    0  0.00000000000E+00 -0.00000000000E+00 -0.23203792279E+04  0.23203792279E+04  0.00000000000E+00 0. -1.
         24    2    1    2    0    0 -0.29718283276E+03  0.66126007946E+02 -0.24089742320E+03  0.39642745763E+03  0.80205209598E+02 0.  0.
        254    2    1    2    0    0  0.29718283276E+03 -0.66126007946E+02 -0.18879140913E+04  0.21155194836E+04  0.90471696353E+03 0.  0.
         23    2    4    4    0    0 -0.24896571567E+03  0.89313406391E+02 -0.23522121784E+03  0.36553637096E+03  0.91252424775E+02 0.  0.
         23    2    4    4    0    0  0.54614854843E+03 -0.15543941434E+03 -0.16526928735E+04  0.17499831126E+04  0.92776677299E+02 0.  0.
          4    1    3    3  502    0 -0.24183419528E+03  0.65701224445E+02 -0.15635162606E+03  0.29537477867E+03  0.00000000000E+00 0. -1.
         -3    1    3    3    0  502 -0.55348637476E+02  0.42478350095E+00 -0.84545797143E+02  0.10105267897E+03  0.00000000000E+00 0.  1.
         13    1    5    5    0    0 -0.16978795483E+03  0.63083949794E+02 -0.10065678423E+03  0.20721805553E+03  0.00000000000E+00 0.  1.
        -13    1    5    5    0    0 -0.79177760845E+02  0.26229456597E+02 -0.13456443361E+03  0.15831831543E+03  0.00000000000E+00 0. -1.
          1    1    6    6  503    0  0.17508908371E+03 -0.43403239167E+02 -0.40228863460E+03  0.44088113356E+03  0.00000000000E+00 0. -1.
         -1    1    6    6    0  503  0.37105946473E+03 -0.11203617517E+03 -0.12504042389E+04  0.13091019791E+04  0.00000000000E+00 0.  1.
<mgrwt>
<rscale>  0 0.13334313E+04</rscale>
<asrwt>0</asrwt>
<pdfrwt beam="1">  1        2 0.35698137E+00 0.13334313E+04</pdfrwt>
<pdfrwt beam="2">  1       -1 0.29471960E-01 0.13334313E+04</pdfrwt>
<totfact> 0.51903638E+01</totfact>
</mgrwt>
</event>
<event>
12    7  0.1660832E-007  0.1546720E+04  0.7818608E-02  0.8853966E-01
         -1   -1    0    0    0  501 -0.00000000000E+00  0.00000000000E+00  0.43701355375E+03  0.43701355375E+03  0.00000000000E+00 0.  1.
          2   -1    0    0  501    0  0.00000000000E+00 -0.00000000000E+00 -0.13685744397E+04  0.13685744397E+04  0.00000000000E+00 0. -1.
         24    2    1    2    0    0  0.49552506011E+03 -0.99834962318E+01 -0.14824682392E+03  0.52334041764E+03  0.79141117903E+02 0.  0.
        254    2    1    2    0    0 -0.49552506011E+03  0.99834962318E+01 -0.78331406198E+03  0.12822475758E+04  0.88596454245E+03 0.  0.
         23    2    4    4    0    0 -0.15931378287E+03  0.43163301456E+03 -0.36006919683E+03  0.59070184662E+03  0.87125796507E+02 0.  0.
         23    2    4    4    0    0 -0.33621127723E+03 -0.42164951833E+03 -0.42324486516E+03  0.69154572915E+03  0.90955705607E+02 0.  0.
          2    1    3    3  502    0  0.87038831811E+02 -0.40067238146E+01 -0.58850804773E+02  0.10514385051E+03  0.00000000000E+00 0. -1.
         -1    1    3    3    0  502  0.40848622829E+03 -0.59767724173E+01 -0.89396019144E+02  0.41819656712E+03  0.00000000000E+00 0.  1.
         13    1    5    5    0    0  0.48447931748E+01  0.60058349149E+02 -0.30109877096E+02  0.67357865333E+02  0.00000000000E+00 0. -1.
        -13    1    5    5    0    0 -0.16415857605E+03  0.37157466541E+03 -0.32995931973E+03  0.52334398128E+03  0.00000000000E+00 0.  1.
          2    1    6    6  503    0  0.38134481459E+01 -0.30650290928E+00 -0.91397444126E+01  0.99081410326E+01  0.00000000000E+00 0. -1.
         -2    1    6    6    0  503 -0.34002472538E+03 -0.42134301542E+03 -0.41410512074E+03  0.68163758812E+03  0.00000000000E+00 0.  1.
<mgrwt>
<rscale>  0 0.15467199E+04</rscale>
<asrwt>0</asrwt>
<pdfrwt beam="1">  1        2 0.21054991E+00 0.15467199E+04</pdfrwt>
<pdfrwt beam="2">  1       -1 0.67232854E-01 0.15467199E+04</pdfrwt>
<totfact> 0.37095073E+01</totfact>
</mgrwt>
</event>
<event>
12    7  0.1660832E-007  0.1495818E+04  0.7818608E-02  0.8887239E-01
          2   -1    0    0  501    0  0.00000000000E+00  0.00000000000E+00  0.21364458179E+04  0.21364458179E+04  0.00000000000E+00 0. -1.
         -1   -1    0    0    0  501 -0.00000000000E+00 -0.00000000000E+00 -0.26182175296E+03  0.26182175296E+03  0.00000000000E+00 0.  1.
         24    2    1    2    0    0  0.25185616127E+03  0.27763023726E+03  0.12599427251E+03  0.40346123190E+03  0.79977086273E+02 0.  0.
        254    2    1    2    0    0 -0.25185616127E+03 -0.27763023726E+03  0.17486297924E+04  0.19948063390E+04  0.88376247055E+03 0.  0.
         23    2    4    4    0    0  0.31658724793E+03 -0.11945818930E+03  0.48572533639E+03  0.59808801330E+03  0.85337123834E+02 0.  0.
         23    2    4    4    0    0 -0.56844340920E+03 -0.15817204796E+03  0.12629044560E+04  0.13967183256E+04  0.88023348671E+02 0.  0.
          4    1    3    3  502    0  0.76941006042E+02  0.11768287605E+03  0.80815907351E+02  0.16217394552E+03  0.00000000000E+00 0. -1.
         -3    1    3    3    0  502  0.17491515523E+03  0.15994736121E+03  0.45178365154E+02  0.24128728637E+03  0.00000000000E+00 0.  1.
         13    1    5    5    0    0  0.81736358514E+02 -0.67629279361E+02  0.18213732500E+03  0.21078082666E+03  0.00000000000E+00 0. -1.
        -13    1    5    5    0    0  0.23485088942E+03 -0.51828909935E+02  0.30358801139E+03  0.38730718664E+03  0.00000000000E+00 0.  1.
          3    1    6    6  503    0 -0.45205961844E+01 -0.20640388058E+01  0.13732331609E+00  0.49714086281E+01  0.00000000000E+00 0. -1.
         -3    1    6    6    0  503 -0.56392281302E+03 -0.15610800915E+03  0.12627671327E+04  0.13917469170E+04  0.00000000000E+00 0.  1.
<mgrwt>
<rscale>  0 0.14958182E+04</rscale>
<asrwt>0</asrwt>
<pdfrwt beam="1">  1        2 0.32868396E+00 0.14958182E+04</pdfrwt>
<pdfrwt beam="2">  1       -1 0.40280271E-01 0.14958182E+04</pdfrwt>
<totfact> 0.37143298E+01</totfact>
</mgrwt>
</event>
<event>
12    7  0.1660832E-007  0.1865597E+04  0.7818608E-02  0.8672173E-01
         -1   -1    0    0    0  501 -0.00000000000E+00  0.00000000000E+00  0.29767284156E+03  0.29767284156E+03  0.00000000000E+00 0.  1.
          2   -1    0    0  501    0  0.00000000000E+00 -0.00000000000E+00 -0.29230528614E+04  0.29230528614E+04  0.00000000000E+00 0. -1.
         24    2    1    2    0    0 -0.39579189655E+02  0.36104794750E+02 -0.22348544438E+04  0.22368666279E+04  0.78280633201E+02 0.  0.
        254    2    1    2    0    0  0.39579189655E+02 -0.36104794750E+02 -0.39052557604E+03  0.98385907507E+03  0.90144239173E+03 0.  0.
         23    2    4    4    0    0  0.89278355712E+02 -0.20407197802E+03 -0.62994347555E+03  0.67422716880E+03  0.90208069138E+02 0.  0.
         23    2    4    4    0    0 -0.49699166057E+02  0.16796718327E+03  0.23941789951E+03  0.30963190628E+03  0.88701775719E+02 0.  0.
          2    1    3    3  502    0 -0.10835850544E+02  0.24919076757E+02 -0.19751768345E+04  0.19753637395E+04  0.00000000000E+00 0. -1.
         -1    1    3    3    0  502 -0.28743339111E+02  0.11185717994E+02 -0.25967760935E+03  0.26150288838E+03  0.00000000000E+00 0.  1.
         13    1    5    5    0    0  0.90492214936E+02 -0.19532954770E+03 -0.50496313352E+03  0.54893555121E+03  0.00000000000E+00 0.  1.
        -13    1    5    5    0    0 -0.12138592237E+01 -0.87424303196E+01 -0.12498034203E+03  0.12529161758E+03  0.00000000000E+00 0. -1.
          4    1    6    6  503    0  0.14128140824E+02  0.70965900223E+02  0.51802213854E+02  0.88990070894E+02  0.00000000000E+00 0. -1.
         -4    1    6    6    0  503 -0.63827306881E+02  0.97001283049E+02  0.18761568566E+03  0.22064183538E+03  0.00000000000E+00 0.  1.
<mgrwt>
<rscale>  0 0.18655974E+04</rscale>
<asrwt>0</asrwt>
<pdfrwt beam="1">  1        2 0.44970044E+00 0.18655974E+04</pdfrwt>
<pdfrwt beam="2">  1       -1 0.45795822E-01 0.18655974E+04</pdfrwt>
<totfact> 0.98795868E+00</totfact>
</mgrwt>
</event>
<event>
12    7  0.1660832E-007  0.1568566E+04  0.7818608E-02  0.8840095E-01
          2   -1    0    0  501    0  0.00000000000E+00  0.00000000000E+00  0.36046847870E+04  0.36046847870E+04  0.00000000000E+00 0. -1.
         -1   -1    0    0    0  501 -0.00000000000E+00 -0.00000000000E+00 -0.17063895392E+03  0.17063895392E+03  0.00000000000E+00 0.  1.
         24    2    1    2    0    0  0.24523288148E+03 -0.34286588445E+03  0.40835695883E+03  0.59246798998E+03  0.81035377768E+02 0.  0.
        254    2    1    2    0    0 -0.24523288148E+03  0.34286588445E+03  0.30256888742E+04  0.31828557509E+04  0.89335400966E+03 0.  0.
         23    2    4    4    0    0  0.95147530698E+01  0.60472617045E+03  0.18377211621E+04  0.19367884632E+04  0.90256356265E+02 0.  0.
         23    2    4    4    0    0 -0.25474763455E+03 -0.26186028600E+03  0.11879677121E+04  0.12460672877E+04  0.89158475279E+02 0.  0.
          4    1    3    3  502    0  0.52534103694E+01 -0.23643262856E+01 -0.34431007519E+01  0.67114307030E+01  0.00000000000E+00 0. -1.
         -3    1    3    3    0  502  0.23997947111E+03 -0.34050155816E+03  0.41180005958E+03  0.58575655928E+03  0.00000000000E+00 0.  1.
         13    1    5    5    0    0 -0.34468971249E+02  0.30200978496E+03  0.84524993546E+03  0.89824577572E+03  0.00000000000E+00 0.  1.
        -13    1    5    5    0    0  0.43983724319E+02  0.30271638548E+03  0.99247122662E+03  0.10385426875E+04  0.00000000000E+00 0. -1.
          2    1    6    6  503    0 -0.41922390567E+02 -0.95117018292E+02  0.38604647525E+03  0.39979571665E+03  0.00000000000E+00 0.  1.
         -2    1    6    6    0  503 -0.21282524399E+03 -0.16674326771E+03  0.80192123689E+03  0.84627157105E+03  0.00000000000E+00 0. -1.
<mgrwt>
<rscale>  0 0.15685658E+04</rscale>
<asrwt>0</asrwt>
<pdfrwt beam="1">  1        2 0.55456683E+00 0.15685658E+04</pdfrwt>
<pdfrwt beam="2">  1       -1 0.26252149E-01 0.15685658E+04</pdfrwt>
<totfact> 0.97920778E+00</totfact>
</mgrwt>
</event>
<event>
12    7  0.1660832E-007  0.1619610E+04  0.7818608E-02  0.8808590E-01
          2   -1    0    0  501    0  0.00000000000E+00  0.00000000000E+00  0.13555400172E+04  0.13555400172E+04  0.00000000000E+00 0. -1.
         -1   -1    0    0    0  501 -0.00000000000E+00 -0.00000000000E+00 -0.48378092794E+03  0.48378092794E+03  0.00000000000E+00 0.  1.
         24    2    1    2    0    0  0.67343192317E+02 -0.50056749138E+03  0.56472632138E+03  0.76178836580E+03  0.79390032339E+02 0.  0.
        254    2    1    2    0    0 -0.67343192317E+02  0.50056749138E+03  0.30703276793E+03  0.10775325794E+04  0.90094640244E+03 0.  0.
         23    2    4    4    0    0 -0.75105643657E+02  0.93304847855E+02 -0.30234137690E+03  0.33883951006E+03  0.95159093331E+02 0.  0.
         23    2    4    4    0    0  0.77624513408E+01  0.40726264352E+03  0.60937414484E+03  0.73869306933E+03  0.91692343270E+02 0.  0.
          4    1    3    3  502    0  0.55148435371E+02 -0.49466536621E+03  0.54993464991E+03  0.74172993308E+03  0.00000000000E+00 0. -1.
         -3    1    3    3    0  502  0.12194756946E+02 -0.59021251691E+01  0.14791671462E+02  0.20058432719E+02  0.00000000000E+00 0.  1.
         13    1    5    5    0    0 -0.46231414458E+02  0.47490115582E+02 -0.26474214077E+03  0.27291217610E+03  0.00000000000E+00 0.  1.
        -13    1    5    5    0    0 -0.28874229199E+02  0.45814732273E+02 -0.37599236129E+02  0.65927333956E+02  0.00000000000E+00 0. -1.
          3    1    6    6  503    0 -0.29313944244E+02  0.94722585248E+02  0.19043674132E+03  0.21470404730E+03  0.00000000000E+00 0. -1.
         -3    1    6    6    0  503  0.37076395585E+02  0.31254005828E+03  0.41893740352E+03  0.52398902202E+03  0.00000000000E+00 0.  1.
<mgrwt>
<rscale>  0 0.16196103E+04</rscale>
<asrwt>0</asrwt>
<pdfrwt beam="1">  1        2 0.20854462E+00 0.16196103E+04</pdfrwt>
<pdfrwt beam="2">  1       -1 0.74427836E-01 0.16196103E+04</pdfrwt>
<totfact> 0.30434203E+01</totfact>
</mgrwt>
</event>
<event>
12    7  0.1660832E-007  0.2112786E+04  0.7818608E-02  0.8555632E-01
          2   -1    0    0  501    0  0.00000000000E+00  0.00000000000E+00  0.24709265151E+04  0.24709265151E+04  0.00000000000E+00 0. -1.
         -1   -1    0    0    0  501 -0.00000000000E+00 -0.00000000000E+00 -0.45163882357E+03  0.45163882357E+03  0.00000000000E+00 0.  1.
         24    2    1    2    0    0  0.79085563972E+03 -0.24489211187E+03  0.49221389628E+03  0.96661306017E+03  0.81495392916E+02 0.  0.
        254    2    1    2    0    0 -0.79085563972E+03  0.24489211187E+03  0.15270737953E+04  0.19559522785E+04  0.89909407201E+03 0.  0.
         23    2    4    4    0    0  0.56103179281E+02 -0.15981669975E+03  0.50173028111E+02  0.20369856581E+03  0.10142400464E+03 0.  0.
         23    2    4    4    0    0 -0.84695881900E+03  0.40470881162E+03  0.14769007672E+04  0.17522537127E+04  0.89603205317E+02 0.  0.
          2    1    3    3  502    0  0.40266899603E+03 -0.15620570434E+03  0.28790610630E+03  0.51906884754E+03  0.00000000000E+00 0. -1.
         -1    1    3    3    0  502  0.38818664368E+03 -0.88686407523E+02  0.20430778998E+03  0.44754421263E+03  0.00000000000E+00 0.  1.
         13    1    5    5    0    0  0.98152612411E+01 -0.12689576298E+03  0.67823613898E+02  0.14421829502E+03  0.00000000000E+00 0. -1.
        -13    1    5    5    0    0  0.46287918040E+02 -0.32920936770E+02 -0.17650585787E+02  0.59480270787E+02  0.00000000000E+00 0.  1.
          1    1    6    6  503    0 -0.11571845207E+03  0.80424647094E+02  0.18163371162E+03  0.22989060269E+03  0.00000000000E+00 0. -1.
         -1    1    6    6    0  503 -0.73124036693E+03  0.32428416452E+03  0.12952670556E+04  0.15223631100E+04  0.00000000000E+00 0.  1.
<mgrwt>
<rscale>  0 0.21127862E+04</rscale>
<asrwt>0</asrwt>
<pdfrwt beam="1">  1        2 0.38014253E+00 0.21127862E+04</pdfrwt>
<pdfrwt beam="2">  1       -1 0.69482897E-01 0.21127862E+04</pdfrwt>
<totfact> 0.79448350E+00</totfact>
</mgrwt>
</event>
<event>
12    7  0.1660832E-007  0.1633706E+04  0.7818608E-02  0.8800105E-01
         -1   -1    0    0    0  501 -0.00000000000E+00  0.00000000000E+00  0.29887658745E+03  0.29887658745E+03  0.00000000000E+00 0.  1.
          2   -1    0    0  501    0  0.00000000000E+00 -0.00000000000E+00 -0.22325215849E+04  0.22325215849E+04  0.00000000000E+00 0. -1.
         24    2    1    2    0    0  0.15248062874E+03  0.63721985262E+02 -0.15120172038E+04  0.15230879433E+04  0.79309675539E+02 0.  0.
        254    2    1    2    0    0 -0.15248062874E+03 -0.63721985262E+02 -0.42162779359E+03  0.10083102291E+04  0.90089327236E+03 0.  0.
         23    2    4    4    0    0  0.81816100352E+02  0.38283974395E+03 -0.21888135298E+03  0.45742363021E+03  0.89817520393E+02 0.  0.
         23    2    4    4    0    0 -0.23429672910E+03 -0.44656172921E+03 -0.20274644061E+03  0.55088659887E+03  0.89764081781E+02 0.  0.
          4    1    3    3  502    0  0.14949356427E+03  0.78019397930E+02 -0.14025189052E+04  0.14126197761E+04  0.00000000000E+00 0. -1.
         -3    1    3    3    0  502  0.29870644700E+01 -0.14297412668E+02 -0.10949829862E+03  0.11046816719E+03  0.00000000000E+00 0.  1.
         13    1    5    5    0    0  0.32775884680E+02  0.31905080346E+03 -0.18364689532E+03  0.36958606029E+03  0.00000000000E+00 0. -1.
        -13    1    5    5    0    0  0.49040215672E+02  0.63788940489E+02 -0.35234457661E+02  0.87837569915E+02  0.00000000000E+00 0.  1.
          4    1    6    6  503    0 -0.16783911289E+03 -0.33937254523E+03 -0.19145519428E+03  0.42426263527E+03  0.00000000000E+00 0. -1.
         -4    1    6    6    0  503 -0.66457616208E+02 -0.10718918398E+03 -0.11291246329E+02  0.12662396360E+03  0.00000000000E+00 0.  1.
<mgrwt>
<rscale>  0 0.16337055E+04</rscale>
<asrwt>0</asrwt>
<pdfrwt beam="1">  1        2 0.34346485E+00 0.16337055E+04</pdfrwt>
<pdfrwt beam="2">  1       -1 0.45981015E-01 0.16337055E+04</pdfrwt>
<totfact> 0.25382854E+01</totfact>
</mgrwt>
</event>
<event>
12    7  0.1660832E-007  0.4619478E+04  0.7818608E-02  0.7890047E-01
          2   -1    0    0  501    0  0.00000000000E+00  0.00000000000E+00  0.25646655315E+04  0.25646655315E+04  0.00000000000E+00 0. -1.
         -1   -1    0    0    0  501 -0.00000000000E+00 -0.00000000000E+00 -0.20801518136E+04  0.20801518136E+04  0.00000000000E+00 0.  1.
         24    2    1    2    0    0 -0.17941952463E+04  0.53590627222E+03  0.14466662144E+04  0.23675633946E+04  0.78620462624E+02 0.  0.
        254    2    1    2    0    0  0.17941952463E+04 -0.53590627222E+03 -0.96215249651E+03  0.22772539505E+04  0.86822578531E+03 0.  0.
         23    2    4    4    0    0 -0.25358191987E+02  0.37687292925E+02  0.50414299661E+02  0.11544887683E+03  0.93399526777E+02 0.  0.
         23    2    4    4    0    0  0.18195534383E+04 -0.57359356514E+03 -0.10125667962E+04  0.21618050737E+04  0.91243450621E+02 0.  0.
          2    1    3    3  502    0 -0.13169572390E+04  0.41028859800E+03  0.11036729718E+04  0.17665806327E+04  0.00000000000E+00 0. -1.
         -1    1    3    3    0  502 -0.47723800723E+03  0.12561767422E+03  0.34299324253E+03  0.60098276185E+03  0.00000000000E+00 0.  1.
         13    1    5    5    0    0 -0.40572347983E+02  0.14748211777E+02  0.69596774222E+02  0.81898328148E+02  0.00000000000E+00 0.  1.
        -13    1    5    5    0    0  0.15214155996E+02  0.22939081148E+02 -0.19182474561E+02  0.33550548682E+02  0.00000000000E+00 0. -1.
          1    1    6    6  503    0  0.91547084603E+02 -0.28766942844E+02 -0.74649430275E+02  0.12157690217E+03  0.00000000000E+00 0. -1.
         -1    1    6    6    0  503  0.17280063537E+04 -0.54482662230E+03 -0.93791736589E+03  0.20402281715E+04  0.00000000000E+00 0.  1.
<mgrwt>
<rscale>  0 0.46194777E+04</rscale>
<asrwt>0</asrwt>
<pdfrwt beam="1">  1        2 0.39456393E+00 0.46194777E+04</pdfrwt>
<pdfrwt beam="2">  1       -1 0.32002336E+00 0.46194777E+04</pdfrwt>
<totfact> 0.66639392E-02</totfact>
</mgrwt>
</event>
<event>
12    7  0.1660832E-007  0.2430484E+04  0.7818608E-02  0.8428178E-01
          2   -1    0    0  501    0  0.00000000000E+00  0.00000000000E+00  0.17981004909E+04  0.17981004909E+04  0.00000000000E+00 0. -1.
         -1   -1    0    0    0  501 -0.00000000000E+00 -0.00000000000E+00 -0.82131860586E+03  0.82131860586E+03  0.00000000000E+00 0.  1.
         24    2    1    2    0    0  0.70970211986E+03  0.26701320534E+03 -0.35579814073E+03  0.84134830603E+03  0.79382015254E+02 0.  0.
        254    2    1    2    0    0 -0.70970211986E+03 -0.26701320534E+03  0.13325800258E+04  0.17780707908E+04  0.90044048165E+03 0.  0.
         23    2    4    4    0    0 -0.68133330144E+03  0.84313078317E+02  0.45816217517E+03  0.83086013019E+03  0.95353103546E+02 0.  0.
         23    2    4    4    0    0 -0.28368818422E+02 -0.35132628365E+03  0.87441785064E+03  0.94721066057E+03  0.91468631418E+02 0.  0.
          2    1    3    3  502    0  0.24966629574E+03  0.82092212290E+02 -0.83933387833E+02  0.27589346520E+03  0.00000000000E+00 0. -1.
         -1    1    3    3    0  502  0.46003582412E+03  0.18492099305E+03 -0.27186475290E+03  0.56545484082E+03  0.00000000000E+00 0.  1.
         13    1    5    5    0    0 -0.18645965475E+03 -0.18902499838E+02  0.13243555749E+03  0.22948569506E+03  0.00000000000E+00 0. -1.
        -13    1    5    5    0    0 -0.49487364668E+03  0.10321557815E+03  0.32572661768E+03  0.60137443513E+03  0.00000000000E+00 0.  1.
          4    1    6    6  503    0 -0.56550986388E+02 -0.28026849965E+03  0.64916337998E+03  0.70933880471E+03  0.00000000000E+00 0.  1.
         -4    1    6    6    0  503  0.28182167965E+02 -0.71057784005E+02  0.22525447065E+03  0.23787185586E+03  0.00000000000E+00 0. -1.
<mgrwt>
<rscale>  0 0.24304842E+04</rscale>
<asrwt>0</asrwt>
<pdfrwt beam="1">  1        2 0.27663084E+00 0.24304842E+04</pdfrwt>
<pdfrwt beam="2">  1       -1 0.12635671E+00 0.24304842E+04</pdfrwt>
<totfact> 0.48111998E+00</totfact>
</mgrwt>
</event>
<event>
12    7  0.1660832E-007  0.2360330E+04  0.7818608E-02  0.8454507E-01
         -1   -1    0    0    0  501 -0.00000000000E+00  0.00000000000E+00  0.72366067889E+03  0.72366067889E+03  0.00000000000E+00 0.  1.
          2   -1    0    0  501    0  0.00000000000E+00 -0.00000000000E+00 -0.19246439403E+04  0.19246439403E+04  0.00000000000E+00 0. -1.
         24    2    1    2    0    0  0.20580528711E+03 -0.88374680237E+03 -0.10052730505E+04  0.13567047146E+04  0.81911840829E+02 0.  0.
        254    2    1    2    0    0 -0.20580528711E+03  0.88374680237E+03 -0.19571021085E+03  0.12915999045E+04  0.89808885967E+03 0.  0.
         23    2    4    4    0    0 -0.53551711950E+03  0.42210978149E+03 -0.11835088839E+02  0.68838608454E+03  0.93702076554E+02 0.  0.
         23    2    4    4    0    0  0.32971183239E+03  0.46163702088E+03 -0.18387512201E+03  0.60321382000E+03  0.90764644439E+02 0.  0.
          4    1    3    3  502    0  0.15677085084E+03 -0.77018793086E+03 -0.89335104354E+03  0.11898918588E+04  0.00000000000E+00 0. -1.
         -3    1    3    3    0  502  0.49034436273E+02 -0.11355887150E+03 -0.11192200701E+03  0.16681285589E+03  0.00000000000E+00 0.  1.
         13    1    5    5    0    0 -0.35681835318E+03  0.33357725127E+03 -0.19010113044E+02  0.48882972918E+03  0.00000000000E+00 0.  1.
        -13    1    5    5    0    0 -0.17869876632E+03  0.88532530217E+02  0.71750242049E+01  0.19955635536E+03  0.00000000000E+00 0. -1.
          1    1    6    6  503    0  0.13767689277E+03  0.25954706755E+03 -0.69674498328E+02  0.30195056349E+03  0.00000000000E+00 0. -1.
         -1    1    6    6    0  503  0.19203493962E+03  0.20208995333E+03 -0.11420062368E+03  0.30126325650E+03  0.00000000000E+00 0.  1.
<mgrwt>
<rscale>  0 0.23603298E+04</rscale>
<asrwt>0</asrwt>
<pdfrwt beam="1">  1        2 0.29609906E+00 0.23603298E+04</pdfrwt>
<pdfrwt beam="2">  1       -1 0.11133241E+00 0.23603298E+04</pdfrwt>
<totfact> 0.56032278E+00</totfact>
</mgrwt>
</event>
<event>
12    7  0.1660832E-007  0.1780825E+04  0.7818608E-02  0.8716564E-01
         -1   -1    0    0    0  501 -0.00000000000E+00  0.00000000000E+00  0.19307914492E+04  0.19307914492E+04  0.00000000000E+00 0.  1.
          2   -1    0    0  501    0  0.00000000000E+00 -0.00000000000E+00 -0.41062644209E+03  0.41062644209E+03  0.00000000000E+00 0. -1.
         24    2    1    2    0    0  0.19175001444E+03  0.25781910605E+03  0.13032378258E+04  0.13445895007E+04  0.79078032087E+02 0.  0.
        254    2    1    2    0    0 -0.19175001444E+03 -0.25781910605E+03  0.21692718126E+03  0.99682839061E+03  0.91835215406E+03 0.  0.
         23    2    4    4    0    0 -0.49902855548E+03 -0.36618677779E+03  0.19776498852E+03  0.65618016593E+03  0.91319023531E+02 0.  0.
         23    2    4    4    0    0  0.30727854105E+03  0.10836767174E+03  0.19162192747E+02  0.34064822468E+03  0.97521122207E+02 0.  0.
          2    1    3    3  502    0  0.35119161935E+02  0.94256856230E+01  0.17710565150E+03  0.18079991947E+03  0.00000000000E+00 0. -1.
         -1    1    3    3    0  502  0.15663085250E+03  0.24839342043E+03  0.11261321743E+04  0.11637895812E+04  0.00000000000E+00 0.  1.
         13    1    5    5    0    0 -0.11168966020E+03 -0.11669293923E+03  0.21844276622E+02  0.16299998369E+03  0.00000000000E+00 0.  1.
        -13    1    5    5    0    0 -0.38733889528E+03 -0.24949383856E+03  0.17592071189E+03  0.49318018224E+03  0.00000000000E+00 0. -1.
          2    1    6    6  503    0  0.27359254152E+03  0.97451751379E+02  0.48762592492E+02  0.29449535319E+03  0.00000000000E+00 0. -1.
         -2    1    6    6    0  503  0.33685999527E+02  0.10915920365E+02 -0.29600399745E+02  0.46152871488E+02  0.00000000000E+00 0.  1.
<mgrwt>
<rscale>  0 0.17808246E+04</rscale>
<asrwt>0</asrwt>
<pdfrwt beam="1">  1        2 0.63173300E-01 0.17808246E+04</pdfrwt>
<pdfrwt beam="2">  1       -1 0.29704483E+00 0.17808246E+04</pdfrwt>
<totfact> 0.28835740E+00</totfact>
</mgrwt>
</event>
<event>
12    7  0.1660832E-007  0.1628568E+04  0.7818608E-02  0.8803187E-01
         -1   -1    0    0    0  501 -0.00000000000E+00  0.00000000000E+00  0.24745418481E+03  0.24745418481E+03  0.00000000000E+00 0.  1.
          2   -1    0    0  501    0  0.00000000000E+00 -0.00000000000E+00 -0.26795192979E+04  0.26795192979E+04  0.00000000000E+00 0. -1.
         24    2    1    2    0    0  0.46520714489E+03 -0.25073799339E+03 -0.48119307323E+03  0.71877830889E+03  0.76211906072E+02 0.  0.
        254    2    1    2    0    0 -0.46520714489E+03  0.25073799339E+03 -0.19508720399E+04  0.22081951739E+04  0.88934637839E+03 0.  0.
         23    2    4    4    0    0 -0.61076208495E+03  0.13592764482E+03 -0.18899300281E+04  0.19928680303E+04  0.90447919070E+02 0.  0.
         23    2    4    4    0    0  0.14555494006E+03  0.11481034857E+03 -0.60942011774E+02  0.21532714352E+03  0.91017543479E+02 0.  0.
          2    1    3    3  502    0  0.31857244993E+03 -0.15918002473E+03 -0.36823909671E+03  0.51227601786E+03  0.00000000000E+00 0. -1.
         -1    1    3    3    0  502  0.14663469496E+03 -0.91557968659E+02 -0.11295397651E+03  0.20650229103E+03  0.00000000000E+00 0.  1.
         13    1    5    5    0    0 -0.13078266043E+03  0.28936002557E+02 -0.53316576763E+03  0.54973369215E+03  0.00000000000E+00 0. -1.
        -13    1    5    5    0    0 -0.47997942452E+03  0.10699164226E+03 -0.13567642605E+04  0.14431343382E+04  0.00000000000E+00 0.  1.
          1    1    6    6  503    0  0.71169788536E+02  0.69278416848E+02 -0.78212720081E+02  0.12641941079E+03  0.00000000000E+00 0.  1.
         -1    1    6    6    0  503  0.74385151525E+02  0.45531931722E+02  0.17270708307E+02  0.88907732730E+02  0.00000000000E+00 0. -1.
<mgrwt>
<rscale>  0 0.16285678E+04</rscale>
<asrwt>0</asrwt>
<pdfrwt beam="1">  1        2 0.41223376E+00 0.16285678E+04</pdfrwt>
<pdfrwt beam="2">  1       -1 0.38069873E-01 0.16285678E+04</pdfrwt>
<totfact> 0.19898661E+01</totfact>
</mgrwt>
</event>
<event>
12    7  0.1660832E-007  0.1798873E+04  0.7818608E-02  0.8706899E-01
         -1   -1    0    0    0  501 -0.00000000000E+00  0.00000000000E+00  0.15801484869E+04  0.15801484869E+04  0.00000000000E+00 0.  1.
          2   -1    0    0  501    0  0.00000000000E+00 -0.00000000000E+00 -0.51196859816E+03  0.51196859816E+03  0.00000000000E+00 0. -1.
         24    2    1    2    0    0  0.10325007376E+03  0.49164873546E+03 -0.11344861827E+03  0.52115863140E+03  0.79728748136E+02 0.  0.
        254    2    1    2    0    0 -0.10325007376E+03 -0.49164873546E+03  0.11816285070E+04  0.15709584537E+04  0.90514389892E+03 0.  0.
         23    2    4    4    0    0 -0.25809207603E+03  0.18291286023E+03  0.47228362225E+03  0.57575180509E+03  0.91485993812E+02 0.  0.
         23    2    4    4    0    0  0.15484200228E+03 -0.67456159570E+03  0.70934488478E+03  0.99520664860E+03  0.90866472305E+02 0.  0.
          2    1    3    3  502    0  0.78064264329E+02  0.46319546911E+03 -0.11312818931E+03  0.48315842038E+03  0.00000000000E+00 0. -1.
         -1    1    3    3    0  502  0.25185809428E+02  0.28453266359E+02 -0.32042896468E+00  0.38000211023E+02  0.00000000000E+00 0.  1.
         13    1    5    5    0    0 -0.18338728877E+03  0.15977944744E+03  0.40577922877E+03  0.47309317476E+03  0.00000000000E+00 0. -1.
        -13    1    5    5    0    0 -0.74704787262E+02  0.23133412790E+02  0.66504393483E+02  0.10265863032E+03  0.00000000000E+00 0.  1.
          1    1    6    6  503    0  0.13752084766E+03 -0.41449792796E+03  0.42265802763E+03  0.60775021526E+03  0.00000000000E+00 0. -1.
         -1    1    6    6    0  503  0.17321154615E+02 -0.26006366774E+03  0.28668685715E+03  0.38745643334E+03  0.00000000000E+00 0.  1.
<mgrwt>
<rscale>  0 0.17988734E+04</rscale>
<asrwt>0</asrwt>
<pdfrwt beam="1">  1        2 0.78764400E-01 0.17988734E+04</pdfrwt>
<pdfrwt beam="2">  1       -1 0.24309977E+00 0.17988734E+04</pdfrwt>
<totfact> 0.49998564E+00</totfact>
</mgrwt>
</event>
<event>
12    7  0.1660832E-007  0.1755572E+04  0.7818608E-02  0.8730289E-01
          2   -1    0    0  501    0  0.00000000000E+00  0.00000000000E+00  0.15095798775E+04  0.15095798775E+04  0.00000000000E+00 0. -1.
         -1   -1    0    0    0  501 -0.00000000000E+00 -0.00000000000E+00 -0.51041217378E+03  0.51041217378E+03  0.00000000000E+00 0.  1.
         24    2    1    2    0    0  0.17209242179E+02  0.54566809623E+03  0.73162030267E+03  0.91642135480E+03  0.80684589645E+02 0.  0.
        254    2    1    2    0    0 -0.17209242179E+02 -0.54566809623E+03  0.26754740110E+03  0.11035706965E+04  0.92099774220E+03 0.  0.
         23    2    4    4    0    0  0.36852802195E+03 -0.38521743514E+03 -0.87204617796E+02  0.54777596170E+03  0.90821162450E+02 0.  0.
         23    2    4    4    0    0 -0.38573726413E+03 -0.16045066109E+03  0.35475201889E+03  0.55579473483E+03  0.92310025326E+02 0.  0.
          2    1    3    3  502    0 -0.18077232237E+02  0.16368219199E+03  0.26945879391E+03  0.31579532599E+03  0.00000000000E+00 0. -1.
         -1    1    3    3    0  502  0.35286474416E+02  0.38198590424E+03  0.46216150875E+03  0.60062602881E+03  0.00000000000E+00 0.  1.
         13    1    5    5    0    0  0.26517015973E+03 -0.24025034349E+03 -0.92762980552E+02  0.36964903858E+03  0.00000000000E+00 0.  1.
        -13    1    5    5    0    0  0.10335786222E+03 -0.14496709165E+03  0.55583627558E+01  0.17812692312E+03  0.00000000000E+00 0. -1.
          1    1    6    6  503    0 -0.31628929015E+02 -0.44316096480E+02  0.34742380184E+02  0.64585900464E+02  0.00000000000E+00 0. -1.
         -1    1    6    6    0  503 -0.35410833512E+03 -0.11613456461E+03  0.32000963871E+03  0.49120883437E+03  0.00000000000E+00 0.  1.
<mgrwt>
<rscale>  0 0.17555716E+04</rscale>
<asrwt>0</asrwt>
<pdfrwt beam="1">  1        2 0.23224306E+00 0.17555716E+04</pdfrwt>
<pdfrwt beam="2">  1       -1 0.78524950E-01 0.17555716E+04</pdfrwt>
<totfact> 0.21963579E+01</totfact>
</mgrwt>
</event>
<event>
12    7  0.1660832E-007  0.1560455E+04  0.7818608E-02  0.8845217E-01
         -1   -1    0    0    0  501 -0.00000000000E+00  0.00000000000E+00  0.61921550248E+03  0.61921550248E+03  0.00000000000E+00 0.  1.
          2   -1    0    0  501    0  0.00000000000E+00 -0.00000000000E+00 -0.98310704166E+03  0.98310704166E+03  0.00000000000E+00 0. -1.
         24    2    1    2    0    0  0.44434202958E+03  0.21221718536E+03  0.73440113372E+02  0.50300365382E+03  0.71716472941E+02 0.  0.
        254    2    1    2    0    0 -0.44434202958E+03 -0.21221718536E+03 -0.43733165255E+03  0.10993188903E+04  0.88020854080E+03 0.  0.
         23    2    4    4    0    0 -0.11373449478E+02  0.29168189492E+03 -0.26894123812E+03  0.40800020458E+03  0.94483301165E+02 0.  0.
         23    2    4    4    0    0 -0.43296858010E+03 -0.50389908027E+03 -0.16839041443E+03  0.69131868574E+03  0.90499276976E+02 0.  0.
          4    1    3    3  502    0  0.20933812135E+03  0.13934058860E+03  0.32155402165E+02  0.25351966111E+03  0.00000000000E+00 0. -1.
         -3    1    3    3    0  502  0.23500390823E+03  0.72876596759E+02  0.41284711207E+02  0.24948399271E+03  0.00000000000E+00 0.  1.
         13    1    5    5    0    0  0.13974938682E+02  0.83553406268E+01  0.36041257156E+00  0.16286206598E+02  0.00000000000E+00 0. -1.
        -13    1    5    5    0    0 -0.25348388159E+02  0.28332655429E+03 -0.26930165069E+03  0.39171399798E+03  0.00000000000E+00 0.  1.
          3    1    6    6  503    0 -0.25529161743E+03 -0.30474956420E+03 -0.54982610376E+02  0.40133426748E+03  0.00000000000E+00 0. -1.
         -3    1    6    6    0  503 -0.17767696267E+03 -0.19914951607E+03 -0.11340780405E+03  0.28998441826E+03  0.00000000000E+00 0.  1.
<mgrwt>
<rscale>  0 0.15604552E+04</rscale>
<asrwt>0</asrwt>
<pdfrwt beam="1">  1        2 0.15124724E+00 0.15604552E+04</pdfrwt>
<pdfrwt beam="2">  1       -1 0.95263924E-01 0.15604552E+04</pdfrwt>
<totfact> 0.30170068E+01</totfact>
</mgrwt>
</event>
<event>
12    7  0.1660832E-007  0.1804375E+04  0.7818608E-02  0.8703976E-01
          2   -1    0    0  501    0  0.00000000000E+00  0.00000000000E+00  0.15669184627E+04  0.15669184627E+04  0.00000000000E+00 0. -1.
         -1   -1    0    0    0  501 -0.00000000000E+00 -0.00000000000E+00 -0.51945419108E+03  0.51945419108E+03  0.00000000000E+00 0.  1.
         24    2    1    2    0    0  0.10987542922E+03  0.23102688656E+03 -0.32994350336E+03  0.42507315362E+03  0.79865125453E+02 0.  0.
        254    2    1    2    0    0 -0.10987542922E+03 -0.23102688656E+03  0.13774077750E+04  0.16612995001E+04  0.89287054962E+03 0.  0.
         23    2    4    4    0    0  0.74990112071E+01 -0.10367007881E+03  0.14472385769E+04  0.14537706445E+04  0.90254462592E+02 0.  0.
         23    2    4    4    0    0 -0.11737444043E+03 -0.12735680775E+03 -0.69830801923E+02  0.20752885563E+03  0.90528278866E+02 0.  0.
          4    1    3    3  502    0  0.72615692769E+02  0.81345904804E+02 -0.17673562007E+03  0.20766722049E+03  0.00000000000E+00 0. -1.
         -3    1    3    3    0  502  0.37259736451E+02  0.14968098176E+03 -0.15320788329E+03  0.21740593313E+03  0.00000000000E+00 0.  1.
         13    1    5    5    0    0 -0.18207926495E+02  0.41589838936E+01  0.84921422182E+02  0.86950984352E+02  0.00000000000E+00 0. -1.
        -13    1    5    5    0    0  0.25706937702E+02 -0.10782906270E+03  0.13623171547E+04  0.13668196602E+04  0.00000000000E+00 0.  1.
          4    1    6    6  503    0 -0.70561134060E+02 -0.32886663340E+02  0.53567176881E+01  0.78032689879E+02  0.00000000000E+00 0. -1.
         -4    1    6    6    0  503 -0.46813306367E+02 -0.94470144410E+02 -0.75187519611E+02  0.12949616575E+03  0.00000000000E+00 0.  1.
<mgrwt>
<rscale>  0 0.18043751E+04</rscale>
<asrwt>0</asrwt>
<pdfrwt beam="1">  1        2 0.24106438E+00 0.18043751E+04</pdfrwt>
<pdfrwt beam="2">  1       -1 0.79916030E-01 0.18043751E+04</pdfrwt>
<totfact> 0.19564028E+01</totfact>
</mgrwt>
</event>
<event>
12    7  0.1660832E-007  0.1652039E+04  0.7818608E-02  0.8789201E-01
         -1   -1    0    0    0  501 -0.00000000000E+00  0.00000000000E+00  0.14913776507E+04  0.14913776507E+04  0.00000000000E+00 0.  1.
          2   -1    0    0  501    0  0.00000000000E+00 -0.00000000000E+00 -0.45750171430E+03  0.45750171430E+03  0.00000000000E+00 0. -1.
         24    2    1    2    0    0  0.41831915450E+03  0.30112753118E+03  0.60158580368E+02  0.52487283522E+03  0.78763781681E+02 0.  0.
        254    2    1    2    0    0 -0.41831915450E+03 -0.30112753118E+03  0.97371735606E+03  0.14240065298E+04  0.90221970851E+03 0.  0.
         23    2    4    4    0    0  0.16231788971E+03 -0.38027940336E+03  0.26514773820E+03  0.50025862470E+03  0.94846436821E+02 0.  0.
         23    2    4    4    0    0 -0.58063704420E+03  0.79151872182E+02  0.70856961786E+03  0.92374790511E+03  0.88514930242E+02 0.  0.
          4    1    3    3  502    0  0.22898149590E+02  0.17936550407E+02 -0.15006616588E+02  0.32729858487E+02  0.00000000000E+00 0. -1.
         -1    1    3    3    0  502  0.39542100491E+03  0.28319098077E+03  0.75165196956E+02  0.49214297673E+03  0.00000000000E+00 0.  1.
         13    1    5    5    0    0  0.60113747745E+02 -0.52163039213E+02  0.37100882259E+02  0.87812987606E+02  0.00000000000E+00 0. -1.
        -13    1    5    5    0    0  0.10220414196E+03 -0.32811636415E+03  0.22804685594E+03  0.41244563710E+03  0.00000000000E+00 0.  1.
          2    1    6    6  503    0 -0.18044524936E+03  0.54905034318E+02  0.18387713651E+03  0.26341194381E+03  0.00000000000E+00 0. -1.
         -2    1    6    6    0  503 -0.40019179484E+03  0.24246837864E+02  0.52469248135E+03  0.66033596131E+03  0.00000000000E+00 0.  1.
<mgrwt>
<rscale>  0 0.16520385E+04</rscale>
<asrwt>0</asrwt>
<pdfrwt beam="1">  1        2 0.70384880E-01 0.16520385E+04</pdfrwt>
<pdfrwt beam="2">  1       -1 0.22944271E+00 0.16520385E+04</pdfrwt>
<totfact> 0.70940498E+00</totfact>
</mgrwt>
</event>
<event>
12    7  0.1660832E-007  0.1303828E+04  0.7818608E-02  0.9026535E-01
          2   -1    0    0  501    0  0.00000000000E+00  0.00000000000E+00  0.77242680281E+03  0.77242680281E+03  0.00000000000E+00 0. -1.
         -1   -1    0    0    0  501 -0.00000000000E+00 -0.00000000000E+00 -0.55020316439E+03  0.55020316439E+03  0.00000000000E+00 0.  1.
         24    2    1    2    0    0 -0.29989523566E+03  0.90324118842E+02  0.17962873962E+03  0.36976924774E+03  0.79794822246E+02 0.  0.
        254    2    1    2    0    0  0.29989523566E+03 -0.90324118842E+02  0.42594898797E+02  0.95286071946E+03  0.89890690645E+03 0.  0.
         23    2    4    4    0    0  0.42408638431E+03  0.93704236128E+02 -0.29757453896E+03  0.53576328096E+03  0.99307309702E+02 0.  0.
         23    2    4    4    0    0 -0.12419114865E+03 -0.18402835497E+03  0.34016943775E+03  0.41709743850E+03  0.94684475941E+02 0.  0.
          2    1    3    3  502    0  0.42955611963E+01 -0.24085411828E+01  0.10066809515E+01  0.50265617631E+01  0.00000000000E+00 0. -1.
         -1    1    3    3    0  502 -0.30419079686E+03  0.92732660025E+02  0.17862205867E+03  0.36474268597E+03  0.00000000000E+00 0.  1.
         13    1    5    5    0    0  0.37971831443E+03  0.11434330356E+03 -0.26680972571E+03  0.47796215239E+03  0.00000000000E+00 0. -1.
        -13    1    5    5    0    0  0.44368069878E+02 -0.20639067435E+02 -0.30764813245E+02  0.57801128564E+02  0.00000000000E+00 0.  1.
          1    1    6    6  503    0 -0.26378642888E+02 -0.73090701572E+02  0.52937576387E+02  0.94023775986E+02  0.00000000000E+00 0. -1.
         -1    1    6    6    0  503 -0.97812505764E+02 -0.11093765340E+03  0.28723186137E+03  0.32307366251E+03  0.00000000000E+00 0.  1.
<mgrwt>
<rscale>  0 0.13038277E+04</rscale>
<asrwt>0</asrwt>
<pdfrwt beam="1">  1        2 0.11883489E+00 0.13038277E+04</pdfrwt>
<pdfrwt beam="2">  1       -1 0.84646641E-01 0.13038277E+04</pdfrwt>
<totfact> 0.55802512E+01</totfact>
</mgrwt>
</event>
<event>
12    7  0.1660832E-007  0.1172906E+04  0.7818608E-02  0.9136908E-01
         -1   -1    0    0    0  501 -0.00000000000E+00  0.00000000000E+00  0.27141101893E+03  0.27141101893E+03  0.00000000000E+00 0.  1.
          2   -1    0    0  501    0  0.00000000000E+00 -0.00000000000E+00 -0.12671825475E+04  0.12671825475E+04  0.00000000000E+00 0. -1.
         24    2    1    2    0    0 -0.40199975471E+02 -0.21379277008E+03 -0.19947870919E+03  0.30583709765E+03  0.80132317524E+02 0.  0.
        254    2    1    2    0    0  0.40199975471E+02  0.21379277008E+03 -0.79629281939E+03  0.12327564688E+04  0.91557788887E+03 0.  0.
         23    2    4    4    0    0  0.14169183472E+03  0.40474120754E+03 -0.39274537484E+02  0.44013899934E+03  0.91037510608E+02 0.  0.
         23    2    4    4    0    0 -0.10149185924E+03 -0.19094843747E+03 -0.75701828191E+03  0.79261746946E+03  0.91672626668E+02 0.  0.
          4    1    3    3  502    0 -0.55872185869E+02 -0.19412738238E+03 -0.19404924983E+03  0.28011114420E+03  0.00000000000E+00 0. -1.
         -3    1    3    3    0  502  0.15672210399E+02 -0.19665387696E+02 -0.54294593636E+01  0.25725953452E+02  0.00000000000E+00 0.  1.
         13    1    5    5    0    0  0.36021898224E+02  0.23906871000E+03 -0.16700882981E+02  0.24234344379E+03  0.00000000000E+00 0.  1.
        -13    1    5    5    0    0  0.10566993649E+03  0.16567249754E+03 -0.22573654503E+02  0.19779555555E+03  0.00000000000E+00 0. -1.
          1    1    6    6  503    0 -0.10186396745E+03 -0.96458632267E+02 -0.44116525913E+03  0.46293338772E+03  0.00000000000E+00 0. -1.
         -1    1    6    6    0  503  0.37210820858E+00 -0.94489805198E+02 -0.31585302278E+03  0.32968408173E+03  0.00000000000E+00 0.  1.
<mgrwt>
<rscale>  0 0.11729063E+04</rscale>
<asrwt>0</asrwt>
<pdfrwt beam="1">  1        2 0.19495116E+00 0.11729063E+04</pdfrwt>
<pdfrwt beam="2">  1       -1 0.41755542E-01 0.11729063E+04</pdfrwt>
<totfact> 0.10950383E+02</totfact>
</mgrwt>
</event>
<event>
12    7  0.1660832E-007  0.1210138E+04  0.7818608E-02  0.9104028E-01
         -1   -1    0    0    0  501 -0.00000000000E+00  0.00000000000E+00  0.43385359100E+03  0.43385359100E+03  0.00000000000E+00 0.  1.
          2   -1    0    0  501    0  0.00000000000E+00 -0.00000000000E+00 -0.84385306528E+03  0.84385306528E+03  0.00000000000E+00 0. -1.
         24    2    1    2    0    0 -0.47649484703E+01 -0.25688558835E+03 -0.19920171390E+03  0.33472293880E+03  0.79656843420E+02 0.  0.
        254    2    1    2    0    0  0.47649484703E+01  0.25688558835E+03 -0.21079776037E+03  0.94298371747E+03  0.88247928327E+03 0.  0.
         23    2    4    4    0    0  0.19765672442E+03 -0.16709022516E+03  0.18014982692E+03  0.32803973194E+03  0.90381311869E+02 0.  0.
         23    2    4    4    0    0 -0.19289177595E+03  0.42397581351E+03 -0.39094758730E+03  0.61494398554E+03  0.91396726758E+02 0.  0.
          2    1    3    3  502    0  0.22454985808E+02 -0.17107582335E+03 -0.16404003228E+03  0.23807623971E+03  0.00000000000E+00 0. -1.
         -1    1    3    3    0  502 -0.27219934278E+02 -0.85809765004E+02 -0.35161681621E+02  0.96646699098E+02  0.00000000000E+00 0.  1.
         13    1    5    5    0    0  0.17215823314E+03 -0.93846552957E+02  0.11987890543E+03  0.22981859086E+03  0.00000000000E+00 0.  1.
        -13    1    5    5    0    0  0.25498491280E+02 -0.73243672206E+02  0.60270921496E+02  0.98221141073E+02  0.00000000000E+00 0. -1.
          4    1    6    6  503    0 -0.34911612036E+02  0.21590226101E+02 -0.47885849893E+02  0.63071492277E+02  0.00000000000E+00 0. -1.
         -4    1    6    6    0  503 -0.15798016392E+03  0.40238558741E+03 -0.34306173740E+03  0.55187249326E+03  0.00000000000E+00 0.  1.
<mgrwt>
<rscale>  0 0.12101383E+04</rscale>
<asrwt>0</asrwt>
<pdfrwt beam="1">  1        2 0.12982355E+00 0.12101383E+04</pdfrwt>
<pdfrwt beam="2">  1       -1 0.66746706E-01 0.12101383E+04</pdfrwt>
<totfact> 0.82067299E+01</totfact>
</mgrwt>
</event>
<event>
12    7  0.1660832E-007  0.1118501E+04  0.7818608E-02  0.9187345E-01
         -1   -1    0    0    0  501 -0.00000000000E+00  0.00000000000E+00  0.21485416643E+03  0.21485416643E+03  0.00000000000E+00 0.  1.
          2   -1    0    0  501    0  0.00000000000E+00 -0.00000000000E+00 -0.14556893052E+04  0.14556893052E+04  0.00000000000E+00 0. -1.
         24    2    1    2    0    0  0.15947279097E+03 -0.48552047529E+02 -0.25543205726E+03  0.31568345827E+03  0.81373445116E+02 0.  0.
        254    2    1    2    0    0 -0.15947279097E+03  0.48552047529E+02 -0.98540308153E+03  0.13548600134E+04  0.91478825440E+03 0.  0.
         23    2    4    4    0    0  0.36454350750E+03 -0.10590774923E+02 -0.54383939076E+03  0.66104813706E+03  0.90659931541E+02 0.  0.
         23    2    4    4    0    0 -0.52401629847E+03  0.59142822452E+02 -0.44156369076E+03  0.69381187631E+03  0.91134363490E+02 0.  0.
          2    1    3    3  502    0  0.15994216011E+03 -0.45648447428E+02 -0.26093790684E+03  0.30944121664E+03  0.00000000000E+00 0. -1.
         -1    1    3    3    0  502 -0.46936914291E+00 -0.29036001013E+01  0.55058495769E+01  0.62422416249E+01  0.00000000000E+00 0.  1.
         13    1    5    5    0    0  0.11498722103E+03 -0.45759974176E+02 -0.18204664830E+03  0.22012954912E+03  0.00000000000E+00 0. -1.
        -13    1    5    5    0    0  0.24955628647E+03  0.35169199253E+02 -0.36179274246E+03  0.44091858794E+03  0.00000000000E+00 0.  1.
          1    1    6    6  503    0 -0.43834998700E+02  0.17348293136E+02 -0.73644041023E+02  0.87440923851E+02  0.00000000000E+00 0. -1.
         -1    1    6    6    0  503 -0.48018129977E+03  0.41794529316E+02 -0.36791964974E+03  0.60637095246E+03  0.00000000000E+00 0.  1.
<mgrwt>
<rscale>  0 0.11185006E+04</rscale>
<asrwt>0</asrwt>
<pdfrwt beam="1">  1        2 0.22395220E+00 0.11185006E+04</pdfrwt>
<pdfrwt beam="2">  1       -1 0.33054488E-01 0.11185006E+04</pdfrwt>
<totfact> 0.13054159E+02</totfact>
</mgrwt>
</event>
<event>
12    7  0.1660832E-007  0.1681437E+04  0.7818608E-02  0.8772023E-01
         -1   -1    0    0    0  501 -0.00000000000E+00  0.00000000000E+00  0.31757028190E+03  0.31757028190E+03  0.00000000000E+00 0.  1.
          2   -1    0    0  501    0  0.00000000000E+00 -0.00000000000E+00 -0.22256726035E+04  0.22256726035E+04  0.00000000000E+00 0. -1.
         24    2    1    2    0    0  0.59451580763E+03  0.20080996202E+02 -0.81056864864E+03  0.10090645296E+04  0.85658617612E+02 0.  0.
        254    2    1    2    0    0 -0.59451580763E+03 -0.20080996202E+02 -0.10975336729E+04  0.15341783558E+04  0.89177955360E+03 0.  0.
         23    2    4    4    0    0 -0.68325027079E+03  0.38796319158E+02 -0.35049196661E+03  0.77402941089E+03  0.89111297527E+02 0.  0.
         23    2    4    4    0    0  0.88734463163E+02 -0.58877315360E+02 -0.74704170630E+03  0.76014894488E+03  0.91732024065E+02 0.  0.
          4    1    3    3  502    0  0.42440947714E+03  0.19996247671E+02 -0.63980694065E+03  0.76803396769E+03  0.00000000000E+00 0. -1.
         -3    1    3    3    0  502  0.17010633048E+03  0.84748530813E-01 -0.17076170799E+03  0.24103056190E+03  0.00000000000E+00 0.  1.
         13    1    5    5    0    0 -0.20912162263E+03 -0.22782773739E+02 -0.13213183549E+03  0.24841443150E+03  0.00000000000E+00 0.  1.
        -13    1    5    5    0    0 -0.47412864816E+03  0.61579092897E+02 -0.21836013112E+03  0.52561497939E+03  0.00000000000E+00 0. -1.
          3    1    6    6  503    0  0.33744436016E+02  0.13237788127E+02 -0.92404068526E+02  0.99259447292E+02  0.00000000000E+00 0. -1.
         -3    1    6    6    0  503  0.54990027147E+02 -0.72115103487E+02 -0.65463763777E+03  0.66088949759E+03  0.00000000000E+00 0.  1.
<mgrwt>
<rscale>  0 0.16814369E+04</rscale>
<asrwt>0</asrwt>
<pdfrwt beam="1">  1        2 0.34241116E+00 0.16814369E+04</pdfrwt>
<pdfrwt beam="2">  1       -1 0.48856967E-01 0.16814369E+04</pdfrwt>
<totfact> 0.22749769E+01</totfact>
</mgrwt>
</event>
<event>
12    7  0.1660832E-007  0.2204273E+04  0.7818608E-02  0.8516652E-01
         -1   -1    0    0    0  501 -0.00000000000E+00  0.00000000000E+00  0.75222939479E+03  0.75222939479E+03  0.00000000000E+00 0.  1.
          2   -1    0    0  501    0  0.00000000000E+00 -0.00000000000E+00 -0.16148065658E+04  0.16148065658E+04  0.00000000000E+00 0. -1.
         24    2    1    2    0    0  0.51581508244E+03  0.70289809878E+03 -0.35681211172E+02  0.87614485135E+03  0.78903201363E+02 0.  0.
        254    2    1    2    0    0 -0.51581508244E+03 -0.70289809878E+03 -0.82689595985E+03  0.14908911092E+04  0.88253523141E+03 0.  0.
         23    2    4    4    0    0 -0.69711038015E+03 -0.37261889414E+03 -0.33250498779E+03  0.86226288981E+03  0.90166522916E+02 0.  0.
         23    2    4    4    0    0  0.18129529771E+03 -0.33027920464E+03 -0.49439097206E+03  0.62862821944E+03  0.93801210176E+02 0.  0.
          2    1    3    3  502    0  0.89776023775E+02  0.88371367403E+02 -0.24287748077E+02  0.12829313204E+03  0.00000000000E+00 0. -1.
         -1    1    3    3    0  502  0.42603905866E+03  0.61452673138E+03 -0.11393463095E+02  0.74785171931E+03  0.00000000000E+00 0.  1.
         13    1    5    5    0    0 -0.10994142228E+03 -0.43576369644E+02 -0.19100999053E+02  0.11979509376E+03  0.00000000000E+00 0.  1.
        -13    1    5    5    0    0 -0.58716895786E+03 -0.32904252449E+03 -0.31340398874E+03  0.74246779604E+03  0.00000000000E+00 0. -1.
          3    1    6    6  503    0  0.12004172319E+03 -0.18318987082E+03 -0.35396468261E+03  0.41624456827E+03  0.00000000000E+00 0. -1.
         -3    1    6    6    0  503  0.61253574524E+02 -0.14708933383E+03 -0.14042628945E+03  0.21238365118E+03  0.00000000000E+00 0.  1.
<mgrwt>
<rscale>  0 0.22042731E+04</rscale>
<asrwt>0</asrwt>
<pdfrwt beam="1">  1        2 0.24843178E+00 0.22042731E+04</pdfrwt>
<pdfrwt beam="2">  1       -1 0.11572760E+00 0.22042731E+04</pdfrwt>
<totfact> 0.76978923E+00</totfact>
</mgrwt>
</event>
<event>
12    7  0.1660832E-007  0.1132869E+04  0.7818608E-02  0.9173734E-01
         -1   -1    0    0    0  501 -0.00000000000E+00  0.00000000000E+00  0.72396738546E+03  0.72396738546E+03  0.00000000000E+00 0.  1.
          2   -1    0    0  501    0  0.00000000000E+00 -0.00000000000E+00 -0.44318058920E+03  0.44318058920E+03  0.00000000000E+00 0. -1.
         24    2    1    2    0    0  0.50079627713E+01 -0.15313052337E+03  0.16972787049E+03  0.24241830583E+03  0.80529796365E+02 0.  0.
        254    2    1    2    0    0 -0.50079627713E+01  0.15313052337E+03  0.11105892577E+03  0.92472966883E+03  0.90516122240E+03 0.  0.
         23    2    4    4    0    0  0.32525391820E+03  0.37735313921E+03  0.84831801228E+02  0.51354701425E+03  0.91370664713E+02 0.  0.
         23    2    4    4    0    0 -0.33026188097E+03 -0.22422261584E+03  0.26227124539E+02  0.41118265458E+03  0.95050628065E+02 0.  0.
          2    1    3    3  502    0 -0.10954212344E+02 -0.31150403007E+02  0.89887828145E+02  0.95760973388E+02  0.00000000000E+00 0. -1.
         -1    1    3    3    0  502  0.15962175115E+02 -0.12198012036E+03  0.79840042347E+02  0.14665733244E+03  0.00000000000E+00 0.  1.
         13    1    5    5    0    0  0.17489243635E+03  0.14871353870E+03  0.97288310454E+01  0.22977756862E+03  0.00000000000E+00 0. -1.
        -13    1    5    5    0    0  0.15036148184E+03  0.22863960050E+03  0.75102970183E+02  0.28376944563E+03  0.00000000000E+00 0.  1.
          4    1    6    6  503    0 -0.42664728718E+02 -0.28641390271E+00  0.18757956100E+02  0.46607102748E+02  0.00000000000E+00 0.  1.
         -4    1    6    6    0  503 -0.28759715225E+03 -0.22393620194E+03  0.74691684387E+01  0.36457555184E+03  0.00000000000E+00 0. -1.
<mgrwt>
<rscale>  0 0.11328694E+04</rscale>
<asrwt>0</asrwt>
<pdfrwt beam="1">  1        2 0.68181629E-01 0.11328694E+04</pdfrwt>
<pdfrwt beam="2">  1       -1 0.11137960E+00 0.11328694E+04</pdfrwt>
<totfact> 0.59483199E+01</totfact>
</mgrwt>
</event>
<event>
12    7  0.1660832E-007  0.1584865E+04  0.7818608E-02  0.8829900E-01
         -1   -1    0    0    0  501 -0.00000000000E+00  0.00000000000E+00  0.47822579430E+03  0.47822579430E+03  0.00000000000E+00 0.  1.
          2   -1    0    0  501    0  0.00000000000E+00 -0.00000000000E+00 -0.13130807796E+04  0.13130807796E+04  0.00000000000E+00 0. -1.
         24    2    1    2    0    0  0.52596160169E+03 -0.56602145406E+02 -0.27611390755E+03  0.60252655999E+03  0.83426352125E+02 0.  0.
        254    2    1    2    0    0 -0.52596160169E+03  0.56602145406E+02 -0.55874107775E+03  0.11887800139E+04  0.90618260862E+03 0.  0.
         23    2    4    4    0    0 -0.32824756606E+03  0.21246217856E+02 -0.79414023776E+03  0.86451342870E+03  0.92341132688E+02 0.  0.
         23    2    4    4    0    0 -0.19771403564E+03  0.35355927550E+02  0.23539916000E+03  0.32426658520E+03  0.96928696721E+02 0.  0.
          2    1    3    3  502    0  0.50965066513E+03 -0.53325411723E+02 -0.28197090580E+03  0.58488887125E+03  0.00000000000E+00 0. -1.
         -1    1    3    3    0  502  0.16310936566E+02 -0.32767336838E+01  0.58569982527E+01  0.17637688733E+02  0.00000000000E+00 0.  1.
         13    1    5    5    0    0 -0.23976120912E+03 -0.25867166936E+02 -0.54564226966E+03  0.59655681554E+03  0.00000000000E+00 0.  1.
        -13    1    5    5    0    0 -0.88486356937E+02  0.47113384792E+02 -0.24849796810E+03  0.26795661316E+03  0.00000000000E+00 0. -1.
          2    1    6    6  503    0 -0.16690859824E+03  0.33667137353E+01  0.13575076991E+03  0.21516990138E+03  0.00000000000E+00 0. -1.
         -2    1    6    6    0  503 -0.30805437399E+02  0.31989213815E+02  0.99648390093E+02  0.10909668383E+03  0.00000000000E+00 0.  1.
<mgrwt>
<rscale>  0 0.15848648E+04</rscale>
<asrwt>0</asrwt>
<pdfrwt beam="1">  1        2 0.20201243E+00 0.15848648E+04</pdfrwt>
<pdfrwt beam="2">  1       -1 0.73573200E-01 0.15848648E+04</pdfrwt>
<totfact> 0.33086548E+01</totfact>
</mgrwt>
</event>
<event>
12    7  0.1660832E-007  0.2714624E+04  0.7818608E-02  0.8330276E-01
         -1   -1    0    0    0  501 -0.00000000000E+00  0.00000000000E+00  0.13303957373E+04  0.13303957373E+04  0.00000000000E+00 0.  1.
          2   -1    0    0  501    0  0.00000000000E+00 -0.00000000000E+00 -0.13847725940E+04  0.13847725940E+04  0.00000000000E+00 0. -1.
         24    2    1    2    0    0  0.44472614215E+03  0.43291838798E+03 -0.10625879347E+04  0.12331220010E+04  0.79354131453E+02 0.  0.
        254    2    1    2    0    0 -0.44472614215E+03 -0.43291838798E+03  0.10082110781E+04  0.14820463303E+04  0.89149990196E+03 0.  0.
         23    2    4    4    0    0 -0.13080936414E+03 -0.21002251653E+03 -0.11732289854E+03  0.28864067947E+03  0.91259148169E+02 0.  0.
         23    2    4    4    0    0 -0.31391677800E+03 -0.22289587145E+03  0.11255339766E+04  0.11934056509E+04  0.95728794100E+02 0.  0.
          4    1    3    3  502    0  0.37220753406E+03  0.33379516498E+03 -0.89751861347E+03  0.10273739933E+04  0.00000000000E+00 0. -1.
         -3    1    3    3    0  502  0.72518608091E+02  0.99123223004E+02 -0.16506932127E+03  0.20574800772E+03  0.00000000000E+00 0.  1.
         13    1    5    5    0    0 -0.30320987355E+02 -0.12182441782E+03 -0.30413078802E+02  0.12917239029E+03  0.00000000000E+00 0.  1.
        -13    1    5    5    0    0 -0.10048837679E+03 -0.88198098709E+02 -0.86909819740E+02  0.15946828918E+03  0.00000000000E+00 0. -1.
          4    1    6    6  503    0 -0.38678121000E+02 -0.72295383166E+02  0.26896411130E+03  0.28118377023E+03  0.00000000000E+00 0. -1.
         -4    1    6    6    0  503 -0.27523865700E+03 -0.15060048828E+03  0.85656986530E+03  0.91222188064E+03  0.00000000000E+00 0.  1.
<mgrwt>
<rscale>  0 0.27146238E+04</rscale>
<asrwt>0</asrwt>
<pdfrwt beam="1">  1        2 0.21304194E+00 0.27146238E+04</pdfrwt>
<pdfrwt beam="2">  1       -1 0.20467627E+00 0.27146238E+04</pdfrwt>
<totfact> 0.20597631E+00</totfact>
</mgrwt>
</event>
<event>
12    7  0.1660832E-007  0.1086267E+04  0.7818608E-02  0.9218681E-01
          2   -1    0    0  501    0  0.00000000000E+00  0.00000000000E+00  0.96633140471E+03  0.96633140471E+03  0.00000000000E+00 0. -1.
         -3   -1    0    0    0  501 -0.00000000000E+00 -0.00000000000E+00 -0.30527203501E+03  0.30527203501E+03  0.00000000000E+00 0.  1.
         24    2    1    2    0    0 -0.81248664837E+02 -0.27091138022E+02  0.25340560744E+03  0.27983798957E+03  0.82216927842E+02 0.  0.
        254    2    1    2    0    0  0.81248664837E+02  0.27091138022E+02  0.40765376225E+03  0.99176545015E+03  0.90004546715E+03 0.  0.
         23    2    4    4    0    0  0.14281743976E+03 -0.33681934977E+03  0.47279545276E+03  0.60461228131E+03  0.90423310526E+02 0.  0.
         23    2    4    4    0    0 -0.61568774919E+02  0.36391048779E+03 -0.65141690509E+02  0.38715316884E+03  0.97069970282E+02 0.  0.
          2    1    3    3  502    0 -0.37915453667E+02 -0.54988718320E+02  0.15419581919E+03  0.16804074334E+03  0.00000000000E+00 0. -1.
         -1    1    3    3    0  502 -0.43333211170E+02  0.27897580298E+02  0.99209788259E+02  0.11179724622E+03  0.00000000000E+00 0.  1.
         13    1    5    5    0    0 -0.17464874447E+01 -0.53289963909E+00 -0.34768438509E+01  0.39271673740E+01  0.00000000000E+00 0. -1.
        -13    1    5    5    0    0  0.14456392720E+03 -0.33628645013E+03  0.47627229661E+03  0.60068511394E+03  0.00000000000E+00 0.  1.
          1    1    6    6  503    0  0.13792496916E+02  0.46745973880E+02  0.15844905929E+02  0.51249195984E+02  0.00000000000E+00 0. -1.
         -1    1    6    6    0  503 -0.75361271835E+02  0.31716451391E+03 -0.80986596438E+02  0.33590397285E+03  0.00000000000E+00 0.  1.
<mgrwt>
<rscale>  0 0.10862669E+04</rscale>
<asrwt>0</asrwt>
<pdfrwt beam="1">  1        2 0.14866637E+00 0.10862669E+04</pdfrwt>
<pdfrwt beam="2">  1       -3 0.46964929E-01 0.10862669E+04</pdfrwt>
<totfact> 0.75620234E+01</totfact>
</mgrwt>
</event>
<event>
12    7  0.1660832E-007  0.3955923E+04  0.7818608E-02  0.8013498E-01
          2   -1    0    0  501    0  0.00000000000E+00  0.00000000000E+00  0.43579045233E+04  0.43579045233E+04  0.00000000000E+00 0. -1.
         -1   -1    0    0    0  501 -0.00000000000E+00 -0.00000000000E+00 -0.89775506979E+03  0.89775506979E+03  0.00000000000E+00 0.  1.
         24    2    1    2    0    0 -0.28250850411E+03  0.17750607383E+04  0.23446307244E+04  0.29553864967E+04  0.79777387439E+02 0.  0.
        254    2    1    2    0    0  0.28250850411E+03 -0.17750607383E+04  0.11155187290E+04  0.23002730963E+04  0.90345038780E+03 0.  0.
         23    2    4    4    0    0 -0.23927780401E+03 -0.66259699335E+03  0.70800361034E+03  0.10025345443E+04  0.86705001237E+02 0.  0.
         23    2    4    4    0    0  0.52178630812E+03 -0.11124637450E+04  0.40751511870E+03  0.12977385520E+04  0.90665550969E+02 0.  0.
          4    1    3    3  502    0 -0.28162012275E+03  0.16827068191E+04  0.22051471287E+04  0.27880971991E+04  0.00000000000E+00 0. -1.
         -3    1    3    3    0  502 -0.88838136351E+00  0.92353919232E+02  0.13948359575E+03  0.16728929763E+03  0.00000000000E+00 0.  1.
         13    1    5    5    0    0 -0.23222987123E+03 -0.63668273866E+03  0.65200231910E+03  0.94042684293E+03  0.00000000000E+00 0.  1.
        -13    1    5    5    0    0 -0.70479327836E+01 -0.25914254689E+02  0.56001291240E+02  0.62107701400E+02  0.00000000000E+00 0. -1.
          2    1    6    6  503    0  0.78947498824E+01 -0.18134666238E+01  0.76590433419E+00  0.81364824310E+01  0.00000000000E+00 0. -1.
         -2    1    6    6    0  503  0.51389155824E+03 -0.11106502783E+04  0.40674921436E+03  0.12896020696E+04  0.00000000000E+00 0.  1.
<mgrwt>
<rscale>  0 0.39559226E+04</rscale>
<asrwt>0</asrwt>
<pdfrwt beam="1">  1        2 0.67044684E+00 0.39559226E+04</pdfrwt>
<pdfrwt beam="2">  1       -1 0.13811617E+00 0.39559226E+04</pdfrwt>
<totfact> 0.65109715E-02</totfact>
</mgrwt>
</event>
<event>
12    7  0.1660832E-007  0.1471108E+04  0.7818608E-02  0.8903896E-01
          2   -1    0    0  501    0  0.00000000000E+00  0.00000000000E+00  0.10601267710E+04  0.10601267710E+04  0.00000000000E+00 0. -1.
         -1   -1    0    0    0  501 -0.00000000000E+00 -0.00000000000E+00 -0.51035387175E+03  0.51035387175E+03  0.00000000000E+00 0.  1.
         24    2    1    2    0    0 -0.29264503918E+03  0.35006984882E+03  0.11733835040E+03  0.47866911510E+03  0.84651138562E+02 0.  0.
        254    2    1    2    0    0  0.29264503918E+03 -0.35006984882E+03  0.43243454890E+03  0.10918115277E+04  0.89267169493E+03 0.  0.
         23    2    4    4    0    0  0.12322333416E+03 -0.51330844245E+02 -0.26396870789E+03  0.31010375595E+03  0.93091433860E+02 0.  0.
         23    2    4    4    0    0  0.16942170502E+03 -0.29873900458E+03  0.69640325678E+03  0.78170777175E+03  0.90226589017E+02 0.  0.
          4    1    3    3  502    0 -0.19155190720E+03  0.23988773911E+03  0.11869584940E+03  0.32913062026E+03  0.00000000000E+00 0. -1.
         -3    1    3    3    0  502 -0.10109313198E+03  0.11018210971E+03 -0.13574989991E+01  0.14953849484E+03  0.00000000000E+00 0.  1.
         13    1    5    5    0    0  0.53781703310E+02  0.16438882871E+02 -0.50362155379E+02  0.75492086839E+02  0.00000000000E+00 0. -1.
        -13    1    5    5    0    0  0.69441630854E+02 -0.67769727116E+02 -0.21360655251E+03  0.23461166911E+03  0.00000000000E+00 0.  1.
          4    1    6    6  503    0  0.36012851136E+02 -0.15435181861E+03  0.30812564671E+03  0.34650082758E+03  0.00000000000E+00 0. -1.
         -4    1    6    6    0  503  0.13340885388E+03 -0.14438718597E+03  0.38827761007E+03  0.43520694417E+03  0.00000000000E+00 0.  1.
<mgrwt>
<rscale>  0 0.14711082E+04</rscale>
<asrwt>0</asrwt>
<pdfrwt beam="1">  1        2 0.16309643E+00 0.14711082E+04</pdfrwt>
<pdfrwt beam="2">  1       -1 0.78515980E-01 0.14711082E+04</pdfrwt>
<totfact> 0.41366801E+01</totfact>
</mgrwt>
</event>
<event>
12    7  0.1660832E-007  0.2363246E+04  0.7818608E-02  0.8453393E-01
          2   -1    0    0  501    0  0.00000000000E+00  0.00000000000E+00  0.10752297843E+04  0.10752297843E+04  0.00000000000E+00 0. -1.
         -1   -1    0    0    0  501 -0.00000000000E+00 -0.00000000000E+00 -0.12985442094E+04  0.12985442094E+04  0.00000000000E+00 0.  1.
         24    2    1    2    0    0  0.69008566189E+03 -0.32986446807E+02  0.63405934140E+03  0.94081354078E+03  0.76108762207E+02 0.  0.
        254    2    1    2    0    0 -0.69008566189E+03  0.32986446807E+02 -0.85737376652E+03  0.14329604529E+04  0.91704937579E+03 0.  0.
         23    2    4    4    0    0 -0.42333847091E+03 -0.39103839623E+03 -0.23506807425E+03  0.62853621284E+03  0.87602985338E+02 0.  0.
         23    2    4    4    0    0 -0.26674719098E+03  0.42402484304E+03 -0.62230569227E+03  0.80442424006E+03  0.94248883024E+02 0.  0.
          4    1    3    3  502    0  0.24835976492E+03 -0.32306552180E+02  0.18905794892E+03  0.31379801497E+03  0.00000000000E+00 0. -1.
         -3    1    3    3    0  502  0.44172589697E+03 -0.67989462696E+00  0.44500139247E+03  0.62701552581E+03  0.00000000000E+00 0.  1.
         13    1    5    5    0    0 -0.47265001097E+02 -0.36703331572E+02 -0.55216133063E+02  0.81424420339E+02  0.00000000000E+00 0.  1.
        -13    1    5    5    0    0 -0.37607346981E+03 -0.35433506466E+03 -0.17985194118E+03  0.54711179250E+03  0.00000000000E+00 0. -1.
          4    1    6    6  503    0 -0.23642070826E+03  0.41197521684E+03 -0.59823740206E+03  0.76387585366E+03  0.00000000000E+00 0. -1.
         -4    1    6    6    0  503 -0.30326482720E+02  0.12049626195E+02 -0.24068290218E+02  0.40548386400E+02  0.00000000000E+00 0.  1.
<mgrwt>
<rscale>  0 0.23632464E+04</rscale>
<asrwt>0</asrwt>
<pdfrwt beam="1">  1        2 0.16541997E+00 0.23632464E+04</pdfrwt>
<pdfrwt beam="2">  1       -1 0.19977603E+00 0.23632464E+04</pdfrwt>
<totfact> 0.35056478E+00</totfact>
</mgrwt>
</event>
<event>
12    7  0.1660832E-007  0.2155009E+04  0.7818608E-02  0.8537391E-01
         -1   -1    0    0    0  501 -0.00000000000E+00  0.00000000000E+00  0.44169318988E+03  0.44169318988E+03  0.00000000000E+00 0.  1.
          2   -1    0    0  501    0  0.00000000000E+00 -0.00000000000E+00 -0.26285564542E+04  0.26285564542E+04  0.00000000000E+00 0. -1.
         24    2    1    2    0    0 -0.10565399726E+03  0.47561288422E+02 -0.21524724694E+04  0.21570699438E+04  0.79926013994E+02 0.  0.
        254    2    1    2    0    0  0.10565399726E+03 -0.47561288422E+02 -0.34390794953E+02  0.91317970029E+03  0.90514617325E+03 0.  0.
         23    2    4    4    0    0 -0.39174013902E+03  0.18954530266E+01 -0.64654383736E+01  0.40411376580E+03  0.99006083411E+02 0.  0.
         23    2    4    4    0    0  0.49739413628E+03 -0.49456741448E+02 -0.27925356579E+02  0.50906593449E+03  0.92311451245E+02 0.  0.
          4    1    3    3  502    0 -0.52421877190E+02  0.17424145983E+02 -0.16444967613E+04  0.16454243380E+04  0.00000000000E+00 0. -1.
         -3    1    3    3    0  502 -0.53232120071E+02  0.30137142439E+02 -0.50797570809E+03  0.51164560584E+03  0.00000000000E+00 0.  1.
         13    1    5    5    0    0 -0.19983218648E+03 -0.43575483779E+02  0.18292724091E+02  0.20534446497E+03  0.00000000000E+00 0. -1.
        -13    1    5    5    0    0 -0.19190795254E+03  0.45470936806E+02 -0.24758162465E+02  0.19876930083E+03  0.00000000000E+00 0.  1.
          3    1    6    6  503    0  0.12093095215E+03  0.16828884675E+02 -0.34075662270E+02  0.12676220773E+03  0.00000000000E+00 0. -1.
         -3    1    6    6    0  503  0.37646318413E+03 -0.66285626123E+02  0.61503056912E+01  0.38230372676E+03  0.00000000000E+00 0.  1.
<mgrwt>
<rscale>  0 0.21550086E+04</rscale>
<asrwt>0</asrwt>
<pdfrwt beam="1">  1        2 0.40439330E+00 0.21550086E+04</pdfrwt>
<pdfrwt beam="2">  1       -1 0.67952798E-01 0.21550086E+04</pdfrwt>
<totfact> 0.67048197E+00</totfact>
</mgrwt>
</event>
<event>
12    7  0.1660832E-007  0.2986075E+04  0.7818608E-02  0.8247718E-01
          2   -1    0    0  501    0  0.00000000000E+00  0.00000000000E+00  0.18787015466E+04  0.18787015466E+04  0.00000000000E+00 0. -1.
         -1   -1    0    0    0  501 -0.00000000000E+00 -0.00000000000E+00 -0.11865434803E+04  0.11865434803E+04  0.00000000000E+00 0.  1.
         24    2    1    2    0    0  0.36010063984E+03  0.48681437096E+03 -0.92824297998E+03  0.11111620624E+04  0.79908676085E+02 0.  0.
        254    2    1    2    0    0 -0.36010063984E+03 -0.48681437096E+03  0.16204010463E+04  0.19540829644E+04  0.90888942027E+03 0.  0.
         23    2    4    4    0    0  0.17162929090E+03  0.14983649389E+03  0.50622982372E+03  0.56213304821E+03  0.88415728647E+02 0.  0.
         23    2    4    4    0    0 -0.53172993074E+03 -0.63665086485E+03  0.11141712226E+04  0.13919499162E+04  0.89922260599E+02 0.  0.
          4    1    3    3  502    0  0.61436735444E+02  0.50231728553E+02 -0.90183114782E+02  0.12012782029E+03  0.00000000000E+00 0. -1.
         -3    1    3    3    0  502  0.29866390440E+03  0.43658264241E+03 -0.83805986520E+03  0.99103424214E+03  0.00000000000E+00 0.  1.
         13    1    5    5    0    0  0.22962249935E+02 -0.20815724562E+01  0.11101473673E+03  0.11338372739E+03  0.00000000000E+00 0. -1.
        -13    1    5    5    0    0  0.14866704097E+03  0.15191806635E+03  0.39521508699E+03  0.44874932082E+03  0.00000000000E+00 0.  1.
          2    1    6    6  503    0 -0.25800004450E+03 -0.24175560662E+03  0.45400805097E+03  0.57544166224E+03  0.00000000000E+00 0. -1.
         -2    1    6    6    0  503 -0.27372988624E+03 -0.39489525823E+03  0.66016317161E+03  0.81650825394E+03  0.00000000000E+00 0.  1.
<mgrwt>
<rscale>  0 0.29860751E+04</rscale>
<asrwt>0</asrwt>
<pdfrwt beam="1">  1        2 0.28903101E+00 0.29860751E+04</pdfrwt>
<pdfrwt beam="2">  1       -1 0.18254515E+00 0.29860751E+04</pdfrwt>
<totfact> 0.15183518E+00</totfact>
</mgrwt>
</event>
<event>
12    7  0.1660832E-007  0.1745649E+04  0.7818608E-02  0.8735749E-01
          4   -1    0    0  501    0  0.00000000000E+00  0.00000000000E+00  0.13849054834E+04  0.13849054834E+04  0.00000000000E+00 0. -1.
         -3   -1    0    0    0  501 -0.00000000000E+00 -0.00000000000E+00 -0.55008999694E+03  0.55008999694E+03  0.00000000000E+00 0.  1.
         24    2    1    2    0    0 -0.40475815244E+03  0.50137121681E+03  0.36419600483E+03  0.74366716233E+03  0.72110050564E+02 0.  0.
        254    2    1    2    0    0  0.40475815244E+03 -0.50137121681E+03  0.47061948160E+03  0.11913283180E+04  0.88463450404E+03 0.  0.
         23    2    4    4    0    0 -0.90681446806E+02 -0.36092081079E+03 -0.11944965839E+03  0.40134215660E+03  0.91215948815E+02 0.  0.
         23    2    4    4    0    0  0.49543959924E+03 -0.14045040602E+03  0.59006913999E+03  0.78998616137E+03  0.10348831890E+03 0.  0.
          2    1    3    3  502    0 -0.37040640192E+02  0.85925394631E+02  0.51298359605E+02  0.10670850091E+03  0.00000000000E+00 0. -1.
         -1    1    3    3    0  502 -0.36771751224E+03  0.41544582218E+03  0.31289764522E+03  0.63695866142E+03  0.00000000000E+00 0.  1.
         13    1    5    5    0    0 -0.20834397373E+02 -0.10309556726E+03  0.77874871006E+01  0.10546759245E+03  0.00000000000E+00 0. -1.
        -13    1    5    5    0    0 -0.69847049432E+02 -0.25782524353E+03 -0.12723714549E+03  0.29587456415E+03  0.00000000000E+00 0.  1.
          2    1    6    6  503    0  0.11284954646E+03  0.10141189146E+02  0.14586237942E+03  0.18469893768E+03  0.00000000000E+00 0. -1.
         -2    1    6    6    0  503  0.38259005279E+03 -0.15059159517E+03  0.44420676057E+03  0.60528722369E+03  0.00000000000E+00 0.  1.
<mgrwt>
<rscale>  0 0.17456491E+04</rscale>
<asrwt>0</asrwt>
<pdfrwt beam="1">  1        4 0.21306238E+00 0.17456491E+04</pdfrwt>
<pdfrwt beam="2">  1       -3 0.84629231E-01 0.17456491E+04</pdfrwt>
<totfact> 0.30016772E-01</totfact>
</mgrwt>
</event>
<event>
12    7  0.1660832E-007  0.1444445E+04  0.7818608E-02  0.8922261E-01
         -1   -1    0    0    0  501 -0.00000000000E+00  0.00000000000E+00  0.61829928472E+03  0.61829928472E+03  0.00000000000E+00 0.  1.
          2   -1    0    0  501    0  0.00000000000E+00 -0.00000000000E+00 -0.84361338166E+03  0.84361338166E+03  0.00000000000E+00 0. -1.
         24    2    1    2    0    0  0.18933100541E+03 -0.86772812945E+02  0.31558852205E+03  0.38628809134E+03  0.79035584269E+02 0.  0.
        254    2    1    2    0    0 -0.18933100541E+03  0.86772812945E+02 -0.54090261899E+03  0.10756245750E+04  0.90609979170E+03 0.  0.
         23    2    4    4    0    0  0.26775436836E+03  0.23241883866E+03 -0.31662140368E+02  0.36991524687E+03  0.10061749547E+03 0.  0.
         23    2    4    4    0    0 -0.45708537376E+03 -0.14564602572E+03 -0.50924047863E+03  0.70570932817E+03  0.92520198266E+02 0.  0.
          2    1    3    3  502    0  0.11248135262E+03 -0.90688512659E+02  0.18530906494E+03  0.23498065998E+03  0.00000000000E+00 0. -1.
         -3    1    3    3    0  502  0.76849652785E+02  0.39156997140E+01  0.13027945711E+03  0.15130743135E+03  0.00000000000E+00 0.  1.
         13    1    5    5    0    0  0.19357375671E+03  0.16522811048E+03 -0.68011017181E+02  0.26343239405E+03  0.00000000000E+00 0.  1.
        -13    1    5    5    0    0  0.74180611645E+02  0.67190728185E+02  0.36348876813E+02  0.10648285281E+03  0.00000000000E+00 0. -1.
          4    1    6    6  503    0 -0.42232609113E+03 -0.13941833486E+03 -0.42849510265E+03  0.61757983479E+03  0.00000000000E+00 0. -1.
         -4    1    6    6    0  503 -0.34759282632E+02 -0.62276908540E+01 -0.80745375979E+02  0.88129493386E+02  0.00000000000E+00 0.  1.
<mgrwt>
<rscale>  0 0.14444453E+04</rscale>
<asrwt>0</asrwt>
<pdfrwt beam="1">  1        2 0.12978667E+00 0.14444453E+04</pdfrwt>
<pdfrwt beam="2">  1       -1 0.95122967E-01 0.14444453E+04</pdfrwt>
<totfact> 0.37930418E+01</totfact>
</mgrwt>
</event>
<event>
12    7  0.1660832E-007  0.2242371E+04  0.7818608E-02  0.8500997E-01
         -1   -1    0    0    0  501 -0.00000000000E+00  0.00000000000E+00  0.15591736000E+04  0.15591736000E+04  0.00000000000E+00 0.  1.
          2   -1    0    0  501    0  0.00000000000E+00 -0.00000000000E+00 -0.80623275879E+03  0.80623275879E+03  0.00000000000E+00 0. -1.
         24    2    1    2    0    0  0.57333360983E+03  0.39119240562E+03 -0.35118337250E+03  0.78211860114E+03  0.81466672564E+02 0.  0.
        254    2    1    2    0    0 -0.57333360983E+03 -0.39119240562E+03  0.11041242137E+04  0.15832877576E+04  0.89775660276E+03 0.  0.
         23    2    4    4    0    0  0.17425371444E+03 -0.32157598254E+03  0.40640313444E+03  0.55433851392E+03  0.91390430530E+02 0.  0.
         23    2    4    4    0    0 -0.74758732428E+03 -0.69616423080E+02  0.69772107924E+03  0.10289492437E+04  0.90490816617E+02 0.  0.
          4    1    3    3  502    0  0.48406264693E+03  0.32277446342E+03 -0.25969975046E+03  0.63713731705E+03  0.00000000000E+00 0. -1.
         -3    1    3    3    0  502  0.89270962906E+02  0.68417942199E+02 -0.91483622045E+02  0.14498128409E+03  0.00000000000E+00 0.  1.
         13    1    5    5    0    0  0.14754293758E+03 -0.28596418265E+03  0.30398338193E+03  0.44266277082E+03  0.00000000000E+00 0. -1.
        -13    1    5    5    0    0  0.26710776868E+02 -0.35611799896E+02  0.10241975251E+03  0.11167574310E+03  0.00000000000E+00 0.  1.
          1    1    6    6  503    0 -0.42046401961E+03  0.38095849742E+01  0.40693868973E+03  0.58515263130E+03  0.00000000000E+00 0. -1.
         -1    1    6    6    0  503 -0.32712330467E+03 -0.73426008054E+02  0.29078238951E+03  0.44379661238E+03  0.00000000000E+00 0.  1.
<mgrwt>
<rscale>  0 0.22423709E+04</rscale>
<asrwt>0</asrwt>
<pdfrwt beam="1">  1        2 0.12403581E+00 0.22423709E+04</pdfrwt>
<pdfrwt beam="2">  1       -1 0.23987286E+00 0.22423709E+04</pdfrwt>
<totfact> 0.28776058E+00</totfact>
</mgrwt>
</event>
<event>
12    7  0.1660832E-007  0.1782434E+04  0.7818608E-02  0.8715697E-01
          2   -1    0    0  501    0  0.00000000000E+00  0.00000000000E+00  0.24072288466E+04  0.24072288466E+04  0.00000000000E+00 0. -1.
         -1   -1    0    0    0  501 -0.00000000000E+00 -0.00000000000E+00 -0.32995115776E+03  0.32995115776E+03  0.00000000000E+00 0.  1.
         24    2    1    2    0    0  0.59989694561E+03  0.47798436648E+02  0.11930328402E+04  0.13385187193E+04  0.78383469142E+02 0.  0.
        254    2    1    2    0    0 -0.59989694561E+03 -0.47798436648E+02  0.88424484867E+03  0.13986612851E+04  0.90122328094E+03 0.  0.
         23    2    4    4    0    0  0.82528310528E+02 -0.30125948497E+03  0.41700887636E+03  0.52892247909E+03  0.91073523056E+02 0.  0.
         23    2    4    4    0    0 -0.68242525614E+03  0.25346104832E+03  0.46723597231E+03  0.86973880600E+03  0.90495323694E+02 0.  0.
          4    1    3    3  502    0  0.37308969135E+03 -0.18967352867E+00  0.78722794171E+03  0.87116231896E+03  0.00000000000E+00 0. -1.
         -3    1    3    3    0  502  0.22680725426E+03  0.47988110176E+02  0.40580489845E+03  0.46735640030E+03  0.00000000000E+00 0.  1.
         13    1    5    5    0    0  0.43917448792E+02 -0.12925472024E+03  0.25624877906E+03  0.29034283491E+03  0.00000000000E+00 0. -1.
        -13    1    5    5    0    0  0.38610861736E+02 -0.17200476473E+03  0.16076009729E+03  0.23857964418E+03  0.00000000000E+00 0.  1.
          4    1    6    6  503    0 -0.14332588921E+03  0.52171772408E+02  0.14377641187E+03  0.20960882846E+03  0.00000000000E+00 0.  1.
         -4    1    6    6    0  503 -0.53909936692E+03  0.20128927592E+03  0.32345956044E+03  0.66012997754E+03  0.00000000000E+00 0. -1.
<mgrwt>
<rscale>  0 0.17824342E+04</rscale>
<asrwt>0</asrwt>
<pdfrwt beam="1">  1        2 0.37034289E+00 0.17824342E+04</pdfrwt>
<pdfrwt beam="2">  1       -1 0.50761718E-01 0.17824342E+04</pdfrwt>
<totfact> 0.16545008E+01</totfact>
</mgrwt>
</event>
<event>
12    7  0.1660832E-007  0.2000051E+04  0.7818608E-02  0.8606597E-01
          2   -1    0    0  501    0  0.00000000000E+00  0.00000000000E+00  0.21232833339E+04  0.21232833339E+04  0.00000000000E+00 0. -1.
         -1   -1    0    0    0  501 -0.00000000000E+00 -0.00000000000E+00 -0.47099269052E+03  0.47099269052E+03  0.00000000000E+00 0.  1.
         24    2    1    2    0    0 -0.55199319130E+03 -0.32854082651E+03  0.49038020712E+02  0.64901995968E+03  0.78655086699E+02 0.  0.
        254    2    1    2    0    0  0.55199319130E+03  0.32854082651E+03  0.16032526227E+04  0.19452560648E+04  0.89496738904E+03 0.  0.
         23    2    4    4    0    0  0.96025459289E+02  0.26977910768E+03  0.14045281320E+04  0.14363091881E+04  0.91011836942E+02 0.  0.
         23    2    4    4    0    0  0.45596773201E+03  0.58761718828E+02  0.19872449074E+03  0.50894687672E+03  0.90421169337E+02 0.  0.
          2    1    3    3  502    0 -0.41177659168E+03 -0.25344303651E+03  0.33721141808E+01  0.48353356177E+03  0.00000000000E+00 0. -1.
         -1    1    3    3    0  502 -0.14021659963E+03 -0.75097790001E+02  0.45665906531E+02  0.16548639791E+03  0.00000000000E+00 0.  1.
         13    1    5    5    0    0  0.10755762900E+03  0.20604337393E+03  0.10020690344E+04  0.10286714077E+04  0.00000000000E+00 0. -1.
        -13    1    5    5    0    0 -0.11532169715E+02  0.63735733753E+02  0.40245909762E+03  0.40763778033E+03  0.00000000000E+00 0.  1.
          2    1    6    6  503    0  0.29851281507E+03  0.45024321959E+02  0.83105713232E+02  0.31311922633E+03  0.00000000000E+00 0. -1.
         -2    1    6    6    0  503  0.15745491694E+03  0.13737396869E+02  0.11561877751E+03  0.19582765038E+03  0.00000000000E+00 0.  1.
<mgrwt>
<rscale>  0 0.20000509E+04</rscale>
<asrwt>0</asrwt>
<pdfrwt beam="1">  1        2 0.32665897E+00 0.20000509E+04</pdfrwt>
<pdfrwt beam="2">  1       -1 0.72460416E-01 0.20000509E+04</pdfrwt>
<totfact> 0.11586419E+01</totfact>
</mgrwt>
</event>
<event>
12    7  0.1660832E-007  0.2145655E+04  0.7818608E-02  0.8541394E-01
         -1   -1    0    0    0  501 -0.00000000000E+00  0.00000000000E+00  0.11358750638E+04  0.11358750638E+04  0.00000000000E+00 0.  1.
          2   -1    0    0  501    0  0.00000000000E+00 -0.00000000000E+00 -0.10132793812E+04  0.10132793812E+04  0.00000000000E+00 0. -1.
         24    2    1    2    0    0 -0.45921477110E+03 -0.46952674054E+03 -0.53469991578E+03  0.85063885808E+03  0.79679990394E+02 0.  0.
        254    2    1    2    0    0  0.45921477110E+03  0.46952674054E+03  0.65729559830E+03  0.12985155869E+04  0.90706761591E+03 0.  0.
         23    2    4    4    0    0  0.72728693901E+03  0.33400637680E+03  0.45172753191E+03  0.92343936340E+03  0.90420923483E+02 0.  0.
         23    2    4    4    0    0 -0.26807216791E+03  0.13552036373E+03  0.20556806639E+03  0.37507622351E+03  0.90528930863E+02 0.  0.
          2    1    3    3  502    0 -0.27970729527E+03 -0.31832730992E+03 -0.38292814065E+03  0.57114132067E+03  0.00000000000E+00 0. -1.
         -1    1    3    3    0  502 -0.17950747582E+03 -0.15119943061E+03 -0.15177177513E+03  0.27949753741E+03  0.00000000000E+00 0.  1.
         13    1    5    5    0    0  0.12043778587E+03  0.94096644401E+02  0.88250969554E+02  0.17648703176E+03  0.00000000000E+00 0. -1.
        -13    1    5    5    0    0  0.60684915314E+03  0.23990973240E+03  0.36347656235E+03  0.74695233164E+03  0.00000000000E+00 0.  1.
          4    1    6    6  503    0 -0.15557377354E+03  0.11994543117E+03  0.15735151224E+03  0.25169347206E+03  0.00000000000E+00 0.  1.
         -4    1    6    6    0  503 -0.11249839437E+03  0.15574932563E+02  0.48216554153E+02  0.12338275145E+03  0.00000000000E+00 0. -1.
<mgrwt>
<rscale>  0 0.21456549E+04</rscale>
<asrwt>0</asrwt>
<pdfrwt beam="1">  1        2 0.15588914E+00 0.21456549E+04</pdfrwt>
<pdfrwt beam="2">  1       -1 0.17475001E+00 0.21456549E+04</pdfrwt>
<totfact> 0.58744704E+00</totfact>
</mgrwt>
</event>
<event>
12    7  0.1660832E-007  0.1549039E+04  0.7818608E-02  0.8852482E-01
         -1   -1    0    0    0  501 -0.00000000000E+00  0.00000000000E+00  0.32133363795E+03  0.32133363795E+03  0.00000000000E+00 0.  1.
          2   -1    0    0  501    0  0.00000000000E+00 -0.00000000000E+00 -0.18668450179E+04  0.18668450179E+04  0.00000000000E+00 0. -1.
         24    2    1    2    0    0  0.40975454461E+03  0.26402618061E+02 -0.94864167251E+03  0.10371122014E+04  0.84171315925E+02 0.  0.
        254    2    1    2    0    0 -0.40975454461E+03 -0.26402618061E+02 -0.59686970739E+03  0.11510664544E+04  0.89448569007E+03 0.  0.
         23    2    4    4    0    0  0.27487314790E+03 -0.31454288078E+02 -0.20870187963E+03  0.35852231111E+03  0.91853978290E+02 0.  0.
         23    2    4    4    0    0 -0.68462769251E+03  0.50516700171E+01 -0.38816782775E+03  0.79254414327E+03  0.93334665639E+02 0.  0.
          2    1    3    3  502    0  0.35886643176E+03  0.39852214665E+02 -0.87519680659E+03  0.94675380386E+03  0.00000000000E+00 0. -1.
         -1    1    3    3    0  502  0.50888112845E+02 -0.13449596604E+02 -0.73444865922E+02  0.90358397551E+02  0.00000000000E+00 0.  1.
         13    1    5    5    0    0  0.53896595907E+01  0.13537808092E+02  0.23683070054E+00  0.14573152275E+02  0.00000000000E+00 0. -1.
        -13    1    5    5    0    0  0.26948348831E+03 -0.44992096170E+02 -0.20893871034E+03  0.34394915884E+03  0.00000000000E+00 0.  1.
          3    1    6    6  503    0 -0.34926971603E+03  0.10160731281E+01 -0.14446329607E+03  0.37796826698E+03  0.00000000000E+00 0. -1.
         -3    1    6    6    0  503 -0.33535797648E+03  0.40355968890E+01 -0.24370453169E+03  0.41457587629E+03  0.00000000000E+00 0.  1.
<mgrwt>
<rscale>  0 0.15490385E+04</rscale>
<asrwt>0</asrwt>
<pdfrwt beam="1">  1        2 0.28720693E+00 0.15490385E+04</pdfrwt>
<pdfrwt beam="2">  1       -1 0.49435944E-01 0.15490385E+04</pdfrwt>
<totfact> 0.35633818E+01</totfact>
</mgrwt>
</event>
<event>
12    7  0.1660832E-007  0.1914055E+04  0.7818608E-02  0.8647892E-01
         -1   -1    0    0    0  501 -0.00000000000E+00  0.00000000000E+00  0.49651666143E+03  0.49651666143E+03  0.00000000000E+00 0.  1.
          2   -1    0    0  501    0  0.00000000000E+00 -0.00000000000E+00 -0.18446536350E+04  0.18446536350E+04  0.00000000000E+00 0. -1.
         24    2    1    2    0    0 -0.32841388888E+03 -0.67216726791E+03 -0.47295429898E+03  0.88857328854E+03  0.78817521719E+02 0.  0.
        254    2    1    2    0    0  0.32841388888E+03  0.67216726791E+03 -0.87518267457E+03  0.14525970079E+04  0.88567987161E+03 0.  0.
         23    2    4    4    0    0 -0.19193791140E+03 -0.28330652413E+02 -0.17809498680E+01  0.21462375763E+03  0.91746377915E+02 0.  0.
         23    2    4    4    0    0  0.52035180027E+03  0.70049792032E+03 -0.87340172470E+03  0.12379732502E+04  0.91015730447E+02 0.  0.
          2    1    3    3  502    0 -0.14062812326E+02 -0.15291213840E+02 -0.10125471635E+01  0.20799258712E+02  0.00000000000E+00 0. -1.
         -1    1    3    3    0  502 -0.31435107655E+03 -0.65687605407E+03 -0.47194175182E+03  0.86777402983E+03  0.00000000000E+00 0.  1.
         13    1    5    5    0    0 -0.10483190260E+03  0.30862839011E+02 -0.23874949543E+01  0.10930664557E+03  0.00000000000E+00 0.  1.
        -13    1    5    5    0    0 -0.87106008799E+02 -0.59193491424E+02  0.60654508636E+00  0.10531711206E+03  0.00000000000E+00 0. -1.
          4    1    6    6  503    0  0.41403029217E+03  0.61261324527E+03 -0.73415859363E+03  0.10419716463E+04  0.00000000000E+00 0. -1.
         -4    1    6    6    0  503  0.10632150811E+03  0.87884675052E+02 -0.13924313107E+03  0.19600160394E+03  0.00000000000E+00 0.  1.
<mgrwt>
<rscale>  0 0.19140546E+04</rscale>
<asrwt>0</asrwt>
<pdfrwt beam="1">  1        2 0.28379287E+00 0.19140546E+04</pdfrwt>
<pdfrwt beam="2">  1       -1 0.76387179E-01 0.19140546E+04</pdfrwt>
<totfact> 0.14937162E+01</totfact>
</mgrwt>
</event>
<event>
12    7  0.1660832E-007  0.3728161E+04  0.7818608E-02  0.8061750E-01
         -1   -1    0    0    0  501 -0.00000000000E+00  0.00000000000E+00  0.12095481642E+04  0.12095481642E+04  0.00000000000E+00 0.  1.
          2   -1    0    0  501    0  0.00000000000E+00 -0.00000000000E+00 -0.28728043868E+04  0.28728043868E+04  0.00000000000E+00 0. -1.
         24    2    1    2    0    0 -0.52272361439E+03  0.15808099153E+04 -0.13908995651E+04  0.21709415725E+04  0.78649510498E+02 0.  0.
        254    2    1    2    0    0  0.52272361439E+03 -0.15808099153E+04 -0.27235665742E+03  0.19114109785E+04  0.89839513272E+03 0.  0.
         23    2    4    4    0    0  0.38398223460E+03 -0.16618716415E+04 -0.23042574068E+03  0.17235784714E+04  0.91471393256E+02 0.  0.
         23    2    4    4    0    0  0.13874137978E+03  0.81061726137E+02 -0.41930916744E+02  0.18783250715E+03  0.87764885086E+02 0.  0.
          2    1    3    3  502    0 -0.42340027989E+03  0.13202005600E+04 -0.11917650585E+04  0.18282508773E+04  0.00000000000E+00 0. -1.
         -1    1    3    3    0  502 -0.99323334501E+02  0.26060935527E+03 -0.19913450667E+03  0.34269069520E+03  0.00000000000E+00 0.  1.
         13    1    5    5    0    0  0.25379218634E+03 -0.95867566987E+03 -0.16650758151E+03  0.10055815673E+04  0.00000000000E+00 0. -1.
        -13    1    5    5    0    0  0.13019004827E+03 -0.70319597159E+03 -0.63918159161E+02  0.71799690403E+03  0.00000000000E+00 0.  1.
          1    1    6    6  503    0  0.27049320731E+02 -0.13453929236E+02  0.11125736372E+02  0.32194036307E+02  0.00000000000E+00 0. -1.
         -1    1    6    6    0  503  0.11169205905E+03  0.94515655374E+02 -0.53056653116E+02  0.15563847084E+03  0.00000000000E+00 0.  1.
<mgrwt>
<rscale>  0 0.37281606E+04</rscale>
<asrwt>0</asrwt>
<pdfrwt beam="1">  1        2 0.44196990E+00 0.37281606E+04</pdfrwt>
<pdfrwt beam="2">  1       -1 0.18608433E+00 0.37281606E+04</pdfrwt>
<totfact> 0.35998959E-01</totfact>
</mgrwt>
</event>
<event>
12    7  0.1660832E-007  0.2065834E+04  0.7818608E-02  0.8576445E-01
          2   -1    0    0  501    0  0.00000000000E+00  0.00000000000E+00  0.20820821389E+04  0.20820821389E+04  0.00000000000E+00 0. -1.
         -1   -1    0    0    0  501 -0.00000000000E+00 -0.00000000000E+00 -0.51242821321E+03  0.51242821321E+03  0.00000000000E+00 0.  1.
         24    2    1    2    0    0  0.55844505850E+03  0.13727058691E+02  0.14043737998E+04  0.15135587414E+04  0.80901042018E+02 0.  0.
        254    2    1    2    0    0 -0.55844505850E+03 -0.13727058691E+02  0.16528012589E+03  0.10809516107E+04  0.91054354602E+03 0.  0.
         23    2    4    4    0    0  0.65606963673E+02  0.19968065126E+03 -0.21521944529E+03  0.31422999436E+03  0.90798918239E+02 0.  0.
         23    2    4    4    0    0 -0.62405202217E+03 -0.21340770995E+03  0.38049957119E+03  0.76672161635E+03  0.89990756547E+02 0.  0.
          2    1    3    3  502    0  0.46957830073E+03  0.40903383563E+01  0.12482012746E+04  0.13336142370E+04  0.00000000000E+00 0. -1.
         -1    1    3    3    0  502  0.88866757771E+02  0.96367203343E+01  0.15617252528E+03  0.17994450441E+03  0.00000000000E+00 0.  1.
         13    1    5    5    0    0  0.35457499536E+02  0.39004604451E+02 -0.10372075852E+03  0.11634684864E+03  0.00000000000E+00 0. -1.
        -13    1    5    5    0    0  0.30149464136E+02  0.16067604681E+03 -0.11149868678E+03  0.19788314572E+03  0.00000000000E+00 0.  1.
          2    1    6    6  503    0 -0.30647769499E+03 -0.12508177069E+03  0.14376361510E+03  0.36089057055E+03  0.00000000000E+00 0.  1.
         -2    1    6    6    0  503 -0.31757432718E+03 -0.88325939262E+02  0.23673595609E+03  0.40583104580E+03  0.00000000000E+00 0. -1.
<mgrwt>
<rscale>  0 0.20658341E+04</rscale>
<asrwt>0</asrwt>
<pdfrwt beam="1">  1        2 0.32032032E+00 0.20658341E+04</pdfrwt>
<pdfrwt beam="2">  1       -1 0.78835111E-01 0.20658341E+04</pdfrwt>
<totfact> 0.10179810E+01</totfact>
</mgrwt>
</event>
<event>
12    7  0.1660832E-007  0.3119835E+04  0.7818608E-02  0.8210315E-01
         -1   -1    0    0    0  501 -0.00000000000E+00  0.00000000000E+00  0.12238872454E+04  0.12238872454E+04  0.00000000000E+00 0.  1.
          2   -1    0    0  501    0  0.00000000000E+00 -0.00000000000E+00 -0.19882087524E+04  0.19882087524E+04  0.00000000000E+00 0. -1.
         24    2    1    2    0    0 -0.36223455203E+03 -0.13802943340E+04 -0.45567436239E+03  0.15002527594E+04  0.81810135208E+02 0.  0.
        254    2    1    2    0    0  0.36223455203E+03  0.13802943340E+04 -0.30864714462E+03  0.17118432385E+04  0.89371018459E+03 0.  0.
         23    2    4    4    0    0  0.21266912046E+03  0.54712099389E+03 -0.56798973103E+03  0.82189762536E+03  0.91289842068E+02 0.  0.
         23    2    4    4    0    0  0.14956543157E+03  0.83317334015E+03  0.25934258641E+03  0.88994561314E+03  0.90537197661E+02 0.  0.
          2    1    3    3  502    0 -0.19607347355E+03 -0.73950314132E+03 -0.20146624199E+03  0.79113737727E+03  0.00000000000E+00 0. -1.
         -1    1    3    3    0  502 -0.16616107848E+03 -0.64079119272E+03 -0.25420812040E+03  0.70911538211E+03  0.00000000000E+00 0.  1.
         13    1    5    5    0    0  0.12868473699E+03  0.43005250283E+03 -0.45076632852E+03  0.63615658422E+03  0.00000000000E+00 0.  1.
        -13    1    5    5    0    0  0.83984383473E+02  0.11706849106E+03 -0.11722340251E+03  0.18574104114E+03  0.00000000000E+00 0. -1.
          2    1    6    6  503    0  0.14901088970E+02  0.33256099465E+03  0.98724406204E+02  0.34722523813E+03  0.00000000000E+00 0. -1.
         -2    1    6    6    0  503  0.13466434260E+03  0.50061234550E+03  0.16061818020E+03  0.54272037501E+03  0.00000000000E+00 0.  1.
<mgrwt>
<rscale>  0 0.31198355E+04</rscale>
<asrwt>0</asrwt>
<pdfrwt beam="1">  1        2 0.30587827E+00 0.31198355E+04</pdfrwt>
<pdfrwt beam="2">  1       -1 0.18829035E+00 0.31198355E+04</pdfrwt>
<totfact> 0.11881080E+00</totfact>
</mgrwt>
</event>
<event>
12    7  0.1660832E-007  0.1546044E+04  0.7818608E-02  0.8854399E-01
          2   -1    0    0  501    0  0.00000000000E+00  0.00000000000E+00  0.12424158593E+04  0.12424158593E+04  0.00000000000E+00 0. -1.
         -1   -1    0    0    0  501 -0.00000000000E+00 -0.00000000000E+00 -0.48096850488E+03  0.48096850488E+03  0.00000000000E+00 0.  1.
         24    2    1    2    0    0 -0.21296994993E+03  0.46372325041E+03  0.20540046149E+03  0.55575722678E+03  0.79254608629E+02 0.  0.
        254    2    1    2    0    0  0.21296994993E+03 -0.46372325041E+03  0.55604689297E+03  0.11676271374E+04  0.89093744582E+03 0.  0.
         23    2    4    4    0    0  0.46468304499E+03 -0.37350370813E+03  0.72350531274E+02  0.60750951711E+03  0.91639847831E+02 0.  0.
         23    2    4    4    0    0 -0.25171309505E+03 -0.90219542278E+02  0.48369636170E+03  0.56011762034E+03  0.90942455767E+02 0.  0.
          4    1    3    3  502    0 -0.19006589374E+03  0.44938281895E+03  0.18468366522E+03  0.52170683159E+03  0.00000000000E+00 0. -1.
         -3    1    3    3    0  502 -0.22904056195E+02  0.14340431465E+02  0.20716796276E+02  0.34050395192E+02  0.00000000000E+00 0.  1.
         13    1    5    5    0    0  0.69512645041E+02 -0.10211347595E+03  0.22186273181E+02  0.12550458362E+03  0.00000000000E+00 0. -1.
        -13    1    5    5    0    0  0.39517039995E+03 -0.27139023219E+03  0.50164258093E+02  0.48200493349E+03  0.00000000000E+00 0.  1.
          2    1    6    6  503    0 -0.11210845711E+03 -0.88251594220E+02  0.25327715818E+03  0.29069910370E+03  0.00000000000E+00 0.  1.
         -2    1    6    6    0  503 -0.13960463794E+03 -0.19679480579E+01  0.23041920352E+03  0.26941851664E+03  0.00000000000E+00 0. -1.
<mgrwt>
<rscale>  0 0.15460439E+04</rscale>
<asrwt>0</asrwt>
<pdfrwt beam="1">  1        2 0.19114090E+00 0.15460439E+04</pdfrwt>
<pdfrwt beam="2">  1       -1 0.73995155E-01 0.15460439E+04</pdfrwt>
<totfact> 0.36083067E+01</totfact>
</mgrwt>
</event>
<event>
12    7  0.1660832E-007  0.1925698E+04  0.7818608E-02  0.8642170E-01
         -1   -1    0    0    0  501 -0.00000000000E+00  0.00000000000E+00  0.11430741881E+04  0.11430741881E+04  0.00000000000E+00 0.  1.
          2   -1    0    0  501    0  0.00000000000E+00 -0.00000000000E+00 -0.81103898380E+03  0.81103898380E+03  0.00000000000E+00 0. -1.
         24    2    1    2    0    0  0.71327593356E+02  0.40076020824E+03 -0.51626702079E+03  0.66205727776E+03  0.78050190290E+02 0.  0.
        254    2    1    2    0    0 -0.71327593356E+02 -0.40076020824E+03  0.84830222506E+03  0.12920558941E+04  0.88549161397E+03 0.  0.
         23    2    4    4    0    0 -0.38879145003E+03 -0.14428736071E+03  0.10250974088E+03  0.43707032350E+03  0.92436933229E+02 0.  0.
         23    2    4    4    0    0  0.31746385668E+03 -0.25647284753E+03  0.74579248418E+03  0.85498557062E+03  0.90731883600E+02 0.  0.
          4    1    3    3  502    0  0.19452653904E+02  0.29029074697E+03 -0.33734852587E+03  0.44547856449E+03  0.00000000000E+00 0. -1.
         -3    1    3    3    0  502  0.51874939452E+02  0.11046946127E+03 -0.17891849492E+03  0.21657871327E+03  0.00000000000E+00 0.  1.
         13    1    5    5    0    0 -0.27225191274E+02 -0.37285234693E+02 -0.55861093975E+00  0.46170464717E+02  0.00000000000E+00 0.  1.
        -13    1    5    5    0    0 -0.36156625876E+03 -0.10700212602E+03  0.10306835182E+03  0.39089985878E+03  0.00000000000E+00 0. -1.
          2    1    6    6  503    0  0.34485851758E+02 -0.40916106513E+02  0.16949357123E+03  0.17773990107E+03  0.00000000000E+00 0.  1.
         -2    1    6    6    0  503  0.28297800492E+03 -0.21555674101E+03  0.57629891295E+03  0.67724566956E+03  0.00000000000E+00 0. -1.
<mgrwt>
<rscale>  0 0.19256975E+04</rscale>
<asrwt>0</asrwt>
<pdfrwt beam="1">  1        2 0.12477523E+00 0.19256975E+04</pdfrwt>
<pdfrwt beam="2">  1       -1 0.17585757E+00 0.19256975E+04</pdfrwt>
<totfact> 0.80435277E+00</totfact>
</mgrwt>
</event>
<event>
12    7  0.1660832E-007  0.1592556E+04  0.7818608E-02  0.8825134E-01
         -1   -1    0    0    0  501 -0.00000000000E+00  0.00000000000E+00  0.61607147440E+03  0.61607147440E+03  0.00000000000E+00 0.  1.
          2   -1    0    0  501    0  0.00000000000E+00 -0.00000000000E+00 -0.10291960892E+04  0.10291960892E+04  0.00000000000E+00 0. -1.
         24    2    1    2    0    0 -0.41461030518E+02 -0.41950563767E+03 -0.29573594594E+03  0.52098649060E+03  0.79140233636E+02 0.  0.
        254    2    1    2    0    0  0.41461030518E+02  0.41950563767E+03 -0.11738866887E+03  0.11242810730E+04  0.10356272662E+04 0.  0.
         23    2    4    4    0    0  0.14693539844E+03  0.74305400816E+03 -0.39553945387E+02  0.76391300169E+03  0.90990599537E+02 0.  0.
         23    2    4    4    0    0 -0.10547436792E+03 -0.32354837048E+03 -0.77834723478E+02  0.36036807132E+03  0.89434402287E+02 0.  0.
          2    1    3    3  502    0 -0.19057153079E+02 -0.31615555613E+02 -0.46541132759E+02  0.59403665532E+02  0.00000000000E+00 0. -1.
         -1    1    3    3    0  502 -0.22403877439E+02 -0.38789008206E+03 -0.24919481318E+03  0.46158282507E+03  0.00000000000E+00 0.  1.
         13    1    5    5    0    0  0.34289179001E+02  0.39620389878E+03 -0.65482969315E+01  0.39773880550E+03  0.00000000000E+00 0. -1.
        -13    1    5    5    0    0  0.11264621944E+03  0.34685010938E+03 -0.33005648456E+02  0.36617419619E+03  0.00000000000E+00 0.  1.
          2    1    6    6  503    0  0.11838282649E+02 -0.13307280892E+02 -0.13874375192E+02  0.22577133295E+02  0.00000000000E+00 0. -1.
         -2    1    6    6    0  503 -0.11731265057E+03 -0.31024108959E+03 -0.63960348286E+02  0.33779093802E+03  0.00000000000E+00 0.  1.
<mgrwt>
<rscale>  0 0.15925556E+04</rscale>
<asrwt>0</asrwt>
<pdfrwt beam="1">  1        2 0.15833786E+00 0.15925556E+04</pdfrwt>
<pdfrwt beam="2">  1       -1 0.94780227E-01 0.15925556E+04</pdfrwt>
<totfact> 0.28433604E+01</totfact>
</mgrwt>
</event>
<event>
12    7  0.1660832E-007  0.2135856E+04  0.7818608E-02  0.8545611E-01
          2   -1    0    0  501    0  0.00000000000E+00  0.00000000000E+00  0.99196295288E+03  0.99196295288E+03  0.00000000000E+00 0. -1.
         -1   -1    0    0    0  501 -0.00000000000E+00 -0.00000000000E+00 -0.11497100990E+04  0.11497100990E+04  0.00000000000E+00 0.  1.
         24    2    1    2    0    0 -0.13509822720E+03  0.11935626716E+03  0.79161694789E+03  0.81568928064E+03  0.78702991492E+02 0.  0.
        254    2    1    2    0    0  0.13509822720E+03 -0.11935626716E+03 -0.94936409396E+03  0.13259837712E+04  0.90798861726E+03 0.  0.
         23    2    4    4    0    0  0.50800241699E+03 -0.86589003530E+02 -0.42145361937E+03  0.67188397710E+03  0.90778930433E+02 0.  0.
         23    2    4    4    0    0 -0.37290418979E+03 -0.32767263627E+02 -0.52791047460E+03  0.65409979409E+03  0.95004437370E+02 0.  0.
          4    1    3    3  502    0 -0.10593576208E+03  0.12516336705E+03  0.71360856936E+03  0.73220587570E+03  0.00000000000E+00 0. -1.
         -3    1    3    3    0  502 -0.29162465121E+02 -0.58070998918E+01  0.78008378526E+02  0.83483404946E+02  0.00000000000E+00 0.  1.
         13    1    5    5    0    0  0.23732964380E+03 -0.78803548177E+02 -0.23459201874E+03  0.34288303296E+03  0.00000000000E+00 0. -1.
        -13    1    5    5    0    0  0.27067277319E+03 -0.77854553532E+01 -0.18686160062E+03  0.32900094415E+03  0.00000000000E+00 0.  1.
          1    1    6    6  503    0 -0.31088196173E+03 -0.33855863131E+02 -0.37005845285E+03  0.48449672044E+03  0.00000000000E+00 0. -1.
         -1    1    6    6    0  503 -0.62022228061E+02  0.10885995036E+01 -0.15785202175E+03  0.16960307365E+03  0.00000000000E+00 0.  1.
<mgrwt>
<rscale>  0 0.21358556E+04</rscale>
<asrwt>0</asrwt>
<pdfrwt beam="1">  1        2 0.15260968E+00 0.21358556E+04</pdfrwt>
<pdfrwt beam="2">  1       -1 0.17687848E+00 0.21358556E+04</pdfrwt>
<totfact> 0.58556665E+00</totfact>
</mgrwt>
</event>
<event>
12    7  0.1660832E-007  0.1203370E+04  0.7818608E-02  0.9109912E-01
          2   -1    0    0  501    0  0.00000000000E+00  0.00000000000E+00  0.12788039350E+04  0.12788039350E+04  0.00000000000E+00 0. -1.
         -1   -1    0    0    0  501 -0.00000000000E+00 -0.00000000000E+00 -0.28309637469E+03  0.28309637469E+03  0.00000000000E+00 0.  1.
         24    2    1    2    0    0 -0.81975750268E+02  0.17820396145E+03 -0.48755485203E+01  0.21201131078E+03  0.80301615281E+02 0.  0.
        254    2    1    2    0    0  0.81975750268E+02 -0.17820396145E+03  0.10005831088E+04  0.13498889989E+04  0.88462256144E+03 0.  0.
         23    2    4    4    0    0 -0.53235124022E+02  0.94969693043E+02 -0.11931534986E+03  0.18556785783E+03  0.91356751919E+02 0.  0.
         23    2    4    4    0    0  0.13521087429E+03 -0.27317365450E+03  0.11198984587E+04  0.11643211411E+04  0.92549099102E+02 0.  0.
          2    1    3    3  502    0  0.89642937780E+01  0.27875776138E+01  0.10183447455E+02  0.13850334074E+02  0.00000000000E+00 0. -1.
         -1    1    3    3    0  502 -0.90940044046E+02  0.17541638384E+03 -0.15058995975E+02  0.19816097671E+03  0.00000000000E+00 0.  1.
         13    1    5    5    0    0 -0.11552503306E+02  0.36860496906E+02 -0.10600871240E+03  0.11282731793E+03  0.00000000000E+00 0. -1.
        -13    1    5    5    0    0 -0.41682620717E+02  0.58109196137E+02 -0.13306637460E+02  0.72740539907E+02  0.00000000000E+00 0.  1.
          3    1    6    6  503    0  0.11976436573E+03 -0.20021032545E+03  0.95913425133E+03  0.98709988846E+03  0.00000000000E+00 0. -1.
         -3    1    6    6    0  503  0.15446508561E+02 -0.72963329048E+02  0.16076420736E+03  0.17722125262E+03  0.00000000000E+00 0.  1.
<mgrwt>
<rscale>  0 0.12033699E+04</rscale>
<asrwt>0</asrwt>
<pdfrwt beam="1">  1        2 0.19673906E+00 0.12033699E+04</pdfrwt>
<pdfrwt beam="2">  1       -1 0.43553289E-01 0.12033699E+04</pdfrwt>
<totfact> 0.99512539E+01</totfact>
</mgrwt>
</event>
<event>
12    7  0.1660832E-007  0.1797738E+04  0.7818608E-02  0.8707503E-01
          2   -1    0    0  501    0  0.00000000000E+00  0.00000000000E+00  0.69927381783E+03  0.69927381783E+03  0.00000000000E+00 0. -1.
         -1   -1    0    0    0  501 -0.00000000000E+00 -0.00000000000E+00 -0.11554349097E+04  0.11554349097E+04  0.00000000000E+00 0.  1.
         24    2    1    2    0    0 -0.34513799772E+03  0.44469878212E+03  0.21141183596E+03  0.60665820558E+03  0.80386377743E+02 0.  0.
        254    2    1    2    0    0  0.34513799772E+03 -0.44469878212E+03 -0.66757292782E+03  0.12480505219E+04  0.89168337826E+03 0.  0.
         23    2    4    4    0    0  0.15700424519E+03 -0.34825294823E+03 -0.86337267110E+03  0.94856884006E+03  0.91869615034E+02 0.  0.
         23    2    4    4    0    0  0.18813375253E+03 -0.96445833894E+02  0.19579974328E+03  0.29948168188E+03  0.81582048229E+02 0.  0.
          2    1    3    3  502    0 -0.13699575692E+03  0.20641599864E+03  0.55239192697E+02  0.25382429024E+03  0.00000000000E+00 0. -1.
         -1    1    3    3    0  502 -0.20814224080E+03  0.23828278348E+03  0.15617264326E+03  0.35283391534E+03  0.00000000000E+00 0.  1.
         13    1    5    5    0    0  0.61150602102E+02 -0.16473307983E+03 -0.29144550690E+03  0.34031877295E+03  0.00000000000E+00 0. -1.
        -13    1    5    5    0    0  0.95853643087E+02 -0.18351986840E+03 -0.57192716420E+03  0.60825006711E+03  0.00000000000E+00 0.  1.
          2    1    6    6  503    0  0.38440075001E+01  0.42192165044E+01  0.33762953977E+02  0.34242009912E+02  0.00000000000E+00 0. -1.
         -2    1    6    6    0  503  0.18428974503E+03 -0.10066505040E+03  0.16203678931E+03  0.26523967197E+03  0.00000000000E+00 0.  1.
<mgrwt>
<rscale>  0 0.17977379E+04</rscale>
<asrwt>0</asrwt>
<pdfrwt beam="1">  1        2 0.10758059E+00 0.17977379E+04</pdfrwt>
<pdfrwt beam="2">  1       -1 0.17775922E+00 0.17977379E+04</pdfrwt>
<totfact> 0.95537776E+00</totfact>
</mgrwt>
</event>
<event>
12    7  0.1660832E-007  0.1466002E+04  0.7818608E-02  0.8907381E-01
         -1   -1    0    0    0  501 -0.00000000000E+00  0.00000000000E+00  0.31402960690E+03  0.31402960690E+03  0.00000000000E+00 0.  1.
          2   -1    0    0  501    0  0.00000000000E+00 -0.00000000000E+00 -0.17109554910E+04  0.17109554910E+04  0.00000000000E+00 0. -1.
         24    2    1    2    0    0  0.12907952490E+03 -0.80791210610E+02 -0.10242017674E+04  0.10392511708E+04  0.88684790640E+02 0.  0.
        254    2    1    2    0    0 -0.12907952490E+03  0.80791210610E+02 -0.37272411664E+03  0.98573392710E+03  0.89975516917E+03 0.  0.
         23    2    4    4    0    0 -0.38776842648E+03 -0.29594363568E+02  0.11365972321E+03  0.41525011824E+03  0.90961250480E+02 0.  0.
         23    2    4    4    0    0  0.25868890158E+03  0.11038557418E+03 -0.48638383986E+03  0.57048380885E+03  0.98881816833E+02 0.  0.
          4    1    3    3  502    0  0.84099721425E+01 -0.50878773978E+02 -0.27213403171E+03  0.27697709018E+03  0.00000000000E+00 0. -1.
         -3    1    3    3    0  502  0.12066955276E+03 -0.29912436632E+02 -0.75206773571E+03  0.76227408058E+03  0.00000000000E+00 0.  1.
         13    1    5    5    0    0 -0.32970977503E+03 -0.51538943068E+02  0.74712147847E+02  0.34197471170E+03  0.00000000000E+00 0.  1.
        -13    1    5    5    0    0 -0.58058651451E+02  0.21944579500E+02  0.38947575368E+02  0.73275406548E+02  0.00000000000E+00 0. -1.
          1    1    6    6  503    0  0.68522670773E+02  0.80349802995E+02 -0.17032602446E+03  0.20040559338E+03  0.00000000000E+00 0. -1.
         -1    1    6    6    0  503  0.19016623081E+03  0.30035771183E+02 -0.31605781540E+03  0.37007821547E+03  0.00000000000E+00 0.  1.
<mgrwt>
<rscale>  0 0.14660023E+04</rscale>
<asrwt>0</asrwt>
<pdfrwt beam="1">  1        2 0.26322392E+00 0.14660023E+04</pdfrwt>
<pdfrwt beam="2">  1       -1 0.48312247E-01 0.14660023E+04</pdfrwt>
<totfact> 0.45720112E+01</totfact>
</mgrwt>
</event>
<event>
12    7  0.1660832E-007  0.2120816E+04  0.7818608E-02  0.8552129E-01
         -1   -1    0    0    0  501 -0.00000000000E+00  0.00000000000E+00  0.30273187521E+03  0.30273187521E+03  0.00000000000E+00 0.  1.
          2   -1    0    0  501    0  0.00000000000E+00 -0.00000000000E+00 -0.37143928121E+04  0.37143928121E+04  0.00000000000E+00 0. -1.
         24    2    1    2    0    0  0.51652732773E+03 -0.31344985220E+03 -0.25792011982E+04  0.26502537411E+04  0.80714194597E+02 0.  0.
        254    2    1    2    0    0 -0.51652732773E+03  0.31344985220E+03 -0.83245973869E+03  0.13668709462E+04  0.90016424998E+03 0.  0.
         23    2    4    4    0    0  0.13356604857E+03 -0.18547524353E+03 -0.28737138817E+03  0.37817889934E+03  0.90531816924E+02 0.  0.
         23    2    4    4    0    0 -0.65009337630E+03  0.49892509573E+03 -0.54508835052E+03  0.98869204688E+03  0.94037251258E+02 0.  0.
          4    1    3    3  502    0  0.35654225232E+03 -0.22012911116E+03 -0.19413634099E+04  0.19860692567E+04  0.00000000000E+00 0. -1.
         -3    1    3    3    0  502  0.15998507541E+03 -0.93320741042E+02 -0.63783778828E+03  0.66418448433E+03  0.00000000000E+00 0.  1.
         13    1    5    5    0    0  0.11053397025E+03 -0.19191348974E+03 -0.25209049948E+03  0.33555650202E+03  0.00000000000E+00 0. -1.
        -13    1    5    5    0    0  0.23032078328E+02  0.64382462121E+01 -0.35280888692E+02  0.42622397320E+02  0.00000000000E+00 0.  1.
          4    1    6    6  503    0 -0.61050580945E+03  0.44351358613E+03 -0.51858900011E+03  0.91561793096E+03  0.00000000000E+00 0. -1.
         -4    1    6    6    0  503 -0.39587566851E+02  0.55411509596E+02 -0.26499350406E+02  0.73074115915E+02  0.00000000000E+00 0.  1.
<mgrwt>
<rscale>  0 0.21208160E+04</rscale>
<asrwt>0</asrwt>
<pdfrwt beam="1">  1        2 0.57144508E+00 0.21208160E+04</pdfrwt>
<pdfrwt beam="2">  1       -1 0.46574132E-01 0.21208160E+04</pdfrwt>
<totfact> 0.27540179E+00</totfact>
</mgrwt>
</event>
<event>
12    7  0.1660832E-007  0.3210743E+04  0.7818608E-02  0.8185986E-01
         -1   -1    0    0    0  501 -0.00000000000E+00  0.00000000000E+00  0.92873325254E+03  0.92873325254E+03  0.00000000000E+00 0.  1.
          2   -1    0    0  501    0  0.00000000000E+00 -0.00000000000E+00 -0.27749819312E+04  0.27749819312E+04  0.00000000000E+00 0. -1.
         24    2    1    2    0    0 -0.21834396097E+03 -0.10955649924E+04 -0.19589001089E+04  0.22564683448E+04  0.80143724652E+02 0.  0.
        254    2    1    2    0    0  0.21834396097E+03  0.10955649924E+04  0.11265143027E+03  0.14472468389E+04  0.91317924322E+03 0.  0.
         23    2    4    4    0    0 -0.14106907423E+03 -0.94268478908E+02 -0.21908703733E+02  0.19409102730E+03  0.91675000729E+02 0.  0.
         23    2    4    4    0    0  0.35941303520E+03  0.11898334713E+04  0.13456013401E+03  0.12531558116E+04  0.86090878252E+02 0.  0.
          4    1    3    3  502    0 -0.14661181022E+03 -0.59371050267E+03 -0.11285643920E+04  0.12836061587E+04  0.00000000000E+00 0. -1.
         -3    1    3    3    0  502 -0.71732150751E+02 -0.50185448969E+03 -0.83033571695E+03  0.97286218609E+03  0.00000000000E+00 0.  1.
         13    1    5    5    0    0 -0.12193162673E+03 -0.47667345627E+02  0.14808492125E+02  0.13175275662E+03  0.00000000000E+00 0. -1.
        -13    1    5    5    0    0 -0.19137447494E+02 -0.46601133281E+02 -0.36717195859E+02  0.62338270680E+02  0.00000000000E+00 0.  1.
          2    1    6    6  503    0  0.24606248348E+03  0.67217046780E+03  0.88126153195E+02  0.72119768610E+03  0.00000000000E+00 0. -1.
         -2    1    6    6    0  503  0.11335055171E+03  0.51766300347E+03  0.46433980811E+02  0.53195812553E+03  0.00000000000E+00 0.  1.
<mgrwt>
<rscale>  0 0.32107432E+04</rscale>
<asrwt>0</asrwt>
<pdfrwt beam="1">  1        2 0.42692029E+00 0.32107432E+04</pdfrwt>
<pdfrwt beam="2">  1       -1 0.14288204E+00 0.32107432E+04</pdfrwt>
<totfact> 0.90876611E-01</totfact>
</mgrwt>
</event>
<event>
12    7  0.1660832E-007  0.1472298E+04  0.7818608E-02  0.8903086E-01
          2   -1    0    0  501    0  0.00000000000E+00  0.00000000000E+00  0.16139081928E+04  0.16139081928E+04  0.00000000000E+00 0. -1.
         -1   -1    0    0    0  501 -0.00000000000E+00 -0.00000000000E+00 -0.33577849723E+03  0.33577849723E+03  0.00000000000E+00 0.  1.
         24    2    1    2    0    0  0.38876541660E+01  0.45368244681E+03  0.32516450230E+03  0.56388530672E+03  0.79948790995E+02 0.  0.
        254    2    1    2    0    0 -0.38876541660E+01 -0.45368244681E+03  0.95296519324E+03  0.13858013833E+04  0.89803114532E+03 0.  0.
         23    2    4    4    0    0 -0.35329655331E+03 -0.49279733321E+03  0.42895779605E+03  0.74820310003E+03  0.90196573733E+02 0.  0.
         23    2    4    4    0    0  0.34940889914E+03  0.39114886404E+02  0.52400739720E+03  0.63759828325E+03  0.91275765381E+02 0.  0.
          4    1    3    3  502    0  0.32327705078E+02  0.94003845393E+02  0.81034576771E+02  0.12825133955E+03  0.00000000000E+00 0. -1.
         -3    1    3    3    0  502 -0.28440050912E+02  0.35967860141E+03  0.24412992553E+03  0.43563396716E+03  0.00000000000E+00 0.  1.
         13    1    5    5    0    0 -0.34654793667E+02 -0.14964168355E+02  0.16976865403E+02  0.41389552034E+02  0.00000000000E+00 0.  1.
        -13    1    5    5    0    0 -0.31864175964E+03 -0.47783316486E+03  0.41198093064E+03  0.70681354800E+03  0.00000000000E+00 0. -1.
          3    1    6    6  503    0  0.26724819420E+03  0.66047702175E+02  0.37295737340E+03  0.46355269241E+03  0.00000000000E+00 0. -1.
         -3    1    6    6    0  503  0.82160704944E+02 -0.26932815770E+02  0.15105002379E+03  0.17404559084E+03  0.00000000000E+00 0.  1.
<mgrwt>
<rscale>  0 0.14722984E+04</rscale>
<asrwt>0</asrwt>
<pdfrwt beam="1">  1        2 0.24829356E+00 0.14722984E+04</pdfrwt>
<pdfrwt beam="2">  1       -1 0.51658231E-01 0.14722984E+04</pdfrwt>
<totfact> 0.45562052E+01</totfact>
</mgrwt>
</event>
<event>
12    7  0.1660832E-007  0.1287095E+04  0.7818608E-02  0.9039862E-01
          2   -1    0    0  501    0  0.00000000000E+00  0.00000000000E+00  0.45881477193E+03  0.45881477193E+03  0.00000000000E+00 0. -1.
         -1   -1    0    0    0  501 -0.00000000000E+00 -0.00000000000E+00 -0.90265917363E+03  0.90265917363E+03  0.00000000000E+00 0.  1.
         24    2    1    2    0    0 -0.11159920721E+03 -0.29836650763E+03 -0.17566900997E+03  0.37253004757E+03  0.80262565086E+02 0.  0.
        254    2    1    2    0    0  0.11159920721E+03  0.29836650763E+03 -0.26817539172E+03  0.98894389799E+03  0.89700336495E+03 0.  0.
         23    2    4    4    0    0 -0.23974464674E+03 -0.19107741467E+03 -0.19803503651E+03  0.37604046317E+03  0.90556502916E+02 0.  0.
         23    2    4    4    0    0  0.35134385395E+03  0.48944392230E+03 -0.70140355215E+02  0.61290343482E+03  0.87938013395E+02 0.  0.
          2    1    3    3  502    0 -0.10095836292E+03 -0.28733567243E+03 -0.14302636328E+03  0.33646830503E+03  0.00000000000E+00 0. -1.
         -1    1    3    3    0  502 -0.10640844289E+02 -0.11030835200E+02 -0.32642646690E+02  0.36061742544E+02  0.00000000000E+00 0.  1.
         13    1    5    5    0    0 -0.13853150056E+03 -0.13239209994E+03 -0.73674863318E+02  0.20529644483E+03  0.00000000000E+00 0. -1.
        -13    1    5    5    0    0 -0.10121314618E+03 -0.58685314729E+02 -0.12436017319E+03  0.17074401835E+03  0.00000000000E+00 0.  1.
          4    1    6    6  503    0  0.12646494487E+03  0.11390143104E+03 -0.42677852187E+01  0.17025020489E+03  0.00000000000E+00 0. -1.
         -4    1    6    6    0  503  0.22487890908E+03  0.37554249126E+03 -0.65872569997E+02  0.44265322993E+03  0.00000000000E+00 0.  1.
<mgrwt>
<rscale>  0 0.12870950E+04</rscale>
<asrwt>0</asrwt>
<pdfrwt beam="1">  1        2 0.70586887E-01 0.12870950E+04</pdfrwt>
<pdfrwt beam="2">  1       -1 0.13887064E+00 0.12870950E+04</pdfrwt>
<totfact> 0.32684714E+01</totfact>
</mgrwt>
</event>
<event>
12    7  0.1660832E-007  0.2091028E+04  0.7818608E-02  0.8565206E-01
         -1   -1    0    0    0  501 -0.00000000000E+00  0.00000000000E+00  0.11457041838E+04  0.11457041838E+04  0.00000000000E+00 0.  1.
          2   -1    0    0  501    0  0.00000000000E+00 -0.00000000000E+00 -0.95408551451E+03  0.95408551451E+03  0.00000000000E+00 0. -1.
         24    2    1    2    0    0  0.55323423052E+03 -0.34745188525E+03 -0.46619466535E+03  0.80656138586E+03  0.80080439326E+02 0.  0.
        254    2    1    2    0    0 -0.55323423052E+03  0.34745188525E+03  0.65781333461E+03  0.12932283124E+04  0.90162639629E+03 0.  0.
         23    2    4    4    0    0 -0.59851164798E+03  0.47980861287E+03  0.77063723534E+03  0.10913431149E+04  0.93357100637E+02 0.  0.
         23    2    4    4    0    0  0.45277417452E+02 -0.13235672761E+03 -0.11282390073E+03  0.20188519751E+03  0.91978543821E+02 0.  0.
          2    1    3    3  502    0  0.38627426565E+03 -0.21178634535E+03 -0.27943345965E+03  0.52167453719E+03  0.00000000000E+00 0. -1.
         -1    1    3    3    0  502  0.16695996487E+03 -0.13566553991E+03 -0.18676120570E+03  0.28488684866E+03  0.00000000000E+00 0.  1.
         13    1    5    5    0    0 -0.58738218586E+03  0.48332530082E+03  0.75422090452E+03  0.10712004255E+04  0.00000000000E+00 0. -1.
        -13    1    5    5    0    0 -0.11129462116E+02 -0.35166879555E+01  0.16416330814E+02  0.20142689457E+02  0.00000000000E+00 0.  1.
          2    1    6    6  503    0  0.62013583766E+02 -0.11892182414E+03 -0.64112694348E+02  0.14865571770E+03  0.00000000000E+00 0. -1.
         -2    1    6    6    0  503 -0.16736166314E+02 -0.13434903475E+02 -0.48711206380E+02  0.53229479814E+02  0.00000000000E+00 0.  1.
<mgrwt>
<rscale>  0 0.20910282E+04</rscale>
<asrwt>0</asrwt>
<pdfrwt beam="1">  1        2 0.14678239E+00 0.20910282E+04</pdfrwt>
<pdfrwt beam="2">  1       -1 0.17626218E+00 0.20910282E+04</pdfrwt>
<totfact> 0.62861092E+00</totfact>
</mgrwt>
</event>
<event>
12    7  0.1660832E-007  0.1339138E+04  0.7818608E-02  0.8999091E-01
         -1   -1    0    0    0  501 -0.00000000000E+00  0.00000000000E+00  0.97053092871E+02  0.97053092871E+02  0.00000000000E+00 0.  1.
          2   -1    0    0  501    0  0.00000000000E+00 -0.00000000000E+00 -0.46193557068E+04  0.46193557068E+04  0.00000000000E+00 0. -1.
         24    2    1    2    0    0  0.83812729653E+02  0.14258646520E+03 -0.11862037017E+03  0.21879887937E+03  0.80291242909E+02 0.  0.
        254    2    1    2    0    0 -0.83812729653E+02 -0.14258646520E+03 -0.44036822438E+04  0.44976099203E+04  0.89928984059E+03 0.  0.
         23    2    4    4    0    0 -0.18255334826E+03  0.33036244865E+03 -0.25626685776E+04  0.25921108882E+04  0.96454888077E+02 0.  0.
         23    2    4    4    0    0  0.98740618607E+02 -0.47294891385E+03 -0.18410136661E+04  0.19054990321E+04  0.90359601641E+02 0.  0.
          2    1    3    3  502    0 -0.22325827024E+01  0.13473888802E+02 -0.45064994913E+02  0.47089105656E+02  0.00000000000E+00 0. -1.
         -1    1    3    3    0  502  0.86045312356E+02  0.12911257640E+03 -0.73555375253E+02  0.17170977372E+03  0.00000000000E+00 0.  1.
         13    1    5    5    0    0 -0.40752956098E+02  0.36565241894E+02 -0.21395209132E+03  0.22084681960E+03  0.00000000000E+00 0. -1.
        -13    1    5    5    0    0 -0.14180039216E+03  0.29379720676E+03 -0.23487164863E+04  0.23712640686E+04  0.00000000000E+00 0.  1.
          3    1    6    6  503    0  0.28388112026E+02 -0.13879677115E+03 -0.71269960092E+03  0.72664375711E+03  0.00000000000E+00 0. -1.
         -3    1    6    6    0  503  0.70352506580E+02 -0.33415214270E+03 -0.11283140652E+04  0.11788552750E+04  0.00000000000E+00 0.  1.
<mgrwt>
<rscale>  0 0.13391382E+04</rscale>
<asrwt>0</asrwt>
<pdfrwt beam="1">  1        2 0.71066998E+00 0.13391382E+04</pdfrwt>
<pdfrwt beam="2">  1       -1 0.14931248E-01 0.13391382E+04</pdfrwt>
<totfact> 0.36222198E+00</totfact>
</mgrwt>
</event>
<event>
12    7  0.1660832E-007  0.2005121E+04  0.7818608E-02  0.8604230E-01
         -1   -1    0    0    0  501 -0.00000000000E+00  0.00000000000E+00  0.43348089554E+03  0.43348089554E+03  0.00000000000E+00 0.  1.
          2   -1    0    0  501    0  0.00000000000E+00 -0.00000000000E+00 -0.23187351160E+04  0.23187351160E+04  0.00000000000E+00 0. -1.
         24    2    1    2    0    0  0.10179404289E+03 -0.71355746311E+03 -0.31072498206E+03  0.78900028132E+03  0.80281686080E+02 0.  0.
        254    2    1    2    0    0 -0.10179404289E+03  0.71355746311E+03 -0.15745292384E+04  0.19632157302E+04  0.92495805335E+03 0.  0.
         23    2    4    4    0    0  0.12678422555E+03  0.75190587171E+03 -0.15270620491E+04  0.17093686942E+04  0.92661485649E+02 0.  0.
         23    2    4    4    0    0 -0.22857826844E+03 -0.38348408598E+02 -0.47467189256E+02  0.25384703604E+03  0.92013903325E+02 0.  0.
          4    1    3    3  502    0  0.88450778233E+02 -0.49866846423E+03 -0.25280632197E+03  0.56604312011E+03  0.00000000000E+00 0. -1.
         -3    1    3    3    0  502  0.13343264656E+02 -0.21488899888E+03 -0.57918660085E+02  0.22295716122E+03  0.00000000000E+00 0.  1.
         13    1    5    5    0    0  0.10872385898E+03  0.36642273988E+03 -0.75532317849E+03  0.84652206456E+03  0.00000000000E+00 0. -1.
        -13    1    5    5    0    0  0.18060366569E+02  0.38548313183E+03 -0.77173887063E+03  0.86284662960E+03  0.00000000000E+00 0.  1.
          3    1    6    6  503    0 -0.95571170172E+02  0.85174930293E+01 -0.58527606801E+02  0.11239162341E+03  0.00000000000E+00 0. -1.
         -3    1    6    6    0  503 -0.13300709827E+03 -0.46865901628E+02  0.11060417545E+02  0.14145541263E+03  0.00000000000E+00 0.  1.
<mgrwt>
<rscale>  0 0.20051208E+04</rscale>
<asrwt>0</asrwt>
<pdfrwt beam="1">  1        2 0.35672848E+00 0.20051208E+04</pdfrwt>
<pdfrwt beam="2">  1       -1 0.66689369E-01 0.20051208E+04</pdfrwt>
<totfact> 0.10656251E+01</totfact>
</mgrwt>
</event>
<event>
12    7  0.1660832E-007  0.1179095E+04  0.7818608E-02  0.9131354E-01
         -1   -1    0    0    0  501 -0.00000000000E+00  0.00000000000E+00  0.38141820447E+03  0.38141820447E+03  0.00000000000E+00 0.  1.
          2   -1    0    0  501    0  0.00000000000E+00 -0.00000000000E+00 -0.91124706041E+03  0.91124706041E+03  0.00000000000E+00 0. -1.
         24    2    1    2    0    0  0.22972054435E+03  0.43229475091E+01 -0.13053135994E+03  0.27628325988E+03  0.80646062451E+02 0.  0.
        254    2    1    2    0    0 -0.22972054435E+03 -0.43229475091E+01 -0.39929749600E+03  0.10163820050E+04  0.90598215954E+03 0.  0.
         23    2    4    4    0    0 -0.64323479190E+02 -0.37396691387E+03 -0.45195066525E+03  0.59789767398E+03  0.96090905340E+02 0.  0.
         23    2    4    4    0    0 -0.16539706516E+03  0.36964396636E+03  0.52653169255E+02  0.41848433102E+03  0.91454513544E+02 0.  0.
          4    1    3    3  502    0  0.14120344101E+03  0.22036948047E+02 -0.11762386196E+03  0.18509298132E+03  0.00000000000E+00 0. -1.
         -3    1    3    3    0  502  0.88517103339E+02 -0.17714000537E+02 -0.12907497979E+02  0.91190278553E+02  0.00000000000E+00 0.  1.
         13    1    5    5    0    0  0.70506204711E+01 -0.13181684592E+03 -0.10420233760E+03  0.16817704742E+03  0.00000000000E+00 0.  1.
        -13    1    5    5    0    0 -0.71374099661E+02 -0.24215006795E+03 -0.34774832765E+03  0.42972062656E+03  0.00000000000E+00 0. -1.
          3    1    6    6  503    0 -0.33366225668E+02  0.41405876801E+02 -0.20875478151E+02  0.57127377298E+02  0.00000000000E+00 0. -1.
         -3    1    6    6    0  503 -0.13203083949E+03  0.32823808956E+03  0.73528647405E+02  0.36135695372E+03  0.00000000000E+00 0.  1.
<mgrwt>
<rscale>  0 0.11790949E+04</rscale>
<asrwt>0</asrwt>
<pdfrwt beam="1">  1        2 0.14019185E+00 0.11790949E+04</pdfrwt>
<pdfrwt beam="2">  1       -1 0.58679725E-01 0.11790949E+04</pdfrwt>
<totfact> 0.95609857E+01</totfact>
</mgrwt>
</event>
<event>
12    7  0.1660832E-007  0.1667879E+04  0.7818608E-02  0.8779899E-01
         -1   -1    0    0    0  501 -0.00000000000E+00  0.00000000000E+00  0.36384745430E+03  0.36384745430E+03  0.00000000000E+00 0.  1.
          2   -1    0    0  501    0  0.00000000000E+00 -0.00000000000E+00 -0.19113925858E+04  0.19113925858E+04  0.00000000000E+00 0. -1.
         24    2    1    2    0    0  0.39264269003E+03  0.89727388923E+02 -0.11341075946E+04  0.12064103336E+04  0.83705258979E+02 0.  0.
        254    2    1    2    0    0 -0.39264269003E+03 -0.89727388923E+02 -0.41343753681E+03  0.10688297065E+04  0.89958160177E+03 0.  0.
         23    2    4    4    0    0 -0.22468548503E+03 -0.15461968998E+03 -0.67736953746E+03  0.73673551612E+03  0.97769702416E+02 0.  0.
         23    2    4    4    0    0 -0.16795720500E+03  0.64892301052E+02  0.26393200065E+03  0.33209419036E+03  0.90585963885E+02 0.  0.
          4    1    3    3  502    0  0.25130644556E+03  0.97467377344E+02 -0.76441107009E+03  0.81054247470E+03  0.00000000000E+00 0. -1.
         -3    1    3    3    0  502  0.14133624447E+03 -0.77399884214E+01 -0.36969652455E+03  0.39586785887E+03  0.00000000000E+00 0.  1.
         13    1    5    5    0    0 -0.86464932391E+02 -0.88295502724E+02 -0.19756141800E+03  0.23302959944E+03  0.00000000000E+00 0. -1.
        -13    1    5    5    0    0 -0.13822055264E+03 -0.66324187252E+02 -0.47980811947E+03  0.50370591668E+03  0.00000000000E+00 0.  1.
          1    1    6    6  503    0 -0.62275091076E+02  0.63044864525E+02  0.16514582155E+03  0.18741927406E+03  0.00000000000E+00 0. -1.
         -1    1    6    6    0  503 -0.10568211393E+03  0.18474365271E+01  0.98786179099E+02  0.14467491630E+03  0.00000000000E+00 0.  1.
<mgrwt>
<rscale>  0 0.16678793E+04</rscale>
<asrwt>0</asrwt>
<pdfrwt beam="1">  1        2 0.29406040E+00 0.16678793E+04</pdfrwt>
<pdfrwt beam="2">  1       -1 0.55976532E-01 0.16678793E+04</pdfrwt>
<totfact> 0.26253547E+01</totfact>
</mgrwt>
</event>
<event>
12    7  0.1660832E-007  0.1824587E+04  0.7818608E-02  0.8693333E-01
         -1   -1    0    0    0  501 -0.00000000000E+00  0.00000000000E+00  0.58450158836E+03  0.58450158836E+03  0.00000000000E+00 0.  1.
          2   -1    0    0  501    0  0.00000000000E+00 -0.00000000000E+00 -0.14239123759E+04  0.14239123759E+04  0.00000000000E+00 0. -1.
         24    2    1    2    0    0  0.67837670751E+03  0.78509952531E+02 -0.33597642605E+03  0.76534445692E+03  0.80704454295E+02 0.  0.
        254    2    1    2    0    0 -0.67837670751E+03 -0.78509952531E+02 -0.50343436144E+03  0.12430695073E+04  0.90852455869E+03 0.  0.
         23    2    4    4    0    0 -0.56430962546E+03  0.78192233983E+02 -0.72815393661E+03  0.92897446400E+03  0.90697411913E+02 0.  0.
         23    2    4    4    0    0 -0.11406708205E+03 -0.15670218651E+03  0.22471957517E+03  0.31409504329E+03  0.10290740638E+03 0.  0.
          2    1    3    3  502    0  0.22747007579E+03  0.18554529604E+02 -0.15450701174E+03  0.27560718899E+03  0.00000000000E+00 0. -1.
         -3    1    3    3    0  502  0.45090663172E+03  0.59955422927E+02 -0.18146941431E+03  0.48973726793E+03  0.00000000000E+00 0.  1.
         13    1    5    5    0    0 -0.41139113149E+03  0.18770671057E+02 -0.49550340018E+03  0.64429699731E+03  0.00000000000E+00 0.  1.
        -13    1    5    5    0    0 -0.15291849397E+03  0.59421562925E+02 -0.23265053643E+03  0.28467746669E+03  0.00000000000E+00 0. -1.
          3    1    6    6  503    0 -0.41022215682E+01 -0.23803958737E+02 -0.70669106115E+01  0.25167397540E+02  0.00000000000E+00 0. -1.
         -3    1    6    6    0  503 -0.10996486048E+03 -0.13289822778E+03  0.23178648578E+03  0.28892764575E+03  0.00000000000E+00 0.  1.
<mgrwt>
<rscale>  0 0.18245866E+04</rscale>
<asrwt>0</asrwt>
<pdfrwt beam="1">  1        2 0.21906344E+00 0.18245866E+04</pdfrwt>
<pdfrwt beam="2">  1       -1 0.89923322E-01 0.18245866E+04</pdfrwt>
<totfact> 0.18222300E+01</totfact>
</mgrwt>
</event>
<event>
12    7  0.1660832E-007  0.1102859E+04  0.7818608E-02  0.9202410E-01
         -1   -1    0    0    0  501 -0.00000000000E+00  0.00000000000E+00  0.80303218824E+03  0.80303218824E+03  0.00000000000E+00 0.  1.
          2   -1    0    0  501    0  0.00000000000E+00 -0.00000000000E+00 -0.37865800635E+03  0.37865800635E+03  0.00000000000E+00 0. -1.
         24    2    1    2    0    0  0.35520554696E+02  0.14354352302E+03  0.15155987288E+03  0.22612266552E+03  0.79338590767E+02 0.  0.
        254    2    1    2    0    0 -0.35520554696E+02 -0.14354352302E+03  0.27281430901E+03  0.95556752908E+03  0.90377829285E+03 0.  0.
         23    2    4    4    0    0  0.33042292530E+03 -0.82813103424E+02  0.41803481282E+03  0.54703526148E+03  0.91962780017E+02 0.  0.
         23    2    4    4    0    0 -0.36594347999E+03 -0.60730419593E+02 -0.14522050381E+03  0.40853226760E+03  0.90591415334E+02 0.  0.
          2    1    3    3  502    0  0.13934518211E+02 -0.10457290538E+01 -0.19840287860E+01  0.14113848421E+02  0.00000000000E+00 0. -1.
         -1    1    3    3    0  502  0.21586036485E+02  0.14458925207E+03  0.15354390167E+03  0.21200881709E+03  0.00000000000E+00 0.  1.
         13    1    5    5    0    0  0.77030663211E+02 -0.32708990533E+00  0.47053905013E+02  0.90265719072E+02  0.00000000000E+00 0.  1.
        -13    1    5    5    0    0  0.25339226209E+03 -0.82486013519E+02  0.37098090781E+03  0.45676954240E+03  0.00000000000E+00 0. -1.
          4    1    6    6  503    0 -0.29420409536E+02 -0.10054889331E+01 -0.42403917906E+02  0.51620381237E+02  0.00000000000E+00 0. -1.
         -4    1    6    6    0  503 -0.33652307046E+03 -0.59724930659E+02 -0.10281658591E+03  0.35691188637E+03  0.00000000000E+00 0.  1.
<mgrwt>
<rscale>  0 0.11028591E+04</rscale>
<asrwt>0</asrwt>
<pdfrwt beam="1">  1        2 0.58255078E-01 0.11028591E+04</pdfrwt>
<pdfrwt beam="2">  1       -1 0.12354341E+00 0.11028591E+04</pdfrwt>
<totfact> 0.55413103E+01</totfact>
</mgrwt>
</event>
<event>
12    7  0.1660832E-007  0.2065297E+04  0.7818608E-02  0.8576686E-01
         -1   -1    0    0    0  501 -0.00000000000E+00  0.00000000000E+00  0.13159739293E+04  0.13159739293E+04  0.00000000000E+00 0.  1.
          2   -1    0    0  501    0  0.00000000000E+00 -0.00000000000E+00 -0.81032230047E+03  0.81032230047E+03  0.00000000000E+00 0. -1.
         24    2    1    2    0    0  0.48983499024E+03 -0.59498488139E+03 -0.13081166719E+03  0.78584500100E+03  0.80593713083E+02 0.  0.
        254    2    1    2    0    0 -0.48983499024E+03  0.59498488139E+03  0.63646329600E+03  0.13404512287E+04  0.89318455134E+03 0.  0.
         23    2    4    4    0    0 -0.56064026506E+03  0.58358521095E+03  0.13492082728E+03  0.82560170677E+03  0.92332785866E+02 0.  0.
         23    2    4    4    0    0  0.70805274814E+02  0.11399670431E+02  0.50154246872E+03  0.51484952197E+03  0.91552405298E+02 0.  0.
          4    1    3    3  502    0  0.46752284791E+03 -0.57312388531E+03 -0.14108307458E+03  0.75296283783E+03  0.00000000000E+00 0. -1.
         -3    1    3    3    0  502  0.22312142333E+02 -0.21860996078E+02  0.10271407389E+02  0.32882163170E+02  0.00000000000E+00 0.  1.
         13    1    5    5    0    0 -0.19776718490E+03  0.26812503602E+03  0.69565746678E+02  0.34035611861E+03  0.00000000000E+00 0.  1.
        -13    1    5    5    0    0 -0.36287308016E+03  0.31546017494E+03  0.65355080597E+02  0.48524558817E+03  0.00000000000E+00 0. -1.
          1    1    6    6  503    0  0.90656881038E+02  0.10997344572E+02  0.45768541984E+03  0.46670714073E+03  0.00000000000E+00 0. -1.
         -1    1    6    6    0  503 -0.19851606224E+02  0.40232585909E+00  0.43857048879E+02  0.48142381247E+02  0.00000000000E+00 0.  1.
<mgrwt>
<rscale>  0 0.20652971E+04</rscale>
<asrwt>0</asrwt>
<pdfrwt beam="1">  1        2 0.12466497E+00 0.20652971E+04</pdfrwt>
<pdfrwt beam="2">  1       -1 0.20245753E+00 0.20652971E+04</pdfrwt>
<totfact> 0.51684156E+00</totfact>
</mgrwt>
</event>
<event>
12    7  0.1660832E-007  0.2393805E+04  0.7818608E-02  0.8441827E-01
         -1   -1    0    0    0  501 -0.00000000000E+00  0.00000000000E+00  0.88969097047E+03  0.88969097047E+03  0.00000000000E+00 0.  1.
          2   -1    0    0  501    0  0.00000000000E+00 -0.00000000000E+00 -0.16101941819E+04  0.16101941819E+04  0.00000000000E+00 0. -1.
         24    2    1    2    0    0  0.45259151650E+03  0.13853040226E+03 -0.12686695425E+04  0.13563170723E+04  0.77742133847E+02 0.  0.
        254    2    1    2    0    0 -0.45259151650E+03 -0.13853040226E+03  0.54816633106E+03  0.11435680801E+04  0.88500388367E+03 0.  0.
         23    2    4    4    0    0  0.37874831137E+02 -0.19571887972E+03  0.59974144150E+03  0.63899749709E+03  0.94274184822E+02 0.  0.
         23    2    4    4    0    0 -0.49046634764E+03  0.57188477459E+02 -0.51575110442E+02  0.50457058299E+03  0.90020670305E+02 0.  0.
          4    1    3    3  502    0  0.20378777299E+03  0.22599424231E+02 -0.52656681160E+03  0.56507769154E+03  0.00000000000E+00 0. -1.
         -3    1    3    3    0  502  0.24880374351E+03  0.11593097803E+03 -0.74210273091E+03  0.79123938077E+03  0.00000000000E+00 0.  1.
         13    1    5    5    0    0  0.48820978678E+02 -0.17708764469E+03  0.58414787847E+03  0.61234979038E+03  0.00000000000E+00 0.  1.
        -13    1    5    5    0    0 -0.10946147541E+02 -0.18631235036E+02  0.15593563031E+02  0.26647706711E+02  0.00000000000E+00 0. -1.
          3    1    6    6  503    0 -0.20620843664E+03 -0.75078152171E+01 -0.52987668702E+02  0.21303985464E+03  0.00000000000E+00 0. -1.
         -3    1    6    6    0  503 -0.28425791099E+03  0.64696292676E+02  0.14125582597E+01  0.29153072834E+03  0.00000000000E+00 0.  1.
<mgrwt>
<rscale>  0 0.23938047E+04</rscale>
<asrwt>0</asrwt>
<pdfrwt beam="1">  1        2 0.24772218E+00 0.23938047E+04</pdfrwt>
<pdfrwt beam="2">  1       -1 0.13687553E+00 0.23938047E+04</pdfrwt>
<totfact> 0.50133393E+00</totfact>
</mgrwt>
</event>
<event>
12    7  0.1660832E-007  0.1663786E+04  0.7818608E-02  0.8782292E-01
          2   -1    0    0  501    0  0.00000000000E+00  0.00000000000E+00  0.98176471345E+03  0.98176471345E+03  0.00000000000E+00 0. -1.
         -1   -1    0    0    0  501 -0.00000000000E+00 -0.00000000000E+00 -0.70490008942E+03  0.70490008942E+03  0.00000000000E+00 0.  1.
         24    2    1    2    0    0  0.86850957120E+02 -0.26946833088E+02  0.67837482236E+03  0.68908075562E+03  0.79816461867E+02 0.  0.
        254    2    1    2    0    0 -0.86850957120E+02  0.26946833088E+02 -0.40151019834E+03  0.99758404725E+03  0.90867720968E+03 0.  0.
         23    2    4    4    0    0 -0.48210879072E+03 -0.37864261350E+02 -0.14277762323E+03  0.51187336154E+03  0.88126614462E+02 0.  0.
         23    2    4    4    0    0  0.39525783360E+03  0.64811094438E+02 -0.25873257510E+03  0.48571068572E+03  0.92428847308E+02 0.  0.
          4    1    3    3  502    0  0.70657207117E+02 -0.54338029713E+02  0.49197650327E+03  0.49998594196E+03  0.00000000000E+00 0. -1.
         -3    1    3    3    0  502  0.16193750003E+02  0.27391196625E+02  0.18639831909E+03  0.18909481366E+03  0.00000000000E+00 0.  1.
         13    1    5    5    0    0 -0.21330493478E+03 -0.31477166203E+02 -0.20788672786E+02  0.21661481046E+03  0.00000000000E+00 0.  1.
        -13    1    5    5    0    0 -0.26880385593E+03 -0.63870951462E+01 -0.12198895045E+03  0.29525855107E+03  0.00000000000E+00 0. -1.
          1    1    6    6  503    0  0.16226177502E+02 -0.15584503426E+02 -0.22984391603E+02  0.32162833220E+02  0.00000000000E+00 0. -1.
         -1    1    6    6    0  503  0.37903165610E+03  0.80395597864E+02 -0.23574818350E+03  0.45354785250E+03  0.00000000000E+00 0.  1.
<mgrwt>
<rscale>  0 0.16637861E+04</rscale>
<asrwt>0</asrwt>
<pdfrwt beam="1">  1        2 0.15104073E+00 0.16637861E+04</pdfrwt>
<pdfrwt beam="2">  1       -1 0.10844617E+00 0.16637861E+04</pdfrwt>
<totfact> 0.22245135E+01</totfact>
</mgrwt>
</event>
<event>
12    7  0.1660832E-007  0.2247543E+04  0.7818608E-02  0.8498896E-01
         -1   -1    0    0    0  501 -0.00000000000E+00  0.00000000000E+00  0.60948766763E+03  0.60948766763E+03  0.00000000000E+00 0.  1.
          2   -1    0    0  501    0  0.00000000000E+00 -0.00000000000E+00 -0.20720061654E+04  0.20720061654E+04  0.00000000000E+00 0. -1.
         24    2    1    2    0    0  0.79582005323E+03 -0.37555414255E+03 -0.21940387141E+03  0.91041832095E+03  0.79705641084E+02 0.  0.
        254    2    1    2    0    0 -0.79582005323E+03  0.37555414255E+03 -0.12431146263E+04  0.17710755120E+04  0.90388274906E+03 0.  0.
         23    2    4    4    0    0 -0.62954420964E+03  0.51604879288E+03 -0.12920751412E+04  0.15299166968E+04  0.92491404923E+02 0.  0.
         23    2    4    4    0    0 -0.16627584358E+03 -0.14049465033E+03  0.48960514895E+02  0.24115881526E+03  0.91509776695E+02 0.  0.
          4    1    3    3  502    0  0.37493184154E+03 -0.13865258995E+03 -0.79410765170E+02  0.40755919340E+03  0.00000000000E+00 0. -1.
         -3    1    3    3    0  502  0.42088821169E+03 -0.23690155260E+03 -0.13999310624E+03  0.50285912755E+03  0.00000000000E+00 0.  1.
         13    1    5    5    0    0 -0.62150366343E+03  0.48866144516E+03 -0.12515198775E+04  0.14803238887E+04  0.00000000000E+00 0. -1.
        -13    1    5    5    0    0 -0.80405462167E+01  0.27387347720E+02 -0.40555263679E+02  0.49592808054E+02  0.00000000000E+00 0.  1.
          3    1    6    6  503    0 -0.13061147034E+02 -0.59290877316E+02  0.26729447098E+02  0.66336001062E+02  0.00000000000E+00 0. -1.
         -3    1    6    6    0  503 -0.15321469655E+03 -0.81203773011E+02  0.22231067798E+02  0.17482281420E+03  0.00000000000E+00 0.  1.
<mgrwt>
<rscale>  0 0.22475428E+04</rscale>
<asrwt>0</asrwt>
<pdfrwt beam="1">  1        2 0.31877018E+00 0.22475428E+04</pdfrwt>
<pdfrwt beam="2">  1       -1 0.93767333E-01 0.22475428E+04</pdfrwt>
<totfact> 0.69591664E+00</totfact>
</mgrwt>
</event>
<event>
12    7  0.1660832E-007  0.1287291E+04  0.7818608E-02  0.9039705E-01
          2   -1    0    0  501    0  0.00000000000E+00  0.00000000000E+00  0.89663209424E+03  0.89663209424E+03  0.00000000000E+00 0. -1.
         -1   -1    0    0    0  501 -0.00000000000E+00 -0.00000000000E+00 -0.46203957486E+03  0.46203957486E+03  0.00000000000E+00 0.  1.
         24    2    1    2    0    0  0.10033272510E+03 -0.18394062066E+03 -0.13551775127E+03  0.26176306945E+03  0.79082463074E+02 0.  0.
        254    2    1    2    0    0 -0.10033272510E+03  0.18394062066E+03  0.57011027066E+03  0.10969085996E+04  0.91339035883E+03 0.  0.
         23    2    4    4    0    0  0.35311008442E+03 -0.11872337790E+03  0.24824585811E+03  0.45733445644E+03  0.93524471711E+02 0.  0.
         23    2    4    4    0    0 -0.45344280952E+03  0.30266399856E+03  0.32186441255E+03  0.63957414320E+03  0.90788253971E+02 0.  0.
          2    1    3    3  502    0  0.47407232590E+02 -0.49283487192E+02 -0.78999652969E+01  0.68838341521E+02  0.00000000000E+00 0. -1.
         -1    1    3    3    0  502  0.52925492511E+02 -0.13465713346E+03 -0.12761778598E+03  0.19292472793E+03  0.00000000000E+00 0.  1.
         13    1    5    5    0    0  0.32743723365E+03 -0.80743376036E+02  0.20726936824E+03  0.39584747791E+03  0.00000000000E+00 0.  1.
        -13    1    5    5    0    0  0.25672850766E+02 -0.37980001864E+02  0.40976489868E+02  0.61486978539E+02  0.00000000000E+00 0. -1.
          2    1    6    6  503    0  0.22094297784E+01  0.43078582783E+01 -0.27138667686E+01  0.55501617750E+01  0.00000000000E+00 0. -1.
         -2    1    6    6    0  503 -0.45565223929E+03  0.29835614028E+03  0.32457827932E+03  0.63402398143E+03  0.00000000000E+00 0.  1.
<mgrwt>
<rscale>  0 0.12872910E+04</rscale>
<asrwt>0</asrwt>
<pdfrwt beam="1">  1        2 0.13794340E+00 0.12872910E+04</pdfrwt>
<pdfrwt beam="2">  1       -1 0.71083012E-01 0.12872910E+04</pdfrwt>
<totfact> 0.65984602E+01</totfact>
</mgrwt>
</event>
<event>
12    7  0.1660832E-007  0.2568294E+04  0.7818608E-02  0.8379051E-01
         -1   -1    0    0    0  501 -0.00000000000E+00  0.00000000000E+00  0.15146151918E+04  0.15146151918E+04  0.00000000000E+00 0.  1.
          2   -1    0    0  501    0  0.00000000000E+00 -0.00000000000E+00 -0.10887475429E+04  0.10887475429E+04  0.00000000000E+00 0. -1.
         24    2    1    2    0    0  0.77491655977E+03 -0.65352409379E+03  0.65527843384E+03  0.12099100405E+04  0.83084682204E+02 0.  0.
        254    2    1    2    0    0 -0.77491655977E+03  0.65352409379E+03 -0.22941078492E+03  0.13934526942E+04  0.92816576484E+03 0.  0.
         23    2    4    4    0    0 -0.84120745518E+03  0.55927047092E+03  0.11310433637E+03  0.10206339368E+04  0.92128169735E+02 0.  0.
         23    2    4    4    0    0  0.66290895413E+02  0.94253622869E+02 -0.34251512129E+03  0.37281875746E+03  0.91646000259E+02 0.  0.
          2    1    3    3  502    0  0.95526656186E+02 -0.50616767909E+02  0.83471979364E+02  0.13658320019E+03  0.00000000000E+00 0. -1.
         -1    1    3    3    0  502  0.67938990358E+03 -0.60290732588E+03  0.57180645448E+03  0.10733268403E+04  0.00000000000E+00 0.  1.
         13    1    5    5    0    0 -0.10843442683E+03  0.84270618135E+02  0.45879871322E+02  0.14479131395E+03  0.00000000000E+00 0.  1.
        -13    1    5    5    0    0 -0.73277302835E+03  0.47499985278E+03  0.67224465046E+02  0.87584262281E+03  0.00000000000E+00 0. -1.
          3    1    6    6  503    0  0.48541591807E+02  0.15497703924E+02 -0.22192547897E+03  0.22770020460E+03  0.00000000000E+00 0. -1.
         -3    1    6    6    0  503  0.17749303606E+02  0.78755918946E+02 -0.12058964232E+03  0.14511855286E+03  0.00000000000E+00 0.  1.
<mgrwt>
<rscale>  0 0.25682940E+04</rscale>
<asrwt>0</asrwt>
<pdfrwt beam="1">  1        2 0.16749962E+00 0.25682940E+04</pdfrwt>
<pdfrwt beam="2">  1       -1 0.23301772E+00 0.25682940E+04</pdfrwt>
<totfact> 0.20173500E+00</totfact>
</mgrwt>
</event>
<event>
12    7  0.1660832E-007  0.2836604E+04  0.7818608E-02  0.8291994E-01
         -1   -1    0    0    0  501 -0.00000000000E+00  0.00000000000E+00  0.11082967935E+04  0.11082967935E+04  0.00000000000E+00 0.  1.
          2   -1    0    0  501    0  0.00000000000E+00 -0.00000000000E+00 -0.18150194283E+04  0.18150194283E+04  0.00000000000E+00 0. -1.
         24    2    1    2    0    0 -0.12510372030E+04  0.12089863869E+01 -0.65189866577E+02  0.12552422852E+04  0.79296475431E+02 0.  0.
        254    2    1    2    0    0  0.12510372030E+04 -0.12089863869E+01 -0.64153276822E+03  0.16680739366E+04  0.89766966093E+03 0.  0.
         23    2    4    4    0    0  0.29239200027E+03  0.38975661427E+03 -0.14757863069E+03  0.51733826084E+03  0.91957184053E+02 0.  0.
         23    2    4    4    0    0  0.95864520273E+03 -0.39096560066E+03 -0.49395413753E+03  0.11507356757E+04  0.91362901409E+02 0.  0.
          4    1    3    3  502    0 -0.97282744678E+03  0.18134611752E+02 -0.78830297311E+02  0.97618457329E+03  0.00000000000E+00 0. -1.
         -3    1    3    3    0  502 -0.27820975622E+03 -0.16925625365E+02  0.13640430733E+02  0.27905771195E+03  0.00000000000E+00 0.  1.
         13    1    5    5    0    0  0.10049838669E+03  0.97369077735E+02 -0.79837205228E+02  0.16110444552E+03  0.00000000000E+00 0. -1.
        -13    1    5    5    0    0  0.19189361358E+03  0.29238753654E+03 -0.67741425466E+02  0.35623381532E+03  0.00000000000E+00 0.  1.
          4    1    6    6  503    0  0.32871479690E+03 -0.12274374286E+03 -0.12147950560E+03  0.37131753850E+03  0.00000000000E+00 0. -1.
         -4    1    6    6    0  503  0.62993040583E+03 -0.26822185780E+03 -0.37247463193E+03  0.77941813722E+03  0.00000000000E+00 0.  1.
<mgrwt>
<rscale>  0 0.28366038E+04</rscale>
<asrwt>0</asrwt>
<pdfrwt beam="1">  1        2 0.27923376E+00 0.28366038E+04</pdfrwt>
<pdfrwt beam="2">  1       -1 0.17050720E+00 0.28366038E+04</pdfrwt>
<totfact> 0.20388751E+00</totfact>
</mgrwt>
</event>
<event>
12    7  0.1660832E-007  0.1558475E+04  0.7818608E-02  0.8846472E-01
          2   -1    0    0  501    0  0.00000000000E+00  0.00000000000E+00  0.16669637492E+04  0.16669637492E+04  0.00000000000E+00 0. -1.
         -1   -1    0    0    0  501 -0.00000000000E+00 -0.00000000000E+00 -0.36426171389E+03  0.36426171389E+03  0.00000000000E+00 0.  1.
         24    2    1    2    0    0 -0.21964137499E+03 -0.38466177362E+03  0.56796853879E+03  0.72482210528E+03  0.81066698189E+02 0.  0.
        254    2    1    2    0    0  0.21964137499E+03  0.38466177362E+03  0.73473349648E+03  0.13064033578E+04  0.98521541230E+03 0.  0.
         23    2    4    4    0    0 -0.52164238930E+02  0.65606092483E+03  0.33362461054E+03  0.74348710770E+03  0.91272414573E+02 0.  0.
         23    2    4    4    0    0  0.27180561392E+03 -0.27139915120E+03  0.40110888594E+03  0.56291625006E+03  0.91927009970E+02 0.  0.
          2    1    3    3  502    0 -0.20494850422E+03 -0.33886799035E+03  0.53840967797E+03  0.66837144283E+03  0.00000000000E+00 0. -1.
         -3    1    3    3    0  502 -0.14692870772E+02 -0.45793783270E+02  0.29558860824E+02  0.56450662449E+02  0.00000000000E+00 0.  1.
         13    1    5    5    0    0  0.26340011197E+02  0.14853455479E+03  0.73563762780E+02  0.16783306393E+03  0.00000000000E+00 0. -1.
        -13    1    5    5    0    0 -0.78504250127E+02  0.50752637004E+03  0.26006084775E+03  0.57565404377E+03  0.00000000000E+00 0.  1.
          2    1    6    6  503    0  0.13517072282E+03 -0.19208586075E+03  0.26772941035E+03  0.35615606042E+03  0.00000000000E+00 0. -1.
         -2    1    6    6    0  503  0.13663489110E+03 -0.79313290448E+02  0.13337947560E+03  0.20676018964E+03  0.00000000000E+00 0.  1.
<mgrwt>
<rscale>  0 0.15584750E+04</rscale>
<asrwt>0</asrwt>
<pdfrwt beam="1">  1        2 0.25645596E+00 0.15584750E+04</pdfrwt>
<pdfrwt beam="2">  1       -1 0.56040265E-01 0.15584750E+04</pdfrwt>
<totfact> 0.36119141E+01</totfact>
</mgrwt>
</event>
<event>
12    7  0.1660832E-007  0.1773019E+04  0.7818608E-02  0.8720781E-01
         -1   -1    0    0    0  501 -0.00000000000E+00  0.00000000000E+00  0.33909080251E+03  0.33909080251E+03  0.00000000000E+00 0.  1.
          2   -1    0    0  501    0  0.00000000000E+00 -0.00000000000E+00 -0.23176662371E+04  0.23176662371E+04  0.00000000000E+00 0. -1.
         24    2    1    2    0    0  0.15993502669E+03  0.63108392583E+03 -0.76575842309E+03  0.10086341993E+04  0.84325863660E+02 0.  0.
        254    2    1    2    0    0 -0.15993502669E+03 -0.63108392583E+03 -0.12128170115E+04  0.16481228403E+04  0.90638714640E+03 0.  0.
         23    2    4    4    0    0 -0.11601828450E+03  0.15443413495E+03 -0.62626052429E+03  0.66271684137E+03  0.98393206902E+02 0.  0.
         23    2    4    4    0    0 -0.43916742189E+02 -0.78551806078E+03 -0.58655648721E+03  0.98540599894E+03  0.89493943986E+02 0.  0.
          2    1    3    3  502    0  0.13968314792E+03  0.60986261847E+03 -0.74406307808E+03  0.97214899032E+03  0.00000000000E+00 0. -1.
         -1    1    3    3    0  502  0.20251878775E+02  0.21221307362E+02 -0.21695345010E+02  0.36485208991E+02  0.00000000000E+00 0.  1.
         13    1    5    5    0    0 -0.61703817529E+02  0.65361905178E+02 -0.14757334546E+03  0.17279303237E+03  0.00000000000E+00 0. -1.
        -13    1    5    5    0    0 -0.54314466976E+02  0.89072229773E+02 -0.47868717883E+03  0.48992380899E+03  0.00000000000E+00 0.  1.
          3    1    6    6  503    0 -0.41015722257E+02 -0.77786914401E+03 -0.58933181255E+03  0.97676746463E+03  0.00000000000E+00 0. -1.
         -3    1    6    6    0  503 -0.29010199319E+01 -0.76489167667E+01  0.27753253377E+01  0.86385343132E+01  0.00000000000E+00 0.  1.
<mgrwt>
<rscale>  0 0.17730192E+04</rscale>
<asrwt>0</asrwt>
<pdfrwt beam="1">  1        2 0.35656403E+00 0.17730192E+04</pdfrwt>
<pdfrwt beam="2">  1       -1 0.52167817E-01 0.17730192E+04</pdfrwt>
<totfact> 0.17672788E+01</totfact>
</mgrwt>
</event>
<event>
12    7  0.1660832E-007  0.1790086E+04  0.7818608E-02  0.8711589E-01
          2   -1    0    0  501    0  0.00000000000E+00  0.00000000000E+00  0.17143909380E+04  0.17143909380E+04  0.00000000000E+00 0. -1.
         -1   -1    0    0    0  501 -0.00000000000E+00 -0.00000000000E+00 -0.46728100135E+03  0.46728100135E+03  0.00000000000E+00 0.  1.
         24    2    1    2    0    0  0.40097282048E+03  0.18653939025E+03  0.10761421406E+04  0.11662180492E+04  0.80040518765E+02 0.  0.
        254    2    1    2    0    0 -0.40097282048E+03 -0.18653939025E+03  0.17096779612E+03  0.10154538902E+04  0.89796462567E+03 0.  0.
         23    2    4    4    0    0 -0.46447572419E+03 -0.40210899214E+03  0.35180166005E+03  0.71372616926E+03  0.90616205799E+02 0.  0.
         23    2    4    4    0    0  0.63502903715E+02  0.21556960189E+03 -0.18083386393E+03  0.30172772095E+03  0.88520388656E+02 0.  0.
          2    1    3    3  502    0  0.29636558311E+03  0.97329019834E+02  0.74440554767E+03  0.80712150037E+03  0.00000000000E+00 0. -1.
         -1    1    3    3    0  502  0.10460723737E+03  0.89210370415E+02  0.33173659290E+03  0.35909654882E+03  0.00000000000E+00 0.  1.
         13    1    5    5    0    0 -0.16935634055E+03 -0.92160316409E+02  0.10061993716E+03  0.21748440348E+03  0.00000000000E+00 0.  1.
        -13    1    5    5    0    0 -0.29511938364E+03 -0.30994867573E+03  0.25118172289E+03  0.49624176578E+03  0.00000000000E+00 0. -1.
          4    1    6    6  503    0  0.43099246940E+02  0.46813777915E+02 -0.86304918804E+02  0.10722692712E+03  0.00000000000E+00 0.  1.
         -4    1    6    6    0  503  0.20403656776E+02  0.16875582397E+03 -0.94528945124E+02  0.19450079383E+03  0.00000000000E+00 0. -1.
<mgrwt>
<rscale>  0 0.17900864E+04</rscale>
<asrwt>0</asrwt>
<pdfrwt beam="1">  1        2 0.26375245E+00 0.17900864E+04</pdfrwt>
<pdfrwt beam="2">  1       -1 0.71889386E-01 0.17900864E+04</pdfrwt>
<totfact> 0.20233662E+01</totfact>
</mgrwt>
</event>
<event>
12    7  0.1660832E-007  0.1539019E+04  0.7818608E-02  0.8858913E-01
         -1   -1    0    0    0  501 -0.00000000000E+00  0.00000000000E+00  0.24220377664E+03  0.24220377664E+03  0.00000000000E+00 0.  1.
          2   -1    0    0  501    0  0.00000000000E+00 -0.00000000000E+00 -0.24448199118E+04  0.24448199118E+04  0.00000000000E+00 0. -1.
         24    2    1    2    0    0  0.20575942762E+02 -0.49858962568E+03 -0.61306819804E+03  0.79437735714E+03  0.78535252141E+02 0.  0.
        254    2    1    2    0    0 -0.20575942762E+02  0.49858962568E+03 -0.15895479371E+04  0.18926463313E+04  0.89801587218E+03 0.  0.
         23    2    4    4    0    0  0.38948448573E+03  0.43756625306E+02 -0.72632380420E+03  0.83029101475E+03  0.90686789226E+02 0.  0.
         23    2    4    4    0    0 -0.41006042849E+03  0.45483300038E+03 -0.86322413290E+03  0.10623553165E+04  0.91762201850E+02 0.  0.
          2    1    3    3  502    0  0.29199451739E+02 -0.32112385960E+03 -0.44708745043E+03  0.55123527601E+03  0.00000000000E+00 0. -1.
         -1    1    3    3    0  502 -0.86235089772E+01 -0.17746576608E+03 -0.16598074761E+03  0.24314208113E+03  0.00000000000E+00 0.  1.
         13    1    5    5    0    0  0.33407931790E+03  0.40741341808E+02 -0.54381522462E+03  0.63953408518E+03  0.00000000000E+00 0. -1.
        -13    1    5    5    0    0  0.55405167827E+02  0.30152834983E+01 -0.18250857958E+03  0.19075692956E+03  0.00000000000E+00 0.  1.
          3    1    6    6  503    0 -0.37573098366E+03  0.44571671521E+03 -0.82495865535E+03  0.10101455070E+04  0.00000000000E+00 0. -1.
         -3    1    6    6    0  503 -0.34329444829E+02  0.91162851691E+01 -0.38265477546E+02  0.52209809513E+02  0.00000000000E+00 0.  1.
<mgrwt>
<rscale>  0 0.15390187E+04</rscale>
<asrwt>0</asrwt>
<pdfrwt beam="1">  1        2 0.37612612E+00 0.15390187E+04</pdfrwt>
<pdfrwt beam="2">  1       -1 0.37262121E-01 0.15390187E+04</pdfrwt>
<totfact> 0.28550877E+01</totfact>
</mgrwt>
</event>
<event>
12    7  0.1660832E-007  0.1368280E+04  0.7818608E-02  0.8977105E-01
          2   -1    0    0  501    0  0.00000000000E+00  0.00000000000E+00  0.82503770361E+03  0.82503770361E+03  0.00000000000E+00 0. -1.
         -1   -1    0    0    0  501 -0.00000000000E+00 -0.00000000000E+00 -0.56730439232E+03  0.56730439232E+03  0.00000000000E+00 0.  1.
         24    2    1    2    0    0 -0.44924106485E+02  0.15591239027E+02  0.44094414186E+03  0.45061333658E+03  0.79745725816E+02 0.  0.
        254    2    1    2    0    0  0.44924106485E+02 -0.15591239027E+02 -0.18321083057E+03  0.94172875935E+03  0.92251047998E+03 0.  0.
         23    2    4    4    0    0 -0.17812346695E+03 -0.13578776446E+03 -0.48233377722E+03  0.53990147690E+03  0.93174275710E+02 0.  0.
         23    2    4    4    0    0  0.22304757343E+03  0.12019652543E+03  0.29912294665E+03  0.40182728246E+03  0.88279119679E+02 0.  0.
          2    1    3    3  502    0 -0.37606985606E+02  0.11923226626E+02  0.44066090182E+03  0.44242341607E+03  0.00000000000E+00 0. -1.
         -1    1    3    3    0  502 -0.73171208792E+01  0.36680124005E+01  0.28324003842E+00  0.81899205033E+01  0.00000000000E+00 0.  1.
         13    1    5    5    0    0 -0.16044579467E+03 -0.71116873114E+02 -0.34450730205E+03  0.38663386277E+03  0.00000000000E+00 0.  1.
        -13    1    5    5    0    0 -0.17677672276E+02 -0.64670891346E+02 -0.13782647517E+03  0.15326761413E+03  0.00000000000E+00 0. -1.
          2    1    6    6  503    0  0.21991848141E+02  0.41931100654E+01  0.78337008312E+02  0.81473372509E+02  0.00000000000E+00 0. -1.
         -2    1    6    6    0  503  0.20105572529E+03  0.11600341537E+03  0.22078593834E+03  0.32035390995E+03  0.00000000000E+00 0.  1.
<mgrwt>
<rscale>  0 0.13682800E+04</rscale>
<asrwt>0</asrwt>
<pdfrwt beam="1">  1        2 0.12692888E+00 0.13682800E+04</pdfrwt>
<pdfrwt beam="2">  1       -1 0.87277599E-01 0.13682800E+04</pdfrwt>
<totfact> 0.47588150E+01</totfact>
</mgrwt>
</event>
<event>
12    7  0.1660832E-007  0.1522953E+04  0.7818608E-02  0.8869331E-01
          2   -1    0    0  501    0  0.00000000000E+00  0.00000000000E+00  0.38973744635E+04  0.38973744635E+04  0.00000000000E+00 0. -1.
         -1   -1    0    0    0  501 -0.00000000000E+00 -0.00000000000E+00 -0.14877875689E+03  0.14877875689E+03  0.00000000000E+00 0.  1.
         24    2    1    2    0    0  0.32766992526E+03  0.81607558020E+02  0.21919056189E+04  0.22191640312E+04  0.78812321393E+02 0.  0.
        254    2    1    2    0    0 -0.32766992526E+03 -0.81607558020E+02  0.15566900877E+04  0.18269891892E+04  0.89475029737E+03 0.  0.
         23    2    4    4    0    0 -0.24945430882E+02 -0.34121280603E+03  0.12903603426E+04  0.13387045322E+04  0.10025745411E+03 0.  0.
         23    2    4    4    0    0 -0.30272449438E+03  0.25960524801E+03  0.26632974509E+03  0.48828465698E+03  0.91942203771E+02 0.  0.
          4    1    3    3  502    0  0.25496552747E+03  0.86305405481E+02  0.18584200909E+04  0.18778128974E+04  0.00000000000E+00 0. -1.
         -3    1    3    3    0  502  0.72704397788E+02 -0.46978474618E+01  0.33348552797E+03  0.34135113387E+03  0.00000000000E+00 0.  1.
         13    1    5    5    0    0 -0.36717268552E+02 -0.23556612844E+03  0.71772137110E+03  0.75628270191E+03  0.00000000000E+00 0.  1.
        -13    1    5    5    0    0  0.11771837670E+02 -0.10564667759E+03  0.57263897153E+03  0.58242183026E+03  0.00000000000E+00 0. -1.
          3    1    6    6  503    0 -0.21196807119E+02 -0.16724616207E+01  0.31799374597E+02  0.38253130391E+02  0.00000000000E+00 0. -1.
         -3    1    6    6    0  503 -0.28152768726E+03  0.26127770963E+03  0.23453037049E+03  0.45003152659E+03  0.00000000000E+00 0.  1.
<mgrwt>
<rscale>  0 0.15229531E+04</rscale>
<asrwt>0</asrwt>
<pdfrwt beam="1">  1        2 0.59959599E+00 0.15229531E+04</pdfrwt>
<pdfrwt beam="2">  1       -1 0.22889042E-01 0.15229531E+04</pdfrwt>
<totfact> 0.75429984E+00</totfact>
</mgrwt>
</event>
<event>
12    7  0.1660832E-007  0.1372754E+04  0.7818608E-02  0.8973780E-01
          2   -1    0    0  501    0  0.00000000000E+00  0.00000000000E+00  0.14411925013E+04  0.14411925013E+04  0.00000000000E+00 0. -1.
         -1   -1    0    0    0  501 -0.00000000000E+00 -0.00000000000E+00 -0.32689154635E+03  0.32689154635E+03  0.00000000000E+00 0.  1.
         24    2    1    2    0    0  0.48274523159E+02 -0.70183078549E+02 -0.16082823657E+03  0.20066112577E+03  0.84516694292E+02 0.  0.
        254    2    1    2    0    0 -0.48274523159E+02  0.70183078549E+02  0.12751291915E+04  0.15674229219E+04  0.90752634502E+03 0.  0.
         23    2    4    4    0    0 -0.16389490135E+03  0.45603387103E+03  0.77986540756E+03  0.92271563648E+03  0.91573258467E+02 0.  0.
         23    2    4    4    0    0  0.11562037819E+03 -0.38585079248E+03  0.49526378394E+03  0.64470728541E+03  0.90068653037E+02 0.  0.
          2    1    3    3  502    0  0.25663623461E+02  0.14570907004E+02 -0.23575413155E+02  0.37772119420E+02  0.00000000000E+00 0. -1.
         -1    1    3    3    0  502  0.22610899698E+02 -0.84753985554E+02 -0.13725282342E+03  0.16288900634E+03  0.00000000000E+00 0.  1.
         13    1    5    5    0    0 -0.44052880178E+02  0.61104885408E+02  0.77553513675E+02  0.10811572853E+03  0.00000000000E+00 0.  1.
        -13    1    5    5    0    0 -0.11984202117E+03  0.39492898562E+03  0.70231189389E+03  0.81459990794E+03  0.00000000000E+00 0. -1.
          1    1    6    6  503    0  0.41400474876E+01 -0.16399342778E+03  0.18305094752E+03  0.24580202142E+03  0.00000000000E+00 0. -1.
         -1    1    6    6    0  503  0.11148033070E+03 -0.22185736470E+03  0.31221283642E+03  0.39890526398E+03  0.00000000000E+00 0.  1.
<mgrwt>
<rscale>  0 0.13727544E+04</rscale>
<asrwt>0</asrwt>
<pdfrwt beam="1">  1        2 0.22172192E+00 0.13727544E+04</pdfrwt>
<pdfrwt beam="2">  1       -1 0.50291008E-01 0.13727544E+04</pdfrwt>
<totfact> 0.60462276E+01</totfact>
</mgrwt>
</event>
<event>
12    7  0.1660832E-007  0.1690112E+04  0.7818608E-02  0.8767024E-01
          2   -1    0    0  501    0  0.00000000000E+00  0.00000000000E+00  0.26718052269E+04  0.26718052269E+04  0.00000000000E+00 0. -1.
         -1   -1    0    0    0  501 -0.00000000000E+00 -0.00000000000E+00 -0.26727972263E+03  0.26727972263E+03  0.00000000000E+00 0.  1.
         24    2    1    2    0    0 -0.54081188758E+03 -0.16250500287E+03  0.50827126808E+03  0.76389171709E+03  0.79407177156E+02 0.  0.
        254    2    1    2    0    0  0.54081188758E+03  0.16250500287E+03  0.18962542362E+04  0.21751932325E+04  0.90376993559E+03 0.  0.
         23    2    4    4    0    0  0.79962140712E+02  0.44860384363E+01 -0.75984630694E+02  0.14160182362E+03  0.88675497531E+02 0.  0.
         23    2    4    4    0    0  0.46084974687E+03  0.15801896443E+03  0.19722388669E+04  0.20335914088E+04  0.91735422099E+02 0.  0.
          4    1    3    3  502    0 -0.13759976654E+03 -0.62960458487E+01  0.11677360415E+03  0.18058075914E+03  0.00000000000E+00 0. -1.
         -3    1    3    3    0  502 -0.40321212103E+03 -0.15620895702E+03  0.39149766393E+03  0.58331095795E+03  0.00000000000E+00 0.  1.
         13    1    5    5    0    0  0.32844620325E+02  0.40264570263E+02 -0.98865262920E+01  0.52893743533E+02  0.00000000000E+00 0. -1.
        -13    1    5    5    0    0  0.47117520387E+02 -0.35778531826E+02 -0.66098104402E+02  0.88708080086E+02  0.00000000000E+00 0.  1.
          1    1    6    6  503    0  0.36023712830E+02  0.27344247647E+02  0.10774828258E+03  0.11685507334E+03  0.00000000000E+00 0. -1.
         -1    1    6    6    0  503  0.42482603404E+03  0.13067471679E+03  0.18644905843E+04  0.19167363355E+04  0.00000000000E+00 0.  1.
<mgrwt>
<rscale>  0 0.16901117E+04</rscale>
<asrwt>0</asrwt>
<pdfrwt beam="1">  1        2 0.41104694E+00 0.16901117E+04</pdfrwt>
<pdfrwt beam="2">  1       -1 0.41119959E-01 0.16901117E+04</pdfrwt>
<totfact> 0.17372548E+01</totfact>
</mgrwt>
</event>
<event>
12    7  0.1660832E-007  0.1934610E+04  0.7818608E-02  0.8637818E-01
         -3   -1    0    0    0  501 -0.00000000000E+00  0.00000000000E+00  0.86546724967E+03  0.86546724967E+03  0.00000000000E+00 0.  1.
          2   -1    0    0  501    0  0.00000000000E+00 -0.00000000000E+00 -0.10811258647E+04  0.10811258647E+04  0.00000000000E+00 0. -1.
         24    2    1    2    0    0 -0.65856461112E+03  0.34568403300E+03 -0.22882643978E+03  0.78223007834E+03  0.79483068887E+02 0.  0.
        254    2    1    2    0    0  0.65856461112E+03 -0.34568403300E+03  0.13167824757E+02  0.11643630360E+04  0.89574722457E+03 0.  0.
         23    2    4    4    0    0  0.50047319672E+03  0.12634425406E+02  0.36790606987E+03  0.62788794182E+03  0.90858912024E+02 0.  0.
         23    2    4    4    0    0  0.15809141440E+03 -0.35831845840E+03 -0.35473824512E+03  0.53647509419E+03  0.92635258931E+02 0.  0.
          4    1    3    3  502    0 -0.28328510969E+03  0.12789542947E+03 -0.13185470918E+03  0.33762902510E+03  0.00000000000E+00 0. -1.
         -3    1    3    3    0  502 -0.37527950142E+03  0.21778860352E+03 -0.96971730592E+02  0.44460105325E+03  0.00000000000E+00 0.  1.
         13    1    5    5    0    0  0.10293502948E+03  0.28867774628E+02  0.11196422583E+03  0.15480619035E+03  0.00000000000E+00 0. -1.
        -13    1    5    5    0    0  0.39753816724E+03 -0.16233349222E+02  0.25594184405E+03  0.47308175147E+03  0.00000000000E+00 0.  1.
          2    1    6    6  503    0  0.73683149720E+02 -0.76826888492E+02 -0.11956950557E+03  0.16008886286E+03  0.00000000000E+00 0. -1.
         -2    1    6    6    0  503  0.84408264678E+02 -0.28149156991E+03 -0.23516873954E+03  0.37638623133E+03  0.00000000000E+00 0.  1.
<mgrwt>
<rscale>  0 0.19346101E+04</rscale>
<asrwt>0</asrwt>
<pdfrwt beam="1">  1        2 0.16632706E+00 0.19346101E+04</pdfrwt>
<pdfrwt beam="2">  1       -3 0.13314881E+00 0.19346101E+04</pdfrwt>
<totfact> 0.57818257E+00</totfact>
</mgrwt>
</event>
<event>
12    7  0.1660832E-007  0.1787367E+04  0.7818608E-02  0.8713046E-01
          2   -1    0    0  501    0  0.00000000000E+00  0.00000000000E+00  0.13165990001E+04  0.13165990001E+04  0.00000000000E+00 0. -1.
         -1   -1    0    0    0  501 -0.00000000000E+00 -0.00000000000E+00 -0.60661640602E+03  0.60661640602E+03  0.00000000000E+00 0.  1.
         24    2    1    2    0    0 -0.14642448454E+02  0.15950324416E+03 -0.43492694517E+03  0.47053147018E+03  0.81134028602E+02 0.  0.
        254    2    1    2    0    0  0.14642448454E+02 -0.15950324416E+03  0.11449095393E+04  0.14526839360E+04  0.87966873224E+03 0.  0.
         23    2    4    4    0    0  0.33776878672E+03 -0.35293336556E+03  0.53472489846E+03  0.73004048240E+03  0.91535103103E+02 0.  0.
         23    2    4    4    0    0 -0.32312633826E+03  0.19343012140E+03  0.61018464081E+03  0.72264345356E+03  0.89790994802E+02 0.  0.
          4    1    3    3  502    0  0.23009574252E+02  0.58403207872E+02 -0.94749229217E+02  0.11365646323E+03  0.00000000000E+00 0. -1.
         -3    1    3    3    0  502 -0.37652022706E+02  0.10110003629E+03 -0.34017771596E+03  0.35687500695E+03  0.00000000000E+00 0.  1.
         13    1    5    5    0    0  0.17212938970E+03 -0.23662709749E+03  0.34798118887E+03  0.45465571356E+03  0.00000000000E+00 0.  1.
        -13    1    5    5    0    0  0.16563939702E+03 -0.11630626807E+03  0.18674370959E+03  0.27538476884E+03  0.00000000000E+00 0. -1.
          3    1    6    6  503    0 -0.24656852340E+03  0.10220579831E+03  0.44695085246E+03  0.52058344812E+03  0.00000000000E+00 0. -1.
         -3    1    6    6    0  503 -0.76557814862E+02  0.91224323089E+02  0.16323378835E+03  0.20206000544E+03  0.00000000000E+00 0.  1.
<mgrwt>
<rscale>  0 0.17873674E+04</rscale>
<asrwt>0</asrwt>
<pdfrwt beam="1">  1        2 0.20255369E+00 0.17873674E+04</pdfrwt>
<pdfrwt beam="2">  1       -1 0.93325602E-01 0.17873674E+04</pdfrwt>
<totfact> 0.19408568E+01</totfact>
</mgrwt>
</event>
<event>
12    7  0.1660832E-007  0.1756335E+04  0.7818608E-02  0.8729871E-01
         -1   -1    0    0    0  501 -0.00000000000E+00  0.00000000000E+00  0.74334784829E+03  0.74334784829E+03  0.00000000000E+00 0.  1.
          2   -1    0    0  501    0  0.00000000000E+00 -0.00000000000E+00 -0.10374386094E+04  0.10374386094E+04  0.00000000000E+00 0. -1.
         24    2    1    2    0    0  0.39618332878E+03  0.19894738512E+03  0.36906179054E+03  0.57976614710E+03  0.58145404280E+02 0.  0.
        254    2    1    2    0    0 -0.39618332878E+03 -0.19894738512E+03 -0.66315255164E+03  0.12010203106E+04  0.89785142849E+03 0.  0.
         23    2    4    4    0    0 -0.22287347683E+03  0.29565747821E+03 -0.42180532071E+02  0.38313463716E+03  0.89033823975E+02 0.  0.
         23    2    4    4    0    0 -0.17330985195E+03 -0.49460486333E+03 -0.62097201957E+03  0.81788567342E+03  0.93061539226E+02 0.  0.
          4    1    3    3  502    0  0.79257567411E+02  0.23850238190E+02  0.92674955522E+02  0.12425475136E+03  0.00000000000E+00 0. -1.
         -3    1    3    3    0  502  0.31692576137E+03  0.17509714693E+03  0.27638683501E+03  0.45551139574E+03  0.00000000000E+00 0.  1.
         13    1    5    5    0    0 -0.12779873635E+03  0.23388155685E+03 -0.41625345453E+02  0.26975130960E+03  0.00000000000E+00 0.  1.
        -13    1    5    5    0    0 -0.95074740476E+02  0.61775921365E+02 -0.55518661740E+00  0.11338332756E+03  0.00000000000E+00 0. -1.
          1    1    6    6  503    0 -0.54980309881E+02 -0.68299244894E+02 -0.13201402706E+03  0.15847815202E+03  0.00000000000E+00 0. -1.
         -1    1    6    6    0  503 -0.11832954207E+03 -0.42630561844E+03 -0.48895799252E+03  0.65940752140E+03  0.00000000000E+00 0.  1.
<mgrwt>
<rscale>  0 0.17563345E+04</rscale>
<asrwt>0</asrwt>
<pdfrwt beam="1">  1        2 0.15960594E+00 0.17563345E+04</pdfrwt>
<pdfrwt beam="2">  1       -1 0.11436121E+00 0.17563345E+04</pdfrwt>
<totfact> 0.17925123E+01</totfact>
</mgrwt>
</event>
<event>
12    7  0.1660832E-007  0.2752848E+04  0.7818608E-02  0.8318059E-01
          2   -1    0    0  501    0  0.00000000000E+00  0.00000000000E+00  0.97722827808E+03  0.97722827808E+03  0.00000000000E+00 0. -1.
         -1   -1    0    0    0  501 -0.00000000000E+00 -0.00000000000E+00 -0.19386900230E+04  0.19386900230E+04  0.00000000000E+00 0.  1.
         24    2    1    2    0    0 -0.10417520412E+04  0.39053910910E+03  0.12620942417E+03  0.11225568218E+04  0.80230220959E+02 0.  0.
        254    2    1    2    0    0  0.10417520412E+04 -0.39053910910E+03 -0.10876711691E+04  0.17933614793E+04  0.89182325161E+03 0.  0.
         23    2    4    4    0    0 -0.13959745851E+03  0.41831552444E+01 -0.20564022234E+03  0.26456361628E+03  0.90559686426E+02 0.  0.
         23    2    4    4    0    0  0.11813494997E+04 -0.39472226435E+03 -0.88203094677E+03  0.15287978630E+04  0.88611558838E+02 0.  0.
          4    1    3    3  502    0 -0.78415153434E+03  0.31591245704E+03  0.68047169443E+02  0.84813013541E+03  0.00000000000E+00 0. -1.
         -3    1    3    3    0  502 -0.25760050688E+03  0.74626652065E+02  0.58162254727E+02  0.27442668642E+03  0.00000000000E+00 0.  1.
         13    1    5    5    0    0 -0.14814164477E+03  0.17231629823E+02 -0.19576491509E+03  0.24610318560E+03  0.00000000000E+00 0.  1.
        -13    1    5    5    0    0  0.85441862608E+01 -0.13048474579E+02 -0.98753072483E+01  0.18460430681E+02  0.00000000000E+00 0. -1.
          3    1    6    6  503    0  0.57025798983E+02 -0.11978299749E+02 -0.64595922689E+02  0.86994566742E+02  0.00000000000E+00 0. -1.
         -3    1    6    6    0  503  0.11243237007E+04 -0.38274396460E+03 -0.81743502408E+03  0.14418032963E+04  0.00000000000E+00 0.  1.
<mgrwt>
<rscale>  0 0.27528478E+04</rscale>
<asrwt>0</asrwt>
<pdfrwt beam="1">  1        2 0.15034281E+00 0.27528478E+04</pdfrwt>
<pdfrwt beam="2">  1       -1 0.29826000E+00 0.27528478E+04</pdfrwt>
<totfact> 0.87937829E-01</totfact>
</mgrwt>
</event>
<event>
12    7  0.1660832E-007  0.1057661E+04  0.7818608E-02  0.9247470E-01
         -1   -1    0    0    0  501 -0.00000000000E+00  0.00000000000E+00  0.32211181992E+03  0.32211181992E+03  0.00000000000E+00 0.  1.
          2   -1    0    0  501    0  0.00000000000E+00 -0.00000000000E+00 -0.86821323796E+03  0.86821323796E+03  0.00000000000E+00 0. -1.
         24    2    1    2    0    0 -0.10805539904E+03 -0.11759123758E+02  0.14813737053E+02  0.13610898508E+03  0.80572717213E+02 0.  0.
        254    2    1    2    0    0  0.10805539904E+03  0.11759123758E+02 -0.56091515509E+03  0.10542160728E+04  0.88596358317E+03 0.  0.
         23    2    4    4    0    0  0.42739252245E+03 -0.84163190090E+02 -0.66111080021E+02  0.45023609566E+03  0.92704132164E+02 0.  0.
         23    2    4    4    0    0 -0.31933712341E+03  0.95922313848E+02 -0.49480407507E+03  0.60397997715E+03  0.93720069398E+02 0.  0.
          2    1    3    3  502    0 -0.21206779128E+02  0.30830169449E+02  0.12151553721E+02  0.39343196198E+02  0.00000000000E+00 0. -1.
         -1    1    3    3    0  502 -0.86848619917E+02 -0.42589293208E+02  0.26621833322E+01  0.96765788879E+02  0.00000000000E+00 0.  1.
         13    1    5    5    0    0  0.43092013678E+03 -0.85683328958E+02 -0.60595960935E+02  0.44351512671E+03  0.00000000000E+00 0. -1.
        -13    1    5    5    0    0 -0.35276143281E+01  0.15201388677E+01 -0.55151190865E+01  0.67209689453E+01  0.00000000000E+00 0.  1.
          2    1    6    6  503    0 -0.48954720027E+02  0.31168265189E+02 -0.15136258333E+03  0.16210693076E+03  0.00000000000E+00 0.  1.
         -2    1    6    6    0  503 -0.27038240338E+03  0.64754048659E+02 -0.34344149174E+03  0.44187304639E+03  0.00000000000E+00 0. -1.
<mgrwt>
<rscale>  0 0.10576611E+04</rscale>
<asrwt>0</asrwt>
<pdfrwt beam="1">  1        2 0.13357127E+00 0.10576611E+04</pdfrwt>
<pdfrwt beam="2">  1       -1 0.49555665E-01 0.10576611E+04</pdfrwt>
<totfact> 0.14287702E+02</totfact>
</mgrwt>
</event>
<event>
12    7  0.1660832E-007  0.2282304E+04  0.7818608E-02  0.8484931E-01
         -1   -1    0    0    0  501 -0.00000000000E+00  0.00000000000E+00  0.36728291795E+03  0.36728291795E+03  0.00000000000E+00 0.  1.
          2   -1    0    0  501    0  0.00000000000E+00 -0.00000000000E+00 -0.35455704817E+04  0.35455704817E+04  0.00000000000E+00 0. -1.
         24    2    1    2    0    0  0.99915592562E+02  0.18444933061E+03  0.26638112673E+03  0.34631533459E+03  0.70503369408E+02 0.  0.
        254    2    1    2    0    0 -0.99915592562E+02 -0.18444933061E+03 -0.34446686904E+04  0.35665380650E+04  0.90024813306E+03 0.  0.
         23    2    4    4    0    0 -0.72173177046E+02 -0.36437937995E+03 -0.58265783117E+03  0.69725547928E+03  0.93240308515E+02 0.  0.
         23    2    4    4    0    0 -0.27742415516E+02  0.17993004934E+03 -0.28620108593E+04  0.28692825857E+04  0.92368468512E+02 0.  0.
          4    1    3    3  502    0  0.13840559356E+02 -0.35928992268E+01  0.21051210497E+02  0.25448447330E+02  0.00000000000E+00 0. -1.
         -3    1    3    3    0  502  0.86075033206E+02  0.18804222984E+03  0.24532991623E+03  0.32086688726E+03  0.00000000000E+00 0.  1.
         13    1    5    5    0    0 -0.58039535658E+02 -0.17547053489E+03 -0.21391165030E+03  0.28269540224E+03  0.00000000000E+00 0.  1.
        -13    1    5    5    0    0 -0.14133641388E+02 -0.18890884506E+03 -0.36874618087E+03  0.41456007703E+03  0.00000000000E+00 0. -1.
          1    1    6    6  503    0 -0.26476246592E+02  0.19108571842E+03 -0.27107835018E+04  0.27176390373E+04  0.00000000000E+00 0. -1.
         -1    1    6    6    0  503 -0.12661689240E+01 -0.11155669082E+02 -0.15122735748E+03  0.15164354845E+03  0.00000000000E+00 0.  1.
<mgrwt>
<rscale>  0 0.22823036E+04</rscale>
<asrwt>0</asrwt>
<pdfrwt beam="1">  1        2 0.54547236E+00 0.22823036E+04</pdfrwt>
<pdfrwt beam="2">  1       -1 0.56505067E-01 0.22823036E+04</pdfrwt>
<totfact> 0.24797159E+00</totfact>
</mgrwt>
</event>
<event>
12    7  0.1660832E-007  0.1736364E+04  0.7818608E-02  0.8740892E-01
          2   -1    0    0  501    0  0.00000000000E+00  0.00000000000E+00  0.23787939945E+04  0.23787939945E+04  0.00000000000E+00 0. -1.
         -1   -1    0    0    0  501 -0.00000000000E+00 -0.00000000000E+00 -0.31685807807E+03  0.31685807807E+03  0.00000000000E+00 0.  1.
         24    2    1    2    0    0 -0.28737429541E+03  0.18884174493E+03 -0.65004299692E+02  0.35975545474E+03  0.83386077667E+02 0.  0.
        254    2    1    2    0    0  0.28737429541E+03 -0.18884174493E+03  0.21269402161E+04  0.23358966178E+04  0.90238192355E+03 0.  0.
         23    2    4    4    0    0  0.41299364179E+03  0.37475527888E+02  0.38786129041E+03  0.57528402777E+03  0.92450898645E+02 0.  0.
         23    2    4    4    0    0 -0.12561934638E+03 -0.22631727281E+03  0.17390789257E+04  0.17606125900E+04  0.91440987942E+02 0.  0.
          4    1    3    3  502    0 -0.31560372781E+01  0.17686017862E+02 -0.16615158477E+02  0.24470784424E+02  0.00000000000E+00 0. -1.
         -3    1    3    3    0  502 -0.28421825813E+03  0.17115572706E+03 -0.48389141215E+02  0.33528467032E+03  0.00000000000E+00 0.  1.
         13    1    5    5    0    0  0.25146153769E+01 -0.50786289388E+01  0.25411317275E+02  0.26035568134E+02  0.00000000000E+00 0.  1.
        -13    1    5    5    0    0  0.41047902641E+03  0.42554156827E+02  0.36244997314E+03  0.54924845964E+03  0.00000000000E+00 0. -1.
          1    1    6    6  503    0 -0.14000715656E+03 -0.21295625845E+03  0.16209604371E+04  0.16408732768E+04  0.00000000000E+00 0. -1.
         -1    1    6    6    0  503  0.14387810184E+02 -0.13361014369E+02  0.11811848861E+03  0.11973931326E+03  0.00000000000E+00 0.  1.
<mgrwt>
<rscale>  0 0.17363641E+04</rscale>
<asrwt>0</asrwt>
<pdfrwt beam="1">  1        2 0.36596830E+00 0.17363641E+04</pdfrwt>
<pdfrwt beam="2">  1       -1 0.48747398E-01 0.17363641E+04</pdfrwt>
<totfact> 0.18624981E+01</totfact>
</mgrwt>
</event>
<event>
12    7  0.1660832E-007  0.1833074E+04  0.7818608E-02  0.8688906E-01
          2   -1    0    0  501    0  0.00000000000E+00  0.00000000000E+00  0.28538873317E+04  0.28538873317E+04  0.00000000000E+00 0. -1.
         -1   -1    0    0    0  501 -0.00000000000E+00 -0.00000000000E+00 -0.29434945058E+03  0.29434945058E+03  0.00000000000E+00 0.  1.
         24    2    1    2    0    0  0.45314478687E+03  0.48489511745E+03  0.13173258471E+04  0.14773042492E+04  0.81344848226E+02 0.  0.
        254    2    1    2    0    0 -0.45314478687E+03 -0.48489511745E+03  0.12422120340E+04  0.16709325331E+04  0.89914477140E+03 0.  0.
         23    2    4    4    0    0 -0.38623900980E+03  0.16551219026E+03  0.67659904829E+03  0.80160630101E+03  0.90617503083E+02 0.  0.
         23    2    4    4    0    0 -0.66905777064E+02 -0.65040730771E+03  0.56561298569E+03  0.86932623206E+03  0.91126281876E+02 0.  0.
          4    1    3    3  502    0  0.34458537336E+03  0.39630679654E+03  0.97561420194E+03  0.11079806982E+04  0.00000000000E+00 0. -1.
         -3    1    3    3    0  502  0.10855941351E+03  0.88588320909E+02  0.34171164516E+03  0.36932355097E+03  0.00000000000E+00 0.  1.
         13    1    5    5    0    0 -0.90490037288E+02  0.22010527989E+02  0.22077856260E+03  0.23961653510E+03  0.00000000000E+00 0. -1.
        -13    1    5    5    0    0 -0.29574897252E+03  0.14350166227E+03  0.45582048569E+03  0.56198976591E+03  0.00000000000E+00 0.  1.
          4    1    6    6  503    0 -0.48654027049E+02 -0.12072072527E+03  0.11073475358E+03  0.17088854119E+03  0.00000000000E+00 0. -1.
         -4    1    6    6    0  503 -0.18251750016E+02 -0.52968658243E+03  0.45487823210E+03  0.69843769087E+03  0.00000000000E+00 0.  1.
<mgrwt>
<rscale>  0 0.18330741E+04</rscale>
<asrwt>0</asrwt>
<pdfrwt beam="1">  1        2 0.43905957E+00 0.18330741E+04</pdfrwt>
<pdfrwt beam="2">  1       -1 0.45284533E-01 0.18330741E+04</pdfrwt>
<totfact> 0.11154918E+01</totfact>
</mgrwt>
</event>
<event>
12    7  0.1660832E-007  0.1991490E+04  0.7818608E-02  0.8610610E-01
          2   -1    0    0  501    0  0.00000000000E+00  0.00000000000E+00  0.12825627197E+04  0.12825627197E+04  0.00000000000E+00 0. -1.
         -1   -1    0    0    0  501 -0.00000000000E+00 -0.00000000000E+00 -0.77306817912E+03  0.77306817912E+03  0.00000000000E+00 0.  1.
         24    2    1    2    0    0  0.21108630300E+03  0.24440975619E+03 -0.56248541905E+03  0.65318796225E+03  0.77272965188E+02 0.  0.
        254    2    1    2    0    0 -0.21108630300E+03 -0.24440975619E+03  0.10719799596E+04  0.14024429366E+04  0.84463696357E+03 0.  0.
         23    2    4    4    0    0  0.27271949445E+03 -0.67623824405E+02  0.12571343958E+03  0.32104466709E+03  0.91197067344E+02 0.  0.
         23    2    4    4    0    0 -0.48380579745E+03 -0.17678593179E+03  0.94626652004E+03  0.10813982695E+04  0.93169603105E+02 0.  0.
          4    1    3    3  502    0  0.45400378779E+02  0.78727568109E+02 -0.22187308557E+03  0.23976423936E+03  0.00000000000E+00 0. -1.
         -3    1    3    3    0  502  0.16568592422E+03  0.16568218808E+03 -0.34061233348E+03  0.41342372289E+03  0.00000000000E+00 0.  1.
         13    1    5    5    0    0  0.54769975805E+02  0.29916128640E+01 -0.85252681236E+01  0.55510180992E+02  0.00000000000E+00 0.  1.
        -13    1    5    5    0    0  0.21794951865E+03 -0.70615437269E+02  0.13423870771E+03  0.26553448609E+03  0.00000000000E+00 0. -1.
          3    1    6    6  503    0 -0.44745928154E+03 -0.18808816164E+03  0.87617950279E+03  0.10016423944E+04  0.00000000000E+00 0. -1.
         -3    1    6    6    0  503 -0.36346515912E+02  0.11302229855E+02  0.70087017253E+02  0.79755875056E+02  0.00000000000E+00 0.  1.
<mgrwt>
<rscale>  0 0.19914903E+04</rscale>
<asrwt>0</asrwt>
<pdfrwt beam="1">  1        2 0.19731734E+00 0.19914903E+04</pdfrwt>
<pdfrwt beam="2">  1       -1 0.11893357E+00 0.19914903E+04</pdfrwt>
<totfact> 0.11350528E+01</totfact>
</mgrwt>
</event>
<event>
12    7  0.1660832E-007  0.2382207E+04  0.7818608E-02  0.8446195E-01
          2   -1    0    0  501    0  0.00000000000E+00  0.00000000000E+00  0.22048401253E+04  0.22048401253E+04  0.00000000000E+00 0. -1.
         -1   -1    0    0    0  501 -0.00000000000E+00 -0.00000000000E+00 -0.64346049515E+03  0.64346049515E+03  0.00000000000E+00 0.  1.
         24    2    1    2    0    0 -0.92191794189E+03 -0.15746249283E+02  0.16687778764E+03  0.94039058876E+03  0.79407981117E+02 0.  0.
        254    2    1    2    0    0  0.92191794189E+03  0.15746249283E+02  0.13945018425E+04  0.19079100317E+04  0.91940451616E+03 0.  0.
         23    2    4    4    0    0  0.50040823793E+02  0.18076936842E+03 -0.42372239204E+02  0.21663729839E+03  0.99773061461E+02 0.  0.
         23    2    4    4    0    0  0.87187711810E+03 -0.16502311913E+03  0.14368740817E+04  0.16912727333E+04  0.91618736239E+02 0.  0.
          2    1    3    3  502    0 -0.10107487622E+03  0.18505551688E+02  0.39336111773E+01  0.10283024528E+03  0.00000000000E+00 0. -1.
         -1    1    3    3    0  502 -0.82084306567E+03 -0.34251800971E+02  0.16294417646E+03  0.83756034348E+03  0.00000000000E+00 0.  1.
         13    1    5    5    0    0  0.14297235834E+02  0.80497319255E+02 -0.68913031020E+02  0.10692630735E+03  0.00000000000E+00 0.  1.
        -13    1    5    5    0    0  0.35743587959E+02  0.10027204916E+03  0.26540791816E+02  0.10971099103E+03  0.00000000000E+00 0. -1.
          1    1    6    6  503    0  0.87088497969E+03 -0.16909520344E+03  0.14240579339E+04  0.16777886740E+04  0.00000000000E+00 0. -1.
         -1    1    6    6    0  503  0.99213840507E+00  0.40720843085E+01  0.12816147824E+02  0.13484059265E+02  0.00000000000E+00 0.  1.
<mgrwt>
<rscale>  0 0.23822070E+04</rscale>
<asrwt>0</asrwt>
<pdfrwt beam="1">  1        2 0.33920617E+00 0.23822070E+04</pdfrwt>
<pdfrwt beam="2">  1       -1 0.98993923E-01 0.23822070E+04</pdfrwt>
<totfact> 0.51278591E+00</totfact>
</mgrwt>
</event>
<event>
12    7  0.1660832E-007  0.3397335E+04  0.7818608E-02  0.8138561E-01
          2   -1    0    0  501    0  0.00000000000E+00  0.00000000000E+00  0.16060565100E+04  0.16060565100E+04  0.00000000000E+00 0. -1.
         -1   -1    0    0    0  501 -0.00000000000E+00 -0.00000000000E+00 -0.17966187743E+04  0.17966187743E+04  0.00000000000E+00 0.  1.
         24    2    1    2    0    0  0.64038153147E+03  0.11674340105E+04  0.75855365277E+03  0.15344805600E+04  0.78970058074E+02 0.  0.
        254    2    1    2    0    0 -0.64038153147E+03 -0.11674340105E+04 -0.94911591710E+03  0.18681947243E+04  0.90351526230E+03 0.  0.
         23    2    4    4    0    0  0.20398873456E+02 -0.85048315788E+03 -0.38346484257E+03  0.93785761871E+03  0.93775858347E+02 0.  0.
         23    2    4    4    0    0 -0.66078040492E+03 -0.31695085261E+03 -0.56565107452E+03  0.93033710561E+03  0.92072826972E+02 0.  0.
          4    1    3    3  502    0  0.49483780104E+03  0.95898793265E+03  0.59696080431E+03  0.12332414630E+04  0.00000000000E+00 0. -1.
         -3    1    3    3    0  502  0.14554373043E+03  0.20844607785E+03  0.16159284846E+03  0.30123909691E+03  0.00000000000E+00 0.  1.
         13    1    5    5    0    0  0.52472779209E+01 -0.78989345186E+03 -0.37639206999E+03  0.87500296546E+03  0.00000000000E+00 0. -1.
        -13    1    5    5    0    0  0.15151595535E+02 -0.60589706028E+02 -0.70727725813E+01  0.62854653255E+02  0.00000000000E+00 0.  1.
          3    1    6    6  503    0 -0.49451286170E+03 -0.21127345104E+03 -0.37047306172E+03  0.65301587344E+03  0.00000000000E+00 0. -1.
         -3    1    6    6    0  503 -0.16626754322E+03 -0.10567740157E+03 -0.19517801280E+03  0.27732123217E+03  0.00000000000E+00 0.  1.
<mgrwt>
<rscale>  0 0.33973350E+04</rscale>
<asrwt>0</asrwt>
<pdfrwt beam="1">  1        2 0.24708562E+00 0.33973350E+04</pdfrwt>
<pdfrwt beam="2">  1       -1 0.27640289E+00 0.33973350E+04</pdfrwt>
<totfact> 0.49008519E-01</totfact>
</mgrwt>
</event>
<event>
12    7  0.1660832E-007  0.2050100E+04  0.7818608E-02  0.8583549E-01
         -1   -1    0    0    0  501 -0.00000000000E+00  0.00000000000E+00  0.10436902924E+04  0.10436902924E+04  0.00000000000E+00 0.  1.
          2   -1    0    0  501    0  0.00000000000E+00 -0.00000000000E+00 -0.10067424205E+04  0.10067424205E+04  0.00000000000E+00 0. -1.
         24    2    1    2    0    0 -0.21303268458E+03  0.17716057896E+03  0.79266561310E+03  0.84347893392E+03  0.79806906557E+02 0.  0.
        254    2    1    2    0    0  0.21303268458E+03 -0.17716057896E+03 -0.75571774122E+03  0.12069537790E+04  0.89936606824E+03 0.  0.
         23    2    4    4    0    0  0.28309319781E+03 -0.29462913167E+03 -0.89750068302E+03  0.99043541197E+03  0.92232019296E+02 0.  0.
         23    2    4    4    0    0 -0.70060513231E+02  0.11746855272E+03  0.14178294180E+03  0.21651836699E+03  0.89835762724E+02 0.  0.
          2    1    3    3  502    0 -0.16694252564E+03  0.97424321176E+02  0.47768626045E+03  0.51531104068E+03  0.00000000000E+00 0. -1.
         -1    1    3    3    0  502 -0.46090158942E+02  0.79736257780E+02  0.31497935265E+03  0.32816789324E+03  0.00000000000E+00 0.  1.
         13    1    5    5    0    0  0.13304246536E+03 -0.18570854924E+03 -0.57026590788E+03  0.61432171420E+03  0.00000000000E+00 0. -1.
        -13    1    5    5    0    0  0.15005073245E+03 -0.10892058244E+03 -0.32723477514E+03  0.37611369777E+03  0.00000000000E+00 0.  1.
          3    1    6    6  503    0 -0.11343591040E+02  0.82787509452E+02  0.11738902002E+03  0.14409243839E+03  0.00000000000E+00 0. -1.
         -3    1    6    6    0  503 -0.58716922191E+02  0.34681043264E+02  0.24393921784E+02  0.72425928599E+02  0.00000000000E+00 0.  1.
<mgrwt>
<rscale>  0 0.20500998E+04</rscale>
<asrwt>0</asrwt>
<pdfrwt beam="1">  1        2 0.15488345E+00 0.20500998E+04</pdfrwt>
<pdfrwt beam="2">  1       -1 0.16056774E+00 0.20500998E+04</pdfrwt>
<totfact> 0.76163605E+00</totfact>
</mgrwt>
</event>
<event>
12    7  0.1660832E-007  0.2481985E+04  0.7818608E-02  0.8409432E-01
         -1   -1    0    0    0  501 -0.00000000000E+00  0.00000000000E+00  0.90471467261E+03  0.90471467261E+03  0.00000000000E+00 0.  1.
          2   -1    0    0  501    0  0.00000000000E+00 -0.00000000000E+00 -0.17022628688E+04  0.17022628688E+04  0.00000000000E+00 0. -1.
         24    2    1    2    0    0 -0.29858250690E+03  0.39938647570E+03 -0.13353751480E+04  0.14275871938E+04  0.78213422971E+02 0.  0.
        254    2    1    2    0    0  0.29858250690E+03 -0.39938647570E+03  0.53782695179E+03  0.11793903477E+04  0.92360310290E+03 0.  0.
         23    2    4    4    0    0  0.19064772383E+03  0.63941991287E+02  0.64646212872E+03  0.68284644416E+03  0.89055317535E+02 0.  0.
         23    2    4    4    0    0  0.10793478306E+03 -0.46332846698E+03 -0.10863517693E+03  0.49654390350E+03  0.91820807677E+02 0.  0.
          4    1    3    3  502    0 -0.28037166460E+03  0.39498807820E+03 -0.13038368522E+04  0.13909041626E+04  0.00000000000E+00 0. -1.
         -1    1    3    3    0  502 -0.18210842303E+02  0.43983974988E+01 -0.31538295757E+02  0.36683031189E+02  0.00000000000E+00 0.  1.
         13    1    5    5    0    0  0.10253975776E+03  0.74269058271E+02  0.44620055246E+03  0.46381594189E+03  0.00000000000E+00 0.  1.
        -13    1    5    5    0    0  0.88107966070E+02 -0.10327066984E+02  0.20026157626E+03  0.21903050227E+03  0.00000000000E+00 0. -1.
          2    1    6    6  503    0  0.38941393289E+02 -0.32259303960E+03 -0.98245950881E+02  0.33946276405E+03  0.00000000000E+00 0. -1.
         -2    1    6    6    0  503  0.68993389776E+02 -0.14073542738E+03 -0.10389226049E+02  0.15708113945E+03  0.00000000000E+00 0.  1.
<mgrwt>
<rscale>  0 0.24819848E+04</rscale>
<asrwt>0</asrwt>
<pdfrwt beam="1">  1        2 0.26188660E+00 0.24819848E+04</pdfrwt>
<pdfrwt beam="2">  1       -1 0.13918687E+00 0.24819848E+04</pdfrwt>
<totfact> 0.42322358E+00</totfact>
</mgrwt>
</event>
<event>
12    7  0.1660832E-007  0.1086193E+04  0.7818608E-02  0.9218755E-01
         -1   -1    0    0    0  501 -0.00000000000E+00  0.00000000000E+00  0.14678265706E+03  0.14678265706E+03  0.00000000000E+00 0.  1.
          2   -1    0    0  501    0  0.00000000000E+00 -0.00000000000E+00 -0.20094585837E+04  0.20094585837E+04  0.00000000000E+00 0. -1.
         24    2    1    2    0    0  0.86579934167E+01  0.12047162750E+03 -0.11424701337E+03  0.18465186021E+03  0.80346471817E+02 0.  0.
        254    2    1    2    0    0 -0.86579934167E+01 -0.12047162750E+03 -0.17484289132E+04  0.19715893805E+04  0.90309060833E+03 0.  0.
         23    2    4    4    0    0  0.29340999863E+03  0.26298008597E+03 -0.64629259198E+03  0.76234729465E+03  0.90726679088E+02 0.  0.
         23    2    4    4    0    0 -0.30206799204E+03 -0.38345171347E+03 -0.11021363213E+04  0.12092420859E+04  0.96341388956E+02 0.  0.
          4    1    3    3  502    0  0.27363651399E+02  0.64449106223E+01 -0.33242570984E+02  0.43535902614E+02  0.00000000000E+00 0. -1.
         -3    1    3    3    0  502 -0.18705657982E+02  0.11402671688E+03 -0.81004442385E+02  0.14111595760E+03  0.00000000000E+00 0.  1.
         13    1    5    5    0    0  0.24336764857E+03  0.18985160850E+03 -0.55541628991E+03  0.63542009782E+03  0.00000000000E+00 0. -1.
        -13    1    5    5    0    0  0.50042350062E+02  0.73128477465E+02 -0.90876302071E+02  0.12692719683E+03  0.00000000000E+00 0.  1.
          1    1    6    6  503    0 -0.17296622802E+03 -0.25866825650E+03 -0.79116575545E+03  0.85015871198E+03  0.00000000000E+00 0. -1.
         -1    1    6    6    0  503 -0.12910176402E+03 -0.12478345698E+03 -0.31097056581E+03  0.35908337390E+03  0.00000000000E+00 0.  1.
<mgrwt>
<rscale>  0 0.10861927E+04</rscale>
<asrwt>0</asrwt>
<pdfrwt beam="1">  1        2 0.30914744E+00 0.10861927E+04</pdfrwt>
<pdfrwt beam="2">  1       -1 0.22581950E-01 0.10861927E+04</pdfrwt>
<totfact> 0.12482165E+02</totfact>
</mgrwt>
</event>
<event>
12    7  0.1660832E-007  0.2853589E+04  0.7818608E-02  0.8286821E-01
          2   -1    0    0  501    0  0.00000000000E+00  0.00000000000E+00  0.10622332424E+04  0.10622332424E+04  0.00000000000E+00 0. -1.
         -1   -1    0    0    0  501 -0.00000000000E+00 -0.00000000000E+00 -0.19164747407E+04  0.19164747407E+04  0.00000000000E+00 0.  1.
         24    2    1    2    0    0  0.11734907412E+04 -0.26200393520E+03  0.91292058578E+02  0.12085733792E+04  0.81171370175E+02 0.  0.
        254    2    1    2    0    0 -0.11734907412E+04  0.26200393520E+03 -0.94553355687E+03  0.17701346038E+04  0.89085140562E+03 0.  0.
         23    2    4    4    0    0 -0.65772431478E+03  0.52508286326E+03 -0.80358791258E+03  0.11671755012E+04  0.90729431934E+02 0.  0.
         23    2    4    4    0    0 -0.51576642640E+03 -0.26307892806E+03 -0.14194564429E+03  0.60295910265E+03  0.90474220350E+02 0.  0.
          2    1    3    3  502    0  0.90145289012E+03 -0.20109214295E+03  0.10439950429E+03  0.92949159198E+03  0.00000000000E+00 0. -1.
         -1    1    3    3    0  502  0.27203785106E+03 -0.60911792248E+02 -0.13107445711E+02  0.27908178725E+03  0.00000000000E+00 0.  1.
         13    1    5    5    0    0 -0.49816029611E+03  0.34556692621E+03 -0.57964885523E+03  0.83879257059E+03  0.00000000000E+00 0.  1.
        -13    1    5    5    0    0 -0.15956401867E+03  0.17951593705E+03 -0.22393905735E+03  0.32838293061E+03  0.00000000000E+00 0. -1.
          3    1    6    6  503    0 -0.38739630763E+03 -0.16286580888E+03 -0.12898964993E+03  0.43959015077E+03  0.00000000000E+00 0. -1.
         -3    1    6    6    0  503 -0.12837011877E+03 -0.10021311917E+03 -0.12955994362E+02  0.16336895188E+03  0.00000000000E+00 0.  1.
<mgrwt>
<rscale>  0 0.28535894E+04</rscale>
<asrwt>0</asrwt>
<pdfrwt beam="1">  1        2 0.16342050E+00 0.28535894E+04</pdfrwt>
<pdfrwt beam="2">  1       -1 0.29484227E+00 0.28535894E+04</pdfrwt>
<totfact> 0.80982562E-01</totfact>
</mgrwt>
</event>
<event>
12    7  0.1660832E-007  0.1184190E+04  0.7818608E-02  0.9126809E-01
         -1   -1    0    0    0  501 -0.00000000000E+00  0.00000000000E+00  0.12087076471E+03  0.12087076471E+03  0.00000000000E+00 0.  1.
          2   -1    0    0  501    0  0.00000000000E+00 -0.00000000000E+00 -0.29004218720E+04  0.29004218720E+04  0.00000000000E+00 0. -1.
         24    2    1    2    0    0 -0.53282596268E+02 -0.16171018588E+03 -0.13801417125E+03  0.23415809188E+03  0.82418937423E+02 0.  0.
        254    2    1    2    0    0  0.53282596268E+02  0.16171018588E+03 -0.26415369361E+04  0.27871345448E+04  0.87258946084E+03 0.  0.
         23    2    4    4    0    0 -0.28194990352E+03  0.37789924713E+03 -0.14762670414E+04  0.15521695633E+04  0.86961984348E+02 0.  0.
         23    2    4    4    0    0  0.33523249979E+03 -0.21618906126E+03 -0.11652698946E+04  0.12349649815E+04  0.90366138712E+02 0.  0.
          2    1    3    3  502    0 -0.37216300171E+02 -0.73861752559E+02 -0.11549823908E+03  0.14205792734E+03  0.00000000000E+00 0. -1.
         -1    1    3    3    0  502 -0.16066296097E+02 -0.87848433319E+02 -0.22515932166E+02  0.92100164539E+02  0.00000000000E+00 0.  1.
         13    1    5    5    0    0 -0.23515904198E+03  0.35828980052E+03 -0.13080919071E+04  0.13765085519E+04  0.00000000000E+00 0.  1.
        -13    1    5    5    0    0 -0.46790861541E+02  0.19609446609E+02 -0.16817513435E+03  0.17566101142E+03  0.00000000000E+00 0. -1.
          3    1    6    6  503    0  0.96699070408E+02 -0.99546714807E+02 -0.31543344612E+03  0.34461357718E+03  0.00000000000E+00 0. -1.
         -3    1    6    6    0  503  0.23853342938E+03 -0.11664234645E+03 -0.84983644852E+03  0.89035140431E+03  0.00000000000E+00 0.  1.
<mgrwt>
<rscale>  0 0.11841895E+04</rscale>
<asrwt>0</asrwt>
<pdfrwt beam="1">  1        2 0.44621875E+00 0.11841895E+04</pdfrwt>
<pdfrwt beam="2">  1       -1 0.18595502E-01 0.11841895E+04</pdfrwt>
<totfact> 0.52874724E+01</totfact>
</mgrwt>
</event>
<event>
12    7  0.1660832E-007  0.1176620E+04  0.7818608E-02  0.9133570E-01
         -1   -1    0    0    0  501 -0.00000000000E+00  0.00000000000E+00  0.20954493713E+03  0.20954493713E+03  0.00000000000E+00 0.  1.
          2   -1    0    0  501    0  0.00000000000E+00 -0.00000000000E+00 -0.16517170039E+04  0.16517170039E+04  0.00000000000E+00 0. -1.
         24    2    1    2    0    0 -0.32909290975E+02 -0.16048144559E+03 -0.94127079806E+02  0.20517473119E+03  0.79996545889E+02 0.  0.
        254    2    1    2    0    0  0.32909290975E+02  0.16048144559E+03 -0.13480449869E+04  0.16560872098E+04  0.94792523119E+03 0.  0.
         23    2    4    4    0    0 -0.26294933324E+03  0.38640452966E+03 -0.36224636843E+03  0.59847151432E+03  0.92167834022E+02 0.  0.
         23    2    4    4    0    0  0.29585862421E+03 -0.22592308407E+03 -0.98579861851E+03  0.10576156955E+04  0.90434936181E+02 0.  0.
          2    1    3    3  502    0  0.19460176099E+02 -0.81096592156E+01 -0.86838338229E+01  0.22800745520E+02  0.00000000000E+00 0. -1.
         -1    1    3    3    0  502 -0.52369467074E+02 -0.15237178637E+03 -0.85443245983E+02  0.18237398567E+03  0.00000000000E+00 0.  1.
         13    1    5    5    0    0 -0.16797801813E+02  0.86339049452E+02 -0.75592234098E+02  0.11597751274E+03  0.00000000000E+00 0.  1.
        -13    1    5    5    0    0 -0.24615153142E+03  0.30006548020E+03 -0.28665413433E+03  0.48249400158E+03  0.00000000000E+00 0. -1.
          4    1    6    6  503    0  0.19407235979E+03 -0.16758152070E+03 -0.55931118046E+03  0.61528582261E+03  0.00000000000E+00 0. -1.
         -4    1    6    6    0  503  0.10178626442E+03 -0.58341563369E+02 -0.42648743805E+03  0.44232987289E+03  0.00000000000E+00 0.  1.
<mgrwt>
<rscale>  0 0.11766205E+04</rscale>
<asrwt>0</asrwt>
<pdfrwt beam="1">  1        2 0.25411031E+00 0.11766205E+04</pdfrwt>
<pdfrwt beam="2">  1       -1 0.32237683E-01 0.11766205E+04</pdfrwt>
<totfact> 0.10553728E+02</totfact>
</mgrwt>
</event>
<event>
12    7  0.1660832E-007  0.1606476E+04  0.7818608E-02  0.8816579E-01
         -1   -1    0    0    0  501 -0.00000000000E+00  0.00000000000E+00  0.25836337373E+03  0.25836337373E+03  0.00000000000E+00 0.  1.
          2   -1    0    0  501    0  0.00000000000E+00 -0.00000000000E+00 -0.24972243673E+04  0.24972243673E+04  0.00000000000E+00 0. -1.
         24    2    1    2    0    0  0.10798412758E+03 -0.42224147126E+03 -0.19869730035E+03  0.48592527627E+03  0.81818855375E+02 0.  0.
        254    2    1    2    0    0 -0.10798412758E+03  0.42224147126E+03 -0.20401636933E+04  0.22696624648E+04  0.89395267042E+03 0.  0.
         23    2    4    4    0    0  0.23532643996E+03 -0.13606852676E+03 -0.33606265257E+03  0.44162765810E+03  0.90574304442E+02 0.  0.
         23    2    4    4    0    0 -0.34331056754E+03  0.55830999802E+03 -0.17041010407E+04  0.18280348067E+04  0.90436153921E+02 0.  0.
          4    1    3    3  502    0  0.34242900205E+02 -0.23087847463E+03 -0.14178966029E+03  0.27309660201E+03  0.00000000000E+00 0. -1.
         -3    1    3    3    0  502  0.73741227372E+02 -0.19136299662E+03 -0.56907640058E+02  0.21282867426E+03  0.00000000000E+00 0.  1.
         13    1    5    5    0    0  0.10314274986E+03 -0.63618482601E+02 -0.82358000981E+02  0.14652159739E+03  0.00000000000E+00 0. -1.
        -13    1    5    5    0    0  0.13218369011E+03 -0.72450044162E+02 -0.25370465159E+03  0.29510606071E+03  0.00000000000E+00 0.  1.
          2    1    6    6  503    0 -0.26730450210E+03  0.41364059359E+03 -0.13761574506E+04  0.14616290796E+04  0.00000000000E+00 0. -1.
         -2    1    6    6    0  503 -0.76006065443E+02  0.14466940443E+03 -0.32794359006E+03  0.36640572706E+03  0.00000000000E+00 0.  1.
<mgrwt>
<rscale>  0 0.16064760E+04</rscale>
<asrwt>0</asrwt>
<pdfrwt beam="1">  1        2 0.38418836E+00 0.16064760E+04</pdfrwt>
<pdfrwt beam="2">  1       -1 0.39748212E-01 0.16064760E+04</pdfrwt>
<totfact> 0.23548702E+01</totfact>
</mgrwt>
</event>
<event>
12    7  0.1660832E-007  0.1473460E+04  0.7818608E-02  0.8902296E-01
         -1   -1    0    0    0  501 -0.00000000000E+00  0.00000000000E+00  0.67340993608E+03  0.67340993608E+03  0.00000000000E+00 0.  1.
          2   -1    0    0  501    0  0.00000000000E+00 -0.00000000000E+00 -0.80600407742E+03  0.80600407742E+03  0.00000000000E+00 0. -1.
         24    2    1    2    0    0  0.85040308474E+02  0.35993669237E+03 -0.30509179597E+03  0.48608974070E+03  0.80099659550E+02 0.  0.
        254    2    1    2    0    0 -0.85040308474E+02 -0.35993669237E+03  0.17249765464E+03  0.99332427281E+03  0.90562210304E+03 0.  0.
         23    2    4    4    0    0  0.93405867321E+02 -0.60614155431E+03  0.24485973424E+03  0.66654212082E+03  0.90497897540E+02 0.  0.
         23    2    4    4    0    0 -0.17844617579E+03  0.24620486194E+03 -0.72362079602E+02  0.32678215199E+03  0.95343760125E+02 0.  0.
          2    1    3    3  502    0  0.69822547481E+02  0.29457177739E+03 -0.28563035717E+03  0.41621199058E+03  0.00000000000E+00 0. -1.
         -1    1    3    3    0  502  0.15217760993E+02  0.65364914985E+02 -0.19461438806E+02  0.69877750114E+02  0.00000000000E+00 0.  1.
         13    1    5    5    0    0 -0.14776819423E+02 -0.14354275766E+03  0.69095540511E+02  0.15999084783E+03  0.00000000000E+00 0. -1.
        -13    1    5    5    0    0  0.10818268674E+03 -0.46259879665E+03  0.17576419373E+03  0.50655127299E+03  0.00000000000E+00 0.  1.
          1    1    6    6  503    0 -0.63275414129E+02  0.34355000275E+02  0.83909466994E+01  0.72487599378E+02  0.00000000000E+00 0. -1.
         -1    1    6    6    0  503 -0.11517076167E+03  0.21184986166E+03 -0.80753026302E+02  0.25429455261E+03  0.00000000000E+00 0.  1.
<mgrwt>
<rscale>  0 0.14734601E+04</rscale>
<asrwt>0</asrwt>
<pdfrwt beam="1">  1        2 0.12400063E+00 0.14734601E+04</pdfrwt>
<pdfrwt beam="2">  1       -1 0.10360153E+00 0.14734601E+04</pdfrwt>
<totfact> 0.33120859E+01</totfact>
</mgrwt>
</event>
<event>
12    7  0.1660832E-007  0.1669104E+04  0.7818608E-02  0.8779185E-01
         -1   -1    0    0    0  501 -0.00000000000E+00  0.00000000000E+00  0.25366750846E+03  0.25366750846E+03  0.00000000000E+00 0.  1.
          2   -1    0    0  501    0  0.00000000000E+00 -0.00000000000E+00 -0.27456281142E+04  0.27456281142E+04  0.00000000000E+00 0. -1.
         24    2    1    2    0    0 -0.37432542468E+03  0.27312875018E+03 -0.23541217777E+03  0.52599127683E+03  0.80802797739E+02 0.  0.
        254    2    1    2    0    0  0.37432542468E+03 -0.27312875018E+03 -0.22565484280E+04  0.24733043458E+04  0.90028036833E+03 0.  0.
         23    2    4    4    0    0  0.50047587249E+02  0.30808644971E+03 -0.95331654751E+03  0.10071537491E+04  0.90134416653E+02 0.  0.
         23    2    4    4    0    0  0.32427783743E+03 -0.58121519990E+03 -0.13032318804E+04  0.14661505967E+04  0.90647744793E+02 0.  0.
          4    1    3    3  502    0 -0.67734452774E+02  0.46544990902E+02 -0.92046239066E+01  0.82698956292E+02  0.00000000000E+00 0. -1.
         -3    1    3    3    0  502 -0.30659097191E+03  0.22658375928E+03 -0.22620755386E+03  0.44329232054E+03  0.00000000000E+00 0.  1.
         13    1    5    5    0    0 -0.23849194193E+02  0.52028217762E+02 -0.20288295665E+03  0.21080136054E+03  0.00000000000E+00 0.  1.
        -13    1    5    5    0    0  0.73896781441E+02  0.25605823195E+03 -0.75043359086E+03  0.79635238855E+03  0.00000000000E+00 0. -1.
          3    1    6    6  503    0  0.22722191192E+03 -0.31629792379E+03 -0.74247512892E+03  0.83841725347E+03  0.00000000000E+00 0. -1.
         -3    1    6    6    0  503  0.97055925507E+02 -0.26491727610E+03 -0.56075675153E+03  0.62773334326E+03  0.00000000000E+00 0.  1.
<mgrwt>
<rscale>  0 0.16691035E+04</rscale>
<asrwt>0</asrwt>
<pdfrwt beam="1">  1        2 0.42240433E+00 0.16691035E+04</pdfrwt>
<pdfrwt beam="2">  1       -1 0.39025770E-01 0.16691035E+04</pdfrwt>
<totfact> 0.17314085E+01</totfact>
</mgrwt>
</event>
<event>
12    7  0.1660832E-007  0.3406417E+04  0.7818608E-02  0.8136333E-01
          2   -1    0    0  501    0  0.00000000000E+00  0.00000000000E+00  0.27065322534E+04  0.27065322534E+04  0.00000000000E+00 0. -1.
         -1   -1    0    0    0  501 -0.00000000000E+00 -0.00000000000E+00 -0.10718216744E+04  0.10718216744E+04  0.00000000000E+00 0.  1.
         24    2    1    2    0    0 -0.30854666450E+03  0.57789257718E+03 -0.82482685543E+03  0.10563305245E+04  0.79586183581E+02 0.  0.
        254    2    1    2    0    0  0.30854666450E+03 -0.57789257718E+03  0.24595374345E+04  0.27220234033E+04  0.96484513862E+03 0.  0.
         23    2    4    4    0    0  0.58914480847E+03 -0.24546443902E+03  0.94296431949E+03  0.11416779986E+04  0.83081577586E+02 0.  0.
         23    2    4    4    0    0 -0.28059814397E+03 -0.33242813815E+03  0.15165731150E+04  0.15803454047E+04  0.90850423852E+02 0.  0.
          4    1    3    3  502    0 -0.14861972397E+03  0.36077347588E+03 -0.49542603404E+03  0.63062847895E+03  0.00000000000E+00 0. -1.
         -3    1    3    3    0  502 -0.15992694053E+03  0.21711910129E+03 -0.32940082139E+03  0.42570204555E+03  0.00000000000E+00 0.  1.
         13    1    5    5    0    0  0.44657420272E+03 -0.19010521833E+03  0.65022771347E+03  0.81139669209E+03  0.00000000000E+00 0. -1.
        -13    1    5    5    0    0  0.14257060575E+03 -0.55359220691E+02  0.29273660602E+03  0.33028130652E+03  0.00000000000E+00 0.  1.
          1    1    6    6  503    0 -0.28620903941E+03 -0.31726685599E+03  0.14779218005E+04  0.15384494533E+04  0.00000000000E+00 0. -1.
         -1    1    6    6    0  503  0.56108954427E+01 -0.15161282159E+02  0.38651314539E+02  0.41895951355E+02  0.00000000000E+00 0.  1.
<mgrwt>
<rscale>  0 0.34064174E+04</rscale>
<asrwt>0</asrwt>
<pdfrwt beam="1">  1        2 0.41638957E+00 0.34064174E+04</pdfrwt>
<pdfrwt beam="2">  1       -1 0.16489564E+00 0.34064174E+04</pdfrwt>
<totfact> 0.66440052E-01</totfact>
</mgrwt>
</event>
<event>
12    7  0.1660832E-007  0.1336146E+04  0.7818608E-02  0.9001382E-01
          2   -1    0    0  501    0  0.00000000000E+00  0.00000000000E+00  0.12492669974E+04  0.12492669974E+04  0.00000000000E+00 0. -1.
         -1   -1    0    0    0  501 -0.00000000000E+00 -0.00000000000E+00 -0.35726691500E+03  0.35726691500E+03  0.00000000000E+00 0.  1.
         24    2    1    2    0    0 -0.25025334705E+03  0.17633152590E+03  0.46595618256E+03  0.56364102231E+03  0.82803944504E+02 0.  0.
        254    2    1    2    0    0  0.25025334705E+03 -0.17633152590E+03  0.42604389986E+03  0.10428928901E+04  0.90132825925E+03 0.  0.
         23    2    4    4    0    0 -0.17578971236E+03 -0.64446165725E+02  0.53987023607E+03  0.57870551156E+03  0.91568914326E+02 0.  0.
         23    2    4    4    0    0  0.42604305941E+03 -0.11188536017E+03 -0.11382633621E+03  0.46418737855E+03  0.92100300236E+02 0.  0.
          2    1    3    3  502    0 -0.23681045826E+03  0.13293766834E+03  0.40483236179E+03  0.48748421303E+03  0.00000000000E+00 0. -1.
         -1    1    3    3    0  502 -0.13442888789E+02  0.43393857563E+02  0.61123820776E+02  0.76156809278E+02  0.00000000000E+00 0.  1.
         13    1    5    5    0    0  0.43152549644E+00 -0.12178516304E+02  0.11676021106E+03  0.11739441793E+03  0.00000000000E+00 0. -1.
        -13    1    5    5    0    0 -0.17622123786E+03 -0.52267649421E+02  0.42311002501E+03  0.46131109363E+03  0.00000000000E+00 0.  1.
          2    1    6    6  503    0  0.28331825087E+03 -0.11753848535E+03 -0.87244187839E+02  0.31889822063E+03  0.00000000000E+00 0.  1.
         -2    1    6    6    0  503  0.14272480854E+03  0.56531251724E+01 -0.26582148373E+02  0.14528915792E+03  0.00000000000E+00 0. -1.
<mgrwt>
<rscale>  0 0.13361463E+04</rscale>
<asrwt>0</asrwt>
<pdfrwt beam="1">  1        2 0.19219492E+00 0.13361463E+04</pdfrwt>
<pdfrwt beam="2">  1       -1 0.54964141E-01 0.13361463E+04</pdfrwt>
<totfact> 0.66010672E+01</totfact>
</mgrwt>
</event>
<event>
12    7  0.1660832E-007  0.1610306E+04  0.7818608E-02  0.8814241E-01
         -1   -1    0    0    0  501 -0.00000000000E+00  0.00000000000E+00  0.46893706733E+03  0.46893706733E+03  0.00000000000E+00 0.  1.
          2   -1    0    0  501    0  0.00000000000E+00 -0.00000000000E+00 -0.13824273579E+04  0.13824273579E+04  0.00000000000E+00 0. -1.
         24    2    1    2    0    0  0.95815395538E+02 -0.32213883822E+03  0.18681708590E+03  0.39264662574E+03  0.79477846013E+02 0.  0.
        254    2    1    2    0    0 -0.95815395538E+02  0.32213883822E+03 -0.11003073765E+04  0.14587177995E+04  0.89678719591E+03 0.  0.
         23    2    4    4    0    0 -0.17235107977E+02 -0.18060713774E+03  0.39699008932E+02  0.20697440476E+03  0.91358665510E+02 0.  0.
         23    2    4    4    0    0 -0.78580287561E+02  0.50274597596E+03 -0.11400063855E+04  0.12517433948E+04  0.91206302188E+02 0.  0.
          4    1    3    3  502    0  0.47877867333E+02 -0.14206951307E+03  0.39308490135E+02  0.15498772248E+03  0.00000000000E+00 0. -1.
         -3    1    3    3    0  502  0.47937528205E+02 -0.18006932515E+03  0.14750859577E+03  0.23765890326E+03  0.00000000000E+00 0.  1.
         13    1    5    5    0    0  0.20119260796E+02 -0.66787971870E+01 -0.82237927396E+01  0.22738112363E+02  0.00000000000E+00 0.  1.
        -13    1    5    5    0    0 -0.37354368773E+02 -0.17392834055E+03  0.47922801672E+02  0.18423629239E+03  0.00000000000E+00 0. -1.
          1    1    6    6  503    0  0.17425134639E+02  0.16175095586E+03 -0.35364133792E+03  0.38926752103E+03  0.00000000000E+00 0. -1.
         -1    1    6    6    0  503 -0.96005422199E+02  0.34099502010E+03 -0.78636504753E+03  0.86247587375E+03  0.00000000000E+00 0.  1.
<mgrwt>
<rscale>  0 0.16103061E+04</rscale>
<asrwt>0</asrwt>
<pdfrwt beam="1">  1        2 0.21268113E+00 0.16103061E+04</pdfrwt>
<pdfrwt beam="2">  1       -1 0.72144165E-01 0.16103061E+04</pdfrwt>
<totfact> 0.31356583E+01</totfact>
</mgrwt>
</event>
<event>
12    7  0.1660832E-007  0.1116942E+04  0.7818608E-02  0.9188835E-01
          2   -1    0    0  501    0  0.00000000000E+00  0.00000000000E+00  0.83211376809E+03  0.83211376809E+03  0.00000000000E+00 0. -1.
         -1   -1    0    0    0  501 -0.00000000000E+00 -0.00000000000E+00 -0.37481611494E+03  0.37481611494E+03  0.00000000000E+00 0.  1.
         24    2    1    2    0    0  0.96342171550E+02  0.91156554062E+02  0.21279786285E+03  0.26315736714E+03  0.79859489606E+02 0.  0.
        254    2    1    2    0    0 -0.96342171550E+02 -0.91156554062E+02  0.24449979029E+03  0.94377251589E+03  0.90185092057E+03 0.  0.
         23    2    4    4    0    0 -0.46911969110E+03 -0.18951867826E+03  0.11643219462E+03  0.52699641819E+03  0.90433151311E+02 0.  0.
         23    2    4    4    0    0  0.37277751955E+03  0.98362124200E+02  0.12806759567E+03  0.41677609770E+03  0.93074271403E+02 0.  0.
          4    1    3    3  502    0  0.11008463803E+03  0.78129108777E+02  0.19502927405E+03  0.23719022515E+03  0.00000000000E+00 0. -1.
         -3    1    3    3    0  502 -0.13742466477E+02  0.13027445285E+02  0.17768588798E+02  0.25967141996E+02  0.00000000000E+00 0.  1.
         13    1    5    5    0    0 -0.36954450680E+03 -0.18731872648E+03  0.97186687944E+02  0.42555457948E+03  0.00000000000E+00 0.  1.
        -13    1    5    5    0    0 -0.99575184291E+02 -0.21999517844E+01  0.19245506679E+02  0.10144183871E+03  0.00000000000E+00 0. -1.
          2    1    6    6  503    0  0.30816036518E+01  0.13635850716E+02  0.16082071364E+02  0.21308818015E+02  0.00000000000E+00 0. -1.
         -2    1    6    6    0  503  0.36969591589E+03  0.84726273484E+02  0.11198552430E+03  0.39546727968E+03  0.00000000000E+00 0.  1.
<mgrwt>
<rscale>  0 0.11169416E+04</rscale>
<asrwt>0</asrwt>
<pdfrwt beam="1">  1        2 0.12801750E+00 0.11169416E+04</pdfrwt>
<pdfrwt beam="2">  1       -1 0.57664018E-01 0.11169416E+04</pdfrwt>
<totfact> 0.11266406E+02</totfact>
</mgrwt>
</event>
<event>
12    7  0.1660832E-007  0.2776330E+04  0.7818608E-02  0.8310655E-01
         -1   -1    0    0    0  501 -0.00000000000E+00  0.00000000000E+00  0.13119457989E+04  0.13119457989E+04  0.00000000000E+00 0.  1.
          2   -1    0    0  501    0  0.00000000000E+00 -0.00000000000E+00 -0.14688120422E+04  0.14688120422E+04  0.00000000000E+00 0. -1.
         24    2    1    2    0    0 -0.59227857623E+03 -0.35968164543E+03  0.96349070844E+03  0.11889322303E+04  0.71279065561E+02 0.  0.
        254    2    1    2    0    0  0.59227857623E+03  0.35968164543E+03 -0.11203569518E+04  0.15918256108E+04  0.89361304714E+03 0.  0.
         23    2    4    4    0    0  0.66354596010E+03 -0.81730532016E+02 -0.66766753997E+03  0.94904087162E+03  0.89025339397E+02 0.  0.
         23    2    4    4    0    0 -0.71267383871E+02  0.44141217745E+03 -0.45268941179E+03  0.64278473921E+03  0.91218238343E+02 0.  0.
          2    1    3    3  502    0 -0.23080058766E+03 -0.15620495346E+03  0.33315500665E+03  0.43435142133E+03  0.00000000000E+00 0. -1.
         -1    1    3    3    0  502 -0.36147798856E+03 -0.20347669197E+03  0.63033570179E+03  0.75458080902E+03  0.00000000000E+00 0.  1.
         13    1    5    5    0    0  0.18385137205E+03  0.27904532721E+01 -0.14137712832E+03  0.23194095380E+03  0.00000000000E+00 0. -1.
        -13    1    5    5    0    0  0.47969458804E+03 -0.84520985288E+02 -0.52629041165E+03  0.71709991783E+03  0.00000000000E+00 0.  1.
          1    1    6    6  503    0 -0.44350508874E+02  0.68556785604E+02 -0.66542848495E+02  0.10533257414E+03  0.00000000000E+00 0. -1.
         -1    1    6    6    0  503 -0.26916874997E+02  0.37285539184E+03 -0.38614656330E+03  0.53745216507E+03  0.00000000000E+00 0.  1.
<mgrwt>
<rscale>  0 0.27763298E+04</rscale>
<asrwt>0</asrwt>
<pdfrwt beam="1">  1        2 0.22597108E+00 0.27763298E+04</pdfrwt>
<pdfrwt beam="2">  1       -1 0.20183782E+00 0.27763298E+04</pdfrwt>
<totfact> 0.19189150E+00</totfact>
</mgrwt>
</event>
<event>
12    7  0.1660832E-007  0.1563394E+04  0.7818608E-02  0.8843358E-01
          2   -1    0    0  501    0  0.00000000000E+00  0.00000000000E+00  0.20383175390E+04  0.20383175390E+04  0.00000000000E+00 0. -1.
         -1   -1    0    0    0  501 -0.00000000000E+00 -0.00000000000E+00 -0.29978158990E+03  0.29978158990E+03  0.00000000000E+00 0.  1.
         24    2    1    2    0    0  0.15249060875E+03 -0.36950899624E+03  0.97647561901E+02  0.41920537520E+03  0.80048836293E+02 0.  0.
        254    2    1    2    0    0 -0.15249060875E+03  0.36950899624E+03  0.16408883872E+04  0.19188937537E+04  0.91096007306E+03 0.  0.
         23    2    4    4    0    0  0.15360904213E+03  0.49562069439E+03  0.14097199131E+04  0.15048647142E+04  0.89844109364E+02 0.  0.
         23    2    4    4    0    0 -0.30609965088E+03 -0.12611169815E+03  0.23116847410E+03  0.41402903954E+03  0.91542479162E+02 0.  0.
          2    1    3    3  502    0  0.15245498138E+02 -0.85692801749E+02 -0.62637664131E+01  0.87263487523E+02  0.00000000000E+00 0. -1.
         -1    1    3    3    0  502  0.13724511061E+03 -0.28381619449E+03  0.10391132831E+03  0.33194188767E+03  0.00000000000E+00 0.  1.
         13    1    5    5    0    0  0.10502083187E+03  0.40485842831E+03  0.12086053334E+04  0.12789318097E+04  0.00000000000E+00 0. -1.
        -13    1    5    5    0    0  0.48588210263E+02  0.90762266087E+02  0.20111457976E+03  0.22593290445E+03  0.00000000000E+00 0.  1.
          1    1    6    6  503    0 -0.25772629159E+03 -0.65634055874E+02  0.17508964317E+03  0.31841333800E+03  0.00000000000E+00 0. -1.
         -1    1    6    6    0  503 -0.48373359282E+02 -0.60477642281E+02  0.56078830924E+02  0.95615701545E+02  0.00000000000E+00 0.  1.
<mgrwt>
<rscale>  0 0.15633938E+04</rscale>
<asrwt>0</asrwt>
<pdfrwt beam="1">  1        2 0.31358730E+00 0.15633938E+04</pdfrwt>
<pdfrwt beam="2">  1       -1 0.46120246E-01 0.15633938E+04</pdfrwt>
<totfact> 0.32595060E+01</totfact>
</mgrwt>
</event>
<event>
12    7  0.1660832E-007  0.1805866E+04  0.7818608E-02  0.8703186E-01
         -1   -1    0    0    0  501 -0.00000000000E+00  0.00000000000E+00  0.11266260975E+04  0.11266260975E+04  0.00000000000E+00 0.  1.
          2   -1    0    0  501    0  0.00000000000E+00 -0.00000000000E+00 -0.72365406642E+03  0.72365406642E+03  0.00000000000E+00 0. -1.
         24    2    1    2    0    0  0.21526089283E+03  0.58792504899E+03  0.41007743406E+03  0.75272656408E+03  0.80253742185E+02 0.  0.
        254    2    1    2    0    0 -0.21526089283E+03 -0.58792504899E+03 -0.71054030120E+01  0.10975535998E+04  0.90143236158E+03 0.  0.
         23    2    4    4    0    0 -0.13725088730E+03 -0.56459127270E+03 -0.38316917461E+03  0.70221386973E+03  0.93191154093E+02 0.  0.
         23    2    4    4    0    0 -0.78010005529E+02 -0.23333776294E+02  0.37606377160E+03  0.39533973009E+03  0.90771778646E+02 0.  0.
          4    1    3    3  502    0  0.25005455741E+02  0.12193818517E+03  0.11389165884E+03  0.16871723022E+03  0.00000000000E+00 0. -1.
         -3    1    3    3    0  502  0.19025543709E+03  0.46598686382E+03  0.29618577522E+03  0.58400933387E+03  0.00000000000E+00 0.  1.
         13    1    5    5    0    0 -0.74280027762E+02 -0.21953462164E+03 -0.10448394413E+03  0.25422404923E+03  0.00000000000E+00 0. -1.
        -13    1    5    5    0    0 -0.62970859542E+02 -0.34505665105E+03 -0.27868523048E+03  0.44798982051E+03  0.00000000000E+00 0.  1.
          1    1    6    6  503    0 -0.52542781725E+02  0.31033718806E+02  0.21325702229E+03  0.22181612468E+03  0.00000000000E+00 0. -1.
         -1    1    6    6    0  503 -0.25467223804E+02 -0.54367495100E+02  0.16280674931E+03  0.17352360540E+03  0.00000000000E+00 0.  1.
<mgrwt>
<rscale>  0 0.18058655E+04</rscale>
<asrwt>0</asrwt>
<pdfrwt beam="1">  1        2 0.11133139E+00 0.18058655E+04</pdfrwt>
<pdfrwt beam="2">  1       -1 0.17332709E+00 0.18058655E+04</pdfrwt>
<totfact> 0.98424552E+00</totfact>
</mgrwt>
</event>
<event>
12    7  0.1660832E-007  0.1379463E+04  0.7818608E-02  0.8968820E-01
         -1   -1    0    0    0  501 -0.00000000000E+00  0.00000000000E+00  0.69267578665E+03  0.69267578665E+03  0.00000000000E+00 0.  1.
          2   -1    0    0  501    0  0.00000000000E+00 -0.00000000000E+00 -0.68679924394E+03  0.68679924394E+03  0.00000000000E+00 0. -1.
         24    2    1    2    0    0  0.25055475783E+03 -0.53075920739E+02 -0.33190951407E+03  0.42675954035E+03  0.79781199025E+02 0.  0.
        254    2    1    2    0    0 -0.25055475783E+03  0.53075920739E+02  0.33778605678E+03  0.95271549024E+03  0.85321312997E+03 0.  0.
         23    2    4    4    0    0 -0.17605424187E+03  0.41731225582E+03  0.33542841201E+03  0.56969909267E+03  0.83067572890E+02 0.  0.
         23    2    4    4    0    0 -0.74500515960E+02 -0.36423633509E+03  0.23576447653E+01  0.38301639756E+03  0.92073707643E+02 0.  0.
          4    1    3    3  502    0  0.24536909670E+03 -0.33103646540E+02 -0.30794998380E+03  0.39513926349E+03  0.00000000000E+00 0. -1.
         -3    1    3    3    0  502  0.51856611310E+01 -0.19972274199E+02 -0.23959530268E+02  0.31620276861E+02  0.00000000000E+00 0.  1.
         13    1    5    5    0    0 -0.14951833350E+02  0.55252971433E+01  0.23608336345E+01  0.16113961788E+02  0.00000000000E+00 0. -1.
        -13    1    5    5    0    0 -0.16110240852E+03  0.41178695868E+03  0.33306757838E+03  0.55358513089E+03  0.00000000000E+00 0.  1.
          4    1    6    6  503    0  0.74886054028E+01 -0.42756553668E+02  0.25667413497E+02  0.50428347267E+02  0.00000000000E+00 0. -1.
         -4    1    6    6    0  503 -0.81989121363E+02 -0.32147978142E+03 -0.23309768732E+02  0.33258805030E+03  0.00000000000E+00 0.  1.
<mgrwt>
<rscale>  0 0.13794625E+04</rscale>
<asrwt>0</asrwt>
<pdfrwt beam="1">  1        2 0.10566142E+00 0.13794625E+04</pdfrwt>
<pdfrwt beam="2">  1       -1 0.10656551E+00 0.13794625E+04</pdfrwt>
<totfact> 0.38450012E+01</totfact>
</mgrwt>
</event>
<event>
12    7  0.1660832E-007  0.1633721E+04  0.7818608E-02  0.8800096E-01
         -1   -1    0    0    0  501 -0.00000000000E+00  0.00000000000E+00  0.15993242868E+04  0.15993242868E+04  0.00000000000E+00 0.  1.
          2   -1    0    0  501    0  0.00000000000E+00 -0.00000000000E+00 -0.41721425195E+03  0.41721425195E+03  0.00000000000E+00 0. -1.
         24    2    1    2    0    0 -0.31563495090E+03 -0.41847752827E+03  0.44044324077E+03  0.68937972324E+03  0.80655381609E+02 0.  0.
        254    2    1    2    0    0  0.31563495090E+03  0.41847752827E+03  0.74166679409E+03  0.13271588155E+04  0.96774584694E+03 0.  0.
         23    2    4    4    0    0 -0.28422542253E+03 -0.72818125547E+02  0.12269556547E+03  0.33085066407E+03  0.91221652616E+02 0.  0.
         23    2    4    4    0    0  0.59986037343E+03  0.49129565382E+03  0.61897122862E+03  0.99630815146E+03  0.91107978422E+02 0.  0.
          2    1    3    3  502    0 -0.10290897573E+03 -0.15856651083E+03  0.20716903146E+03  0.28045071445E+03  0.00000000000E+00 0. -1.
         -1    1    3    3    0  502 -0.21272597517E+03 -0.25991101744E+03  0.23327420931E+03  0.40892900879E+03  0.00000000000E+00 0.  1.
         13    1    5    5    0    0 -0.18597147531E+01 -0.18975151012E+02  0.23065700474E+01  0.19205081626E+02  0.00000000000E+00 0. -1.
        -13    1    5    5    0    0 -0.28236570778E+03 -0.53842974536E+02  0.12038899542E+03  0.31164558244E+03  0.00000000000E+00 0.  1.
          2    1    6    6  503    0  0.26982270593E+03  0.19557854982E+03  0.31796213829E+03  0.46060306466E+03  0.00000000000E+00 0.  1.
         -2    1    6    6    0  503  0.33003766750E+03  0.29571710399E+03  0.30100909034E+03  0.53570508680E+03  0.00000000000E+00 0. -1.
<mgrwt>
<rscale>  0 0.16337208E+04</rscale>
<asrwt>0</asrwt>
<pdfrwt beam="1">  1        2 0.64186809E-01 0.16337208E+04</pdfrwt>
<pdfrwt beam="2">  1       -1 0.24604989E+00 0.16337208E+04</pdfrwt>
<totfact> 0.61377242E+00</totfact>
</mgrwt>
</event>
<event>
12    7  0.1660832E-007  0.1828069E+04  0.7818608E-02  0.8691514E-01
         -1   -1    0    0    0  501 -0.00000000000E+00  0.00000000000E+00  0.50708968316E+03  0.50708968316E+03  0.00000000000E+00 0.  1.
          2   -1    0    0  501    0  0.00000000000E+00 -0.00000000000E+00 -0.16475566144E+04  0.16475566144E+04  0.00000000000E+00 0. -1.
         24    2    1    2    0    0 -0.22759981389E+03 -0.55369270680E+02 -0.11983781897E+04  0.12237389673E+04  0.80989771105E+02 0.  0.
        254    2    1    2    0    0  0.22759981389E+03  0.55369270680E+02  0.57911258470E+02  0.93090733028E+03  0.89909249374E+03 0.  0.
         23    2    4    4    0    0  0.46357440242E+03 -0.23936194494E+03  0.10470896063E+03  0.54001653248E+03  0.91970221606E+02 0.  0.
         23    2    4    4    0    0 -0.23597458852E+03  0.29473121562E+03 -0.46797702162E+02  0.39089079780E+03  0.89750180996E+02 0.  0.
          2    1    3    3  502    0 -0.22541789097E+03 -0.37484414120E+02 -0.11385983031E+04  0.11613028902E+04  0.00000000000E+00 0. -1.
         -1    1    3    3    0  502 -0.21819229217E+01 -0.17884856560E+02 -0.59779886601E+02  0.62436077101E+02  0.00000000000E+00 0.  1.
         13    1    5    5    0    0  0.26589233840E+03 -0.14214974612E+03  0.14148699573E+02  0.30183682950E+03  0.00000000000E+00 0.  1.
        -13    1    5    5    0    0  0.19768206401E+03 -0.97212198815E+02  0.90560261058E+02  0.23817970298E+03  0.00000000000E+00 0. -1.
          2    1    6    6  503    0 -0.23930872561E+03  0.27147535852E+03 -0.32412585275E+02  0.36334296763E+03  0.00000000000E+00 0.  1.
         -2    1    6    6    0  503  0.33341370913E+01  0.23255857092E+02 -0.14385116887E+02  0.27547830170E+02  0.00000000000E+00 0. -1.
<mgrwt>
<rscale>  0 0.18280689E+04</rscale>
<asrwt>0</asrwt>
<pdfrwt beam="1">  1        2 0.25347025E+00 0.18280689E+04</pdfrwt>
<pdfrwt beam="2">  1       -1 0.78013798E-01 0.18280689E+04</pdfrwt>
<totfact> 0.18521076E+01</totfact>
</mgrwt>
</event>
<event>
12    7  0.1660832E-007  0.1444861E+04  0.7818608E-02  0.8921971E-01
         -1   -1    0    0    0  501 -0.00000000000E+00  0.00000000000E+00  0.36425453950E+03  0.36425453950E+03  0.00000000000E+00 0.  1.
          2   -1    0    0  501    0  0.00000000000E+00 -0.00000000000E+00 -0.14328048792E+04  0.14328048792E+04  0.00000000000E+00 0. -1.
         24    2    1    2    0    0 -0.28257990463E+03 -0.22325809679E+03 -0.61129270736E+02  0.37356349359E+03  0.78213270738E+02 0.  0.
        254    2    1    2    0    0  0.28257990463E+03  0.22325809679E+03 -0.10074210690E+04  0.14234959251E+04  0.93901430147E+03 0.  0.
         23    2    4    4    0    0 -0.69823306722E+02 -0.16418387425E+03  0.78495900960E+02  0.21489234060E+03  0.90473603092E+02 0.  0.
         23    2    4    4    0    0  0.35240321135E+03  0.38744197103E+03 -0.10859169699E+04  0.12086035845E+04  0.84897907185E+02 0.  0.
          2    1    3    3  502    0 -0.25766375920E+02 -0.13136812503E+02 -0.27729167942E+02  0.40067302450E+02  0.00000000000E+00 0. -1.
         -1    1    3    3    0  502 -0.25681352871E+03 -0.21012128428E+03 -0.33400102794E+02  0.33349619114E+03  0.00000000000E+00 0.  1.
         13    1    5    5    0    0 -0.50289199107E+02 -0.17133363756E+03  0.75536765762E+02  0.19388146349E+03  0.00000000000E+00 0.  1.
        -13    1    5    5    0    0 -0.19534107615E+02  0.71497633073E+01  0.29591351984E+01  0.21010877106E+02  0.00000000000E+00 0. -1.
          4    1    6    6  503    0  0.11850936133E+02  0.48954731251E+02 -0.10793837428E+03  0.11911214481E+03  0.00000000000E+00 0. -1.
         -4    1    6    6    0  503  0.34055227522E+03  0.33848723978E+03 -0.97797859566E+03  0.10894914397E+04  0.00000000000E+00 0.  1.
<mgrwt>
<rscale>  0 0.14448608E+04</rscale>
<asrwt>0</asrwt>
<pdfrwt beam="1">  1        2 0.22043152E+00 0.14448608E+04</pdfrwt>
<pdfrwt beam="2">  1       -1 0.56039159E-01 0.14448608E+04</pdfrwt>
<totfact> 0.49357733E+01</totfact>
</mgrwt>
</event>
<event>
12    7  0.1660832E-007  0.2748351E+04  0.7818608E-02  0.8319485E-01
          2   -1    0    0  501    0  0.00000000000E+00  0.00000000000E+00  0.21766332738E+04  0.21766332738E+04  0.00000000000E+00 0. -1.
         -1   -1    0    0    0  501 -0.00000000000E+00 -0.00000000000E+00 -0.86755901314E+03  0.86755901314E+03  0.00000000000E+00 0.  1.
         24    2    1    2    0    0  0.11409278328E+04 -0.27074315619E+03  0.96382514013E+03  0.15200528086E+04  0.81138548004E+02 0.  0.
        254    2    1    2    0    0 -0.11409278328E+04  0.27074315619E+03  0.34524912052E+03  0.15241394783E+04  0.91037685492E+03 0.  0.
         23    2    4    4    0    0 -0.10602362839E+03  0.28267918110E+03 -0.17592541500E+03  0.36174179767E+03  0.93588713690E+02 0.  0.
         23    2    4    4    0    0 -0.10349042044E+04 -0.11936024905E+02  0.52117453552E+03  0.11623976807E+04  0.91522077167E+02 0.  0.
          2    1    3    3  502    0  0.91214574683E+03 -0.24585046712E+03  0.75567636375E+03  0.12097516614E+04  0.00000000000E+00 0. -1.
         -1    1    3    3    0  502  0.22878208594E+03 -0.24892689075E+02  0.20814877638E+03  0.31030114715E+03  0.00000000000E+00 0.  1.
         13    1    5    5    0    0 -0.31686996668E+01  0.46579818031E+02 -0.68059692084E+02  0.82533882690E+02  0.00000000000E+00 0. -1.
        -13    1    5    5    0    0 -0.10285492873E+03  0.23609936307E+03 -0.10786572292E+03  0.27920791498E+03  0.00000000000E+00 0.  1.
          3    1    6    6  503    0 -0.41723298784E+03  0.28722517548E+02  0.24371191660E+03  0.48404942666E+03  0.00000000000E+00 0. -1.
         -3    1    6    6    0  503 -0.61767121654E+03 -0.40658542453E+02  0.27746261892E+03  0.67834825401E+03  0.00000000000E+00 0.  1.
<mgrwt>
<rscale>  0 0.27483506E+04</rscale>
<asrwt>0</asrwt>
<pdfrwt beam="1">  1        2 0.33486666E+00 0.27483506E+04</pdfrwt>
<pdfrwt beam="2">  1       -1 0.13347062E+00 0.27483506E+04</pdfrwt>
<totfact> 0.25085990E+00</totfact>
</mgrwt>
</event>
<event>
12    7  0.1660832E-007  0.2836683E+04  0.7818608E-02  0.8291969E-01
          2   -1    0    0  501    0  0.00000000000E+00  0.00000000000E+00  0.15153896917E+04  0.15153896917E+04  0.00000000000E+00 0. -1.
         -1   -1    0    0    0  501 -0.00000000000E+00 -0.00000000000E+00 -0.13275088806E+04  0.13275088806E+04  0.00000000000E+00 0.  1.
         24    2    1    2    0    0 -0.21262215525E+03 -0.52907959911E+03  0.12207070760E+04  0.13496354107E+04  0.79098503581E+02 0.  0.
        254    2    1    2    0    0  0.21262215525E+03  0.52907959911E+03 -0.10328262649E+04  0.14932631616E+04  0.91540776333E+03 0.  0.
         23    2    4    4    0    0  0.28585189619E+03 -0.16398374293E+03 -0.17476071647E+03  0.38438372772E+03  0.92776977826E+02 0.  0.
         23    2    4    4    0    0 -0.73229740936E+02  0.69306334204E+03 -0.85806554847E+03  0.11088794339E+04  0.87394063788E+02 0.  0.
          4    1    3    3  502    0 -0.16064853678E+03 -0.31768065047E+03  0.81076867693E+03  0.88547998031E+03  0.00000000000E+00 0. -1.
         -1    1    3    3    0  502 -0.51973618471E+02 -0.21139894865E+03  0.40993839908E+03  0.46415543037E+03  0.00000000000E+00 0.  1.
         13    1    5    5    0    0  0.18675370960E+03 -0.14478106249E+03 -0.91009285000E+02  0.25322163032E+03  0.00000000000E+00 0.  1.
        -13    1    5    5    0    0  0.99098186588E+02 -0.19202680442E+02 -0.83751431473E+02  0.13116209740E+03  0.00000000000E+00 0. -1.
          3    1    6    6  503    0  0.12819857190E+02  0.19497478103E+02 -0.29257923400E+02  0.37423608490E+02  0.00000000000E+00 0. -1.
         -3    1    6    6    0  503 -0.86049598126E+02  0.67356586394E+03 -0.82880762507E+03  0.10714558254E+04  0.00000000000E+00 0.  1.
<mgrwt>
<rscale>  0 0.28366835E+04</rscale>
<asrwt>0</asrwt>
<pdfrwt beam="1">  1        2 0.23313688E+00 0.28366835E+04</pdfrwt>
<pdfrwt beam="2">  1       -1 0.20423213E+00 0.28366835E+04</pdfrwt>
<totfact> 0.17300594E+00</totfact>
</mgrwt>
</event>
<event>
12    7  0.1660832E-007  0.2316262E+04  0.7818608E-02  0.8471537E-01
         -1   -1    0    0    0  501 -0.00000000000E+00  0.00000000000E+00  0.38105769429E+03  0.38105769429E+03  0.00000000000E+00 0.  1.
          2   -1    0    0  501    0  0.00000000000E+00 -0.00000000000E+00 -0.35198539788E+04  0.35198539788E+04  0.00000000000E+00 0. -1.
         24    2    1    2    0    0 -0.80707074583E+01 -0.61041144998E+03 -0.40054355053E+02  0.61706666750E+03  0.80620383198E+02 0.  0.
        254    2    1    2    0    0  0.80707074583E+01  0.61041144998E+03 -0.30987419295E+04  0.32838450056E+04  0.89931596273E+03 0.  0.
         23    2    4    4    0    0 -0.42675478487E+02  0.75026332950E+03 -0.29788456467E+04  0.30736189934E+04  0.94318978566E+02 0.  0.
         23    2    4    4    0    0  0.50746185945E+02 -0.13985187951E+03 -0.11989628277E+03  0.21022601220E+03  0.87670599372E+02 0.  0.
          4    1    3    3  502    0 -0.21847236489E+02 -0.44282356472E+02 -0.60868862880E+01  0.49752176049E+02  0.00000000000E+00 0. -1.
         -3    1    3    3    0  502  0.13776529031E+02 -0.56612909351E+03 -0.33967468765E+02  0.56731449145E+03  0.00000000000E+00 0.  1.
         13    1    5    5    0    0 -0.25026253380E+02  0.69212589741E+03 -0.26379449357E+04  0.27273463394E+04  0.00000000000E+00 0.  1.
        -13    1    5    5    0    0 -0.17649225107E+02  0.58137432086E+02 -0.34090071100E+03  0.34627265402E+03  0.00000000000E+00 0. -1.
          4    1    6    6  503    0  0.37446384815E+02 -0.62693367555E+01 -0.33076392288E+02  0.50354583167E+02  0.00000000000E+00 0. -1.
         -4    1    6    6    0  503  0.13299801130E+02 -0.13358254276E+03 -0.86819890483E+02  0.15987142904E+03  0.00000000000E+00 0.  1.
<mgrwt>
<rscale>  0 0.23162620E+04</rscale>
<asrwt>0</asrwt>
<pdfrwt beam="1">  1        2 0.54151600E+00 0.23162620E+04</pdfrwt>
<pdfrwt beam="2">  1       -1 0.58624260E-01 0.23162620E+04</pdfrwt>
<totfact> 0.23975590E+00</totfact>
</mgrwt>
</event>
<event>
12    7  0.1660832E-007  0.1998636E+04  0.7818608E-02  0.8607259E-01
         -1   -1    0    0    0  501 -0.00000000000E+00  0.00000000000E+00  0.46380810991E+03  0.46380810991E+03  0.00000000000E+00 0.  1.
          2   -1    0    0  501    0  0.00000000000E+00 -0.00000000000E+00 -0.21531233486E+04  0.21531233486E+04  0.00000000000E+00 0. -1.
         24    2    1    2    0    0 -0.30957541480E+03  0.53858941011E+03 -0.26197823896E+02  0.62690186530E+03  0.80025824633E+02 0.  0.
        254    2    1    2    0    0  0.30957541480E+03 -0.53858941011E+03 -0.16631174148E+04  0.19900295932E+04  0.89907883768E+03 0.  0.
         23    2    4    4    0    0 -0.12657584535E+03 -0.53825317217E+03 -0.52710701332E+03  0.76974712348E+03  0.94503484828E+02 0.  0.
         23    2    4    4    0    0  0.43615126015E+03 -0.33623794221E+00 -0.11360104015E+04  0.12202824698E+04  0.91332572997E+02 0.  0.
          4    1    3    3  502    0 -0.13943661656E+03  0.22988638255E+03  0.27816237711E+02  0.27030364777E+03  0.00000000000E+00 0. -1.
         -3    1    3    3    0  502 -0.17013879825E+03  0.30870302756E+03 -0.54014061608E+02  0.35659821753E+03  0.00000000000E+00 0.  1.
         13    1    5    5    0    0 -0.10977966268E+02 -0.24765633146E+03 -0.22041574474E+03  0.33171866812E+03  0.00000000000E+00 0.  1.
        -13    1    5    5    0    0 -0.11559787908E+03 -0.29059684071E+03 -0.30669126858E+03  0.43802845536E+03  0.00000000000E+00 0. -1.
          3    1    6    6  503    0  0.43722405692E+03 -0.85292182460E+01 -0.11170889380E+04  0.11996354942E+04  0.00000000000E+00 0. -1.
         -3    1    6    6    0  503 -0.10727967654E+01  0.81929803038E+01 -0.18921463464E+02  0.20646975536E+02  0.00000000000E+00 0.  1.
<mgrwt>
<rscale>  0 0.19986356E+04</rscale>
<asrwt>0</asrwt>
<pdfrwt beam="1">  1        2 0.33124974E+00 0.19986356E+04</pdfrwt>
<pdfrwt beam="2">  1       -1 0.71355094E-01 0.19986356E+04</pdfrwt>
<totfact> 0.11510823E+01</totfact>
</mgrwt>
</event>
<event>
12    7  0.1660832E-007  0.2569112E+04  0.7818608E-02  0.8378770E-01
          2   -1    0    0  501    0  0.00000000000E+00  0.00000000000E+00  0.14842037852E+04  0.14842037852E+04  0.00000000000E+00 0. -1.
         -1   -1    0    0    0  501 -0.00000000000E+00 -0.00000000000E+00 -0.11117636602E+04  0.11117636602E+04  0.00000000000E+00 0.  1.
         24    2    1    2    0    0  0.75153354114E+02 -0.15269960624E+03  0.12826758077E+04  0.12963919290E+04  0.80060036569E+02 0.  0.
        254    2    1    2    0    0 -0.75153354114E+02  0.15269960624E+03 -0.91023568274E+03  0.12995755165E+04  0.91181266088E+03 0.  0.
         23    2    4    4    0    0  0.32711140972E+03 -0.13166949105E+03 -0.62683609251E+03  0.72428904273E+03  0.85629441815E+02 0.  0.
         23    2    4    4    0    0 -0.40226476384E+03  0.28436909729E+03 -0.28339959023E+03  0.57528647376E+03  0.89199077493E+02 0.  0.
          2    1    3    3  502    0  0.27789005261E+02 -0.13083694643E+03  0.10046055208E+04  0.10134706645E+04  0.00000000000E+00 0. -1.
         -1    1    3    3    0  502  0.47364348853E+02 -0.21862659808E+02  0.27807028692E+03  0.28292126450E+03  0.00000000000E+00 0.  1.
         13    1    5    5    0    0  0.12919517561E+03 -0.91619379780E+01 -0.20473316148E+03  0.24226225855E+03  0.00000000000E+00 0. -1.
        -13    1    5    5    0    0  0.19791623411E+03 -0.12250755307E+03 -0.42210293103E+03  0.48202678419E+03  0.00000000000E+00 0.  1.
          2    1    6    6  503    0 -0.14184317602E+03  0.53076869053E+02 -0.10181350442E+03  0.18249008273E+03  0.00000000000E+00 0. -1.
         -2    1    6    6    0  503 -0.26042158781E+03  0.23129222824E+03 -0.18158608581E+03  0.39279639102E+03  0.00000000000E+00 0.  1.
<mgrwt>
<rscale>  0 0.25691118E+04</rscale>
<asrwt>0</asrwt>
<pdfrwt beam="1">  1        2 0.22833904E+00 0.25691118E+04</pdfrwt>
<pdfrwt beam="2">  1       -1 0.17104056E+00 0.25691118E+04</pdfrwt>
<totfact> 0.31644518E+00</totfact>
</mgrwt>
</event>
<event>
12    7  0.1660832E-007  0.1537010E+04  0.7818608E-02  0.8860208E-01
         -1   -1    0    0    0  501 -0.00000000000E+00  0.00000000000E+00  0.78228708848E+03  0.78228708848E+03  0.00000000000E+00 0.  1.
          2   -1    0    0  501    0  0.00000000000E+00 -0.00000000000E+00 -0.75496553591E+03  0.75496553591E+03  0.00000000000E+00 0. -1.
         24    2    1    2    0    0  0.91009894539E+02  0.56837285377E+02  0.49646561583E+03  0.51483412482E+03  0.84040409716E+02 0.  0.
        254    2    1    2    0    0 -0.91009894539E+02 -0.56837285377E+02 -0.46914406326E+03  0.10224184996E+04  0.90206992981E+03 0.  0.
         23    2    4    4    0    0  0.71829090797E+02  0.17806131639E+03  0.19589608188E+03  0.29291639941E+03  0.10275938627E+03 0.  0.
         23    2    4    4    0    0 -0.16283898534E+03 -0.23489860177E+03 -0.66504014514E+03  0.72950210017E+03  0.90559545299E+02 0.  0.
          4    1    3    3  502    0 -0.11505822323E+02  0.19581108551E+02  0.14692713824E+03  0.14867208114E+03  0.00000000000E+00 0. -1.
         -3    1    3    3    0  502  0.10251571686E+03  0.37256176825E+02  0.34953847759E+03  0.36616204368E+03  0.00000000000E+00 0.  1.
         13    1    5    5    0    0  0.58122996691E+02  0.15485910577E+03  0.20595378757E+03  0.26415258469E+03  0.00000000000E+00 0. -1.
        -13    1    5    5    0    0  0.13706094105E+02  0.23202210627E+02 -0.10057705689E+02  0.28763814722E+02  0.00000000000E+00 0.  1.
          2    1    6    6  503    0  0.40468380334E+01 -0.34787560510E+01 -0.63533226647E+02  0.63756956717E+02  0.00000000000E+00 0.  1.
         -2    1    6    6    0  503 -0.16688582337E+03 -0.23141984572E+03 -0.60150691849E+03  0.66574514345E+03  0.00000000000E+00 0. -1.
<mgrwt>
<rscale>  0 0.15370098E+04</rscale>
<asrwt>0</asrwt>
<pdfrwt beam="1">  1        2 0.11614854E+00 0.15370098E+04</pdfrwt>
<pdfrwt beam="2">  1       -1 0.12035186E+00 0.15370098E+04</pdfrwt>
<totfact> 0.25149581E+01</totfact>
</mgrwt>
</event>
<event>
12    7  0.1660832E-007  0.1410055E+04  0.7818608E-02  0.8946572E-01
          2   -1    0    0  501    0  0.00000000000E+00  0.00000000000E+00  0.13073816646E+04  0.13073816646E+04  0.00000000000E+00 0. -1.
         -1   -1    0    0    0  501 -0.00000000000E+00 -0.00000000000E+00 -0.38019804646E+03  0.38019804646E+03  0.00000000000E+00 0.  1.
         24    2    1    2    0    0  0.31434436041E+03  0.21557438609E+03  0.96651715509E+02  0.40041368011E+03  0.75530578253E+02 0.  0.
        254    2    1    2    0    0 -0.31434436041E+03 -0.21557438609E+03  0.83053190259E+03  0.12871660309E+04  0.90649239217E+03 0.  0.
         23    2    4    4    0    0 -0.20850191110E+03  0.30346076451E+03  0.11862496177E+03  0.39540870187E+03  0.81943135338E+02 0.  0.
         23    2    4    4    0    0 -0.10584244930E+03 -0.51903515060E+03  0.71190694082E+03  0.89175732905E+03  0.88428105718E+02 0.  0.
          2    1    3    3  502    0  0.10076150986E+03  0.31509463945E+02  0.13359964531E+02  0.10641530360E+03  0.00000000000E+00 0. -1.
         -1    1    3    3    0  502  0.21358285055E+03  0.18406492215E+03  0.83291750978E+02  0.29399837652E+03  0.00000000000E+00 0.  1.
         13    1    5    5    0    0 -0.19477679965E+03  0.22579965915E+03  0.89566171015E+02  0.31136086258E+03  0.00000000000E+00 0. -1.
        -13    1    5    5    0    0 -0.13725111456E+02  0.77661105356E+02  0.29058790754E+02  0.84047839293E+02  0.00000000000E+00 0.  1.
          3    1    6    6  503    0 -0.49648788605E+02 -0.35656241663E+03  0.53700650471E+03  0.64651198385E+03  0.00000000000E+00 0. -1.
         -3    1    6    6    0  503 -0.56193660698E+02 -0.16247273397E+03  0.17490043611E+03  0.24524534520E+03  0.00000000000E+00 0.  1.
<mgrwt>
<rscale>  0 0.14100553E+04</rscale>
<asrwt>0</asrwt>
<pdfrwt beam="1">  1        2 0.20113564E+00 0.14100553E+04</pdfrwt>
<pdfrwt beam="2">  1       -1 0.58492008E-01 0.14100553E+04</pdfrwt>
<totfact> 0.53746492E+01</totfact>
</mgrwt>
</event>
<event>
12    7  0.1660832E-007  0.2659123E+04  0.7818608E-02  0.8348391E-01
         -1   -1    0    0    0  501 -0.00000000000E+00  0.00000000000E+00  0.71600446577E+03  0.71600446577E+03  0.00000000000E+00 0.  1.
          2   -1    0    0  501    0  0.00000000000E+00 -0.00000000000E+00 -0.24688870551E+04  0.24688870551E+04  0.00000000000E+00 0. -1.
         24    2    1    2    0    0 -0.18821248248E+03 -0.73378141096E+03 -0.18524458205E+04  0.20029143057E+04  0.79063901380E+02 0.  0.
        254    2    1    2    0    0  0.18821248248E+03  0.73378141096E+03  0.99563231159E+02  0.11819772152E+04  0.90183047329E+03 0.  0.
         23    2    4    4    0    0 -0.30557969528E+03  0.15042389844E+03  0.20123998786E+03  0.40596079511E+03  0.91106174687E+02 0.  0.
         23    2    4    4    0    0  0.49379217776E+03  0.58335751252E+03 -0.10167675670E+03  0.77601642006E+03  0.87901189577E+02 0.  0.
          4    1    3    3  502    0 -0.15755326178E+03 -0.66964566698E+03 -0.17225539026E+04  0.18548423914E+04  0.00000000000E+00 0. -1.
         -3    1    3    3    0  502 -0.30659220700E+02 -0.64135743980E+02 -0.12989191792E+03  0.14807191432E+03  0.00000000000E+00 0.  1.
         13    1    5    5    0    0 -0.30094842310E+03  0.12367252192E+03  0.18759954102E+03  0.37557746716E+03  0.00000000000E+00 0. -1.
        -13    1    5    5    0    0 -0.46312721813E+01  0.26751376523E+02  0.13640446831E+02  0.30383327955E+02  0.00000000000E+00 0.  1.
          1    1    6    6  503    0  0.42547305833E+03  0.47871428997E+03 -0.55798561675E+02  0.64289048388E+03  0.00000000000E+00 0. -1.
         -1    1    6    6    0  503  0.68319119428E+02  0.10464322255E+03 -0.45878195021E+02  0.13312593618E+03  0.00000000000E+00 0.  1.
<mgrwt>
<rscale>  0 0.26591233E+04</rscale>
<asrwt>0</asrwt>
<pdfrwt beam="1">  1        2 0.37982877E+00 0.26591233E+04</pdfrwt>
<pdfrwt beam="2">  1       -1 0.11015453E+00 0.26591233E+04</pdfrwt>
<totfact> 0.27619633E+00</totfact>
</mgrwt>
</event>
<event>
12    7  0.1660832E-007  0.3084983E+04  0.7818608E-02  0.8219871E-01
         -1   -1    0    0    0  501 -0.00000000000E+00  0.00000000000E+00  0.70839328782E+03  0.70839328782E+03  0.00000000000E+00 0.  1.
          2   -1    0    0  501    0  0.00000000000E+00 -0.00000000000E+00 -0.33586993613E+04  0.33586993613E+04  0.00000000000E+00 0. -1.
         24    2    1    2    0    0 -0.57294238717E+03 -0.12571966249E+03  0.47834363598E+03  0.76114477480E+03  0.80376125672E+02 0.  0.
        254    2    1    2    0    0  0.57294238717E+03  0.12571966249E+03 -0.31286497095E+04  0.33059478743E+04  0.89262194158E+03 0.  0.
         23    2    4    4    0    0  0.48265050494E+03  0.40972604258E+03 -0.27066798713E+04  0.27816167120E+04  0.10221872109E+03 0.  0.
         23    2    4    4    0    0  0.90291882224E+02 -0.28400638009E+03 -0.42196983813E+03  0.52433116227E+03  0.89735029436E+02 0.  0.
          2    1    3    3  502    0 -0.18327580153E+02  0.97521278946E+01  0.12070173599E+02  0.24014439061E+02  0.00000000000E+00 0. -1.
         -1    1    3    3    0  502 -0.55461480701E+03 -0.13547179039E+03  0.46627346238E+03  0.73713033574E+03  0.00000000000E+00 0.  1.
         13    1    5    5    0    0  0.45879415856E+03  0.40726275428E+03 -0.26497727658E+04  0.27198622652E+04  0.00000000000E+00 0. -1.
        -13    1    5    5    0    0  0.23856346379E+02  0.24632882998E+01 -0.56907105498E+02  0.61754446868E+02  0.00000000000E+00 0.  1.
          4    1    6    6  503    0  0.47102408158E+02 -0.20784419418E+03 -0.23125520373E+03  0.31447864023E+03  0.00000000000E+00 0. -1.
         -4    1    6    6    0  503  0.43189474067E+02 -0.76162185911E+02 -0.19071463439E+03  0.20985252204E+03  0.00000000000E+00 0.  1.
<mgrwt>
<rscale>  0 0.30849830E+04</rscale>
<asrwt>0</asrwt>
<pdfrwt beam="1">  1        2 0.51672298E+00 0.30849830E+04</pdfrwt>
<pdfrwt beam="2">  1       -1 0.10898358E+00 0.30849830E+04</pdfrwt>
<totfact> 0.76542052E-01</totfact>
</mgrwt>
</event>
<event>
12    7  0.1660832E-007  0.1368809E+04  0.7818608E-02  0.8976711E-01
          2   -1    0    0  501    0  0.00000000000E+00  0.00000000000E+00  0.24434462296E+03  0.24434462296E+03  0.00000000000E+00 0. -1.
         -1   -1    0    0    0  501 -0.00000000000E+00 -0.00000000000E+00 -0.19170032251E+04  0.19170032251E+04  0.00000000000E+00 0.  1.
         24    2    1    2    0    0  0.40844426963E+02 -0.20856724036E+03  0.14451583310E+02  0.22725322408E+03  0.79161977167E+02 0.  0.
        254    2    1    2    0    0 -0.40844426963E+02  0.20856724036E+03 -0.16871101854E+04  0.19340946240E+04  0.92152736025E+03 0.  0.
         23    2    4    4    0    0 -0.23835296510E+03  0.10807208999E+03 -0.55240133333E+02  0.28466594054E+03  0.97424395132E+02 0.  0.
         23    2    4    4    0    0  0.19750853813E+03  0.10049515037E+03 -0.16318700521E+04  0.16494286834E+04  0.92229154202E+02 0.  0.
          4    1    3    3  502    0  0.13413777698E+02 -0.19414784033E+03  0.20470954328E+02  0.19568437165E+03  0.00000000000E+00 0. -1.
         -3    1    3    3    0  502  0.27430649265E+02 -0.14419400031E+02 -0.60193710180E+01  0.31568852431E+02  0.00000000000E+00 0.  1.
         13    1    5    5    0    0 -0.11978312787E+02  0.41421303179E+02 -0.11968989133E+02  0.44748866300E+02  0.00000000000E+00 0.  1.
        -13    1    5    5    0    0 -0.22637465231E+03  0.66650786814E+02 -0.43271144200E+02  0.23991707424E+03  0.00000000000E+00 0. -1.
          2    1    6    6  503    0  0.14673174456E+03  0.10589701936E+03 -0.14204406012E+04  0.14319203487E+04  0.00000000000E+00 0. -1.
         -2    1    6    6    0  503  0.50776793575E+02 -0.54018689984E+01 -0.21142945094E+03  0.21750833474E+03  0.00000000000E+00 0.  1.
<mgrwt>
<rscale>  0 0.13688089E+04</rscale>
<asrwt>0</asrwt>
<pdfrwt beam="1">  1        2 0.37591479E-01 0.13688089E+04</pdfrwt>
<pdfrwt beam="2">  1       -1 0.29492358E+00 0.13688089E+04</pdfrwt>
<totfact> 0.55195033E+00</totfact>
</mgrwt>
</event>
<event>
12    7  0.1660832E-007  0.1645377E+04  0.7818608E-02  0.8793146E-01
         -1   -1    0    0    0  501 -0.00000000000E+00  0.00000000000E+00  0.42992757270E+03  0.42992757270E+03  0.00000000000E+00 0.  1.
          2   -1    0    0  501    0  0.00000000000E+00 -0.00000000000E+00 -0.15742569432E+04  0.15742569432E+04  0.00000000000E+00 0. -1.
         24    2    1    2    0    0 -0.57177878729E+03 -0.20459066724E+02 -0.45484110845E+03  0.73526471401E+03  0.79901256112E+02 0.  0.
        254    2    1    2    0    0  0.57177878729E+03  0.20459066724E+02 -0.68948826204E+03  0.12689198019E+04  0.89856209863E+03 0.  0.
         23    2    4    4    0    0  0.68487437086E+03 -0.12191032261E+03 -0.77606887082E+03  0.10462860422E+04  0.92285205677E+02 0.  0.
         23    2    4    4    0    0 -0.11309558357E+03  0.14236938933E+03  0.86580608783E+02  0.22263375969E+03  0.94920677915E+02 0.  0.
          2    1    3    3  502    0 -0.57284671127E+03 -0.24576159525E+02 -0.45045545127E+03  0.72915530294E+03  0.00000000000E+00 0. -1.
         -1    1    3    3    0  502  0.10679239768E+01  0.41170928007E+01 -0.43856571758E+01  0.61094110692E+01  0.00000000000E+00 0.  1.
         13    1    5    5    0    0  0.36599983011E+03 -0.21555139573E+02 -0.38083865360E+03  0.52863842062E+03  0.00000000000E+00 0.  1.
        -13    1    5    5    0    0  0.31887454075E+03 -0.10035518303E+03 -0.39523021722E+03  0.51764762156E+03  0.00000000000E+00 0. -1.
          3    1    6    6  503    0 -0.10550608259E+03  0.13205567316E+03  0.10589562861E+03  0.19945956591E+03  0.00000000000E+00 0. -1.
         -3    1    6    6    0  503 -0.75895009782E+01  0.10313716175E+02 -0.19315019824E+02  0.23174193778E+02  0.00000000000E+00 0.  1.
<mgrwt>
<rscale>  0 0.16453771E+04</rscale>
<asrwt>0</asrwt>
<pdfrwt beam="1">  1        2 0.24219338E+00 0.16453771E+04</pdfrwt>
<pdfrwt beam="2">  1       -1 0.66142703E-01 0.16453771E+04</pdfrwt>
<totfact> 0.29076281E+01</totfact>
</mgrwt>
</event>
<event>
12    7  0.1660832E-007  0.2097550E+04  0.7818608E-02  0.8562324E-01
         -1   -1    0    0    0  501 -0.00000000000E+00  0.00000000000E+00  0.59765725560E+03  0.59765725560E+03  0.00000000000E+00 0.  1.
          2   -1    0    0  501    0  0.00000000000E+00 -0.00000000000E+00 -0.18404001339E+04  0.18404001339E+04  0.00000000000E+00 0. -1.
         24    2    1    2    0    0 -0.56555979854E+03 -0.16647723767E+03  0.22353316700E+03  0.63552575365E+03  0.79707906865E+02 0.  0.
        254    2    1    2    0    0  0.56555979854E+03  0.16647723767E+03 -0.14662760453E+04  0.18025316358E+04  0.86693846427E+03 0.  0.
         23    2    4    4    0    0  0.50259789470E+03  0.23215034150E+02 -0.15292143820E+04  0.16125519988E+04  0.93186591874E+02 0.  0.
         23    2    4    4    0    0  0.62961903840E+02  0.14326220352E+03  0.62938336751E+02  0.18997963708E+03  0.87422925932E+02 0.  0.
          2    1    3    3  502    0 -0.63636264288E+02 -0.35719608631E+02  0.64721465240E+01  0.73262222557E+02  0.00000000000E+00 0. -1.
         -1    1    3    3    0  502 -0.50192353425E+03 -0.13075762904E+03  0.21706102047E+03  0.56226353109E+03  0.00000000000E+00 0.  1.
         13    1    5    5    0    0  0.22650892902E+03  0.16357047062E+02 -0.54750641849E+03  0.59273697894E+03  0.00000000000E+00 0.  1.
        -13    1    5    5    0    0  0.27608896568E+03  0.68579870886E+01 -0.98170796356E+03  0.10198150198E+04  0.00000000000E+00 0. -1.
          1    1    6    6  503    0  0.15476786544E+02  0.12808028795E+03  0.39744335420E+02  0.13499519726E+03  0.00000000000E+00 0. -1.
         -1    1    6    6    0  503  0.47485117296E+02  0.15181915568E+02  0.23194001331E+02  0.54984439823E+02  0.00000000000E+00 0.  1.
<mgrwt>
<rscale>  0 0.20975495E+04</rscale>
<asrwt>0</asrwt>
<pdfrwt beam="1">  1        2 0.28313848E+00 0.20975495E+04</pdfrwt>
<pdfrwt beam="2">  1       -1 0.91947270E-01 0.20975495E+04</pdfrwt>
<totfact> 0.99062737E+00</totfact>
</mgrwt>
</event>
<event>
12    7  0.1660832E-007  0.3196479E+04  0.7818608E-02  0.8189748E-01
         -1   -1    0    0    0  501 -0.00000000000E+00  0.00000000000E+00  0.15435179562E+04  0.15435179562E+04  0.00000000000E+00 0.  1.
          2   -1    0    0  501    0  0.00000000000E+00 -0.00000000000E+00 -0.16549005450E+04  0.16549005450E+04  0.00000000000E+00 0. -1.
         24    2    1    2    0    0  0.46292341931E+03 -0.13299372741E+04 -0.47122382707E+03  0.14870972001E+04  0.79843236274E+02 0.  0.
        254    2    1    2    0    0 -0.46292341931E+03  0.13299372741E+04  0.35984123824E+03  0.17113213011E+04  0.90338454368E+03 0.  0.
         23    2    4    4    0    0 -0.48205691679E+03  0.14376110066E+04  0.26791753437E+03  0.15423546751E+04  0.89296479085E+02 0.  0.
         23    2    4    4    0    0  0.19133497487E+02 -0.10767373256E+03  0.91923703870E+02  0.16896662600E+03  0.90222114569E+02 0.  0.
          4    1    3    3  502    0  0.30042285492E+03 -0.95957777306E+03 -0.31779642995E+03  0.10545321072E+04  0.00000000000E+00 0. -1.
         -3    1    3    3    0  502  0.16250056438E+03 -0.37035950101E+03 -0.15342739712E+03  0.43256509290E+03  0.00000000000E+00 0.  1.
         13    1    5    5    0    0 -0.24175618840E+03  0.83991491141E+03  0.17732649999E+03  0.89182274059E+03  0.00000000000E+00 0. -1.
        -13    1    5    5    0    0 -0.24030072840E+03  0.59769609521E+03  0.90591034375E+02  0.65053193450E+03  0.00000000000E+00 0.  1.
          2    1    6    6  503    0 -0.68604463837E+01 -0.40198186625E+02 -0.11866997925E+02  0.42470996836E+02  0.00000000000E+00 0. -1.
         -2    1    6    6    0  503  0.25993943871E+02 -0.67475545937E+02  0.10379070179E+03  0.12649562916E+03  0.00000000000E+00 0.  1.
<mgrwt>
<rscale>  0 0.31964785E+04</rscale>
<asrwt>0</asrwt>
<pdfrwt beam="1">  1        2 0.25460008E+00 0.31964785E+04</pdfrwt>
<pdfrwt beam="2">  1       -1 0.23746430E+00 0.31964785E+04</pdfrwt>
<totfact> 0.83934598E-01</totfact>
</mgrwt>
</event>
<event>
12    7  0.1660832E-007  0.1844326E+04  0.7818608E-02  0.8683076E-01
         -1   -1    0    0    0  501 -0.00000000000E+00  0.00000000000E+00  0.65637942083E+03  0.65637942083E+03  0.00000000000E+00 0.  1.
          2   -1    0    0  501    0  0.00000000000E+00 -0.00000000000E+00 -0.12955681875E+04  0.12955681875E+04  0.00000000000E+00 0. -1.
         24    2    1    2    0    0  0.48192646963E+03 -0.12552304877E+03 -0.80684243897E+03  0.95175787671E+03  0.82699314657E+02 0.  0.
        254    2    1    2    0    0 -0.48192646963E+03  0.12552304877E+03  0.16765367230E+03  0.10001897316E+04  0.85103618460E+03 0.  0.
         23    2    4    4    0    0  0.59823745214E+02 -0.17619238425E+03  0.29389866896E+03  0.36093610812E+03  0.96311005458E+02 0.  0.
         23    2    4    4    0    0 -0.54175021484E+03  0.30171543302E+03 -0.12624499666E+03  0.63925362350E+03  0.90453845498E+02 0.  0.
          2    1    3    3  502    0  0.29832460998E+03 -0.74255676387E+02 -0.57108962581E+03  0.64857909240E+03  0.00000000000E+00 0. -1.
         -1    1    3    3    0  502  0.18360185965E+03 -0.51267372385E+02 -0.23575281317E+03  0.30317878431E+03  0.00000000000E+00 0.  1.
         13    1    5    5    0    0  0.47372265853E+02 -0.24178215931E+02  0.48378184724E+02  0.71896915475E+02  0.00000000000E+00 0. -1.
        -13    1    5    5    0    0  0.12451479362E+02 -0.15201416832E+03  0.24552048423E+03  0.28903919265E+03  0.00000000000E+00 0.  1.
          4    1    6    6  503    0 -0.13664811084E+03  0.57985993582E+02  0.52570063172E+01  0.14853524081E+03  0.00000000000E+00 0. -1.
         -4    1    6    6    0  503 -0.40510210401E+03  0.24372943944E+03 -0.13150200297E+03  0.49071838269E+03  0.00000000000E+00 0.  1.
<mgrwt>
<rscale>  0 0.18443257E+04</rscale>
<asrwt>0</asrwt>
<pdfrwt beam="1">  1        2 0.19931818E+00 0.18443257E+04</pdfrwt>
<pdfrwt beam="2">  1       -1 0.10098145E+00 0.18443257E+04</pdfrwt>
<totfact> 0.16622172E+01</totfact>
</mgrwt>
</event>
<event>
12    7  0.1660832E-007  0.2195845E+04  0.7818608E-02  0.8520159E-01
         -1   -1    0    0    0  501 -0.00000000000E+00  0.00000000000E+00  0.33544251644E+03  0.33544251644E+03  0.00000000000E+00 0.  1.
          2   -1    0    0  501    0  0.00000000000E+00 -0.00000000000E+00 -0.35935631390E+04  0.35935631390E+04  0.00000000000E+00 0. -1.
         24    2    1    2    0    0  0.24051096731E+03 -0.53106354396E+03 -0.26219460988E+04  0.26871617528E+04  0.79767960660E+02 0.  0.
        254    2    1    2    0    0 -0.24051096731E+03  0.53106354396E+03 -0.63617452368E+03  0.12418439026E+04  0.89307571944E+03 0.  0.
         23    2    4    4    0    0  0.12039560951E+03  0.26098130299E+03 -0.71341032864E+03  0.77390437825E+03  0.85833247475E+02 0.  0.
         23    2    4    4    0    0 -0.36090657682E+03  0.27008224097E+03  0.77235804957E+02  0.46793952432E+03  0.99015426968E+02 0.  0.
          2    1    3    3  502    0  0.23598755732E+03 -0.47218175999E+03 -0.22949801336E+04  0.23549054238E+04  0.00000000000E+00 0. -1.
         -1    1    3    3    0  502  0.45234099893E+01 -0.58881783968E+02 -0.32696596526E+03  0.33225632900E+03  0.00000000000E+00 0.  1.
         13    1    5    5    0    0  0.10935959296E+03  0.14539458676E+03 -0.47703754148E+03  0.51055256577E+03  0.00000000000E+00 0.  1.
        -13    1    5    5    0    0  0.11036016551E+02  0.11558671623E+03 -0.23637278716E+03  0.26335181248E+03  0.00000000000E+00 0. -1.
          2    1    6    6  503    0 -0.90184054909E+01 -0.25048092545E+01  0.16128676727E+02  0.18647785927E+02  0.00000000000E+00 0. -1.
         -2    1    6    6    0  503 -0.35188817132E+03  0.27258705023E+03  0.61107128230E+02  0.44929173839E+03  0.00000000000E+00 0.  1.
<mgrwt>
<rscale>  0 0.21958450E+04</rscale>
<asrwt>0</asrwt>
<pdfrwt beam="1">  1        2 0.55285590E+00 0.21958450E+04</pdfrwt>
<pdfrwt beam="2">  1       -1 0.51606538E-01 0.21958450E+04</pdfrwt>
<totfact> 0.27543342E+00</totfact>
</mgrwt>
</event>
<event>
12    7  0.1660832E-007  0.1608917E+04  0.7818608E-02  0.8815088E-01
         -1   -1    0    0    0  501 -0.00000000000E+00  0.00000000000E+00  0.57561714131E+03  0.57561714131E+03  0.00000000000E+00 0.  1.
          2   -1    0    0  501    0  0.00000000000E+00 -0.00000000000E+00 -0.11242781738E+04  0.11242781738E+04  0.00000000000E+00 0. -1.
         24    2    1    2    0    0  0.44314252555E+03  0.32466293948E+03 -0.22254653161E+03  0.59816680021E+03  0.80593051327E+02 0.  0.
        254    2    1    2    0    0 -0.44314252555E+03 -0.32466293948E+03 -0.32611450084E+03  0.11017285149E+04  0.89759329910E+03 0.  0.
         23    2    4    4    0    0 -0.34102700520E+03 -0.62340600661E+03 -0.28195816014E+03  0.77010971839E+03  0.92919895267E+02 0.  0.
         23    2    4    4    0    0 -0.10211552035E+03  0.29874306714E+03 -0.44156340701E+02  0.33161879647E+03  0.91357780682E+02 0.  0.
          2    1    3    3  502    0  0.32428309911E+03  0.27917061335E+03 -0.16776433874E+03  0.45960921779E+03  0.00000000000E+00 0. -1.
         -1    1    3    3    0  502  0.11885942644E+03  0.45492326127E+02 -0.54782192867E+02  0.13855758242E+03  0.00000000000E+00 0.  1.
         13    1    5    5    0    0 -0.35214046335E+02 -0.13321200221E+03 -0.37839124816E+02  0.14288899874E+03  0.00000000000E+00 0.  1.
        -13    1    5    5    0    0 -0.30581295886E+03 -0.49019400440E+03 -0.24411903532E+03  0.62722071966E+03  0.00000000000E+00 0. -1.
          4    1    6    6  503    0 -0.80149107503E+02  0.24083584874E+03  0.28962591672E+01  0.25383887368E+03  0.00000000000E+00 0. -1.
         -4    1    6    6    0  503 -0.21966412844E+02  0.57907218394E+02 -0.47052599868E+02  0.77779922793E+02  0.00000000000E+00 0.  1.
<mgrwt>
<rscale>  0 0.16089174E+04</rscale>
<asrwt>0</asrwt>
<pdfrwt beam="1">  1        2 0.17296587E+00 0.16089174E+04</pdfrwt>
<pdfrwt beam="2">  1       -1 0.88556484E-01 0.16089174E+04</pdfrwt>
<totfact> 0.28802562E+01</totfact>
</mgrwt>
</event>
<event>
12    7  0.1660832E-007  0.1596508E+04  0.7818608E-02  0.8822696E-01
         -1   -1    0    0    0  501 -0.00000000000E+00  0.00000000000E+00  0.58868213740E+03  0.58868213740E+03  0.00000000000E+00 0.  1.
          2   -1    0    0  501    0  0.00000000000E+00 -0.00000000000E+00 -0.10824340819E+04  0.10824340819E+04  0.00000000000E+00 0. -1.
         24    2    1    2    0    0 -0.37463496572E+03 -0.41300650055E+03 -0.13536307660E+03  0.57926367123E+03  0.79356860195E+02 0.  0.
        254    2    1    2    0    0  0.37463496572E+03  0.41300650055E+03 -0.35838886790E+03  0.10918525481E+04  0.86762531029E+03 0.  0.
         23    2    4    4    0    0  0.28894461121E+03  0.51941531539E+03 -0.56676374813E+03  0.82649406199E+03  0.92682415276E+02 0.  0.
         23    2    4    4    0    0  0.85690354506E+02 -0.10640881484E+03  0.20837488023E+03  0.26535848608E+03  0.91265342243E+02 0.  0.
          4    1    3    3  502    0 -0.66228504377E+02 -0.59251776429E+02 -0.50895116374E+02  0.10240752254E+03  0.00000000000E+00 0. -1.
         -3    1    3    3    0  502 -0.30840646134E+03 -0.35375472412E+03 -0.84467960227E+02  0.47685614869E+03  0.00000000000E+00 0.  1.
         13    1    5    5    0    0  0.96817327857E+02  0.20642957121E+03 -0.27650790082E+03  0.35838998599E+03  0.00000000000E+00 0.  1.
        -13    1    5    5    0    0  0.19212728335E+03  0.31298574419E+03 -0.29025584731E+03  0.46810407601E+03  0.00000000000E+00 0. -1.
          2    1    6    6  503    0  0.18337333474E+02 -0.91342971476E+02  0.98294333859E+02  0.13543106108E+03  0.00000000000E+00 0. -1.
         -2    1    6    6    0  503  0.67353021032E+02 -0.15065843365E+02  0.11008054637E+03  0.12992742500E+03  0.00000000000E+00 0.  1.
<mgrwt>
<rscale>  0 0.15965082E+04</rscale>
<asrwt>0</asrwt>
<pdfrwt beam="1">  1        2 0.16652832E+00 0.15965082E+04</pdfrwt>
<pdfrwt beam="2">  1       -1 0.90566484E-01 0.15965082E+04</pdfrwt>
<totfact> 0.29122127E+01</totfact>
</mgrwt>
</event>
<event>
12    7  0.1660832E-007  0.1128138E+04  0.7818608E-02  0.9178193E-01
          2   -1    0    0  501    0  0.00000000000E+00  0.00000000000E+00  0.17751069493E+03  0.17751069493E+03  0.00000000000E+00 0. -1.
         -1   -1    0    0    0  501 -0.00000000000E+00 -0.00000000000E+00 -0.17924198540E+04  0.17924198540E+04  0.00000000000E+00 0.  1.
         24    2    1    2    0    0 -0.11880198453E+03  0.48058942133E+02 -0.45724860032E+02  0.15705741866E+03  0.78439125981E+02 0.  0.
        254    2    1    2    0    0  0.11880198453E+03 -0.48058942133E+02 -0.15691842991E+04  0.18128731303E+04  0.89874693249E+03 0.  0.
         23    2    4    4    0    0  0.33319401746E+03 -0.37029679096E+03 -0.78801716735E+03  0.93669194588E+03  0.91009772999E+02 0.  0.
         23    2    4    4    0    0 -0.21439203293E+03  0.32223784883E+03 -0.78116713172E+03  0.87618118441E+03  0.87579707880E+02 0.  0.
          4    1    3    3  502    0 -0.10323071001E+03  0.52137622456E+02 -0.78641694017E+01  0.11591702345E+03  0.00000000000E+00 0. -1.
         -3    1    3    3    0  502 -0.15571274517E+02 -0.40786803228E+01 -0.37860690630E+02  0.41140395213E+02  0.00000000000E+00 0.  1.
         13    1    5    5    0    0  0.23379688162E+03 -0.23559012748E+03 -0.44650107179E+03  0.55635141514E+03  0.00000000000E+00 0. -1.
        -13    1    5    5    0    0  0.99397135839E+02 -0.13470666348E+03 -0.34151609556E+03  0.38034053074E+03  0.00000000000E+00 0.  1.
          3    1    6    6  503    0 -0.15932126508E+03  0.21415759155E+03 -0.61520639475E+03  0.67061587191E+03  0.00000000000E+00 0. -1.
         -3    1    6    6    0  503 -0.55070767857E+02  0.10808025728E+03 -0.16596073697E+03  0.20556531250E+03  0.00000000000E+00 0.  1.
<mgrwt>
<rscale>  0 0.11281377E+04</rscale>
<asrwt>0</asrwt>
<pdfrwt beam="1">  1        2 0.27309337E-01 0.11281377E+04</pdfrwt>
<pdfrwt beam="2">  1       -1 0.27575691E+00 0.11281377E+04</pdfrwt>
<totfact> 0.10755965E+01</totfact>
</mgrwt>
</event>
<event>
12    7  0.1660832E-007  0.2821927E+04  0.7818608E-02  0.8296493E-01
          2   -1    0    0  501    0  0.00000000000E+00  0.00000000000E+00  0.18286031678E+04  0.18286031678E+04  0.00000000000E+00 0. -1.
         -1   -1    0    0    0  501 -0.00000000000E+00 -0.00000000000E+00 -0.10887093759E+04  0.10887093759E+04  0.00000000000E+00 0.  1.
         24    2    1    2    0    0 -0.84450974764E+02  0.57507568686E+03  0.15022621189E+04  0.16127685744E+04  0.79918633334E+02 0.  0.
        254    2    1    2    0    0  0.84450974764E+02 -0.57507568686E+03 -0.76236832706E+03  0.13045439692E+04  0.88475165365E+03 0.  0.
         23    2    4    4    0    0  0.29563243856E+03 -0.11091563868E+03  0.60978847986E+02  0.33171425362E+03  0.81333317416E+02 0.  0.
         23    2    4    4    0    0 -0.21118146379E+03 -0.46416004819E+03 -0.82334717504E+03  0.97282971555E+03  0.91950659707E+02 0.  0.
          4    1    3    3  502    0 -0.56820794350E+02  0.53248923391E+03  0.13537674374E+04  0.14558364130E+04  0.00000000000E+00 0. -1.
         -3    1    3    3    0  502 -0.27630180414E+02  0.42586452956E+02  0.14849468154E+03  0.15693216143E+03  0.00000000000E+00 0.  1.
         13    1    5    5    0    0  0.18669440503E+03 -0.11073080010E+03  0.37581902387E+02  0.22029187536E+03  0.00000000000E+00 0. -1.
        -13    1    5    5    0    0  0.10893803353E+03 -0.18483857153E+00  0.23396945599E+02  0.11142237826E+03  0.00000000000E+00 0.  1.
          1    1    6    6  503    0 -0.12298378319E+03 -0.25684733691E+03 -0.54329379611E+03  0.61340338628E+03  0.00000000000E+00 0. -1.
         -1    1    6    6    0  503 -0.88197680605E+02 -0.20731271128E+03 -0.28005337893E+03  0.35942632927E+03  0.00000000000E+00 0.  1.
<mgrwt>
<rscale>  0 0.28219266E+04</rscale>
<asrwt>0</asrwt>
<pdfrwt beam="1">  1        2 0.28132356E+00 0.28219266E+04</pdfrwt>
<pdfrwt beam="2">  1       -1 0.16749375E+00 0.28219266E+04</pdfrwt>
<totfact> 0.21115552E+00</totfact>
</mgrwt>
</event>
<event>
12    7  0.1660832E-007  0.1473368E+04  0.7818608E-02  0.8902358E-01
         -3   -1    0    0    0  501 -0.00000000000E+00  0.00000000000E+00  0.34153859542E+03  0.34153859542E+03  0.00000000000E+00 0.  1.
          2   -1    0    0  501    0  0.00000000000E+00 -0.00000000000E+00 -0.15889965885E+04  0.15889965885E+04  0.00000000000E+00 0. -1.
         24    2    1    2    0    0 -0.42103801766E+03  0.12004502116E+03 -0.56710097506E+03  0.72081487243E+03  0.79288996601E+02 0.  0.
        254    2    1    2    0    0  0.42103801766E+03 -0.12004502116E+03 -0.68035701798E+03  0.12097203115E+04  0.89936296377E+03 0.  0.
         23    2    4    4    0    0 -0.20960407110E+03 -0.18886381503E+03 -0.31887584670E+02  0.29808814431E+03  0.90754154028E+02 0.  0.
         23    2    4    4    0    0  0.63064208876E+03  0.68818793873E+02 -0.64846943331E+03  0.91163216715E+03  0.90084025960E+02 0.  0.
          4    1    3    3  502    0 -0.17938414839E+02  0.16123731445E+02 -0.11926306677E+02  0.26907215270E+02  0.00000000000E+00 0. -1.
         -3    1    3    3    0  502 -0.40309960282E+03  0.10392128971E+03 -0.55517466838E+03  0.69390765716E+03  0.00000000000E+00 0.  1.
         13    1    5    5    0    0 -0.55811587271E+02 -0.68302359202E+02 -0.50752479575E+02  0.10176423600E+03  0.00000000000E+00 0.  1.
        -13    1    5    5    0    0 -0.15379248383E+03 -0.12056145583E+03  0.18864894905E+02  0.19632390830E+03  0.00000000000E+00 0. -1.
          3    1    6    6  503    0  0.45651809164E+03  0.44430605492E+02 -0.40897542792E+03  0.61452725516E+03  0.00000000000E+00 0. -1.
         -3    1    6    6    0  503  0.17412399712E+03  0.24388188381E+02 -0.23949400539E+03  0.29710491198E+03  0.00000000000E+00 0.  1.
<mgrwt>
<rscale>  0 0.14733685E+04</rscale>
<asrwt>0</asrwt>
<pdfrwt beam="1">  1        2 0.24446101E+00 0.14733685E+04</pdfrwt>
<pdfrwt beam="2">  1       -3 0.52544400E-01 0.14733685E+04</pdfrwt>
<totfact> 0.25126070E+01</totfact>
</mgrwt>
</event>
<event>
12    7  0.1660832E-007  0.3024446E+04  0.7818608E-02  0.8236785E-01
          2   -1    0    0  501    0  0.00000000000E+00  0.00000000000E+00  0.10065288966E+04  0.10065288966E+04  0.00000000000E+00 0. -1.
         -1   -1    0    0    0  501 -0.00000000000E+00 -0.00000000000E+00 -0.22719845535E+04  0.22719845535E+04  0.00000000000E+00 0.  1.
         24    2    1    2    0    0  0.11048971124E+04  0.79140068513E+03 -0.34379951297E+03  0.14042095959E+04  0.80584183398E+02 0.  0.
        254    2    1    2    0    0 -0.11048971124E+04 -0.79140068513E+03 -0.92165614392E+03  0.18743038542E+04  0.90357745481E+03 0.  0.
         23    2    4    4    0    0 -0.28948994031E+03 -0.49428629291E+03  0.33677773093E+02  0.57998073058E+03  0.84380628913E+02 0.  0.
         23    2    4    4    0    0 -0.81540717207E+03 -0.29711439221E+03 -0.95533391701E+03  0.12943231236E+04  0.97178377230E+02 0.  0.
          2    1    3    3  502    0  0.10135767052E+04  0.73303367018E+03 -0.33772582929E+03  0.12956599996E+04  0.00000000000E+00 0. -1.
         -1    1    3    3    0  502  0.91320407219E+02  0.58367014944E+02 -0.60736836820E+01  0.10854959623E+03  0.00000000000E+00 0.  1.
         13    1    5    5    0    0 -0.16853434636E+03 -0.28163587319E+03  0.60947367779E+02  0.33382206729E+03  0.00000000000E+00 0. -1.
        -13    1    5    5    0    0 -0.12095559395E+03 -0.21265041973E+03 -0.27269594685E+02  0.24615866329E+03  0.00000000000E+00 0.  1.
          3    1    6    6  503    0 -0.45641304024E+03 -0.21680880627E+03 -0.54233371922E+03  0.74124542817E+03  0.00000000000E+00 0. -1.
         -3    1    6    6    0  503 -0.35899413183E+03 -0.80305585946E+02 -0.41300019779E+03  0.55307769545E+03  0.00000000000E+00 0.  1.
<mgrwt>
<rscale>  0 0.30244458E+04</rscale>
<asrwt>0</asrwt>
<pdfrwt beam="1">  1        2 0.15485060E+00 0.30244458E+04</pdfrwt>
<pdfrwt beam="2">  1       -1 0.34953608E+00 0.30244458E+04</pdfrwt>
<totfact> 0.37993593E-01</totfact>
</mgrwt>
</event>
<event>
12    7  0.1660832E-007  0.4728508E+04  0.7818608E-02  0.7871809E-01
          4   -1    0    0  501    0  0.00000000000E+00  0.00000000000E+00  0.14107392005E+04  0.14107392005E+04  0.00000000000E+00 0. -1.
         -3   -1    0    0    0  501 -0.00000000000E+00 -0.00000000000E+00 -0.39622464274E+04  0.39622464274E+04  0.00000000000E+00 0.  1.
         24    2    1    2    0    0  0.10310966353E+04  0.19961591573E+04 -0.16549954770E+04  0.27916082345E+04  0.79087631009E+02 0.  0.
        254    2    1    2    0    0 -0.10310966353E+04 -0.19961591573E+04 -0.89651174992E+03  0.25813773933E+04  0.90109060390E+03 0.  0.
         23    2    4    4    0    0  0.15077631398E+03 -0.32683430044E+03 -0.17436907837E+03  0.41012186435E+03  0.90781117682E+02 0.  0.
         23    2    4    4    0    0 -0.11818729493E+04 -0.16693248569E+04 -0.72214267154E+03  0.21712555290E+04  0.96909174362E+02 0.  0.
          2    1    3    3  502    0  0.43394534263E+03  0.80163680265E+03 -0.62858579071E+03  0.11072715205E+04  0.00000000000E+00 0. -1.
         -1    1    3    3    0  502  0.59715129265E+03  0.11945223547E+04 -0.10264096863E+04  0.16843367140E+04  0.00000000000E+00 0.  1.
         13    1    5    5    0    0  0.10043135219E+03 -0.17126067534E+03 -0.14026520929E+03  0.24308641336E+03  0.00000000000E+00 0. -1.
        -13    1    5    5    0    0  0.50344961785E+02 -0.15557362509E+03 -0.34103869083E+02  0.16703545099E+03  0.00000000000E+00 0.  1.
          1    1    6    6  503    0 -0.94449321165E+03 -0.13079826133E+04 -0.60793799890E+03  0.17240865854E+04  0.00000000000E+00 0. -1.
         -1    1    6    6    0  503 -0.23737973761E+03 -0.36134224360E+03 -0.11420467265E+03  0.44716894357E+03  0.00000000000E+00 0.  1.
<mgrwt>
<rscale>  0 0.47285077E+04</rscale>
<asrwt>0</asrwt>
<pdfrwt beam="1">  1        4 0.21703680E+00 0.47285077E+04</pdfrwt>
<pdfrwt beam="2">  1       -3 0.60957636E+00 0.47285077E+04</pdfrwt>
<totfact> 0.13704155E-04</totfact>
</mgrwt>
</event>
<event>
12    7  0.1660832E-007  0.2914371E+04  0.7818608E-02  0.8268615E-01
          2   -1    0    0  501    0  0.00000000000E+00  0.00000000000E+00  0.22471174237E+04  0.22471174237E+04  0.00000000000E+00 0. -1.
         -1   -1    0    0    0  501 -0.00000000000E+00 -0.00000000000E+00 -0.94493929033E+03  0.94493929033E+03  0.00000000000E+00 0.  1.
         24    2    1    2    0    0  0.31465676687E+03 -0.43672314977E+03  0.19054437881E+04  0.19815537365E+04  0.78122917961E+02 0.  0.
        254    2    1    2    0    0 -0.31465676687E+03  0.43672314977E+03 -0.60326565478E+03  0.12105029775E+04  0.90091732025E+03 0.  0.
         23    2    4    4    0    0 -0.30956317847E+03 -0.45631558346E+02  0.11056458329E+03  0.34410644611E+03  0.90956685277E+02 0.  0.
         23    2    4    4    0    0 -0.50935883978E+01  0.48235470812E+03 -0.71383023807E+03  0.86639653143E+03  0.91636956606E+02 0.  0.
          2    1    3    3  502    0  0.20201064438E+03 -0.23222268357E+03  0.11789696328E+04  0.12184847435E+04  0.00000000000E+00 0. -1.
         -1    1    3    3    0  502  0.11264612248E+03 -0.20450046621E+03  0.72647415537E+03  0.76306899295E+03  0.00000000000E+00 0.  1.
         13    1    5    5    0    0 -0.22287844836E+03  0.43558333620E+01  0.97059328900E+02  0.24313430312E+03  0.00000000000E+00 0. -1.
        -13    1    5    5    0    0 -0.86684730111E+02 -0.49987391708E+02  0.13505254386E+02  0.10097214299E+03  0.00000000000E+00 0.  1.
          2    1    6    6  503    0  0.13049755928E+01  0.47168963173E+03 -0.66050504002E+03  0.81164014165E+03  0.00000000000E+00 0. -1.
         -2    1    6    6    0  503 -0.63985639905E+01  0.10665076386E+02 -0.53325198049E+02  0.54756389786E+02  0.00000000000E+00 0.  1.
<mgrwt>
<rscale>  0 0.29143710E+04</rscale>
<asrwt>0</asrwt>
<pdfrwt beam="1">  1        2 0.34571037E+00 0.29143710E+04</pdfrwt>
<pdfrwt beam="2">  1       -1 0.14537528E+00 0.29143710E+04</pdfrwt>
<totfact> 0.18065176E+00</totfact>
</mgrwt>
</event>
<event>
12    7  0.1660832E-007  0.1314616E+04  0.7818608E-02  0.9018054E-01
         -1   -1    0    0    0  501 -0.00000000000E+00  0.00000000000E+00  0.64637852272E+03  0.64637852272E+03  0.00000000000E+00 0.  1.
          2   -1    0    0  501    0  0.00000000000E+00 -0.00000000000E+00 -0.66842278871E+03  0.66842278871E+03  0.00000000000E+00 0. -1.
         24    2    1    2    0    0 -0.78253939468E+02  0.18441346365E+03 -0.29271598570E+03  0.36253117831E+03  0.74927981055E+02 0.  0.
        254    2    1    2    0    0  0.78253939468E+02 -0.18441346365E+03  0.27067171971E+03  0.95227013312E+03  0.89074307292E+03 0.  0.
         23    2    4    4    0    0  0.25060116820E+03  0.15027323307E+03 -0.18276163224E+03  0.35572981214E+03  0.88084589708E+02 0.  0.
         23    2    4    4    0    0 -0.17234722873E+03 -0.33468669672E+03  0.45343335195E+03  0.59654032099E+03  0.92411025783E+02 0.  0.
          4    1    3    3  502    0 -0.30743054485E+02  0.14399196062E+03 -0.23633682169E+03  0.27844912176E+03  0.00000000000E+00 0. -1.
         -3    1    3    3    0  502 -0.47510884983E+02  0.40421503028E+02 -0.56379164004E+02  0.84082056544E+02  0.00000000000E+00 0.  1.
         13    1    5    5    0    0  0.19532504218E+03  0.91977538121E+02 -0.16910569278E+03  0.27424163606E+03  0.00000000000E+00 0. -1.
        -13    1    5    5    0    0  0.55276126021E+02  0.58295694946E+02 -0.13655939463E+02  0.81488176074E+02  0.00000000000E+00 0.  1.
          1    1    6    6  503    0 -0.63098655926E+02 -0.55434068231E+02  0.13620028752E+03  0.16001529496E+03  0.00000000000E+00 0. -1.
         -1    1    6    6    0  503 -0.10924857280E+03 -0.27925262849E+03  0.31723306443E+03  0.43652502602E+03  0.00000000000E+00 0.  1.
<mgrwt>
<rscale>  0 0.13146165E+04</rscale>
<asrwt>0</asrwt>
<pdfrwt beam="1">  1        2 0.10283427E+00 0.13146165E+04</pdfrwt>
<pdfrwt beam="2">  1       -1 0.99442850E-01 0.13146165E+04</pdfrwt>
<totfact> 0.46918403E+01</totfact>
</mgrwt>
</event>
<event>
12    7  0.1660832E-007  0.2791212E+04  0.7818608E-02  0.8306002E-01
         -1   -1    0    0    0  501 -0.00000000000E+00  0.00000000000E+00  0.91861788033E+03  0.91861788033E+03  0.00000000000E+00 0.  1.
          2   -1    0    0  501    0  0.00000000000E+00 -0.00000000000E+00 -0.21202681014E+04  0.21202681014E+04  0.00000000000E+00 0. -1.
         24    2    1    2    0    0  0.70603283256E+03  0.10298715477E+04 -0.58378240563E+03  0.13806966829E+04  0.80022919685E+02 0.  0.
        254    2    1    2    0    0 -0.70603283256E+03 -0.10298715477E+04 -0.61786781540E+03  0.16581892988E+04  0.89928490928E+03 0.  0.
         23    2    4    4    0    0 -0.90007963244E+02 -0.84737014465E+02  0.20709021440E+03  0.25760882405E+03  0.90521567934E+02 0.  0.
         23    2    4    4    0    0 -0.61602486932E+03 -0.94513453319E+03 -0.82495802981E+03  0.14005804748E+04  0.91126230535E+02 0.  0.
          4    1    3    3  502    0  0.33330548402E+03  0.55578434077E+03 -0.31019527216E+03  0.71847747773E+03  0.00000000000E+00 0. -1.
         -3    1    3    3    0  502  0.37272734854E+03  0.47408720688E+03 -0.27358713347E+03  0.66221920515E+03  0.00000000000E+00 0.  1.
         13    1    5    5    0    0 -0.46879797732E+02 -0.92679000557E+01  0.20958957704E+02  0.52181292767E+02  0.00000000000E+00 0.  1.
        -13    1    5    5    0    0 -0.43128165512E+02 -0.75469114410E+02  0.18613125670E+03  0.20542753129E+03  0.00000000000E+00 0. -1.
          3    1    6    6  503    0 -0.61387624823E+03 -0.91776779074E+03 -0.80926919864E+03  0.13689625275E+04  0.00000000000E+00 0. -1.
         -3    1    6    6    0  503 -0.21486210857E+01 -0.27366742448E+02 -0.15688831167E+02  0.31617947248E+02  0.00000000000E+00 0.  1.
<mgrwt>
<rscale>  0 0.27912121E+04</rscale>
<asrwt>0</asrwt>
<pdfrwt beam="1">  1        2 0.32619509E+00 0.27912121E+04</pdfrwt>
<pdfrwt beam="2">  1       -1 0.14132583E+00 0.27912121E+04</pdfrwt>
<totfact> 0.23182615E+00</totfact>
</mgrwt>
</event>
<event>
12    7  0.1660832E-007  0.1941357E+04  0.7818608E-02  0.8634540E-01
         -1   -1    0    0    0  501 -0.00000000000E+00  0.00000000000E+00  0.27250446938E+04  0.27250446938E+04  0.00000000000E+00 0.  1.
          2   -1    0    0  501    0  0.00000000000E+00 -0.00000000000E+00 -0.34576179126E+03  0.34576179126E+03  0.00000000000E+00 0. -1.
         24    2    1    2    0    0  0.67903593850E+02  0.43678920994E+03  0.19123563576E+04  0.19645777070E+04  0.84041754871E+02 0.  0.
        254    2    1    2    0    0 -0.67903593850E+02 -0.43678920994E+03  0.46692654500E+03  0.11062287781E+04  0.90018109236E+03 0.  0.
         23    2    4    4    0    0  0.13482390903E+03 -0.42072056980E+03  0.66801993465E+03  0.80628727087E+03  0.93087301926E+02 0.  0.
         23    2    4    4    0    0 -0.20272750288E+03 -0.16068640135E+02 -0.20109338965E+03  0.29994150720E+03  0.90386474438E+02 0.  0.
          2    1    3    3  502    0  0.69282364489E+02  0.28886270323E+03  0.14068871302E+04  0.14379058051E+04  0.00000000000E+00 0. -1.
         -3    1    3    3    0  502 -0.13787706398E+01  0.14792650670E+03  0.50546922735E+03  0.52667190185E+03  0.00000000000E+00 0.  1.
         13    1    5    5    0    0  0.10258501477E+03 -0.17772848502E+03  0.33338396379E+03  0.39147920373E+03  0.00000000000E+00 0. -1.
        -13    1    5    5    0    0  0.32238894261E+02 -0.24299208478E+03  0.33463597086E+03  0.41480806714E+03  0.00000000000E+00 0.  1.
          1    1    6    6  503    0 -0.30322075961E+02 -0.32644155593E+02 -0.18420217923E+02  0.48211758040E+02  0.00000000000E+00 0. -1.
         -1    1    6    6    0  503 -0.17240542692E+03  0.16575515458E+02 -0.18267317173E+03  0.25172974916E+03  0.00000000000E+00 0.  1.
<mgrwt>
<rscale>  0 0.19413566E+04</rscale>
<asrwt>0</asrwt>
<pdfrwt beam="1">  1        2 0.53194123E-01 0.19413566E+04</pdfrwt>
<pdfrwt beam="2">  1       -1 0.41923763E+00 0.19413566E+04</pdfrwt>
<totfact> 0.52871746E-01</totfact>
</mgrwt>
</event>
<event>
12    7  0.2168431E-007  0.2162760E+04  0.7818608E-02  0.8534090E-01
          2   -1    0    0  501    0  0.00000000000E+00  0.00000000000E+00  0.19829301616E+04  0.19829301616E+04  0.00000000000E+00 0. -1.
         -1   -1    0    0    0  501 -0.00000000000E+00 -0.00000000000E+00 -0.58972437784E+03  0.58972437784E+03  0.00000000000E+00 0.  1.
         24    2    1    2    0    0  0.50049311375E+02 -0.14619307821E+03 -0.46888616974E+03  0.50010884767E+03  0.79857809006E+02 0.  0.
        254    2    1    2    0    0 -0.50049311375E+02  0.14619307821E+03  0.18620919535E+04  0.20725456918E+04  0.89676187001E+03 0.  0.
         23    2    4    4    0    0  0.25324370804E+03 -0.24762489200E+03  0.49830053604E+03  0.61809208759E+03  0.91016161857E+02 0.  0.
         23    2    4    4    0    0 -0.30329301942E+03  0.39381797021E+03  0.13637914175E+04  0.14544536042E+04  0.91809624167E+02 0.  0.
          2    1    3    3  502    0 -0.34415491789E+01  0.62221736081E+01 -0.44585044568E+01  0.83927329966E+01  0.00000000000E+00 0. -1.
         -1    1    3    3    0  502  0.53490860554E+02 -0.15241525182E+03 -0.46442766528E+03  0.49171611468E+03  0.00000000000E+00 0.  1.
         13    1    5    5    0    0  0.42841262746E+02 -0.28721033187E+01  0.58016525085E+02  0.72177142879E+02  0.00000000000E+00 0. -1.
        -13    1    5    5    0    0  0.21040244530E+03 -0.24475278868E+03  0.44028401096E+03  0.54591494471E+03  0.00000000000E+00 0.  1.
          4    1    6    6  503    0 -0.61712150218E+02  0.62199371136E+02  0.15658853803E+03  0.17943556363E+03  0.00000000000E+00 0. -1.
         -4    1    6    6    0  503 -0.24158086920E+03  0.33161859907E+03  0.12072028795E+04  0.12750180406E+04  0.00000000000E+00 0.  1.
<mgrwt>
<rscale>  0 0.21627596E+04</rscale>
<asrwt>0</asrwt>
<pdfrwt beam="1">  1        2 0.30506617E+00 0.21627596E+04</pdfrwt>
<pdfrwt beam="2">  1       -1 0.90726829E-01 0.21627596E+04</pdfrwt>
<totfact> 0.84566520E+00</totfact>
</mgrwt>
</event>
<event>
12    7  0.1660832E-007  0.1902862E+04  0.7818608E-02  0.8653433E-01
         -1   -1    0    0    0  501 -0.00000000000E+00  0.00000000000E+00  0.68936015963E+03  0.68936015963E+03  0.00000000000E+00 0.  1.
          2   -1    0    0  501    0  0.00000000000E+00 -0.00000000000E+00 -0.13131319042E+04  0.13131319042E+04  0.00000000000E+00 0. -1.
         24    2    1    2    0    0  0.24669334683E+03 -0.70096428821E+03 -0.18448151585E+03  0.76991714951E+03  0.80811179346E+02 0.  0.
        254    2    1    2    0    0 -0.24669334683E+03  0.70096428821E+03 -0.43929022870E+03  0.12325749143E+04  0.87980479292E+03 0.  0.
         23    2    4    4    0    0  0.21469081067E+02 -0.15873374714E+03 -0.24412472136E+03  0.30657786115E+03  0.93465402403E+02 0.  0.
         23    2    4    4    0    0 -0.26816242789E+03  0.85969803535E+03 -0.19516550734E+03  0.92599705315E+03  0.91592398565E+02 0.  0.
          2    1    3    3  502    0  0.17147955974E+03 -0.45603806401E+03 -0.82478127301E+02  0.49414430759E+03  0.00000000000E+00 0. -1.
         -3    1    3    3    0  502  0.75213787085E+02 -0.24492622420E+03 -0.10200338855E+03  0.27577284192E+03  0.00000000000E+00 0.  1.
         13    1    5    5    0    0 -0.90493101107E+01  0.75511993779E+01 -0.31269449703E+01  0.12193785728E+02  0.00000000000E+00 0. -1.
        -13    1    5    5    0    0  0.30518391177E+02 -0.16628494652E+03 -0.24099777639E+03  0.29438407543E+03  0.00000000000E+00 0.  1.
          4    1    6    6  503    0 -0.42604920583E+02  0.15012737832E+03 -0.69816412183E+02  0.17096122481E+03  0.00000000000E+00 0. -1.
         -4    1    6    6    0  503 -0.22555750731E+03  0.70957065703E+03 -0.12534909516E+03  0.75503582834E+03  0.00000000000E+00 0.  1.
<mgrwt>
<rscale>  0 0.19028619E+04</rscale>
<asrwt>0</asrwt>
<pdfrwt beam="1">  1        2 0.20202029E+00 0.19028619E+04</pdfrwt>
<pdfrwt beam="2">  1       -1 0.10605541E+00 0.19028619E+04</pdfrwt>
<totfact> 0.14419535E+01</totfact>
</mgrwt>
</event>
<event>
12    7  0.1660832E-007  0.1585442E+04  0.7818608E-02  0.8829541E-01
          2   -1    0    0  501    0  0.00000000000E+00  0.00000000000E+00  0.13404661189E+04  0.13404661189E+04  0.00000000000E+00 0. -1.
         -1   -1    0    0    0  501 -0.00000000000E+00 -0.00000000000E+00 -0.46879734735E+03  0.46879734735E+03  0.00000000000E+00 0.  1.
         24    2    1    2    0    0 -0.11878592454E+03  0.42384865254E+02 -0.29458188885E+03  0.33032770221E+03  0.80195566848E+02 0.  0.
        254    2    1    2    0    0  0.11878592454E+03 -0.42384865254E+02  0.11662506604E+04  0.14789357640E+04  0.90066853979E+03 0.  0.
         23    2    4    4    0    0  0.62472378911E+02 -0.43722786874E+03  0.36942050757E+03  0.58306185125E+03  0.91752948962E+02 0.  0.
         23    2    4    4    0    0  0.56313545629E+02  0.39484300348E+03  0.79683015280E+03  0.89587391275E+03  0.92625926845E+02 0.  0.
          2    1    3    3  502    0 -0.11250741679E+03  0.50605281955E+02 -0.19864409962E+03  0.23383389769E+03  0.00000000000E+00 0. -1.
         -1    1    3    3    0  502 -0.62785077518E+01 -0.82204167008E+01 -0.95937789222E+02  0.96493804522E+02  0.00000000000E+00 0.  1.
         13    1    5    5    0    0  0.78354231363E+02 -0.37403755355E+03  0.28660566559E+03  0.47768848070E+03  0.00000000000E+00 0. -1.
        -13    1    5    5    0    0 -0.15881852452E+02 -0.63190315188E+02  0.82814841976E+02  0.10537337056E+03  0.00000000000E+00 0.  1.
          1    1    6    6  503    0 -0.11252923443E+02  0.24277699711E+03  0.46929857167E+03  0.52849640300E+03  0.00000000000E+00 0. -1.
         -1    1    6    6    0  503  0.67566469072E+02  0.15206600637E+03  0.32753158113E+03  0.36737750975E+03  0.00000000000E+00 0.  1.
<mgrwt>
<rscale>  0 0.15854425E+04</rscale>
<asrwt>0</asrwt>
<pdfrwt beam="1">  1        2 0.20622556E+00 0.15854425E+04</pdfrwt>
<pdfrwt beam="2">  1       -1 0.72122669E-01 0.15854425E+04</pdfrwt>
<totfact> 0.33240908E+01</totfact>
</mgrwt>
</event>
<event>
12    7  0.1660832E-007  0.3970593E+04  0.7818608E-02  0.8010505E-01
          2   -1    0    0  501    0  0.00000000000E+00  0.00000000000E+00  0.27733784089E+04  0.27733784089E+04  0.00000000000E+00 0. -1.
         -1   -1    0    0    0  501 -0.00000000000E+00 -0.00000000000E+00 -0.14211555372E+04  0.14211555372E+04  0.00000000000E+00 0.  1.
         24    2    1    2    0    0 -0.26162348631E+03 -0.14263205287E+04 -0.62802764467E+03  0.15823486488E+04  0.81064325412E+02 0.  0.
        254    2    1    2    0    0  0.26162348631E+03  0.14263205287E+04  0.19802505164E+04  0.26121852973E+04  0.89402618554E+03 0.  0.
         23    2    4    4    0    0  0.34939009809E+03  0.90982444571E+03  0.18029024249E+04  0.20515253183E+04  0.91896765651E+02 0.  0.
         23    2    4    4    0    0 -0.87766611782E+02  0.51649608296E+03  0.17734809154E+03  0.56065997893E+03  0.91739220304E+02 0.  0.
          2    1    3    3  502    0 -0.11821329050E+03 -0.85083804966E+03 -0.38696275740E+03  0.94214645593E+03  0.00000000000E+00 0. -1.
         -1    1    3    3    0  502 -0.14341019581E+03 -0.57548247901E+03 -0.24106488727E+03  0.64020219289E+03  0.00000000000E+00 0.  1.
         13    1    5    5    0    0  0.28073943096E+03  0.73365025720E+03  0.15246047173E+04  0.17150734305E+04  0.00000000000E+00 0. -1.
        -13    1    5    5    0    0  0.68650667134E+02  0.17617418851E+03  0.27829770757E+03  0.33645188784E+03  0.00000000000E+00 0.  1.
          3    1    6    6  503    0 -0.36494885719E+02  0.42828393612E+03  0.14234952710E+03  0.45279398681E+03  0.00000000000E+00 0. -1.
         -3    1    6    6    0  503 -0.51271726063E+02  0.88212146840E+02  0.34998564440E+02  0.10786599212E+03  0.00000000000E+00 0.  1.
<mgrwt>
<rscale>  0 0.39705929E+04</rscale>
<asrwt>0</asrwt>
<pdfrwt beam="1">  1        2 0.42667360E+00 0.39705929E+04</pdfrwt>
<pdfrwt beam="2">  1       -1 0.21863931E+00 0.39705929E+04</pdfrwt>
<totfact> 0.24221665E-01</totfact>
</mgrwt>
</event>
<event>
12    7  0.1660832E-007  0.1234619E+04  0.7818608E-02  0.9083083E-01
          2   -1    0    0  501    0  0.00000000000E+00  0.00000000000E+00  0.24059091175E+04  0.24059091175E+04  0.00000000000E+00 0. -1.
         -1   -1    0    0    0  501 -0.00000000000E+00 -0.00000000000E+00 -0.15838967839E+03  0.15838967839E+03  0.00000000000E+00 0.  1.
         24    2    1    2    0    0 -0.83917797818E+02 -0.19792739536E+03  0.15318089323E+03  0.27604320874E+03  0.80734233225E+02 0.  0.
        254    2    1    2    0    0  0.83917797818E+02  0.19792739536E+03  0.20943385459E+04  0.22882555872E+04  0.89646095104E+03 0.  0.
         23    2    4    4    0    0  0.47270841788E+02  0.49986363294E+03  0.75204385254E+03  0.90886747370E+03  0.91498331066E+02 0.  0.
         23    2    4    4    0    0  0.36646956030E+02 -0.30193623757E+03  0.13422946934E+04  0.13793881135E+04  0.91913180799E+02 0.  0.
          4    1    3    3  502    0  0.54814957238E+00 -0.21405615576E+02  0.50933688223E+02  0.55251619362E+02  0.00000000000E+00 0. -1.
         -3    1    3    3    0  502 -0.84465947390E+02 -0.17652177979E+03  0.10224720501E+03  0.22079158938E+03  0.00000000000E+00 0.  1.
         13    1    5    5    0    0 -0.20516040915E+02  0.99477025315E+02  0.11533833980E+03  0.15368643118E+03  0.00000000000E+00 0. -1.
        -13    1    5    5    0    0  0.67786882703E+02  0.40038660762E+03  0.63670551274E+03  0.75518104252E+03  0.00000000000E+00 0.  1.
          1    1    6    6  503    0  0.96281371509E+01 -0.17212002765E+02  0.23243251987E+03  0.23326772249E+03  0.00000000000E+00 0. -1.
         -1    1    6    6    0  503  0.27018818879E+02 -0.28472423481E+03  0.11098621735E+04  0.11461203910E+04  0.00000000000E+00 0.  1.
<mgrwt>
<rscale>  0 0.12346192E+04</rscale>
<asrwt>0</asrwt>
<pdfrwt beam="1">  1        2 0.37013984E+00 0.12346192E+04</pdfrwt>
<pdfrwt beam="2">  1       -1 0.24367645E-01 0.12346192E+04</pdfrwt>
<totfact> 0.65045167E+01</totfact>
</mgrwt>
</event>
<event>
12    7  0.1660832E-007  0.1444981E+04  0.7818608E-02  0.8921887E-01
          2   -1    0    0  501    0  0.00000000000E+00  0.00000000000E+00  0.21004787755E+04  0.21004787755E+04  0.00000000000E+00 0. -1.
         -1   -1    0    0    0  501 -0.00000000000E+00 -0.00000000000E+00 -0.24851125483E+03  0.24851125483E+03  0.00000000000E+00 0.  1.
         24    2    1    2    0    0 -0.15309402376E+03 -0.31367620477E+03  0.95956028448E+03  0.10243397941E+04  0.81765107061E+02 0.  0.
        254    2    1    2    0    0  0.15309402376E+03  0.31367620477E+03  0.89240723614E+03  0.13246502362E+04  0.91459118270E+03 0.  0.
         23    2    4    4    0    0 -0.17735618497E+02 -0.25312888256E+03  0.25777382780E+02  0.27138518330E+03  0.92718180013E+02 0.  0.
         23    2    4    4    0    0  0.17082964226E+03  0.56680508733E+03  0.86662985336E+03  0.10532650528E+04  0.88708483862E+02 0.  0.
          4    1    3    3  502    0 -0.65909236266E+02 -0.17370549135E+03  0.40105238080E+03  0.44199619602E+03  0.00000000000E+00 0. -1.
         -3    1    3    3    0  502 -0.87184787496E+02 -0.13997071343E+03  0.55850790368E+03  0.58234359811E+03  0.00000000000E+00 0.  1.
         13    1    5    5    0    0  0.33864422345E+02 -0.73975429001E+02  0.24419158481E+02  0.84943854973E+02  0.00000000000E+00 0. -1.
        -13    1    5    5    0    0 -0.51600040842E+02 -0.17915345356E+03  0.13582242989E+01  0.18644132833E+03  0.00000000000E+00 0.  1.
          4    1    6    6  503    0  0.29019659024E+02  0.21831801715E+03  0.27799513228E+03  0.35466348952E+03  0.00000000000E+00 0. -1.
         -4    1    6    6    0  503  0.14180998323E+03  0.34848707019E+03  0.58863472108E+03  0.69860156333E+03  0.00000000000E+00 0.  1.
<mgrwt>
<rscale>  0 0.14449811E+04</rscale>
<asrwt>0</asrwt>
<pdfrwt beam="1">  1        2 0.32315057E+00 0.14449811E+04</pdfrwt>
<pdfrwt beam="2">  1       -1 0.38232502E-01 0.14449811E+04</pdfrwt>
<totfact> 0.42961615E+01</totfact>
</mgrwt>
</event>
<event>
12    7  0.1660832E-007  0.1147379E+04  0.7818608E-02  0.9160205E-01
         -1   -1    0    0    0  501 -0.00000000000E+00  0.00000000000E+00  0.33694550782E+03  0.33694550782E+03  0.00000000000E+00 0.  1.
          2   -1    0    0  501    0  0.00000000000E+00 -0.00000000000E+00 -0.97677480944E+03  0.97677480944E+03  0.00000000000E+00 0. -1.
         24    2    1    2    0    0  0.16772136917E+03  0.13552158782E+03 -0.76386247829E+02  0.24217734743E+03  0.79488680372E+02 0.  0.
        254    2    1    2    0    0 -0.16772136917E+03 -0.13552158782E+03 -0.56344305379E+03  0.10715429698E+04  0.88557309292E+03 0.  0.
         23    2    4    4    0    0 -0.11679450795E+03 -0.27149919952E+03  0.14580081580E+03  0.34200824728E+03  0.91427517168E+02 0.  0.
         23    2    4    4    0    0 -0.50926861218E+02  0.13597761170E+03 -0.70924386959E+03  0.72953472256E+03  0.90058807383E+02 0.  0.
          4    1    3    3  502    0  0.92365985744E+02  0.71460416521E+02 -0.82655666510E+02  0.14307349740E+03  0.00000000000E+00 0. -1.
         -3    1    3    3    0  502  0.75355383428E+02  0.64061171297E+02  0.62694186810E+01  0.99103850026E+02  0.00000000000E+00 0.  1.
         13    1    5    5    0    0 -0.81115763792E+02 -0.99259454289E+02  0.30743162185E+02  0.13182317104E+03  0.00000000000E+00 0.  1.
        -13    1    5    5    0    0 -0.35678744161E+02 -0.17223974523E+03  0.11505765361E+03  0.21018507625E+03  0.00000000000E+00 0. -1.
          1    1    6    6  503    0 -0.48137096963E+02  0.18388114981E+02 -0.17134445843E+03  0.17892519753E+03  0.00000000000E+00 0. -1.
         -1    1    6    6    0  503 -0.27897642553E+01  0.11758949672E+03 -0.53789941116E+03  0.55060952502E+03  0.00000000000E+00 0.  1.
<mgrwt>
<rscale>  0 0.11473794E+04</rscale>
<asrwt>0</asrwt>
<pdfrwt beam="1">  1        2 0.15027305E+00 0.11473794E+04</pdfrwt>
<pdfrwt beam="2">  1       -1 0.51837771E-01 0.11473794E+04</pdfrwt>
<totfact> 0.11028277E+02</totfact>
</mgrwt>
</event>
<event>
12    7  0.1660832E-007  0.1148929E+04  0.7818608E-02  0.9158772E-01
         -1   -1    0    0    0  501 -0.00000000000E+00  0.00000000000E+00  0.34485876939E+03  0.34485876939E+03  0.00000000000E+00 0.  1.
          2   -1    0    0  501    0  0.00000000000E+00 -0.00000000000E+00 -0.95694149850E+03  0.95694149850E+03  0.00000000000E+00 0. -1.
         24    2    1    2    0    0 -0.35054476252E+02 -0.17965360421E+03 -0.39346922348E+01  0.19988740007E+03  0.80220054184E+02 0.  0.
        254    2    1    2    0    0  0.35054476252E+02  0.17965360421E+03 -0.60814803687E+03  0.11019128678E+04  0.90047970531E+03 0.  0.
         23    2    4    4    0    0  0.15529197659E+03 -0.33000498748E+03 -0.16934455814E+03  0.41261774238E+03  0.92503687485E+02 0.  0.
         23    2    4    4    0    0 -0.12023750034E+03  0.50965859170E+03 -0.43880347873E+03  0.68929512543E+03  0.91489564507E+02 0.  0.
          2    1    3    3  502    0 -0.31274630129E+02 -0.18659903448E+03  0.32119850666E+01  0.18922901207E+03  0.00000000000E+00 0. -1.
         -1    1    3    3    0  502 -0.37798461227E+01  0.69454302734E+01 -0.71466773014E+01  0.10658388004E+02  0.00000000000E+00 0.  1.
         13    1    5    5    0    0  0.10968147685E+03 -0.16271860574E+03 -0.12823733029E+03  0.23441882155E+03  0.00000000000E+00 0. -1.
        -13    1    5    5    0    0  0.45610499748E+02 -0.16728638174E+03 -0.41107227849E+02  0.17819892083E+03  0.00000000000E+00 0.  1.
          2    1    6    6  503    0 -0.11521727849E+03  0.50127130040E+03 -0.44284357884E+03  0.67871818392E+03  0.00000000000E+00 0. -1.
         -2    1    6    6    0  503 -0.50202218550E+01  0.83872912971E+01  0.40401001071E+01  0.10576941507E+02  0.00000000000E+00 0.  1.
<mgrwt>
<rscale>  0 0.11489294E+04</rscale>
<asrwt>0</asrwt>
<pdfrwt beam="1">  1        2 0.14722177E+00 0.11489294E+04</pdfrwt>
<pdfrwt beam="2">  1       -1 0.53055195E-01 0.11489294E+04</pdfrwt>
<totfact> 0.10866385E+02</totfact>
</mgrwt>
</event>
<event>
12    7  0.1660832E-007  0.1990393E+04  0.7818608E-02  0.8611126E-01
          2   -1    0    0  501    0  0.00000000000E+00  0.00000000000E+00  0.25224017065E+04  0.25224017065E+04  0.00000000000E+00 0. -1.
         -1   -1    0    0    0  501 -0.00000000000E+00 -0.00000000000E+00 -0.39264784081E+03  0.39264784081E+03  0.00000000000E+00 0.  1.
         24    2    1    2    0    0 -0.36743341160E+03  0.17062270753E+03  0.18539696882E+04  0.18995307297E+04  0.83029923115E+02 0.  0.
        254    2    1    2    0    0  0.36743341160E+03 -0.17062270753E+03  0.27578417745E+03  0.10155188175E+04  0.88943922555E+03 0.  0.
         23    2    4    4    0    0  0.36893454579E+03 -0.50168380350E+03  0.12581278566E+03  0.64198407491E+03  0.92278695453E+02 0.  0.
         23    2    4    4    0    0 -0.15011341853E+01  0.33106109597E+03  0.14997139179E+03  0.37353474262E+03  0.86215328810E+02 0.  0.
          2    1    3    3  502    0 -0.24883074315E+03  0.71551979291E+02  0.11420587728E+04  0.11710399930E+04  0.00000000000E+00 0. -1.
         -1    1    3    3    0  502 -0.11860266845E+03  0.99070728238E+02  0.71191091537E+03  0.72849073678E+03  0.00000000000E+00 0.  1.
         13    1    5    5    0    0  0.29158088969E+03 -0.44198777398E+03  0.85844551499E+02  0.53641578519E+03  0.00000000000E+00 0. -1.
        -13    1    5    5    0    0  0.77353656103E+02 -0.59696029520E+02  0.39968234165E+02  0.10556828972E+03  0.00000000000E+00 0.  1.
          3    1    6    6  503    0 -0.29825043997E+02  0.68516719673E+02  0.12293524828E+02  0.75731135452E+02  0.00000000000E+00 0.  1.
         -3    1    6    6    0  503  0.28323909812E+02  0.26254437630E+03  0.13767786696E+03  0.29780360717E+03  0.00000000000E+00 0. -1.
<mgrwt>
<rscale>  0 0.19903925E+04</rscale>
<asrwt>0</asrwt>
<pdfrwt beam="1">  1        2 0.38806179E+00 0.19903925E+04</pdfrwt>
<pdfrwt beam="2">  1       -1 0.60407362E-01 0.19903925E+04</pdfrwt>
<totfact> 0.99429383E+00</totfact>
</mgrwt>
</event>
<event>
12    7  0.1660832E-007  0.1512709E+04  0.7818608E-02  0.8876045E-01
         -1   -1    0    0    0  501 -0.00000000000E+00  0.00000000000E+00  0.23569207413E+03  0.23569207413E+03  0.00000000000E+00 0.  1.
          2   -1    0    0  501    0  0.00000000000E+00 -0.00000000000E+00 -0.24272018945E+04  0.24272018945E+04  0.00000000000E+00 0. -1.
         24    2    1    2    0    0  0.14351370053E+03  0.31870428425E+03 -0.12711239706E+04  0.13207620804E+04  0.80546392083E+02 0.  0.
        254    2    1    2    0    0 -0.14351370053E+03 -0.31870428425E+03 -0.92038584974E+03  0.13421318882E+04  0.91216187706E+03 0.  0.
         23    2    4    4    0    0 -0.17794951048E+03 -0.61202480867E+03 -0.75584126507E+03  0.99314481916E+03  0.93809483194E+02 0.  0.
         23    2    4    4    0    0  0.34435809955E+02  0.29332052441E+03 -0.16454458467E+03  0.34898706907E+03  0.86569619289E+02 0.  0.
          2    1    3    3  502    0  0.14588409891E+03  0.32052922254E+03 -0.12693221135E+04  0.13172698208E+04  0.00000000000E+00 0. -1.
         -1    1    3    3    0  502 -0.23703983853E+01 -0.18249382864E+01 -0.18018570776E+01  0.34922596098E+01  0.00000000000E+00 0.  1.
         13    1    5    5    0    0 -0.83379164291E+02 -0.15398216417E+03 -0.23607253969E+03  0.29392658253E+03  0.00000000000E+00 0. -1.
        -13    1    5    5    0    0 -0.94570346192E+02 -0.45804264450E+03 -0.51976872538E+03  0.69921823663E+03  0.00000000000E+00 0.  1.
          4    1    6    6  503    0  0.63070290170E+02  0.20432588560E+03 -0.12293474896E+03  0.24665741734E+03  0.00000000000E+00 0.  1.
         -4    1    6    6    0  503 -0.28634480215E+02  0.88994638807E+02 -0.41609835710E+02  0.10232965172E+03  0.00000000000E+00 0. -1.
<mgrwt>
<rscale>  0 0.15127092E+04</rscale>
<asrwt>0</asrwt>
<pdfrwt beam="1">  1        2 0.37341569E+00 0.15127092E+04</pdfrwt>
<pdfrwt beam="2">  1       -1 0.36260318E-01 0.15127092E+04</pdfrwt>
<totfact> 0.30764964E+01</totfact>
</mgrwt>
</event>
<event>
12    7  0.1660832E-007  0.1813601E+04  0.7818608E-02  0.8699100E-01
         -1   -1    0    0    0  501 -0.00000000000E+00  0.00000000000E+00  0.30744500872E+03  0.30744500872E+03  0.00000000000E+00 0.  1.
          2   -1    0    0  501    0  0.00000000000E+00 -0.00000000000E+00 -0.26745818147E+04  0.26745818147E+04  0.00000000000E+00 0. -1.
         24    2    1    2    0    0  0.25684276819E+03  0.76629567305E+02  0.13167480281E+03  0.30934312732E+03  0.80713187075E+02 0.  0.
        254    2    1    2    0    0 -0.25684276819E+03 -0.76629567305E+02 -0.24988116087E+04  0.26726836961E+04  0.90958143399E+03 0.  0.
         23    2    4    4    0    0  0.31884415445E+03  0.58236813036E+02 -0.69905743806E+03  0.77596793383E+03  0.91606830571E+02 0.  0.
         23    2    4    4    0    0 -0.57568692263E+03 -0.13486638034E+03 -0.17997541707E+04  0.18967157622E+04  0.93868175542E+02 0.  0.
          2    1    3    3  502    0  0.34250356791E+02  0.20284210324E+02 -0.79752545667E+01  0.40597300578E+02  0.00000000000E+00 0. -1.
         -1    1    3    3    0  502  0.22259241140E+03  0.56345356981E+02  0.13965005738E+03  0.26874582674E+03  0.00000000000E+00 0.  1.
         13    1    5    5    0    0  0.62885935440E+02 -0.21756355380E+02 -0.17630193186E+03  0.18844190365E+03  0.00000000000E+00 0. -1.
        -13    1    5    5    0    0  0.25595821901E+03  0.79993168416E+02 -0.52275550620E+03  0.58752603017E+03  0.00000000000E+00 0.  1.
          3    1    6    6  503    0 -0.74939276888E+02 -0.17548019370E+02 -0.35218230667E+03  0.36049439016E+03  0.00000000000E+00 0. -1.
         -3    1    6    6    0  503 -0.50074764574E+03 -0.11731836097E+03 -0.14475718640E+04  0.15362213721E+04  0.00000000000E+00 0.  1.
<mgrwt>
<rscale>  0 0.18136006E+04</rscale>
<asrwt>0</asrwt>
<pdfrwt beam="1">  1        2 0.41147414E+00 0.18136006E+04</pdfrwt>
<pdfrwt beam="2">  1       -1 0.47299231E-01 0.18136006E+04</pdfrwt>
<totfact> 0.13190776E+01</totfact>
</mgrwt>
</event>
<event>
12    7  0.1660832E-007  0.2115038E+04  0.7818608E-02  0.8554648E-01
         -1   -1    0    0    0  501 -0.00000000000E+00  0.00000000000E+00  0.12108519548E+04  0.12108519548E+04  0.00000000000E+00 0.  1.
          2   -1    0    0  501    0  0.00000000000E+00 -0.00000000000E+00 -0.92360252989E+03  0.92360252989E+03  0.00000000000E+00 0. -1.
         24    2    1    2    0    0 -0.18431455518E+03  0.61878366903E+03 -0.45440570217E+03  0.79352251681E+03  0.79550978628E+02 0.  0.
        254    2    1    2    0    0  0.18431455518E+03 -0.61878366903E+03  0.74165512704E+03  0.13409319678E+04  0.91169135708E+03 0.  0.
         23    2    4    4    0    0  0.15660778734E+03 -0.49776967980E+03  0.94649066816E+03  0.10843214593E+04  0.87222640609E+02 0.  0.
         23    2    4    4    0    0  0.27706767846E+02 -0.12101398923E+03 -0.20483554112E+03  0.25661050852E+03  0.92083134183E+02 0.  0.
          2    1    3    3  502    0 -0.12548480520E+03  0.49411559221E+03 -0.38713402563E+03  0.64013233679E+03  0.00000000000E+00 0. -1.
         -1    1    3    3    0  502 -0.58829749981E+02  0.12466807682E+03 -0.67271676539E+02  0.15339018002E+03  0.00000000000E+00 0.  1.
         13    1    5    5    0    0  0.12489297723E+03 -0.38852330887E+03  0.80704001260E+03  0.90435734045E+03  0.00000000000E+00 0. -1.
        -13    1    5    5    0    0  0.31714810103E+02 -0.10924637093E+03  0.13945065556E+03  0.17996411886E+03  0.00000000000E+00 0.  1.
          4    1    6    6  503    0  0.32295312616E+02 -0.19504025233E+02 -0.11482259663E+03  0.12086199947E+03  0.00000000000E+00 0.  1.
         -4    1    6    6    0  503 -0.45885447700E+01 -0.10150996400E+03 -0.90012944484E+02  0.13574850905E+03  0.00000000000E+00 0. -1.
<mgrwt>
<rscale>  0 0.21150375E+04</rscale>
<asrwt>0</asrwt>
<pdfrwt beam="1">  1        2 0.14209270E+00 0.21150375E+04</pdfrwt>
<pdfrwt beam="2">  1       -1 0.18628492E+00 0.21150375E+04</pdfrwt>
<totfact> 0.55706580E+00</totfact>
</mgrwt>
</event>
<event>
12    7  0.1660832E-007  0.2185835E+04  0.7818608E-02  0.8524347E-01
         -1   -1    0    0    0  501 -0.00000000000E+00  0.00000000000E+00  0.17180091367E+04  0.17180091367E+04  0.00000000000E+00 0.  1.
          2   -1    0    0  501    0  0.00000000000E+00 -0.00000000000E+00 -0.69526342565E+03  0.69526342565E+03  0.00000000000E+00 0. -1.
         24    2    1    2    0    0 -0.39221721982E+03 -0.51214071345E+03 -0.27687950424E+03  0.70622752925E+03  0.77282632586E+02 0.  0.
        254    2    1    2    0    0  0.39221721982E+03  0.51214071345E+03  0.12996252152E+04  0.17070450331E+04  0.89936343426E+03 0.  0.
         23    2    4    4    0    0 -0.20519905195E+03 -0.72654917526E+02  0.14071710940E+03  0.27543297173E+03  0.93148424970E+02 0.  0.
         23    2    4    4    0    0  0.59741627177E+03  0.58479563098E+03  0.11589081058E+04  0.14316120613E+04  0.86907793397E+02 0.  0.
          2    1    3    3  502    0 -0.11903270559E+03 -0.14654907781E+03 -0.43994232205E+02  0.19385796263E+03  0.00000000000E+00 0. -1.
         -1    1    3    3    0  502 -0.27318451423E+03 -0.36559163565E+03 -0.23288527203E+03  0.51236956662E+03  0.00000000000E+00 0.  1.
         13    1    5    5    0    0 -0.11522277107E+02 -0.40993142781E+01 -0.13741807329E+02  0.18395774405E+02  0.00000000000E+00 0. -1.
        -13    1    5    5    0    0 -0.19367677485E+03 -0.68555603248E+02  0.15445891673E+03  0.25703719733E+03  0.00000000000E+00 0.  1.
          2    1    6    6  503    0  0.13408876816E+03  0.87805956735E+02  0.24576262053E+03  0.29340918431E+03  0.00000000000E+00 0. -1.
         -2    1    6    6    0  503  0.46332750361E+03  0.49698967425E+03  0.91314548531E+03  0.11382028770E+04  0.00000000000E+00 0.  1.
<mgrwt>
<rscale>  0 0.21858352E+04</rscale>
<asrwt>0</asrwt>
<pdfrwt beam="1">  1        2 0.10696360E+00 0.21858352E+04</pdfrwt>
<pdfrwt beam="2">  1       -1 0.26430910E+00 0.21858352E+04</pdfrwt>
<totfact> 0.24282280E+00</totfact>
</mgrwt>
</event>
<event>
12    7  0.1660832E-007  0.2273114E+04  0.7818608E-02  0.8488598E-01
         -1   -1    0    0    0  501 -0.00000000000E+00  0.00000000000E+00  0.60047255531E+03  0.60047255531E+03  0.00000000000E+00 0.  1.
          2   -1    0    0  501    0  0.00000000000E+00 -0.00000000000E+00 -0.21512429104E+04  0.21512429104E+04  0.00000000000E+00 0. -1.
         24    2    1    2    0    0 -0.22199325232E+03 -0.28653521913E+03  0.41536793029E+03  0.55660516608E+03  0.76781231542E+02 0.  0.
        254    2    1    2    0    0  0.22199325232E+03  0.28653521913E+03 -0.19661382853E+04  0.21951102996E+04  0.90632556758E+03 0.  0.
         23    2    4    4    0    0  0.33484306828E+03  0.49308181116E+03 -0.17863401016E+04  0.18852940357E+04  0.89850374348E+02 0.  0.
         23    2    4    4    0    0 -0.11284981596E+03 -0.20654659203E+03 -0.17979818379E+03  0.30981626390E+03  0.90896396188E+02 0.  0.
          2    1    3    3  502    0 -0.16061127878E+03 -0.14940539067E+03  0.26550889638E+03  0.34440227596E+03  0.00000000000E+00 0. -1.
         -1    1    3    3    0  502 -0.61381973539E+02 -0.13712982846E+03  0.14985903391E+03  0.21220289012E+03  0.00000000000E+00 0.  1.
         13    1    5    5    0    0  0.33092251948E+03  0.48756251928E+03 -0.17827906208E+04  0.18776499465E+04  0.00000000000E+00 0. -1.
        -13    1    5    5    0    0  0.39205488034E+01  0.55192918723E+01 -0.35494807657E+01  0.76440891804E+01  0.00000000000E+00 0.  1.
          1    1    6    6  503    0 -0.96691188078E+02 -0.15539309673E+03 -0.87039695173E+02  0.20266254932E+03  0.00000000000E+00 0. -1.
         -1    1    6    6    0  503 -0.16158627884E+02 -0.51153495305E+02 -0.92758488618E+02  0.10715371458E+03  0.00000000000E+00 0.  1.
<mgrwt>
<rscale>  0 0.22731145E+04</rscale>
<asrwt>0</asrwt>
<pdfrwt beam="1">  1        2 0.33096045E+00 0.22731145E+04</pdfrwt>
<pdfrwt beam="2">  1       -1 0.92380392E-01 0.22731145E+04</pdfrwt>
<totfact> 0.64821667E+00</totfact>
</mgrwt>
</event>
<event>
12    7  0.1660832E-007  0.1761588E+04  0.7818608E-02  0.8726997E-01
         -1   -1    0    0    0  501 -0.00000000000E+00  0.00000000000E+00  0.26451868051E+03  0.26451868051E+03  0.00000000000E+00 0.  1.
          2   -1    0    0  501    0  0.00000000000E+00 -0.00000000000E+00 -0.29328673835E+04  0.29328673835E+04  0.00000000000E+00 0. -1.
         24    2    1    2    0    0  0.82317389708E+01  0.14259630551E+02  0.18120369746E+03  0.19889279466E+03  0.80327238234E+02 0.  0.
        254    2    1    2    0    0 -0.82317389708E+01 -0.14259630551E+02 -0.28495524005E+04  0.29984932694E+04  0.93313552327E+03 0.  0.
         23    2    4    4    0    0  0.25976916555E+03  0.16847243487E+02 -0.22612034063E+03  0.35958851518E+03  0.10202765713E+03 0.  0.
         23    2    4    4    0    0 -0.26800090452E+03 -0.31106874038E+02 -0.26234320598E+04  0.26389047542E+04  0.92899981742E+02 0.  0.
          2    1    3    3  502    0  0.39275493832E+01 -0.24139363185E+02  0.15988295854E+02  0.29219173559E+02  0.00000000000E+00 0. -1.
         -3    1    3    3    0  502  0.43041895875E+01  0.38398993736E+02  0.16521540161E+03  0.16967362110E+03  0.00000000000E+00 0.  1.
         13    1    5    5    0    0  0.18377936439E+03  0.30986667549E+02 -0.99578356644E+02  0.21130754235E+03  0.00000000000E+00 0. -1.
        -13    1    5    5    0    0  0.75989801161E+02 -0.14139424062E+02 -0.12654198399E+03  0.14828097284E+03  0.00000000000E+00 0.  1.
          3    1    6    6  503    0 -0.12623287557E+03 -0.37580251071E+02 -0.16407857713E+04  0.16460634743E+04  0.00000000000E+00 0. -1.
         -3    1    6    6    0  503 -0.14176802895E+03  0.64733770325E+01 -0.98264628859E+03  0.99284127993E+03  0.00000000000E+00 0.  1.
<mgrwt>
<rscale>  0 0.17615882E+04</rscale>
<asrwt>0</asrwt>
<pdfrwt beam="1">  1        2 0.45121035E+00 0.17615882E+04</pdfrwt>
<pdfrwt beam="2">  1       -1 0.40695183E-01 0.17615882E+04</pdfrwt>
<totfact> 0.12244327E+01</totfact>
</mgrwt>
</event>
<event>
12    7  0.1660832E-007  0.1733233E+04  0.7818608E-02  0.8742634E-01
         -1   -1    0    0    0  501 -0.00000000000E+00  0.00000000000E+00  0.29528502508E+03  0.29528502508E+03  0.00000000000E+00 0.  1.
          2   -1    0    0  501    0  0.00000000000E+00 -0.00000000000E+00 -0.25433872190E+04  0.25433872190E+04  0.00000000000E+00 0. -1.
         24    2    1    2    0    0 -0.39729582166E+01 -0.74454578164E+02 -0.18125730745E+04  0.18159189628E+04  0.81124968582E+02 0.  0.
        254    2    1    2    0    0  0.39729582166E+01  0.74454578164E+02 -0.43552911943E+03  0.10227532813E+04  0.92237703346E+03 0.  0.
         23    2    4    4    0    0 -0.37532176925E+02 -0.38086640512E+03 -0.13522473742E+02  0.39402289019E+03  0.92753964048E+02 0.  0.
         23    2    4    4    0    0  0.41505135141E+02  0.45532098328E+03 -0.42200664569E+03  0.62873039107E+03  0.90401446847E+02 0.  0.
          4    1    3    3  502    0  0.26081596675E+02 -0.71452389053E+02 -0.10519357748E+04  0.10546822118E+04  0.00000000000E+00 0. -1.
         -3    1    3    3    0  502 -0.30054554891E+02 -0.30021891111E+01 -0.76063729970E+03  0.76123675102E+03  0.00000000000E+00 0.  1.
         13    1    5    5    0    0 -0.46008703762E+02 -0.36116085199E+03 -0.32305941927E+02  0.36551010344E+03  0.00000000000E+00 0. -1.
        -13    1    5    5    0    0  0.84765268372E+01 -0.19705553125E+02  0.18783468185E+02  0.28512786750E+02  0.00000000000E+00 0.  1.
          2    1    6    6  503    0  0.46508717030E+02  0.45747375092E+03 -0.41232784865E+03  0.61762411571E+03  0.00000000000E+00 0. -1.
         -2    1    6    6    0  503 -0.50035818885E+01 -0.21527676358E+01 -0.96787970412E+01  0.11106275360E+02  0.00000000000E+00 0.  1.
<mgrwt>
<rscale>  0 0.17332330E+04</rscale>
<asrwt>0</asrwt>
<pdfrwt beam="1">  1        2 0.39129035E+00 0.17332330E+04</pdfrwt>
<pdfrwt beam="2">  1       -1 0.45428465E-01 0.17332330E+04</pdfrwt>
<totfact> 0.17106689E+01</totfact>
</mgrwt>
</event>
<event>
12    7  0.1660832E-007  0.3736463E+04  0.7818608E-02  0.8059929E-01
         -1   -1    0    0    0  501 -0.00000000000E+00  0.00000000000E+00  0.10628099615E+04  0.10628099615E+04  0.00000000000E+00 0.  1.
          2   -1    0    0  501    0  0.00000000000E+00 -0.00000000000E+00 -0.32840192593E+04  0.32840192593E+04  0.00000000000E+00 0. -1.
         24    2    1    2    0    0  0.14009833667E+04 -0.71833639443E+03 -0.19661626999E+04  0.25201100021E+04  0.79981817286E+02 0.  0.
        254    2    1    2    0    0 -0.14009833667E+04  0.71833639443E+03 -0.25504659790E+03  0.18267192187E+04  0.89055755994E+03 0.  0.
         23    2    4    4    0    0 -0.12948645126E+04  0.27224690016E+03 -0.29066824852E+03  0.13578039709E+04  0.91384419263E+02 0.  0.
         23    2    4    4    0    0 -0.10611885408E+03  0.44608949428E+03  0.35621650616E+02  0.46891524779E+03  0.91408749700E+02 0.  0.
          4    1    3    3  502    0  0.57261863648E+03 -0.25989904583E+03 -0.82520227215E+03  0.10374962201E+04  0.00000000000E+00 0. -1.
         -3    1    3    3    0  502  0.82836473019E+03 -0.45843734860E+03 -0.11409604278E+04  0.14826137820E+04  0.00000000000E+00 0.  1.
         13    1    5    5    0    0 -0.46388735924E+03  0.54639271958E+02 -0.90168434885E+02  0.47571764604E+03  0.00000000000E+00 0.  1.
        -13    1    5    5    0    0 -0.83097715335E+03  0.21760762820E+03 -0.20049981363E+03  0.88208632486E+03  0.00000000000E+00 0. -1.
          2    1    6    6  503    0 -0.10400488991E+03  0.45052941082E+03  0.33597346587E+02  0.46359739952E+03  0.00000000000E+00 0. -1.
         -2    1    6    6    0  503 -0.21139641734E+01 -0.44399165456E+01  0.20243040291E+01  0.53178482736E+01  0.00000000000E+00 0.  1.
<mgrwt>
<rscale>  0 0.37364627E+04</rscale>
<asrwt>0</asrwt>
<pdfrwt beam="1">  1        2 0.50523372E+00 0.37364627E+04</pdfrwt>
<pdfrwt beam="2">  1       -1 0.16350923E+00 0.37364627E+04</pdfrwt>
<totfact> 0.28682477E-01</totfact>
</mgrwt>
</event>
<event>
12    7  0.1660832E-007  0.1397025E+04  0.7818608E-02  0.8955975E-01
         -1   -1    0    0    0  501 -0.00000000000E+00  0.00000000000E+00  0.19342885120E+03  0.19342885120E+03  0.00000000000E+00 0.  1.
          2   -1    0    0  501    0  0.00000000000E+00 -0.00000000000E+00 -0.25224757780E+04  0.25224757780E+04  0.00000000000E+00 0. -1.
         24    2    1    2    0    0  0.25267099469E+03 -0.88902528090E+02 -0.12559698735E+04  0.12870600938E+04  0.85539879048E+02 0.  0.
        254    2    1    2    0    0 -0.25267099469E+03  0.88902528090E+02 -0.10730770533E+04  0.14288445354E+04  0.90463034048E+03 0.  0.
         23    2    4    4    0    0 -0.12553357218E+03  0.37153664554E+02 -0.12069130255E+04  0.12173921082E+04  0.90914364037E+02 0.  0.
         23    2    4    4    0    0 -0.12713742251E+03  0.51748863537E+02  0.13383597216E+03  0.21145242717E+03  0.89208701556E+02 0.  0.
          2    1    3    3  502    0  0.17620008303E+03 -0.63088035282E+02 -0.10355928044E+04  0.10523682939E+04  0.00000000000E+00 0. -1.
         -1    1    3    3    0  502  0.76470911665E+02 -0.25814492808E+02 -0.22037706904E+03  0.23469179987E+03  0.00000000000E+00 0.  1.
         13    1    5    5    0    0 -0.10045968262E+03  0.57241106680E+02 -0.70201695477E+03  0.71147487440E+03  0.00000000000E+00 0. -1.
        -13    1    5    5    0    0 -0.25073889568E+02 -0.20087442126E+02 -0.50489607070E+03  0.50591723383E+03  0.00000000000E+00 0.  1.
          1    1    6    6  503    0 -0.10714079477E+03  0.10450849487E+02  0.12457443646E+03  0.16464252299E+03  0.00000000000E+00 0. -1.
         -1    1    6    6    0  503 -0.19996627740E+02  0.41298014049E+02  0.92615356958E+01  0.46809904175E+02  0.00000000000E+00 0.  1.
<mgrwt>
<rscale>  0 0.13970248E+04</rscale>
<asrwt>0</asrwt>
<pdfrwt beam="1">  1        2 0.38807314E+00 0.13970248E+04</pdfrwt>
<pdfrwt beam="2">  1       -1 0.29758289E-01 0.13970248E+04</pdfrwt>
<totfact> 0.38915728E+01</totfact>
</mgrwt>
</event>
<event>
12    7  0.1660832E-007  0.2336477E+04  0.7818608E-02  0.8463676E-01
         -1   -1    0    0    0  501 -0.00000000000E+00  0.00000000000E+00  0.72089852175E+03  0.72089852175E+03  0.00000000000E+00 0.  1.
          2   -1    0    0  501    0  0.00000000000E+00 -0.00000000000E+00 -0.18931668404E+04  0.18931668404E+04  0.00000000000E+00 0. -1.
         24    2    1    2    0    0 -0.33036381594E+03  0.88459039638E+03 -0.86253128858E+03  0.12813710234E+04  0.79442152565E+02 0.  0.
        254    2    1    2    0    0  0.33036381594E+03 -0.88459039638E+03 -0.30973703007E+03  0.13326943387E+04  0.88797339626E+03 0.  0.
         23    2    4    4    0    0  0.51587869169E+03 -0.83585745775E+03 -0.38115315116E+02  0.98719540895E+03  0.91178308738E+02 0.  0.
         23    2    4    4    0    0 -0.18551487575E+03 -0.48732938626E+02 -0.27162171496E+03  0.34549892979E+03  0.93810905650E+02 0.  0.
          2    1    3    3  502    0 -0.16724001368E+03  0.44951444473E+03 -0.49175191139E+03  0.68691513344E+03  0.00000000000E+00 0. -1.
         -1    1    3    3    0  502 -0.16312380226E+03  0.43507595165E+03 -0.37077937720E+03  0.59445588997E+03  0.00000000000E+00 0.  1.
         13    1    5    5    0    0  0.42114610359E+03 -0.68081712702E+03  0.45567282705E+01  0.80056028179E+03  0.00000000000E+00 0.  1.
        -13    1    5    5    0    0  0.94732588101E+02 -0.15504033073E+03 -0.42672043386E+02  0.18663512716E+03  0.00000000000E+00 0. -1.
          4    1    6    6  503    0 -0.10331349185E+03 -0.70614806610E+02 -0.13111606461E+03  0.18124996803E+03  0.00000000000E+00 0. -1.
         -4    1    6    6    0  503 -0.82201383903E+02  0.21881867984E+02 -0.14050565034E+03  0.16424896176E+03  0.00000000000E+00 0.  1.
<mgrwt>
<rscale>  0 0.23364770E+04</rscale>
<asrwt>0</asrwt>
<pdfrwt beam="1">  1        2 0.29125644E+00 0.23364770E+04</pdfrwt>
<pdfrwt beam="2">  1       -1 0.11090746E+00 0.23364770E+04</pdfrwt>
<totfact> 0.58985359E+00</totfact>
</mgrwt>
</event>
<event>
12    7  0.1660832E-007  0.1437184E+04  0.7818608E-02  0.8927334E-01
         -1   -1    0    0    0  501 -0.00000000000E+00  0.00000000000E+00  0.34514804747E+03  0.34514804747E+03  0.00000000000E+00 0.  1.
          2   -1    0    0  501    0  0.00000000000E+00 -0.00000000000E+00 -0.14960962899E+04  0.14960962899E+04  0.00000000000E+00 0. -1.
         24    2    1    2    0    0 -0.18108806863E+03  0.38452267374E+03 -0.35161600564E+03  0.55742510208E+03  0.80239353139E+02 0.  0.
        254    2    1    2    0    0  0.18108806863E+03 -0.38452267374E+03 -0.79933223680E+03  0.12838192353E+04  0.91027975311E+03 0.  0.
         23    2    4    4    0    0  0.49607590552E+03 -0.11800367577E+03 -0.66020451459E+03  0.83896412218E+03  0.89300759673E+02 0.  0.
         23    2    4    4    0    0 -0.31498783690E+03 -0.26651899797E+03 -0.13912772221E+03  0.44485511312E+03  0.91048530553E+02 0.  0.
          4    1    3    3  502    0 -0.11061175940E+03  0.31365208976E+03 -0.27152956793E+03  0.42934939268E+03  0.00000000000E+00 0. -1.
         -3    1    3    3    0  502 -0.70476309228E+02  0.70870583977E+02 -0.80086437704E+02  0.12807570941E+03  0.00000000000E+00 0.  1.
         13    1    5    5    0    0  0.16962471718E+02 -0.23795944859E+02 -0.32533162953E+02  0.43730757256E+02  0.00000000000E+00 0.  1.
        -13    1    5    5    0    0  0.47911343380E+03 -0.94207730914E+02 -0.62767135164E+03  0.79523336492E+03  0.00000000000E+00 0. -1.
          1    1    6    6  503    0 -0.26262232708E+03 -0.24425524618E+03 -0.14661583949E+03  0.38746266447E+03  0.00000000000E+00 0. -1.
         -1    1    6    6    0  503 -0.52365509818E+02 -0.22263751790E+02  0.74881172887E+01  0.57392448656E+02  0.00000000000E+00 0.  1.
<mgrwt>
<rscale>  0 0.14371843E+04</rscale>
<asrwt>0</asrwt>
<pdfrwt beam="1">  1        2 0.23016866E+00 0.14371843E+04</pdfrwt>
<pdfrwt beam="2">  1       -1 0.53099699E-01 0.14371843E+04</pdfrwt>
<totfact> 0.50467402E+01</totfact>
</mgrwt>
</event>
<event>
12    7  0.1660832E-007  0.1571248E+04  0.7818608E-02  0.8838409E-01
         -1   -1    0    0    0  501 -0.00000000000E+00  0.00000000000E+00  0.89692848064E+03  0.89692848064E+03  0.00000000000E+00 0.  1.
          2   -1    0    0  501    0  0.00000000000E+00 -0.00000000000E+00 -0.68813162564E+03  0.68813162564E+03  0.00000000000E+00 0. -1.
         24    2    1    2    0    0  0.28382802537E+03 -0.43714571448E+03  0.14437977305E+03  0.54680380074E+03  0.80586313725E+02 0.  0.
        254    2    1    2    0    0 -0.28382802537E+03  0.43714571448E+03  0.64417081948E+02  0.10382563055E+04  0.89564048138E+03 0.  0.
         23    2    4    4    0    0  0.20333204770E+03  0.38732920357E+03  0.24433289709E+03  0.50919545564E+03  0.90628990273E+02 0.  0.
         23    2    4    4    0    0 -0.48716007308E+03  0.49816510908E+02 -0.17991581514E+03  0.52906084991E+03  0.87915077257E+02 0.  0.
          2    1    3    3  502    0 -0.15337174529E+01 -0.40157039001E+01  0.10165018725E+02  0.11036565259E+02  0.00000000000E+00 0. -1.
         -1    1    3    3    0  502  0.28536174282E+03 -0.43313001058E+03  0.13421475432E+03  0.53576723548E+03  0.00000000000E+00 0.  1.
         13    1    5    5    0    0  0.71885113098E+02  0.60008809104E+02  0.59897091290E+02  0.11115839240E+03  0.00000000000E+00 0. -1.
        -13    1    5    5    0    0  0.13144693461E+03  0.32732039447E+03  0.18443580580E+03  0.39803706324E+03  0.00000000000E+00 0.  1.
          1    1    6    6  503    0 -0.76228611741E+02  0.40885404743E+02 -0.31412133801E+02  0.92027929016E+02  0.00000000000E+00 0. -1.
         -1    1    6    6    0  503 -0.41093146133E+03  0.89311061644E+01 -0.14850368134E+03  0.43703292089E+03  0.00000000000E+00 0.  1.
<mgrwt>
<rscale>  0 0.15712477E+04</rscale>
<asrwt>0</asrwt>
<pdfrwt beam="1">  1        2 0.10586640E+00 0.15712477E+04</pdfrwt>
<pdfrwt beam="2">  1       -1 0.13798900E+00 0.15712477E+04</pdfrwt>
<totfact> 0.20008507E+01</totfact>
</mgrwt>
</event>
<event>
12    7  0.1660832E-007  0.1704310E+04  0.7818608E-02  0.8758910E-01
          2   -1    0    0  501    0  0.00000000000E+00  0.00000000000E+00  0.17076655262E+04  0.17076655262E+04  0.00000000000E+00 0. -1.
         -1   -1    0    0    0  501 -0.00000000000E+00 -0.00000000000E+00 -0.42524032395E+03  0.42524032395E+03  0.00000000000E+00 0.  1.
         24    2    1    2    0    0 -0.32897641903E+03 -0.32195579162E+03  0.97081780923E+03  0.10772365347E+04  0.77912238899E+02 0.  0.
        254    2    1    2    0    0  0.32897641903E+03  0.32195579162E+03  0.31160739302E+03  0.10556693154E+04  0.89747285203E+03 0.  0.
         23    2    4    4    0    0  0.27667362217E+03 -0.26339237178E+03  0.23134319164E+03  0.45543778924E+03  0.89331253409E+02 0.  0.
         23    2    4    4    0    0  0.52302796855E+02  0.58534816339E+03  0.80264201385E+02  0.60023152619E+03  0.92018954898E+02 0.  0.
          2    1    3    3  502    0 -0.19427690626E+03 -0.20706201446E+03  0.51222892455E+03  0.58565917161E+03  0.00000000000E+00 0. -1.
         -1    1    3    3    0  502 -0.13469951277E+03 -0.11489377715E+03  0.45858888467E+03  0.49157736310E+03  0.00000000000E+00 0.  1.
         13    1    5    5    0    0  0.21062403466E+02 -0.60693578171E+02  0.55161315959E+02  0.84676478725E+02  0.00000000000E+00 0. -1.
        -13    1    5    5    0    0  0.25561121871E+03 -0.20269879361E+03  0.17618187568E+03  0.37076131052E+03  0.00000000000E+00 0.  1.
          3    1    6    6  503    0 -0.23691788411E+02  0.93266293705E+02  0.23775583047E+02  0.99122049660E+02  0.00000000000E+00 0.  1.
         -3    1    6    6    0  503  0.75994585265E+02  0.49208186969E+03  0.56488618338E+02  0.50110947653E+03  0.00000000000E+00 0. -1.
<mgrwt>
<rscale>  0 0.17043101E+04</rscale>
<asrwt>0</asrwt>
<pdfrwt beam="1">  1        2 0.26271777E+00 0.17043101E+04</pdfrwt>
<pdfrwt beam="2">  1       -1 0.65421589E-01 0.17043101E+04</pdfrwt>
<totfact> 0.24922681E+01</totfact>
</mgrwt>
</event>
<event>
12    7  0.1660832E-007  0.1630313E+04  0.7818608E-02  0.8802139E-01
          2   -1    0    0  501    0  0.00000000000E+00  0.00000000000E+00  0.13472875490E+04  0.13472875490E+04  0.00000000000E+00 0. -1.
         -1   -1    0    0    0  501 -0.00000000000E+00 -0.00000000000E+00 -0.49319817538E+03  0.49319817538E+03  0.00000000000E+00 0.  1.
         24    2    1    2    0    0  0.11983989031E+03  0.54624410038E+03  0.39448070776E+03  0.68907692335E+03  0.80422391046E+02 0.  0.
        254    2    1    2    0    0 -0.11983989031E+03 -0.54624410038E+03  0.45960866590E+03  0.11514088011E+04  0.89540933929E+03 0.  0.
         23    2    4    4    0    0  0.37479413407E+03 -0.30784461505E+03  0.27490478201E+03  0.56513733299E+03  0.92566819218E+02 0.  0.
         23    2    4    4    0    0 -0.49463402438E+03 -0.23839948533E+03  0.18470388389E+03  0.58627146807E+03  0.90008759955E+02 0.  0.
          2    1    3    3  502    0  0.11553472915E+03  0.53629800338E+03  0.36836032287E+03  0.66079735890E+03  0.00000000000E+00 0. -1.
         -1    1    3    3    0  502  0.43051611623E+01  0.99460970009E+01  0.26120384892E+02  0.28279564443E+02  0.00000000000E+00 0.  1.
         13    1    5    5    0    0  0.59563568304E+02 -0.48957904812E+02  0.86322576892E+02  0.11574231030E+03  0.00000000000E+00 0. -1.
        -13    1    5    5    0    0  0.31523056577E+03 -0.25888671024E+03  0.18858220512E+03  0.44939502269E+03  0.00000000000E+00 0.  1.
          4    1    6    6  503    0  0.16596702821E+01 -0.65272230235E+01  0.84925253195E+01  0.10838917480E+02  0.00000000000E+00 0. -1.
         -4    1    6    6    0  503 -0.49629369467E+03 -0.23187226231E+03  0.17621135857E+03  0.57543255059E+03  0.00000000000E+00 0.  1.
<mgrwt>
<rscale>  0 0.16303126E+04</rscale>
<asrwt>0</asrwt>
<pdfrwt beam="1">  1        2 0.20727501E+00 0.16303126E+04</pdfrwt>
<pdfrwt beam="2">  1       -1 0.75876643E-01 0.16303126E+04</pdfrwt>
<totfact> 0.29528042E+01</totfact>
</mgrwt>
</event>
<event>
12    7  0.1660832E-007  0.1342638E+04  0.7818608E-02  0.8996420E-01
         -1   -1    0    0    0  501 -0.00000000000E+00  0.00000000000E+00  0.12266994807E+04  0.12266994807E+04  0.00000000000E+00 0.  1.
          2   -1    0    0  501    0  0.00000000000E+00 -0.00000000000E+00 -0.36738369071E+03  0.36738369071E+03  0.00000000000E+00 0. -1.
         24    2    1    2    0    0 -0.23577963480E+03  0.22083759817E+03  0.26391030843E+02  0.33453417533E+03  0.82797022912E+02 0.  0.
        254    2    1    2    0    0  0.23577963480E+03 -0.22083759817E+03  0.83292475916E+03  0.12595489961E+04  0.88788441712E+03 0.  0.
         23    2    4    4    0    0 -0.29313642236E+03  0.49810969995E+02  0.45122009442E+03  0.54755789653E+03  0.88374100240E+02 0.  0.
         23    2    4    4    0    0  0.52891605717E+03 -0.27064856816E+03  0.38170466474E+03  0.71199109956E+03  0.90719522640E+02 0.  0.
          2    1    3    3  502    0 -0.12829199859E+03  0.76245834295E+02 -0.14001072877E+02  0.14989427671E+03  0.00000000000E+00 0. -1.
         -1    1    3    3    0  502 -0.10748763621E+03  0.14459176387E+03  0.40392103720E+02  0.18463989862E+03  0.00000000000E+00 0.  1.
         13    1    5    5    0    0 -0.10029972907E+03  0.70157646948E+01  0.22981253951E+03  0.25084469283E+03  0.00000000000E+00 0. -1.
        -13    1    5    5    0    0 -0.19283669329E+03  0.42795205301E+02  0.22140755491E+03  0.29671320370E+03  0.00000000000E+00 0.  1.
          2    1    6    6  503    0  0.61088586624E+02 -0.50532394046E+02  0.22421863907E+02  0.82389794543E+02  0.00000000000E+00 0. -1.
         -2    1    6    6    0  503  0.46782747054E+03 -0.22011617412E+03  0.35928280083E+03  0.62960130501E+03  0.00000000000E+00 0.  1.
<mgrwt>
<rscale>  0 0.13426383E+04</rscale>
<asrwt>0</asrwt>
<pdfrwt beam="1">  1        2 0.56520568E-01 0.13426383E+04</pdfrwt>
<pdfrwt beam="2">  1       -1 0.18872299E+00 0.13426383E+04</pdfrwt>
<totfact> 0.17659167E+01</totfact>
</mgrwt>
</event>
<event>
12    7  0.1660832E-007  0.1130832E+04  0.7818608E-02  0.9175651E-01
         -1   -1    0    0    0  501 -0.00000000000E+00  0.00000000000E+00  0.25782562220E+03  0.25782562220E+03  0.00000000000E+00 0.  1.
          2   -1    0    0  501    0  0.00000000000E+00 -0.00000000000E+00 -0.12399679988E+04  0.12399679988E+04  0.00000000000E+00 0. -1.
         24    2    1    2    0    0 -0.16211725261E+03 -0.58244581513E+02 -0.13177621721E+03  0.23080197188E+03  0.78931260819E+02 0.  0.
        254    2    1    2    0    0  0.16211725261E+03  0.58244581513E+02 -0.85036615935E+03  0.12669916491E+04  0.92329345226E+03 0.  0.
         23    2    4    4    0    0  0.38583111386E+02 -0.10661286272E+03 -0.99081010206E+03  0.10014713030E+04  0.91570483587E+02 0.  0.
         23    2    4    4    0    0  0.12353414122E+03  0.16485744423E+03  0.14044394271E+03  0.26552034604E+03  0.91312059193E+02 0.  0.
          2    1    3    3  502    0 -0.56725917087E+02 -0.46202256966E+02 -0.91928127528E+02  0.11748727101E+03  0.00000000000E+00 0. -1.
         -1    1    3    3    0  502 -0.10539133552E+03 -0.12042324547E+02 -0.39848089682E+02  0.11331470087E+03  0.00000000000E+00 0.  1.
         13    1    5    5    0    0  0.66092246878E+02 -0.95003802345E+02 -0.80532848978E+03  0.81360179695E+03  0.00000000000E+00 0. -1.
        -13    1    5    5    0    0 -0.27509135492E+02 -0.11609060372E+02 -0.18548161228E+03  0.18786950608E+03  0.00000000000E+00 0.  1.
          2    1    6    6  503    0  0.11403853385E+03  0.13973804310E+03  0.15239527591E+03  0.23612672024E+03  0.00000000000E+00 0. -1.
         -2    1    6    6    0  503  0.94956073708E+01  0.25119401132E+02 -0.11951333201E+02  0.29393625803E+02  0.00000000000E+00 0.  1.
<mgrwt>
<rscale>  0 0.11308325E+04</rscale>
<asrwt>0</asrwt>
<pdfrwt beam="1">  1        2 0.19076430E+00 0.11308325E+04</pdfrwt>
<pdfrwt beam="2">  1       -1 0.39665481E-01 0.11308325E+04</pdfrwt>
<totfact> 0.12518978E+02</totfact>
</mgrwt>
</event>
<event>
12    7  0.1660832E-007  0.2317660E+04  0.7818608E-02  0.8470990E-01
          2   -1    0    0  501    0  0.00000000000E+00  0.00000000000E+00  0.63205926665E+03  0.63205926665E+03  0.00000000000E+00 0. -1.
         -1   -1    0    0    0  501 -0.00000000000E+00 -0.00000000000E+00 -0.21246218709E+04  0.21246218709E+04  0.00000000000E+00 0.  1.
         24    2    1    2    0    0 -0.48917427940E+03 -0.23660529880E+03 -0.15972724037E+04  0.16888913349E+04  0.76166043792E+02 0.  0.
        254    2    1    2    0    0  0.48917427940E+03  0.23660529880E+03  0.10470979947E+03  0.10677898027E+04  0.91320171790E+03 0.  0.
         23    2    4    4    0    0 -0.19109350583E+03  0.48097868945E+02  0.26079818690E+03  0.33909049947E+03  0.90202769218E+02 0.  0.
         23    2    4    4    0    0  0.68026778522E+03  0.18850742985E+03 -0.15608838743E+03  0.72869930322E+03  0.91322391041E+02 0.  0.
          2    1    3    3  502    0 -0.16705058447E+03 -0.10890418324E+03 -0.66734244413E+03  0.69649978940E+03  0.00000000000E+00 0. -1.
         -3    1    3    3    0  502 -0.32212369493E+03 -0.12770111556E+03 -0.92992995958E+03  0.99239154545E+03  0.00000000000E+00 0.  1.
         13    1    5    5    0    0 -0.11950887552E+03  0.59846839734E+02  0.11532345288E+03  0.17653190742E+03  0.00000000000E+00 0. -1.
        -13    1    5    5    0    0 -0.71584630308E+02 -0.11748970789E+02  0.14547473401E+03  0.16255859204E+03  0.00000000000E+00 0.  1.
          1    1    6    6  503    0  0.59892199423E+02  0.44718582573E+02 -0.21987359631E+02  0.77911944929E+02  0.00000000000E+00 0. -1.
         -1    1    6    6    0  503  0.62037558580E+03  0.14378884728E+03 -0.13410102780E+03  0.65078735829E+03  0.00000000000E+00 0.  1.
<mgrwt>
<rscale>  0 0.23176600E+04</rscale>
<asrwt>0</asrwt>
<pdfrwt beam="1">  1        2 0.97239885E-01 0.23176600E+04</pdfrwt>
<pdfrwt beam="2">  1       -1 0.32686491E+00 0.23176600E+04</pdfrwt>
<totfact> 0.10618665E+00</totfact>
</mgrwt>
</event>
<event>
12    7  0.1660832E-007  0.4094259E+04  0.7818608E-02  0.7985797E-01
          2   -1    0    0  501    0  0.00000000000E+00  0.00000000000E+00  0.32273098248E+04  0.32273098248E+04  0.00000000000E+00 0. -1.
         -1   -1    0    0    0  501 -0.00000000000E+00 -0.00000000000E+00 -0.12985238148E+04  0.12985238148E+04  0.00000000000E+00 0.  1.
         24    2    1    2    0    0 -0.68487874664E+03  0.96571985874E+03  0.26286605210E+04  0.28842216721E+04  0.84880953492E+02 0.  0.
        254    2    1    2    0    0  0.68487874664E+03 -0.96571985874E+03 -0.69987451092E+03  0.16416119674E+04  0.89632124679E+03 0.  0.
         23    2    4    4    0    0  0.35084759504E+03 -0.38381752736E+02  0.88514056037E+02  0.37608830736E+03  0.95081454199E+02 0.  0.
         23    2    4    4    0    0  0.33403115161E+03 -0.92733810600E+03 -0.78838856695E+03  0.12655236601E+04  0.91982762652E+02 0.  0.
          2    1    3    3  502    0 -0.61308635845E+03  0.82784835218E+03  0.23285850811E+04  0.25462749767E+04  0.00000000000E+00 0. -1.
         -1    1    3    3    0  502 -0.71792388186E+02  0.13787150656E+03  0.30007543990E+03  0.33794669543E+03  0.00000000000E+00 0.  1.
         13    1    5    5    0    0  0.44988392237E+02 -0.22558941051E+02  0.43516271185E+02  0.66532150989E+02  0.00000000000E+00 0. -1.
        -13    1    5    5    0    0  0.30585920280E+03 -0.15822811685E+02  0.44997784852E+02  0.30955615637E+03  0.00000000000E+00 0.  1.
          4    1    6    6  503    0  0.16703504006E+03 -0.47915943383E+03 -0.34736873560E+03  0.61494675063E+03  0.00000000000E+00 0. -1.
         -4    1    6    6    0  503  0.16699611154E+03 -0.44817867218E+03 -0.44101983135E+03  0.65057690945E+03  0.00000000000E+00 0.  1.
<mgrwt>
<rscale>  0 0.40942587E+04</rscale>
<asrwt>0</asrwt>
<pdfrwt beam="1">  1        2 0.49650920E+00 0.40942587E+04</pdfrwt>
<pdfrwt beam="2">  1       -1 0.19977290E+00 0.40942587E+04</pdfrwt>
<totfact> 0.16689892E-01</totfact>
</mgrwt>
</event>
<event>
12    7  0.1660832E-007  0.1096689E+04  0.7818608E-02  0.9208425E-01
         -1   -1    0    0    0  501 -0.00000000000E+00  0.00000000000E+00  0.65302266928E+03  0.65302266928E+03  0.00000000000E+00 0.  1.
          2   -1    0    0  501    0  0.00000000000E+00 -0.00000000000E+00 -0.46044580274E+03  0.46044580274E+03  0.00000000000E+00 0. -1.
         24    2    1    2    0    0 -0.10623256641E+02  0.78924493373E+02  0.18031820344E+03  0.21356721208E+03  0.82184976420E+02 0.  0.
        254    2    1    2    0    0  0.10623256641E+02 -0.78924493373E+02  0.12258663109E+02  0.89990125994E+03  0.89628682551E+03 0.  0.
         23    2    4    4    0    0 -0.31092733441E+03  0.14006664931E+03 -0.24026061477E+03  0.42702890996E+03  0.91291036803E+02 0.  0.
         23    2    4    4    0    0  0.32155059105E+03 -0.21899114268E+03  0.25251927788E+03  0.47287234998E+03  0.92143206420E+02 0.  0.
          4    1    3    3  502    0 -0.13237717504E+02  0.34402278788E+02  0.10990913091E+02  0.38464972651E+02  0.00000000000E+00 0. -1.
         -3    1    3    3    0  502  0.26144608623E+01  0.44522214586E+02  0.16932729035E+03  0.17510223943E+03  0.00000000000E+00 0.  1.
         13    1    5    5    0    0 -0.19036026242E+03  0.13081093282E+03 -0.14121951240E+03  0.27072399291E+03  0.00000000000E+00 0. -1.
        -13    1    5    5    0    0 -0.12056707199E+03  0.92557164882E+01 -0.99041102365E+02  0.15630491705E+03  0.00000000000E+00 0.  1.
          4    1    6    6  503    0  0.12724802389E+03 -0.12713108002E+03  0.78171551680E+02  0.19612537465E+03  0.00000000000E+00 0. -1.
         -4    1    6    6    0  503  0.19430256717E+03 -0.91860062666E+02  0.17434772620E+03  0.27674697533E+03  0.00000000000E+00 0.  1.
<mgrwt>
<rscale>  0 0.10966887E+04</rscale>
<asrwt>0</asrwt>
<pdfrwt beam="1">  1        2 0.70837816E-01 0.10966887E+04</pdfrwt>
<pdfrwt beam="2">  1       -1 0.10046503E+00 0.10966887E+04</pdfrwt>
<totfact> 0.72613805E+01</totfact>
</mgrwt>
</event>
<event>
12    7  0.1660832E-007  0.1299484E+04  0.7818608E-02  0.9029974E-01
          2   -1    0    0  501    0  0.00000000000E+00  0.00000000000E+00  0.70892964347E+03  0.70892964347E+03  0.00000000000E+00 0. -1.
         -1   -1    0    0    0  501 -0.00000000000E+00 -0.00000000000E+00 -0.59549629067E+03  0.59549629067E+03  0.00000000000E+00 0.  1.
         24    2    1    2    0    0 -0.15694494099E+03 -0.91297960879E+02  0.31550764808E+03  0.37253182847E+03  0.79169786284E+02 0.  0.
        254    2    1    2    0    0  0.15694494099E+03  0.91297960879E+02 -0.20207429528E+03  0.93189410567E+03  0.89141773104E+03 0.  0.
         23    2    4    4    0    0  0.95586607819E+02 -0.15988408702E+03  0.29702787748E+03  0.36225571623E+03  0.91125863850E+02 0.  0.
         23    2    4    4    0    0  0.61358333166E+02  0.25118204790E+03 -0.49910217276E+03  0.56963838944E+03  0.92345274025E+02 0.  0.
          2    1    3    3  502    0 -0.14840573440E+03 -0.10122333515E+03  0.31008173484E+03  0.35835890929E+03  0.00000000000E+00 0. -1.
         -1    1    3    3    0  502 -0.85392065835E+01  0.99253742736E+01  0.54259132391E+01  0.14172919178E+02  0.00000000000E+00 0.  1.
         13    1    5    5    0    0  0.61979966344E+02 -0.16156452489E+03  0.25886474160E+03  0.31137688799E+03  0.00000000000E+00 0. -1.
        -13    1    5    5    0    0  0.33606641476E+02  0.16804378676E+01  0.38163135884E+02  0.50878828242E+02  0.00000000000E+00 0.  1.
          3    1    6    6  503    0  0.77658534256E+02  0.19415261846E+03 -0.43286017253E+03  0.48072238991E+03  0.00000000000E+00 0. -1.
         -3    1    6    6    0  503 -0.16300201090E+02  0.57029429446E+02 -0.66242000226E+02  0.88915999530E+02  0.00000000000E+00 0.  1.
<mgrwt>
<rscale>  0 0.12994845E+04</rscale>
<asrwt>0</asrwt>
<pdfrwt beam="1">  1        2 0.10906610E+00 0.12994845E+04</pdfrwt>
<pdfrwt beam="2">  1       -1 0.91614814E-01 0.12994845E+04</pdfrwt>
<totfact> 0.52443684E+01</totfact>
</mgrwt>
</event>
<event>
12    7  0.1660832E-007  0.1543197E+04  0.7818608E-02  0.8856225E-01
          2   -1    0    0  501    0  0.00000000000E+00  0.00000000000E+00  0.35878842121E+04  0.35878842121E+04  0.00000000000E+00 0. -1.
         -1   -1    0    0    0  501 -0.00000000000E+00 -0.00000000000E+00 -0.16593739875E+03  0.16593739875E+03  0.00000000000E+00 0.  1.
         24    2    1    2    0    0 -0.22562564165E+03  0.33738201163E+03  0.43485069373E+03  0.60014856880E+03  0.79684545843E+02 0.  0.
        254    2    1    2    0    0  0.22562564165E+03 -0.33738201163E+03  0.29870961196E+04  0.31536730420E+04  0.92637836565E+03 0.  0.
         23    2    4    4    0    0 -0.20921535641E+02 -0.38287823182E+03  0.43250781093E+03  0.58518029650E+03  0.91320982459E+02 0.  0.
         23    2    4    4    0    0  0.24654717729E+03  0.45496220188E+02  0.25545883087E+04  0.25684927455E+04  0.91532182081E+02 0.  0.
          2    1    3    3  502    0 -0.68878048903E+02  0.46400922492E+02  0.91387295537E+02  0.12348631104E+03  0.00000000000E+00 0. -1.
         -1    1    3    3    0  502 -0.15674759275E+03  0.29098108914E+03  0.34346339819E+03  0.47666225776E+03  0.00000000000E+00 0.  1.
         13    1    5    5    0    0 -0.26356948783E+02 -0.57222378202E+02  0.37909531865E+02  0.73527014916E+02  0.00000000000E+00 0.  1.
        -13    1    5    5    0    0  0.54354131420E+01 -0.32565585362E+03  0.39459827906E+03  0.51165328158E+03  0.00000000000E+00 0. -1.
          1    1    6    6  503    0  0.16227065212E+03  0.50067218940E+02  0.20371886999E+04  0.20442544583E+04  0.00000000000E+00 0. -1.
         -1    1    6    6    0  503  0.84276525168E+02 -0.45709987512E+01  0.51739960873E+03  0.52423828727E+03  0.00000000000E+00 0.  1.
<mgrwt>
<rscale>  0 0.15431969E+04</rscale>
<asrwt>0</asrwt>
<pdfrwt beam="1">  1        2 0.55198213E+00 0.15431969E+04</pdfrwt>
<pdfrwt beam="2">  1       -1 0.25528833E-01 0.15431969E+04</pdfrwt>
<totfact> 0.10589347E+01</totfact>
</mgrwt>
</event>
<event>
12    7  0.1660832E-007  0.1472287E+04  0.7818608E-02  0.8903094E-01
         -1   -1    0    0    0  501 -0.00000000000E+00  0.00000000000E+00  0.14790539899E+03  0.14790539899E+03  0.00000000000E+00 0.  1.
          2   -1    0    0  501    0  0.00000000000E+00 -0.00000000000E+00 -0.36638765683E+04  0.36638765683E+04  0.00000000000E+00 0. -1.
         24    2    1    2    0    0  0.25094338919E+03  0.36400634305E+03 -0.81937515405E+03  0.93450885295E+03  0.80361376358E+02 0.  0.
        254    2    1    2    0    0 -0.25094338919E+03 -0.36400634305E+03 -0.26965960152E+04  0.28772731143E+04  0.90088695332E+03 0.  0.
         23    2    4    4    0    0 -0.26003390409E+03 -0.50813226471E+03 -0.26329625984E+04  0.26956416735E+04  0.90421001960E+02 0.  0.
         23    2    4    4    0    0  0.90905149061E+01  0.14412592166E+03 -0.63633416820E+02  0.18163144081E+03  0.89921353409E+02 0.  0.
          2    1    3    3  502    0  0.10981096685E+03  0.10273713181E+03 -0.31869245163E+03  0.35238933783E+03  0.00000000000E+00 0. -1.
         -1    1    3    3    0  502  0.14113242234E+03  0.26126921124E+03 -0.50068270242E+03  0.58211951512E+03  0.00000000000E+00 0.  1.
         13    1    5    5    0    0  0.43575312231E+01 -0.21136928410E+01 -0.83719214061E+01  0.96718583435E+01  0.00000000000E+00 0. -1.
        -13    1    5    5    0    0 -0.26439143532E+03 -0.50601857187E+03 -0.26245906770E+04  0.26859698152E+04  0.00000000000E+00 0.  1.
          2    1    6    6  503    0  0.24479167294E+02 -0.51583375011E+00 -0.63016160245E+01  0.25282525198E+02  0.00000000000E+00 0. -1.
         -2    1    6    6    0  503 -0.15388652388E+02  0.14464175541E+03 -0.57331800795E+02  0.15634891561E+03  0.00000000000E+00 0.  1.
<mgrwt>
<rscale>  0 0.14722868E+04</rscale>
<asrwt>0</asrwt>
<pdfrwt beam="1">  1        2 0.56367327E+00 0.14722868E+04</pdfrwt>
<pdfrwt beam="2">  1       -1 0.22754679E-01 0.14722868E+04</pdfrwt>
<totfact> 0.11458384E+01</totfact>
</mgrwt>
</event>
<event>
12    7  0.1660832E-007  0.3163654E+04  0.7818608E-02  0.8198483E-01
          2   -1    0    0  501    0  0.00000000000E+00  0.00000000000E+00  0.25730887354E+04  0.25730887354E+04  0.00000000000E+00 0. -1.
         -1   -1    0    0    0  501 -0.00000000000E+00 -0.00000000000E+00 -0.97244075398E+03  0.97244075398E+03  0.00000000000E+00 0.  1.
         24    2    1    2    0    0 -0.26374271406E+03  0.37513493098E+03  0.22908210300E+04  0.23376050096E+04  0.79055385491E+02 0.  0.
        254    2    1    2    0    0  0.26374271406E+03 -0.37513493098E+03 -0.69017304859E+03  0.12079244797E+04  0.87889491752E+03 0.  0.
         23    2    4    4    0    0  0.20517754441E+03 -0.33668393230E+03  0.93782160100E+02  0.41552004260E+03  0.91694695840E+02 0.  0.
         23    2    4    4    0    0  0.58565169652E+02 -0.38450998680E+02 -0.78395520869E+03  0.79240443713E+03  0.91709674236E+02 0.  0.
          2    1    3    3  502    0 -0.20132797920E+03  0.29871987200E+03  0.19405844376E+04  0.19737361720E+04  0.00000000000E+00 0. -1.
         -1    1    3    3    0  502 -0.62414734869E+02  0.76415058982E+02  0.35023659237E+03  0.36386883764E+03  0.00000000000E+00 0.  1.
         13    1    5    5    0    0  0.19932011516E+02 -0.84238176012E+02 -0.63007449797E+01  0.86793172359E+02  0.00000000000E+00 0. -1.
        -13    1    5    5    0    0  0.18524553290E+03 -0.25244575629E+03  0.10008290508E+03  0.32872687024E+03  0.00000000000E+00 0.  1.
          3    1    6    6  503    0  0.13679496208E+02  0.20165824074E+02 -0.60966070317E+02  0.65655546658E+02  0.00000000000E+00 0. -1.
         -3    1    6    6    0  503  0.44885673444E+02 -0.58616822754E+02 -0.72298913838E+03  0.72674889047E+03  0.00000000000E+00 0.  1.
<mgrwt>
<rscale>  0 0.31636538E+04</rscale>
<asrwt>0</asrwt>
<pdfrwt beam="1">  1        2 0.39585980E+00 0.31636538E+04</pdfrwt>
<pdfrwt beam="2">  1       -1 0.14960627E+00 0.31636538E+04</pdfrwt>
<totfact> 0.10640291E+00</totfact>
</mgrwt>
</event>
<event>
12    7  0.1660832E-007  0.2338912E+04  0.7818608E-02  0.8462735E-01
         -1   -1    0    0    0  501 -0.00000000000E+00  0.00000000000E+00  0.16414214040E+04  0.16414214040E+04  0.00000000000E+00 0.  1.
          2   -1    0    0  501    0  0.00000000000E+00 -0.00000000000E+00 -0.83319731056E+03  0.83319731056E+03  0.00000000000E+00 0. -1.
         24    2    1    2    0    0  0.58609470274E+03 -0.23752479067E+03 -0.46650615907E+03  0.78972323189E+03  0.78164952299E+02 0.  0.
        254    2    1    2    0    0 -0.58609470274E+03  0.23752479067E+03  0.12747302525E+04  0.16848954826E+04  0.90222532889E+03 0.  0.
         23    2    4    4    0    0 -0.73847485850E+03  0.12661141699E+03  0.12679835344E+04  0.14756636919E+04  0.91790634753E+02 0.  0.
         23    2    4    4    0    0  0.15238015576E+03  0.11091337368E+03  0.67467181125E+01  0.20923179074E+03  0.90614213678E+02 0.  0.
          2    1    3    3  502    0  0.27918955725E+03 -0.10305334113E+03 -0.26657709846E+03  0.39953741930E+03  0.00000000000E+00 0. -1.
         -1    1    3    3    0  502  0.30690514549E+03 -0.13447144954E+03 -0.19992906061E+03  0.39018581259E+03  0.00000000000E+00 0.  1.
         13    1    5    5    0    0 -0.39825763678E+02 -0.11911240462E+02  0.89177660549E+02  0.98390163344E+02  0.00000000000E+00 0.  1.
        -13    1    5    5    0    0 -0.69864909482E+03  0.13852265745E+03  0.11788058738E+04  0.13772735286E+04  0.00000000000E+00 0. -1.
          4    1    6    6  503    0  0.11344379757E+03  0.55813443743E+02 -0.33340223061E+02  0.13075246148E+03  0.00000000000E+00 0. -1.
         -4    1    6    6    0  503  0.38936358189E+02  0.55099929940E+02  0.40086941174E+02  0.78479329260E+02  0.00000000000E+00 0.  1.
<mgrwt>
<rscale>  0 0.23389125E+04</rscale>
<asrwt>0</asrwt>
<pdfrwt beam="1">  1        2 0.12818420E+00 0.23389125E+04</pdfrwt>
<pdfrwt beam="2">  1       -1 0.25252637E+00 0.23389125E+04</pdfrwt>
<totfact> 0.22565272E+00</totfact>
</mgrwt>
</event>
<event>
12    7  0.1660832E-007  0.1955089E+04  0.7818608E-02  0.8627911E-01
          2   -1    0    0  501    0  0.00000000000E+00  0.00000000000E+00  0.89318402692E+03  0.89318402692E+03  0.00000000000E+00 0. -1.
         -1   -1    0    0    0  501 -0.00000000000E+00 -0.00000000000E+00 -0.10698724431E+04  0.10698724431E+04  0.00000000000E+00 0.  1.
         24    2    1    2    0    0  0.16318504168E+03 -0.56009074737E+03  0.43101523262E+03  0.72971256858E+03  0.79845468744E+02 0.  0.
        254    2    1    2    0    0 -0.16318504168E+03  0.56009074737E+03 -0.60770364882E+03  0.12333439015E+04  0.90083430849E+03 0.  0.
         23    2    4    4    0    0 -0.45873489449E+03  0.18019656402E+03 -0.69706220875E+02  0.50581345345E+03  0.89887637397E+02 0.  0.
         23    2    4    4    0    0  0.29554985281E+03  0.37989418335E+03 -0.53799742794E+03  0.72753044800E+03  0.90498697558E+02 0.  0.
          2    1    3    3  502    0  0.12878306298E+03 -0.32041137095E+03  0.27757149227E+03  0.44305130320E+03  0.00000000000E+00 0. -1.
         -1    1    3    3    0  502  0.34401978702E+02 -0.23967937642E+03  0.15344374035E+03  0.28666126538E+03  0.00000000000E+00 0.  1.
         13    1    5    5    0    0 -0.13347854082E+03  0.29368683534E+02 -0.53973070087E+02  0.14694261712E+03  0.00000000000E+00 0. -1.
        -13    1    5    5    0    0 -0.32525635367E+03  0.15082788049E+03 -0.15733150788E+02  0.35887083633E+03  0.00000000000E+00 0.  1.
          4    1    6    6  503    0  0.97094017957E+01 -0.10882913896E+00 -0.26715093804E+00  0.97136860478E+01  0.00000000000E+00 0. -1.
         -4    1    6    6    0  503  0.28584045101E+03  0.38000301249E+03 -0.53773027700E+03  0.71781676196E+03  0.00000000000E+00 0.  1.
<mgrwt>
<rscale>  0 0.19550887E+04</rscale>
<asrwt>0</asrwt>
<pdfrwt beam="1">  1        2 0.13741293E+00 0.19550887E+04</pdfrwt>
<pdfrwt beam="2">  1       -1 0.16459576E+00 0.19550887E+04</pdfrwt>
<totfact> 0.85088732E+00</totfact>
</mgrwt>
</event>
<event>
12    7  0.1660832E-007  0.2078503E+04  0.7818608E-02  0.8570773E-01
          2   -1    0    0  501    0  0.00000000000E+00  0.00000000000E+00  0.23458861097E+04  0.23458861097E+04  0.00000000000E+00 0. -1.
         -1   -1    0    0    0  501 -0.00000000000E+00 -0.00000000000E+00 -0.46039894887E+03  0.46039894887E+03  0.00000000000E+00 0.  1.
         24    2    1    2    0    0 -0.15980275338E+03 -0.82198208277E+03  0.66354602928E+03  0.10712765903E+04  0.78413873147E+02 0.  0.
        254    2    1    2    0    0  0.15980275338E+03  0.82198208277E+03  0.12219411315E+04  0.17350084683E+04  0.90328444674E+03 0.  0.
         23    2    4    4    0    0 -0.20180779577E+03  0.74141872952E+02 -0.24631318153E+02  0.23424855349E+03  0.89678755685E+02 0.  0.
         23    2    4    4    0    0  0.36161054915E+03  0.74784020982E+03  0.12465724497E+04  0.15007599148E+04  0.91160741916E+02 0.  0.
          4    1    3    3  502    0 -0.14735624845E+03 -0.63144604050E+03  0.54028087333E+03  0.84400319200E+03  0.00000000000E+00 0. -1.
         -3    1    3    3    0  502 -0.12446504932E+02 -0.19053604228E+03  0.12326515595E+03  0.22727339827E+03  0.00000000000E+00 0.  1.
         13    1    5    5    0    0 -0.68476290544E+02  0.72249318654E+02 -0.13185956742E+02  0.10041332515E+03  0.00000000000E+00 0. -1.
        -13    1    5    5    0    0 -0.13333150522E+03  0.18925542980E+01 -0.11445361411E+02  0.13383522834E+03  0.00000000000E+00 0.  1.
          3    1    6    6  503    0  0.14535242414E+03  0.33513237558E+03  0.47197722779E+03  0.59682789807E+03  0.00000000000E+00 0. -1.
         -3    1    6    6    0  503  0.21625812502E+03  0.41270783424E+03  0.77459522189E+03  0.90393201672E+03  0.00000000000E+00 0.  1.
<mgrwt>
<rscale>  0 0.20785028E+04</rscale>
<asrwt>0</asrwt>
<pdfrwt beam="1">  1        2 0.36090555E+00 0.20785028E+04</pdfrwt>
<pdfrwt beam="2">  1       -1 0.70830609E-01 0.20785028E+04</pdfrwt>
<totfact> 0.90342332E+00</totfact>
</mgrwt>
</event>
<event>
12    7  0.1660832E-007  0.1465872E+04  0.7818608E-02  0.8907471E-01
         -1   -1    0    0    0  501 -0.00000000000E+00  0.00000000000E+00  0.74234105625E+03  0.74234105625E+03  0.00000000000E+00 0.  1.
          2   -1    0    0  501    0  0.00000000000E+00 -0.00000000000E+00 -0.72364970328E+03  0.72364970328E+03  0.00000000000E+00 0. -1.
         24    2    1    2    0    0  0.71754123559E+02 -0.98262093042E+02 -0.43211885026E+03  0.45599794845E+03  0.80020841454E+02 0.  0.
        254    2    1    2    0    0 -0.71754123559E+02  0.98262093042E+02  0.45081020323E+03  0.10099928111E+04  0.89557330571E+03 0.  0.
         23    2    4    4    0    0  0.32849796931E+03  0.97784300050E+02 -0.54530755230E+02  0.35890175796E+03  0.91455909712E+02 0.  0.
         23    2    4    4    0    0 -0.40025209287E+03  0.47779299237E+00  0.50534095846E+03  0.65109105311E+03  0.91367986809E+02 0.  0.
          4    1    3    3  502    0  0.23780753337E+02 -0.90815966000E+02 -0.23664827279E+03  0.25458882325E+03  0.00000000000E+00 0. -1.
         -3    1    3    3    0  502  0.47973370222E+02 -0.74461270418E+01 -0.19547057747E+03  0.20140912520E+03  0.00000000000E+00 0.  1.
         13    1    5    5    0    0  0.23522635843E+03  0.70742555354E+02  0.37138062844E+01  0.24566184318E+03  0.00000000000E+00 0.  1.
        -13    1    5    5    0    0  0.93271610885E+02  0.27041744696E+02 -0.58244561514E+02  0.11323991478E+03  0.00000000000E+00 0. -1.
          2    1    6    6  503    0 -0.26782212442E+03  0.77556379838E+01  0.40128998047E+03  0.48251682735E+03  0.00000000000E+00 0. -1.
         -2    1    6    6    0  503 -0.13242996845E+03 -0.72778449914E+01  0.10405097799E+03  0.16857422577E+03  0.00000000000E+00 0.  1.
<mgrwt>
<rscale>  0 0.14658716E+04</rscale>
<asrwt>0</asrwt>
<pdfrwt beam="1">  1        2 0.11133072E+00 0.14658716E+04</pdfrwt>
<pdfrwt beam="2">  1       -1 0.11420632E+00 0.14658716E+04</pdfrwt>
<totfact> 0.30331740E+01</totfact>
</mgrwt>
</event>
<event>
12    7  0.1660832E-007  0.2643995E+04  0.7818608E-02  0.8353409E-01
          2   -1    0    0  501    0  0.00000000000E+00  0.00000000000E+00  0.26646965204E+04  0.26646965204E+04  0.00000000000E+00 0. -1.
         -1   -1    0    0    0  501 -0.00000000000E+00 -0.00000000000E+00 -0.65586355776E+03  0.65586355776E+03  0.00000000000E+00 0.  1.
         24    2    1    2    0    0  0.64375201967E+03 -0.93078689365E+03  0.52796951187E+03  0.12512980959E+04  0.78830293759E+02 0.  0.
        254    2    1    2    0    0 -0.64375201967E+03  0.93078689365E+03  0.14808634508E+04  0.20692619822E+04  0.89894810030E+03 0.  0.
         23    2    4    4    0    0 -0.43145906265E+03  0.46419141823E+03  0.17578326292E+03  0.66401351506E+03  0.91561985348E+02 0.  0.
         23    2    4    4    0    0 -0.21229295702E+03  0.46659547542E+03  0.13050801879E+04  0.14052484672E+04  0.93323740063E+02 0.  0.
          2    1    3    3  502    0  0.80152186722E+02 -0.81327049345E+02  0.38924717069E+02  0.12063828410E+03  0.00000000000E+00 0. -1.
         -1    1    3    3    0  502  0.56359983295E+03 -0.84945984431E+03  0.48904479480E+03  0.11306598118E+04  0.00000000000E+00 0.  1.
         13    1    5    5    0    0 -0.33859638441E+02  0.12325238569E+02  0.23963509081E+02  0.43273968949E+02  0.00000000000E+00 0. -1.
        -13    1    5    5    0    0 -0.39759942421E+03  0.45186617966E+03  0.15181975384E+03  0.62073954611E+03  0.00000000000E+00 0.  1.
          1    1    6    6  503    0 -0.11152201739E+03  0.16698451578E+03  0.42306580342E+03  0.46830082522E+03  0.00000000000E+00 0. -1.
         -1    1    6    6    0  503 -0.10077093964E+03  0.29961095964E+03  0.88201438444E+03  0.93694764196E+03  0.00000000000E+00 0.  1.
<mgrwt>
<rscale>  0 0.26439950E+04</rscale>
<asrwt>0</asrwt>
<pdfrwt beam="1">  1        2 0.40995330E+00 0.26439950E+04</pdfrwt>
<pdfrwt beam="2">  1       -1 0.10090209E+00 0.26439950E+04</pdfrwt>
<totfact> 0.26068819E+00</totfact>
</mgrwt>
</event>
<event>
12    7  0.1660832E-007  0.1498845E+04  0.7818608E-02  0.8885221E-01
         -1   -1    0    0    0  501 -0.00000000000E+00  0.00000000000E+00  0.71855471917E+03  0.71855471917E+03  0.00000000000E+00 0.  1.
          2   -1    0    0  501    0  0.00000000000E+00 -0.00000000000E+00 -0.78161642327E+03  0.78161642327E+03  0.00000000000E+00 0. -1.
         24    2    1    2    0    0  0.92774363798E+02  0.45841877052E+03 -0.16254498899E+03  0.50165643306E+03  0.80519883525E+02 0.  0.
        254    2    1    2    0    0 -0.92774363798E+02 -0.45841877052E+03  0.99483284879E+02  0.99851470938E+03  0.87657278599E+03 0.  0.
         23    2    4    4    0    0 -0.42215821560E+03 -0.69115646939E+02 -0.90360606163E+02  0.44678960347E+03  0.91985754180E+02 0.  0.
         23    2    4    4    0    0  0.32938385180E+03 -0.38930312358E+03  0.18984389104E+03  0.55172510591E+03  0.91155063880E+02 0.  0.
          2    1    3    3  502    0  0.62772321183E+02  0.40174946220E+03 -0.11738484709E+03  0.42322830365E+03  0.00000000000E+00 0. -1.
         -1    1    3    3    0  502  0.30002042616E+02  0.56669308322E+02 -0.45160141899E+02  0.78428129413E+02  0.00000000000E+00 0.  1.
         13    1    5    5    0    0 -0.10537432733E+03  0.22584735053E+02 -0.22287584055E+02  0.11004796918E+03  0.00000000000E+00 0.  1.
        -13    1    5    5    0    0 -0.31678388827E+03 -0.91700381992E+02 -0.68073022108E+02  0.33674163429E+03  0.00000000000E+00 0. -1.
          1    1    6    6  503    0  0.28907159236E+03 -0.29693260359E+03  0.17505574943E+03  0.44986205885E+03  0.00000000000E+00 0. -1.
         -1    1    6    6    0  503  0.40312259439E+02 -0.92370519986E+02  0.14788141612E+02  0.10186304706E+03  0.00000000000E+00 0.  1.
<mgrwt>
<rscale>  0 0.14988451E+04</rscale>
<asrwt>0</asrwt>
<pdfrwt beam="1">  1        2 0.12024868E+00 0.14988451E+04</pdfrwt>
<pdfrwt beam="2">  1       -1 0.11054688E+00 0.14988451E+04</pdfrwt>
<totfact> 0.29573116E+01</totfact>
</mgrwt>
</event>
<event>
12    7  0.1660832E-007  0.1582007E+04  0.7818608E-02  0.8831679E-01
         -1   -1    0    0    0  501 -0.00000000000E+00  0.00000000000E+00  0.32986683835E+03  0.32986683835E+03  0.00000000000E+00 0.  1.
          2   -1    0    0  501    0  0.00000000000E+00 -0.00000000000E+00 -0.18967848188E+04  0.18967848188E+04  0.00000000000E+00 0. -1.
         24    2    1    2    0    0  0.44019145296E+03  0.26069762534E+03 -0.73968078384E+03  0.90283956146E+03  0.79119180010E+02 0.  0.
        254    2    1    2    0    0 -0.44019145296E+03 -0.26069762534E+03 -0.82723719660E+03  0.13238120957E+04  0.89801186970E+03 0.  0.
         23    2    4    4    0    0 -0.22371695819E+03  0.10449403504E+03 -0.84981613894E+03  0.88892671013E+03  0.83874580405E+02 0.  0.
         23    2    4    4    0    0 -0.21647449477E+03 -0.36519166037E+03  0.22578942340E+02  0.43488538555E+03  0.91593308909E+02 0.  0.
          4    1    3    3  502    0  0.38231465261E+03  0.21091542733E+03 -0.58130812681E+03  0.72702747498E+03  0.00000000000E+00 0. -1.
         -3    1    3    3    0  502  0.57876800347E+02  0.49782198006E+02 -0.15837265703E+03  0.17581208648E+03  0.00000000000E+00 0.  1.
         13    1    5    5    0    0 -0.44200360756E+02  0.16998098321E+02 -0.74285672200E+02  0.88096358220E+02  0.00000000000E+00 0. -1.
        -13    1    5    5    0    0 -0.17951659743E+03  0.87495936715E+02 -0.77553046674E+03  0.80083035191E+03  0.00000000000E+00 0.  1.
          4    1    6    6  503    0 -0.27652616078E+02 -0.42310242337E+02  0.33580471528E+02  0.60683373758E+02  0.00000000000E+00 0. -1.
         -4    1    6    6    0  503 -0.18882187869E+03 -0.32288141803E+03 -0.11001529188E+02  0.37420201179E+03  0.00000000000E+00 0.  1.
<mgrwt>
<rscale>  0 0.15820068E+04</rscale>
<asrwt>0</asrwt>
<pdfrwt beam="1">  1        2 0.29181305E+00 0.15820068E+04</pdfrwt>
<pdfrwt beam="2">  1       -1 0.50748744E-01 0.15820068E+04</pdfrwt>
<totfact> 0.32541803E+01</totfact>
</mgrwt>
</event>
<event>
12    7  0.1660832E-007  0.2684474E+04  0.7818608E-02  0.8340060E-01
         -1   -1    0    0    0  501 -0.00000000000E+00  0.00000000000E+00  0.71028230507E+03  0.71028230507E+03  0.00000000000E+00 0.  1.
          2   -1    0    0  501    0  0.00000000000E+00 -0.00000000000E+00 -0.25364569007E+04  0.25364569007E+04  0.00000000000E+00 0. -1.
         24    2    1    2    0    0 -0.21724472493E+03 -0.52146803218E+03 -0.20631652645E+04  0.21405278699E+04  0.78003040282E+02 0.  0.
        254    2    1    2    0    0  0.21724472493E+03  0.52146803218E+03  0.23699066883E+03  0.11062113359E+04  0.92109432927E+03 0.  0.
         23    2    4    4    0    0 -0.85094899075E+02  0.48146579587E+03 -0.22458542926E+03  0.54577291790E+03  0.91536923897E+02 0.  0.
         23    2    4    4    0    0  0.30233962401E+03  0.40002236312E+02  0.46157609808E+03  0.56043841797E+03  0.89606355042E+02 0.  0.
          4    1    3    3  502    0 -0.17952390838E+03 -0.38154402838E+03 -0.14227973307E+04  0.14839666180E+04  0.00000000000E+00 0. -1.
         -3    1    3    3    0  502 -0.37720816554E+02 -0.13992400380E+03 -0.64036793385E+03  0.65656125193E+03  0.00000000000E+00 0.  1.
         13    1    5    5    0    0  0.97785350849E+01  0.18222938100E+03 -0.65879222839E+02  0.19401865645E+03  0.00000000000E+00 0.  1.
        -13    1    5    5    0    0 -0.94873434160E+02  0.29923641487E+03 -0.15870620642E+03  0.35175426145E+03  0.00000000000E+00 0. -1.
          1    1    6    6  503    0  0.27761561945E+03  0.45974801378E+02  0.36678175825E+03  0.46229100436E+03  0.00000000000E+00 0. -1.
         -1    1    6    6    0  503  0.24724004553E+02 -0.59725650670E+01  0.94794339834E+02  0.98147413614E+02  0.00000000000E+00 0.  1.
<mgrwt>
<rscale>  0 0.26844742E+04</rscale>
<asrwt>0</asrwt>
<pdfrwt beam="1">  1        2 0.39022413E+00 0.26844742E+04</pdfrwt>
<pdfrwt beam="2">  1       -1 0.10927420E+00 0.26844742E+04</pdfrwt>
<totfact> 0.25662025E+00</totfact>
</mgrwt>
</event>
<event>
12    7  0.1660832E-007  0.3490546E+04  0.7818608E-02  0.8116034E-01
          2   -1    0    0  501    0  0.00000000000E+00  0.00000000000E+00  0.37370001746E+04  0.37370001746E+04  0.00000000000E+00 0. -1.
         -1   -1    0    0    0  501 -0.00000000000E+00 -0.00000000000E+00 -0.81508623792E+03  0.81508623792E+03  0.00000000000E+00 0.  1.
         24    2    1    2    0    0 -0.56681141441E+03  0.14834470799E+04  0.88290720594E+03  0.18188622324E+04  0.82730089202E+02 0.  0.
        254    2    1    2    0    0  0.56681141441E+03 -0.14834470799E+04  0.20390067307E+04  0.27332241802E+04  0.88942428158E+03 0.  0.
         23    2    4    4    0    0  0.77139412745E+03 -0.11832517422E+04  0.13924345862E+04  0.19856531894E+04  0.93866534270E+02 0.  0.
         23    2    4    4    0    0 -0.20458271304E+03 -0.30019533772E+03  0.64657214449E+03  0.74757099079E+03  0.93997451977E+02 0.  0.
          4    1    3    3  502    0 -0.18602854515E+03  0.45232660590E+03  0.31364359912E+03  0.58101487527E+03  0.00000000000E+00 0. -1.
         -3    1    3    3    0  502 -0.38078286926E+03  0.10311204740E+04  0.56926360683E+03  0.12378473571E+04  0.00000000000E+00 0.  1.
         13    1    5    5    0    0  0.16265491879E+03 -0.21008583817E+03  0.30464645507E+03  0.40423031133E+03  0.00000000000E+00 0. -1.
        -13    1    5    5    0    0  0.60873920866E+03 -0.97316590401E+03  0.10877881312E+04  0.15814228780E+04  0.00000000000E+00 0.  1.
          1    1    6    6  503    0 -0.35891058510E+02 -0.10313336430E+03  0.26031519277E+03  0.28229179673E+03  0.00000000000E+00 0. -1.
         -1    1    6    6    0  503 -0.16869165453E+03 -0.19706197343E+03  0.38625695172E+03  0.46527919407E+03  0.00000000000E+00 0.  1.
<mgrwt>
<rscale>  0 0.34905458E+04</rscale>
<asrwt>0</asrwt>
<pdfrwt beam="1">  1        2 0.57492309E+00 0.34905458E+04</pdfrwt>
<pdfrwt beam="2">  1       -1 0.12539789E+00 0.34905458E+04</pdfrwt>
<totfact> 0.28334510E-01</totfact>
</mgrwt>
</event>
<event>
12    7  0.1660832E-007  0.1306997E+04  0.7818608E-02  0.9024035E-01
          2   -1    0    0  501    0  0.00000000000E+00  0.00000000000E+00  0.23957720497E+03  0.23957720497E+03  0.00000000000E+00 0. -1.
         -1   -1    0    0    0  501 -0.00000000000E+00 -0.00000000000E+00 -0.17825583895E+04  0.17825583895E+04  0.00000000000E+00 0.  1.
         24    2    1    2    0    0 -0.14840746877E+03  0.25261003830E+03 -0.14285939672E+03  0.33580219302E+03  0.80732257316E+02 0.  0.
        254    2    1    2    0    0  0.14840746877E+03 -0.25261003830E+03 -0.14001217878E+04  0.16863334014E+04  0.89305246870E+03 0.  0.
         23    2    4    4    0    0  0.51277728465E+03 -0.12519334273E+03 -0.70409957726E+03  0.88536566482E+03  0.97479377404E+02 0.  0.
         23    2    4    4    0    0 -0.36436981588E+03 -0.12741669557E+03 -0.69602221054E+03  0.80096773661E+03  0.90011224234E+02 0.  0.
          4    1    3    3  502    0 -0.50849385615E+02  0.69646987375E+02 -0.41462500906E+01  0.86333969315E+02  0.00000000000E+00 0. -1.
         -3    1    3    3    0  502 -0.97558083154E+02  0.18296305093E+03 -0.13871314662E+03  0.24946822371E+03  0.00000000000E+00 0.  1.
         13    1    5    5    0    0  0.86011396410E+02  0.38751235892E+01 -0.16209062627E+03  0.18353841020E+03  0.00000000000E+00 0.  1.
        -13    1    5    5    0    0  0.42676588824E+03 -0.12906846632E+03 -0.54200895099E+03  0.70182725461E+03  0.00000000000E+00 0. -1.
          1    1    6    6  503    0 -0.24285851015E+03 -0.84571996089E+02 -0.37168696780E+03  0.45197774337E+03  0.00000000000E+00 0. -1.
         -1    1    6    6    0  503 -0.12151130573E+03 -0.42844699486E+02 -0.32433524274E+03  0.34898999323E+03  0.00000000000E+00 0.  1.
<mgrwt>
<rscale>  0 0.13069971E+04</rscale>
<asrwt>0</asrwt>
<pdfrwt beam="1">  1        2 0.36858031E-01 0.13069971E+04</pdfrwt>
<pdfrwt beam="2">  1       -1 0.27423976E+00 0.13069971E+04</pdfrwt>
<totfact> 0.77121199E+00</totfact>
</mgrwt>
</event>
<event>
12    7  0.1660832E-007  0.2864688E+04  0.7818608E-02  0.8283462E-01
          2   -1    0    0  501    0  0.00000000000E+00  0.00000000000E+00  0.79058816602E+03  0.79058816602E+03  0.00000000000E+00 0. -1.
         -1   -1    0    0    0  501 -0.00000000000E+00 -0.00000000000E+00 -0.25950422713E+04  0.25950422713E+04  0.00000000000E+00 0.  1.
         24    2    1    2    0    0  0.62297462043E+03 -0.10078665240E+04 -0.14414938179E+04  0.18673577179E+04  0.72305681710E+02 0.  0.
        254    2    1    2    0    0 -0.62297462043E+03  0.10078665240E+04 -0.36296028733E+03  0.15182727194E+04  0.87722264694E+03 0.  0.
         23    2    4    4    0    0 -0.15571680515E+03  0.82121141719E+03 -0.51507483172E+03  0.98589269430E+03  0.89701768522E+02 0.  0.
         23    2    4    4    0    0 -0.46725781528E+03  0.18665510683E+03  0.15211454439E+03  0.53238002508E+03  0.84378087461E+02 0.  0.
          2    1    3    3  502    0  0.40376593626E+02 -0.84558834674E+02 -0.14190469712E+03  0.17005119493E+03  0.00000000000E+00 0. -1.
         -1    1    3    3    0  502  0.58259802680E+03 -0.92330768934E+03 -0.12995891208E+04  0.16973065230E+04  0.00000000000E+00 0.  1.
         13    1    5    5    0    0 -0.54170453858E+01  0.17225543931E+03 -0.78005534693E+02  0.18917226064E+03  0.00000000000E+00 0.  1.
        -13    1    5    5    0    0 -0.15029975977E+03  0.64895597788E+03 -0.43706929703E+03  0.79672043366E+03  0.00000000000E+00 0. -1.
          2    1    6    6  503    0 -0.57291530934E+02  0.11804122878E+02  0.45505482564E+02  0.74110766945E+02  0.00000000000E+00 0. -1.
         -2    1    6    6    0  503 -0.40996628434E+03  0.17485098395E+03  0.10660906183E+03  0.45826925814E+03  0.00000000000E+00 0.  1.
<mgrwt>
<rscale>  0 0.28646883E+04</rscale>
<asrwt>0</asrwt>
<pdfrwt beam="1">  1        2 0.12162895E+00 0.28646883E+04</pdfrwt>
<pdfrwt beam="2">  1       -1 0.39923727E+00 0.28646883E+04</pdfrwt>
<totfact> 0.24988543E-01</totfact>
</mgrwt>
</event>
<event>
12    7  0.1660832E-007  0.1433214E+04  0.7818608E-02  0.8930121E-01
         -1   -1    0    0    0  501 -0.00000000000E+00  0.00000000000E+00  0.30053787562E+03  0.30053787562E+03  0.00000000000E+00 0.  1.
          2   -1    0    0  501    0  0.00000000000E+00 -0.00000000000E+00 -0.17086879808E+04  0.17086879808E+04  0.00000000000E+00 0. -1.
         24    2    1    2    0    0  0.20792870610E+03 -0.37321910853E+03 -0.33036668043E+03  0.54609185552E+03  0.80915519765E+02 0.  0.
        254    2    1    2    0    0 -0.20792870610E+03  0.37321910853E+03 -0.10777834247E+04  0.14631340009E+04  0.89253411372E+03 0.  0.
         23    2    4    4    0    0 -0.76245220463E+02  0.63141380937E+03 -0.91701108667E+03  0.11198809962E+04  0.93420448682E+02 0.  0.
         23    2    4    4    0    0 -0.13168348563E+03 -0.25819470084E+03 -0.16077233807E+03  0.34325300472E+03  0.89273941482E+02 0.  0.
          4    1    3    3  502    0  0.25687165671E+02 -0.42186758377E+02 -0.93627499907E+01  0.50271404893E+02  0.00000000000E+00 0. -1.
         -3    1    3    3    0  502  0.18224154043E+03 -0.33103235015E+03 -0.32100393044E+03  0.49582045063E+03  0.00000000000E+00 0.  1.
         13    1    5    5    0    0 -0.36846245380E-01  0.17128694536E+03 -0.31249801022E+03  0.35636249158E+03  0.00000000000E+00 0. -1.
        -13    1    5    5    0    0 -0.76208374218E+02  0.46012686401E+03 -0.60451307645E+03  0.76351850461E+03  0.00000000000E+00 0.  1.
          1    1    6    6  503    0 -0.84644777253E+02 -0.10967619918E+03 -0.34644686733E+02  0.14280707721E+03  0.00000000000E+00 0. -1.
         -1    1    6    6    0  503 -0.47038708379E+02 -0.14851850166E+03 -0.12612765134E+03  0.20044592750E+03  0.00000000000E+00 0.  1.
<mgrwt>
<rscale>  0 0.14332138E+04</rscale>
<asrwt>0</asrwt>
<pdfrwt beam="1">  1        2 0.26287507E+00 0.14332138E+04</pdfrwt>
<pdfrwt beam="2">  1       -1 0.46236597E-01 0.14332138E+04</pdfrwt>
<totfact> 0.49934714E+01</totfact>
</mgrwt>
</event>
<event>
12    7  0.1660832E-007  0.1753311E+04  0.7818608E-02  0.8731530E-01
          2   -1    0    0  501    0  0.00000000000E+00  0.00000000000E+00  0.69572731450E+03  0.69572731450E+03  0.00000000000E+00 0. -1.
         -1   -1    0    0    0  501 -0.00000000000E+00 -0.00000000000E+00 -0.11046354576E+04  0.11046354576E+04  0.00000000000E+00 0.  1.
         24    2    1    2    0    0  0.88212738722E+02 -0.15368831236E+03  0.48360550363E+03  0.52081404898E+03  0.77274872038E+02 0.  0.
        254    2    1    2    0    0 -0.88212738722E+02  0.15368831236E+03 -0.89251364674E+03  0.12795487231E+04  0.89959031820E+03 0.  0.
         23    2    4    4    0    0  0.27766473405E+03  0.24237923583E+03 -0.92696002036E+02  0.39077297355E+03  0.90915177852E+02 0.  0.
         23    2    4    4    0    0 -0.36587747277E+03 -0.88690923479E+02 -0.79981764471E+03  0.88877574957E+03  0.92095945929E+02 0.  0.
          4    1    3    3  502    0  0.92778728307E+02 -0.15929585416E+03  0.47532477970E+03  0.50982027007E+03  0.00000000000E+00 0. -1.
         -3    1    3    3    0  502 -0.45659895856E+01  0.56075418020E+01  0.82807239315E+01  0.10993778913E+02  0.00000000000E+00 0.  1.
         13    1    5    5    0    0  0.46349869003E+02  0.52689919087E+02  0.16901988176E+02  0.72181819971E+02  0.00000000000E+00 0. -1.
        -13    1    5    5    0    0  0.23131486505E+03  0.18968931675E+03 -0.10959799021E+03  0.31859115358E+03  0.00000000000E+00 0.  1.
          3    1    6    6  503    0 -0.28278757403E+03 -0.36309938451E+02 -0.64807884014E+03  0.70802076714E+03  0.00000000000E+00 0. -1.
         -3    1    6    6    0  503 -0.83089898736E+02 -0.52380985028E+02 -0.15173880457E+03  0.18075498244E+03  0.00000000000E+00 0.  1.
<mgrwt>
<rscale>  0 0.17533112E+04</rscale>
<asrwt>0</asrwt>
<pdfrwt beam="1">  1        2 0.10703497E+00 0.17533112E+04</pdfrwt>
<pdfrwt beam="2">  1       -1 0.16994392E+00 0.17533112E+04</pdfrwt>
<totfact> 0.11004135E+01</totfact>
</mgrwt>
</event>
<event>
12    7  0.1660832E-007  0.3164345E+04  0.7818608E-02  0.8198297E-01
         -1   -1    0    0    0  501 -0.00000000000E+00  0.00000000000E+00  0.94892505455E+03  0.94892505455E+03  0.00000000000E+00 0.  1.
          2   -1    0    0  501    0  0.00000000000E+00 -0.00000000000E+00 -0.26380064967E+04  0.26380064967E+04  0.00000000000E+00 0. -1.
         24    2    1    2    0    0 -0.12016573872E+04  0.70492019584E+03 -0.30556174315E+03  0.14285614094E+04  0.80788382867E+02 0.  0.
        254    2    1    2    0    0  0.12016573872E+04 -0.70492019584E+03 -0.13835196990E+04  0.21583701418E+04  0.89640501616E+03 0.  0.
         23    2    4    4    0    0  0.85937253774E+03 -0.78585568138E+03 -0.13618208193E+04  0.17942553405E+04  0.93305800600E+02 0.  0.
         23    2    4    4    0    0  0.34228484945E+03  0.80935485535E+02 -0.21698879706E+02  0.36411480137E+03  0.91647565213E+02 0.  0.
          4    1    3    3  502    0 -0.98782662494E+03  0.58134504265E+03 -0.21948558183E+03  0.11670207454E+04  0.00000000000E+00 0. -1.
         -3    1    3    3    0  502 -0.21383076226E+03  0.12357515319E+03 -0.86076161320E+02  0.26154066399E+03  0.00000000000E+00 0.  1.
         13    1    5    5    0    0  0.74196580156E+03 -0.71434703831E+03 -0.11790194924E+04  0.15655324670E+04  0.00000000000E+00 0. -1.
        -13    1    5    5    0    0  0.11740673618E+03 -0.71508643066E+02 -0.18280132687E+03  0.22872287345E+03  0.00000000000E+00 0.  1.
          3    1    6    6  503    0  0.26180342508E+03  0.31269955299E+02  0.11418991054E+02  0.26391141856E+03  0.00000000000E+00 0. -1.
         -3    1    6    6    0  503  0.80481424373E+02  0.49665530236E+02 -0.33117870760E+02  0.10020338281E+03  0.00000000000E+00 0.  1.
<mgrwt>
<rscale>  0 0.31643454E+04</rscale>
<asrwt>0</asrwt>
<pdfrwt beam="1">  1        2 0.40584715E+00 0.31643454E+04</pdfrwt>
<pdfrwt beam="2">  1       -1 0.14598847E+00 0.31643454E+04</pdfrwt>
<totfact> 0.10404040E+00</totfact>
</mgrwt>
</event>
<event>
12    7  0.1660832E-007  0.2252706E+04  0.7818608E-02  0.8496806E-01
         -1   -1    0    0    0  501 -0.00000000000E+00  0.00000000000E+00  0.34956123495E+03  0.34956123495E+03  0.00000000000E+00 0.  1.
          2   -1    0    0  501    0  0.00000000000E+00 -0.00000000000E+00 -0.36293227653E+04  0.36293227653E+04  0.00000000000E+00 0. -1.
         24    2    1    2    0    0 -0.85118245292E+03  0.19826536516E+03 -0.73756052317E+03  0.11464305608E+04  0.80540561986E+02 0.  0.
        254    2    1    2    0    0  0.85118245292E+03 -0.19826536516E+03 -0.25422010072E+04  0.28324534395E+04  0.89229244240E+03 0.  0.
         23    2    4    4    0    0  0.88213778857E+03 -0.35422717677E+02 -0.12883778436E+04  0.15645290501E+04  0.91716050516E+02 0.  0.
         23    2    4    4    0    0 -0.30955335643E+02 -0.16284264748E+03 -0.12538231637E+04  0.12679243894E+04  0.89909793068E+02 0.  0.
          4    1    3    3  502    0 -0.71594826856E+03  0.16237269088E+03 -0.57912181134E+03  0.93505555256E+03  0.00000000000E+00 0. -1.
         -3    1    3    3    0  502 -0.13523418436E+03  0.35892674281E+02 -0.15843871183E+03  0.21137500821E+03  0.00000000000E+00 0.  1.
         13    1    5    5    0    0  0.64430184959E+03 -0.47207890720E+02 -0.87794360052E+03  0.10900176256E+04  0.00000000000E+00 0. -1.
        -13    1    5    5    0    0  0.23783593898E+03  0.11785173042E+02 -0.41043424305E+03  0.47451142456E+03  0.00000000000E+00 0.  1.
          2    1    6    6  503    0 -0.11335127533E+02 -0.78360078511E+02 -0.90592009359E+03  0.90937341229E+03  0.00000000000E+00 0. -1.
         -2    1    6    6    0  503 -0.19620208110E+02 -0.84482568973E+02 -0.34790307008E+03  0.35855097712E+03  0.00000000000E+00 0.  1.
<mgrwt>
<rscale>  0 0.22527055E+04</rscale>
<asrwt>0</asrwt>
<pdfrwt beam="1">  1        2 0.55835736E+00 0.22527055E+04</pdfrwt>
<pdfrwt beam="2">  1       -1 0.53778651E-01 0.22527055E+04</pdfrwt>
<totfact> 0.23851604E+00</totfact>
</mgrwt>
</event>
<event>
12    7  0.1660832E-007  0.2038836E+04  0.7818608E-02  0.8588676E-01
         -1   -1    0    0    0  501 -0.00000000000E+00  0.00000000000E+00  0.16332997686E+04  0.16332997686E+04  0.00000000000E+00 0.  1.
          2   -1    0    0  501    0  0.00000000000E+00 -0.00000000000E+00 -0.63626624561E+03  0.63626624561E+03  0.00000000000E+00 0. -1.
         24    2    1    2    0    0  0.12836796385E+03 -0.11127448866E+03 -0.48540349353E+03  0.52030898862E+03  0.79022440690E+02 0.  0.
        254    2    1    2    0    0 -0.12836796385E+03  0.11127448866E+03  0.14824370165E+04  0.17492570255E+04  0.91291855478E+03 0.  0.
         23    2    4    4    0    0 -0.10550286217E+03 -0.38623531256E+03  0.80901445595E+03  0.90716685436E+03  0.90214971746E+02 0.  0.
         23    2    4    4    0    0 -0.22865101688E+02  0.49750980122E+03  0.67342256052E+03  0.84209017119E+03  0.87058004803E+02 0.  0.
          2    1    3    3  502    0  0.12180145368E+03 -0.12168816615E+03 -0.47029154946E+03  0.50081707778E+03  0.00000000000E+00 0. -1.
         -1    1    3    3    0  502  0.65665101709E+01  0.10413677485E+02 -0.15111944069E+02  0.19491910838E+02  0.00000000000E+00 0.  1.
         13    1    5    5    0    0 -0.27310383214E+01 -0.76555517433E+02  0.23158725915E+03  0.24392799023E+03  0.00000000000E+00 0. -1.
        -13    1    5    5    0    0 -0.10277182384E+03 -0.30967979513E+03  0.57742719680E+03  0.66323886413E+03  0.00000000000E+00 0.  1.
          2    1    6    6  503    0 -0.30797608119E+02  0.61588771930E+02  0.76972089958E+02  0.10327812995E+03  0.00000000000E+00 0. -1.
         -2    1    6    6    0  503  0.79325064308E+01  0.43592102929E+03  0.59645047056E+03  0.73881204123E+03  0.00000000000E+00 0.  1.
<mgrwt>
<rscale>  0 0.20388364E+04</rscale>
<asrwt>0</asrwt>
<pdfrwt beam="1">  1        2 0.97887115E-01 0.20388364E+04</pdfrwt>
<pdfrwt beam="2">  1       -1 0.25127689E+00 0.20388364E+04</pdfrwt>
<totfact> 0.33385912E+00</totfact>
</mgrwt>
</event>
<event>
12    7  0.1660832E-007  0.2266462E+04  0.7818608E-02  0.8491263E-01
         -1   -1    0    0    0  501 -0.00000000000E+00  0.00000000000E+00  0.12147058598E+04  0.12147058598E+04  0.00000000000E+00 0.  1.
          2   -1    0    0  501    0  0.00000000000E+00 -0.00000000000E+00 -0.10572212752E+04  0.10572212752E+04  0.00000000000E+00 0. -1.
         24    2    1    2    0    0 -0.30099816536E+03  0.44757712467E+03 -0.71864829092E+03  0.90216136594E+03  0.80712985763E+02 0.  0.
        254    2    1    2    0    0  0.30099816536E+03 -0.44757712467E+03  0.87613287550E+03  0.13697657691E+04  0.90428107836E+03 0.  0.
         23    2    4    4    0    0 -0.25778388243E+03 -0.34326453487E+03  0.20163785830E+03  0.48295277917E+03  0.91118000791E+02 0.  0.
         23    2    4    4    0    0  0.55878204779E+03 -0.10431258980E+03  0.67449501720E+03  0.88681298997E+03  0.91516433622E+02 0.  0.
          4    1    3    3  502    0 -0.25134406893E+03  0.39747890544E+03 -0.66010713879E+03  0.81049661069E+03  0.00000000000E+00 0. -1.
         -3    1    3    3    0  502 -0.49654096429E+02  0.50098219231E+02 -0.58541152130E+02  0.91664755250E+02  0.00000000000E+00 0.  1.
         13    1    5    5    0    0 -0.11571075735E+03 -0.85977300084E+02  0.80021399400E+02  0.16487722662E+03  0.00000000000E+00 0. -1.
        -13    1    5    5    0    0 -0.14207312508E+03 -0.25728723479E+03  0.12161645890E+03  0.31807555255E+03  0.00000000000E+00 0.  1.
          1    1    6    6  503    0  0.49489840836E+03 -0.11389967436E+03  0.56502936087E+03  0.75970767343E+03  0.00000000000E+00 0. -1.
         -1    1    6    6    0  503  0.63883639424E+02  0.95870845593E+01  0.10946565633E+03  0.12710531653E+03  0.00000000000E+00 0.  1.
<mgrwt>
<rscale>  0 0.22664623E+04</rscale>
<asrwt>0</asrwt>
<pdfrwt beam="1">  1        2 0.16264943E+00 0.22664623E+04</pdfrwt>
<pdfrwt beam="2">  1       -1 0.18687782E+00 0.22664623E+04</pdfrwt>
<totfact> 0.44635795E+00</totfact>
</mgrwt>
</event>
<event>
12    7  0.1660832E-007  0.1334781E+04  0.7818608E-02  0.9002430E-01
         -1   -1    0    0    0  501 -0.00000000000E+00  0.00000000000E+00  0.87098969030E+03  0.87098969030E+03  0.00000000000E+00 0.  1.
          2   -1    0    0  501    0  0.00000000000E+00 -0.00000000000E+00 -0.51138354907E+03  0.51138354907E+03  0.00000000000E+00 0. -1.
         24    2    1    2    0    0  0.10612356129E+03  0.54808232023E+02 -0.25443079298E+03  0.29106061911E+03  0.75598300387E+02 0.  0.
        254    2    1    2    0    0 -0.10612356129E+03 -0.54808232023E+02  0.61403693421E+03  0.10913126203E+04  0.89423471527E+03 0.  0.
         23    2    4    4    0    0  0.25945732601E+03  0.14970434406E+03 -0.33768889371E+02  0.31453325105E+03  0.89784928994E+02 0.  0.
         23    2    4    4    0    0 -0.36558088730E+03 -0.20451257609E+03  0.64780582359E+03  0.77677936921E+03  0.90879174823E+02 0.  0.
          4    1    3    3  502    0  0.22863335246E+02  0.51013677589E+02 -0.12743358596E+03  0.13915619364E+03  0.00000000000E+00 0. -1.
         -3    1    3    3    0  502  0.83260226043E+02  0.37945544343E+01 -0.12699720703E+03  0.15190442547E+03  0.00000000000E+00 0.  1.
         13    1    5    5    0    0  0.14225926419E+03  0.12704591582E+03 -0.40468543366E+02  0.19497709090E+03  0.00000000000E+00 0. -1.
        -13    1    5    5    0    0  0.11719806182E+03  0.22658428238E+02  0.66996539954E+01  0.11955616015E+03  0.00000000000E+00 0.  1.
          2    1    6    6  503    0 -0.59996714043E+01 -0.25630823791E+02  0.30056891527E+02  0.39954372895E+02  0.00000000000E+00 0. -1.
         -2    1    6    6    0  503 -0.35958121590E+03 -0.17888175229E+03  0.61774893206E+03  0.73682499631E+03  0.00000000000E+00 0.  1.
<mgrwt>
<rscale>  0 0.13347806E+04</rscale>
<asrwt>0</asrwt>
<pdfrwt beam="1">  1        2 0.78674392E-01 0.13347806E+04</pdfrwt>
<pdfrwt beam="2">  1       -1 0.13399841E+00 0.13347806E+04</pdfrwt>
<totfact> 0.31495243E+01</totfact>
</mgrwt>
</event>
<event>
12    7  0.1660832E-007  0.2114470E+04  0.7818608E-02  0.8554896E-01
         -1   -1    0    0    0  501 -0.00000000000E+00  0.00000000000E+00  0.43537112081E+03  0.43537112081E+03  0.00000000000E+00 0.  1.
          2   -1    0    0  501    0  0.00000000000E+00 -0.00000000000E+00 -0.25673401950E+04  0.25673401950E+04  0.00000000000E+00 0. -1.
         24    2    1    2    0    0 -0.64555392335E+03  0.50491250354E+03 -0.12772202816E+04  0.15196501988E+04  0.79803350406E+02 0.  0.
        254    2    1    2    0    0  0.64555392335E+03 -0.50491250354E+03 -0.85474879257E+03  0.14830611170E+04  0.89285960497E+03 0.  0.
         23    2    4    4    0    0 -0.32498176171E+02 -0.41068787060E+03 -0.62716934229E+03  0.75601696480E+03  0.92193322127E+02 0.  0.
         23    2    4    4    0    0  0.67805209952E+03 -0.94224632936E+02 -0.22757945028E+03  0.72704415221E+03  0.90376224450E+02 0.  0.
          4    1    3    3  502    0 -0.43933504916E+03  0.35782649999E+03 -0.94545153415E+03  0.11022403064E+04  0.00000000000E+00 0. -1.
         -3    1    3    3    0  502 -0.20621887419E+03  0.14708600355E+03 -0.33176874743E+03  0.41740989241E+03  0.00000000000E+00 0.  1.
         13    1    5    5    0    0  0.15796390028E+01 -0.14698600581E+03 -0.15160390492E+03  0.21116610795E+03  0.00000000000E+00 0. -1.
        -13    1    5    5    0    0 -0.34077815174E+02 -0.26370186479E+03 -0.47556543737E+03  0.54485085685E+03  0.00000000000E+00 0.  1.
          1    1    6    6  503    0  0.13096873934E+03  0.93535673425E+01 -0.20049665414E+02  0.13282427862E+03  0.00000000000E+00 0. -1.
         -1    1    6    6    0  503  0.54708336018E+03 -0.10357820028E+03 -0.20752978487E+03  0.59421987359E+03  0.00000000000E+00 0.  1.
<mgrwt>
<rscale>  0 0.21144699E+04</rscale>
<asrwt>0</asrwt>
<pdfrwt beam="1">  1        2 0.39497541E+00 0.21144699E+04</pdfrwt>
<pdfrwt beam="2">  1       -1 0.66980173E-01 0.21144699E+04</pdfrwt>
<totfact> 0.75263484E+00</totfact>
</mgrwt>
</event>
<event>
12    7  0.1660832E-007  0.1479621E+04  0.7818608E-02  0.8898119E-01
         -3   -1    0    0    0  501 -0.00000000000E+00  0.00000000000E+00  0.28271505253E+04  0.28271505253E+04  0.00000000000E+00 0.  1.
          4   -1    0    0  501    0  0.00000000000E+00 -0.00000000000E+00 -0.19359402090E+03  0.19359402090E+03  0.00000000000E+00 0. -1.
         24    2    1    2    0    0  0.47995212004E+01 -0.35005064331E+03  0.21743994981E+03  0.41967003452E+03  0.79273689312E+02 0.  0.
        254    2    1    2    0    0 -0.47995212004E+01  0.35005064331E+03  0.24161165546E+04  0.26010745117E+04  0.89744689071E+03 0.  0.
         23    2    4    4    0    0  0.29312050099E+03  0.16690633066E+03  0.20733264477E+04  0.21026034141E+04  0.92093467986E+02 0.  0.
         23    2    4    4    0    0 -0.29792002219E+03  0.18314431265E+03  0.34279010688E+03  0.49847109759E+03  0.93113902733E+02 0.  0.
          4    1    3    3  502    0  0.36833084376E+01 -0.35287946494E+03  0.21986005497E+03  0.41578351014E+03  0.00000000000E+00 0. -1.
         -3    1    3    3    0  502  0.11162127628E+01  0.28288216277E+01 -0.24201051634E+01  0.38865243772E+01  0.00000000000E+00 0.  1.
         13    1    5    5    0    0  0.27086539135E+03  0.13862519247E+03  0.16555462775E+04  0.16832761155E+04  0.00000000000E+00 0. -1.
        -13    1    5    5    0    0  0.22255109637E+02  0.28281138191E+02  0.41778017026E+03  0.41932729859E+03  0.00000000000E+00 0.  1.
          3    1    6    6  503    0 -0.20125032871E+03  0.94871508550E+02  0.26568973132E+03  0.34654484742E+03  0.00000000000E+00 0. -1.
         -3    1    6    6    0  503 -0.96669693477E+02  0.88272804099E+02  0.77100375551E+02  0.15192625017E+03  0.00000000000E+00 0.  1.
<mgrwt>
<rscale>  0 0.14796208E+04</rscale>
<asrwt>0</asrwt>
<pdfrwt beam="1">  1        4 0.29783697E-01 0.14796208E+04</pdfrwt>
<pdfrwt beam="2">  1       -3 0.43494621E+00 0.14796208E+04</pdfrwt>
<totfact> 0.16687319E-01</totfact>
</mgrwt>
</event>
<event>
12    7  0.1660832E-007  0.1199260E+04  0.7818608E-02  0.9113505E-01
          2   -1    0    0  501    0  0.00000000000E+00  0.00000000000E+00  0.31666034137E+03  0.31666034137E+03  0.00000000000E+00 0. -1.
         -1   -1    0    0    0  501 -0.00000000000E+00 -0.00000000000E+00 -0.11354623755E+04  0.11354623755E+04  0.00000000000E+00 0.  1.
         24    2    1    2    0    0 -0.12036756936E+03 -0.67664969556E+02 -0.43827586874E+03  0.46688062519E+03  0.82612839210E+02 0.  0.
        254    2    1    2    0    0  0.12036756936E+03  0.67664969556E+02 -0.38052616535E+03  0.98524209165E+03  0.89823989935E+03 0.  0.
         23    2    4    4    0    0  0.42260767704E+03 -0.11235792891E+03  0.17498294701E+02  0.44687387434E+03  0.90379844901E+02 0.  0.
         23    2    4    4    0    0 -0.30224010769E+03  0.18002289846E+03 -0.39802446005E+03  0.53836821731E+03  0.87518797642E+02 0.  0.
          4    1    3    3  502    0 -0.39639121146E+02  0.17420060171E+02 -0.13170117016E+03  0.13863591397E+03  0.00000000000E+00 0. -1.
         -3    1    3    3    0  502 -0.80728448211E+02 -0.85085029726E+02 -0.30657469857E+03  0.32824471121E+03  0.00000000000E+00 0.  1.
         13    1    5    5    0    0  0.25653615003E+03 -0.22028770324E+02  0.10903582865E+02  0.25771098369E+03  0.00000000000E+00 0. -1.
        -13    1    5    5    0    0  0.16607152702E+03 -0.90329158585E+02  0.65947118359E+01  0.18916289065E+03  0.00000000000E+00 0.  1.
          2    1    6    6  503    0 -0.21819947752E+03  0.11191895668E+03 -0.21682890923E+03  0.32734025224E+03  0.00000000000E+00 0. -1.
         -2    1    6    6    0  503 -0.84040630167E+02  0.68103941780E+02 -0.18119555082E+03  0.21102796507E+03  0.00000000000E+00 0.  1.
<mgrwt>
<rscale>  0 0.11992596E+04</rscale>
<asrwt>0</asrwt>
<pdfrwt beam="1">  1        2 0.48716976E-01 0.11992596E+04</pdfrwt>
<pdfrwt beam="2">  1       -1 0.17468652E+00 0.11992596E+04</pdfrwt>
<totfact> 0.26568034E+01</totfact>
</mgrwt>
</event>
<event>
12    7  0.1660832E-007  0.1216713E+04  0.7818608E-02  0.9098352E-01
          2   -1    0    0  501    0  0.00000000000E+00  0.00000000000E+00  0.14543789758E+04  0.14543789758E+04  0.00000000000E+00 0. -1.
         -1   -1    0    0    0  501 -0.00000000000E+00 -0.00000000000E+00 -0.25447131331E+03  0.25447131331E+03  0.00000000000E+00 0.  1.
         24    2    1    2    0    0 -0.11197554757E+03 -0.16481125954E+03  0.25209439690E+02  0.21631283026E+03  0.80339592739E+02 0.  0.
        254    2    1    2    0    0  0.11197554757E+03  0.16481125954E+03  0.11746982228E+04  0.14925374588E+04  0.89891650160E+03 0.  0.
         23    2    4    4    0    0 -0.18181662888E+03 -0.19871865506E+03  0.89867010166E+03  0.94235615553E+03  0.88773767708E+02 0.  0.
         23    2    4    4    0    0  0.29379217645E+03  0.36352991461E+03  0.27602812113E+03  0.55018130330E+03  0.89666610814E+02 0.  0.
          4    1    3    3  502    0 -0.19580409932E+02 -0.69376644110E+02  0.40363822793E+02  0.82618093608E+02  0.00000000000E+00 0. -1.
         -3    1    3    3    0  502 -0.92395137638E+02 -0.95434615434E+02 -0.15154383103E+02  0.13369473666E+03  0.00000000000E+00 0.  1.
         13    1    5    5    0    0 -0.12654936541E+03 -0.18893304099E+03  0.72901690905E+03  0.76365966867E+03  0.00000000000E+00 0. -1.
        -13    1    5    5    0    0 -0.55267263464E+02 -0.97856140713E+01  0.16965319261E+03  0.17869648686E+03  0.00000000000E+00 0.  1.
          3    1    6    6  503    0  0.12400708677E+03  0.22454060424E+03  0.14819953486E+03  0.29624203391E+03  0.00000000000E+00 0. -1.
         -3    1    6    6    0  503  0.16978508968E+03  0.13898931036E+03  0.12782858627E+03  0.25393926939E+03  0.00000000000E+00 0.  1.
<mgrwt>
<rscale>  0 0.12167132E+04</rscale>
<asrwt>0</asrwt>
<pdfrwt beam="1">  1        2 0.22375061E+00 0.12167132E+04</pdfrwt>
<pdfrwt beam="2">  1       -1 0.39149434E-01 0.12167132E+04</pdfrwt>
<totfact> 0.95818618E+01</totfact>
</mgrwt>
</event>
<event>
12    7  0.1660832E-007  0.1898595E+04  0.7818608E-02  0.8655556E-01
         -1   -1    0    0    0  501 -0.00000000000E+00  0.00000000000E+00  0.36497376268E+03  0.36497376268E+03  0.00000000000E+00 0.  1.
          2   -1    0    0  501    0  0.00000000000E+00 -0.00000000000E+00 -0.24691258083E+04  0.24691258083E+04  0.00000000000E+00 0. -1.
         24    2    1    2    0    0  0.33433499023E+03 -0.63275773007E+03 -0.49993987335E+03  0.87734861536E+03  0.87398428282E+02 0.  0.
        254    2    1    2    0    0 -0.33433499023E+03  0.63275773007E+03 -0.16042121723E+04  0.19567509556E+04  0.86209940145E+03 0.  0.
         23    2    4    4    0    0 -0.61637507024E+03  0.42526121684E+03 -0.11184508000E+04  0.13491675173E+04  0.92495772695E+02 0.  0.
         23    2    4    4    0    0  0.28204008002E+03  0.20749651323E+03 -0.48576137230E+03  0.60758343833E+03  0.10291799637E+03 0.  0.
          4    1    3    3  502    0  0.37286533363E+01 -0.54573828587E+02 -0.32083865785E+02  0.63415929119E+02  0.00000000000E+00 0. -1.
         -3    1    3    3    0  502  0.33060633689E+03 -0.57818390148E+03 -0.46785600756E+03  0.81393268624E+03  0.00000000000E+00 0.  1.
         13    1    5    5    0    0 -0.51912752636E+03  0.31428572179E+03 -0.88978533226E+03  0.10770268525E+04  0.00000000000E+00 0.  1.
        -13    1    5    5    0    0 -0.97247543885E+02  0.11097549505E+03 -0.22866546773E+03  0.27214066478E+03  0.00000000000E+00 0. -1.
          2    1    6    6  503    0  0.24271337397E+02 -0.91242759852E+01 -0.19431218459E+02  0.32402507343E+02  0.00000000000E+00 0. -1.
         -2    1    6    6    0  503  0.25776874262E+03  0.21662078921E+03 -0.46633015384E+03  0.57518093099E+03  0.00000000000E+00 0.  1.
<mgrwt>
<rscale>  0 0.18985954E+04</rscale>
<asrwt>0</asrwt>
<pdfrwt beam="1">  1        2 0.37986551E+00 0.18985954E+04</pdfrwt>
<pdfrwt beam="2">  1       -1 0.56149810E-01 0.18985954E+04</pdfrwt>
<totfact> 0.12422699E+01</totfact>
</mgrwt>
</event>
<event>
12    7  0.1660832E-007  0.3721120E+04  0.7818608E-02  0.8063297E-01
         -1   -1    0    0    0  501 -0.00000000000E+00  0.00000000000E+00  0.14139517989E+04  0.14139517989E+04  0.00000000000E+00 0.  1.
          2   -1    0    0  501    0  0.00000000000E+00 -0.00000000000E+00 -0.24482327431E+04  0.24482327431E+04  0.00000000000E+00 0. -1.
         24    2    1    2    0    0 -0.56865847789E+03 -0.14660270684E+04  0.31455329189E+03  0.16056172517E+04  0.80343983741E+02 0.  0.
        254    2    1    2    0    0  0.56865847789E+03  0.14660270684E+04 -0.13488342361E+04  0.22565672903E+04  0.89450226894E+03 0.  0.
         23    2    4    4    0    0  0.56180042347E+03  0.11560644581E+04 -0.56180032239E+03  0.14057448262E+04  0.91619686042E+02 0.  0.
         23    2    4    4    0    0  0.68580544202E+01  0.30996261033E+03 -0.78703391373E+03  0.85082246413E+03  0.91392731646E+02 0.  0.
          4    1    3    3  502    0 -0.15715544507E+03 -0.35837143399E+03  0.10935445644E+03  0.40630815370E+03  0.00000000000E+00 0. -1.
         -3    1    3    3    0  502 -0.41150303282E+03 -0.11076556345E+04  0.20519883545E+03  0.11993090980E+04  0.00000000000E+00 0.  1.
         13    1    5    5    0    0  0.25384917916E+03  0.51347563106E+03 -0.30000628715E+03  0.64660683709E+03  0.00000000000E+00 0.  1.
        -13    1    5    5    0    0  0.30795124432E+03  0.64258882707E+03 -0.26179403525E+03  0.75913798906E+03  0.00000000000E+00 0. -1.
          4    1    6    6  503    0  0.16970535959E+02  0.70078682203E+02 -0.10184908979E+03  0.12478885319E+03  0.00000000000E+00 0. -1.
         -4    1    6    6    0  503 -0.10112481539E+02  0.23988392812E+03 -0.68518482394E+03  0.72603361093E+03  0.00000000000E+00 0.  1.
<mgrwt>
<rscale>  0 0.37211198E+04</rscale>
<asrwt>0</asrwt>
<pdfrwt beam="1">  1        2 0.37665119E+00 0.37211198E+04</pdfrwt>
<pdfrwt beam="2">  1       -1 0.21753105E+00 0.37211198E+04</pdfrwt>
<totfact> 0.39109960E-01</totfact>
</mgrwt>
</event>
<event>
12    7  0.1660832E-007  0.1489665E+04  0.7818608E-02  0.8891355E-01
          2   -1    0    0  501    0  0.00000000000E+00  0.00000000000E+00  0.21891834064E+04  0.21891834064E+04  0.00000000000E+00 0. -1.
         -1   -1    0    0    0  501 -0.00000000000E+00 -0.00000000000E+00 -0.25341659411E+03  0.25341659411E+03  0.00000000000E+00 0.  1.
         24    2    1    2    0    0 -0.31704188827E+03 -0.31111589467E+03  0.36960703384E+03  0.58337069900E+03  0.80020960709E+02 0.  0.
        254    2    1    2    0    0  0.31704188827E+03  0.31111589467E+03  0.15661597785E+04  0.18592293015E+04  0.89809157950E+03 0.  0.
         23    2    4    4    0    0 -0.22435949101E+03  0.51282039912E+02  0.90745662132E+02  0.26376119500E+03  0.91477669230E+02 0.  0.
         23    2    4    4    0    0  0.54140137928E+03  0.25983385476E+03  0.14754141163E+04  0.15954681065E+04  0.89680425537E+02 0.  0.
          2    1    3    3  502    0 -0.30194911122E+03 -0.27274529687E+03  0.35383816576E+03  0.53922602893E+03  0.00000000000E+00 0. -1.
         -1    1    3    3    0  502 -0.15092777044E+02 -0.38370597803E+02  0.15768868086E+02  0.44144670068E+02  0.00000000000E+00 0.  1.
         13    1    5    5    0    0 -0.17198299845E+03  0.15177102822E+01  0.43397275808E+02  0.17738032233E+03  0.00000000000E+00 0.  1.
        -13    1    5    5    0    0 -0.52376492559E+02  0.49764329630E+02  0.47348386324E+02  0.86380872673E+02  0.00000000000E+00 0. -1.
          1    1    6    6  503    0  0.13368966014E+03  0.84772253586E+02  0.30216555382E+03  0.34112062694E+03  0.00000000000E+00 0. -1.
         -1    1    6    6    0  503  0.40771171913E+03  0.17506160117E+03  0.11732485625E+04  0.12543474796E+04  0.00000000000E+00 0.  1.
<mgrwt>
<rscale>  0 0.14896649E+04</rscale>
<asrwt>0</asrwt>
<pdfrwt beam="1">  1        2 0.33679743E+00 0.14896649E+04</pdfrwt>
<pdfrwt beam="2">  1       -1 0.38987170E-01 0.14896649E+04</pdfrwt>
<totfact> 0.36855449E+01</totfact>
</mgrwt>
</event>
<event>
12    7  0.1660832E-007  0.2924131E+04  0.7818608E-02  0.8265734E-01
          2   -1    0    0  501    0  0.00000000000E+00  0.00000000000E+00  0.14331100013E+04  0.14331100013E+04  0.00000000000E+00 0. -1.
         -1   -1    0    0    0  501 -0.00000000000E+00 -0.00000000000E+00 -0.14916065156E+04  0.14916065156E+04  0.00000000000E+00 0.  1.
         24    2    1    2    0    0  0.11700180155E+04 -0.58530266632E+03  0.12583444961E+03  0.13167280336E+04  0.80106416553E+02 0.  0.
        254    2    1    2    0    0 -0.11700180155E+04  0.58530266632E+03 -0.18433096393E+03  0.16079884833E+04  0.91658479726E+03 0.  0.
         23    2    4    4    0    0 -0.20563228973E+03  0.11590972994E+03  0.33041119117E+03  0.41488257583E+03  0.85066399959E+02 0.  0.
         23    2    4    4    0    0 -0.96438572574E+03  0.46939293638E+03 -0.51474215510E+03  0.11931059075E+04  0.90402785246E+02 0.  0.
          4    1    3    3  502    0  0.15651603228E+02  0.15482921858E+01  0.15874813042E+01  0.15807909071E+02  0.00000000000E+00 0. -1.
         -3    1    3    3    0  502  0.11543664122E+04 -0.58685095850E+03  0.12424696830E+03  0.13009201245E+04  0.00000000000E+00 0.  1.
         13    1    5    5    0    0 -0.78016546465E+01  0.23398365180E+02  0.89190332080E+01  0.26227818469E+02  0.00000000000E+00 0.  1.
        -13    1    5    5    0    0 -0.19783063508E+03  0.92511364760E+02  0.32149215796E+03  0.38865475736E+03  0.00000000000E+00 0. -1.
          1    1    6    6  503    0 -0.72492033387E+03  0.36895362410E+03 -0.42921614086E+03  0.91970797690E+03  0.00000000000E+00 0. -1.
         -1    1    6    6    0  503 -0.23946539187E+03  0.10043931228E+03 -0.85526014235E+02  0.27339793062E+03  0.00000000000E+00 0.  1.
<mgrwt>
<rscale>  0 0.29241315E+04</rscale>
<asrwt>0</asrwt>
<pdfrwt beam="1">  1        2 0.22047846E+00 0.29241315E+04</pdfrwt>
<pdfrwt beam="2">  1       -1 0.22947793E+00 0.29241315E+04</pdfrwt>
<totfact> 0.12930414E+00</totfact>
</mgrwt>
</event>
<event>
12    7  0.1660832E-007  0.1639610E+04  0.7818608E-02  0.8796577E-01
         -1   -1    0    0    0  501 -0.00000000000E+00  0.00000000000E+00  0.20276465112E+03  0.20276465112E+03  0.00000000000E+00 0.  1.
          2   -1    0    0  501    0  0.00000000000E+00 -0.00000000000E+00 -0.33145822479E+04  0.33145822479E+04  0.00000000000E+00 0. -1.
         24    2    1    2    0    0 -0.27494970669E+03  0.34384730719E+03 -0.31795428442E+03  0.54914025470E+03  0.81435744511E+02 0.  0.
        254    2    1    2    0    0  0.27494970669E+03 -0.34384730719E+03 -0.27938633123E+04  0.29682066443E+04  0.90041666097E+03 0.  0.
         23    2    4    4    0    0  0.22846919910E+03  0.84219494249E+02 -0.22650463069E+04  0.22799092314E+04  0.90885822247E+02 0.  0.
         23    2    4    4    0    0  0.46480507585E+02 -0.42806680144E+03 -0.52881700542E+03  0.68829741292E+03  0.93296727328E+02 0.  0.
          2    1    3    3  502    0  0.20780145476E+01  0.25295744137E+02 -0.21818121513E+02  0.33469736214E+02  0.00000000000E+00 0. -1.
         -1    1    3    3    0  502 -0.27702772124E+03  0.31855156306E+03 -0.29613616291E+03  0.51567051849E+03  0.00000000000E+00 0.  1.
         13    1    5    5    0    0  0.30229515221E+02  0.50304068782E+02 -0.53831826181E+03  0.54150796294E+03  0.00000000000E+00 0. -1.
        -13    1    5    5    0    0  0.19823968388E+03  0.33915425467E+02 -0.17267280451E+04  0.17384012684E+04  0.00000000000E+00 0.  1.
          3    1    6    6  503    0 -0.28599986149E+02 -0.99137216917E+02 -0.12249931479E+03  0.16016313280E+03  0.00000000000E+00 0. -1.
         -3    1    6    6    0  503  0.75080493734E+02 -0.32892958453E+03 -0.40631769063E+03  0.52813428012E+03  0.00000000000E+00 0.  1.
<mgrwt>
<rscale>  0 0.16396098E+04</rscale>
<asrwt>0</asrwt>
<pdfrwt beam="1">  1        2 0.50993568E+00 0.16396098E+04</pdfrwt>
<pdfrwt beam="2">  1       -1 0.31194565E-01 0.16396098E+04</pdfrwt>
<totfact> 0.11392087E+01</totfact>
</mgrwt>
</event>
<event>
12    7  0.1660832E-007  0.1672439E+04  0.7818608E-02  0.8777241E-01
         -1   -1    0    0    0  501 -0.00000000000E+00  0.00000000000E+00  0.24517276438E+03  0.24517276438E+03  0.00000000000E+00 0.  1.
          2   -1    0    0  501    0  0.00000000000E+00 -0.00000000000E+00 -0.28521247942E+04  0.28521247942E+04  0.00000000000E+00 0. -1.
         24    2    1    2    0    0  0.11477731917E+03  0.56053753418E+03 -0.67469742333E+03  0.88815780412E+03  0.78939924961E+02 0.  0.
        254    2    1    2    0    0 -0.11477731917E+03 -0.56053753418E+03 -0.19322546064E+04  0.22091397544E+04  0.90515989206E+03 0.  0.
         23    2    4    4    0    0 -0.29898136203E+03 -0.65395362333E+03 -0.91392216637E+03  0.11663396987E+04  0.89718282187E+02 0.  0.
         23    2    4    4    0    0  0.18420404286E+03  0.93416089150E+02 -0.10183324401E+04  0.10428000558E+04  0.88166335298E+02 0.  0.
          2    1    3    3  502    0  0.45202229432E+02  0.21714219700E+03 -0.32211629011E+03  0.39109190686E+03  0.00000000000E+00 0. -1.
         -1    1    3    3    0  502  0.69575089738E+02  0.34339533719E+03 -0.35258113322E+03  0.49706589726E+03  0.00000000000E+00 0.  1.
         13    1    5    5    0    0 -0.25821198038E+02 -0.59714045172E+02 -0.46400795995E+02  0.79909544661E+02  0.00000000000E+00 0.  1.
        -13    1    5    5    0    0 -0.27316016399E+03 -0.59423957816E+03 -0.86752137038E+03  0.10864301540E+04  0.00000000000E+00 0. -1.
          3    1    6    6  503    0  0.18899479769E+03  0.10065742162E+03 -0.94504081908E+03  0.96899592352E+03  0.00000000000E+00 0. -1.
         -3    1    6    6    0  503 -0.47907548349E+01 -0.72413324662E+01 -0.73291620994E+02  0.73804132240E+02  0.00000000000E+00 0.  1.
<mgrwt>
<rscale>  0 0.16724393E+04</rscale>
<asrwt>0</asrwt>
<pdfrwt beam="1">  1        2 0.43878842E+00 0.16724393E+04</pdfrwt>
<pdfrwt beam="2">  1       -1 0.37718888E-01 0.16724393E+04</pdfrwt>
<totfact> 0.15886543E+01</totfact>
</mgrwt>
</event>
<event>
12    7  0.1660832E-007  0.2284074E+04  0.7818608E-02  0.8484227E-01
         -1   -1    0    0    0  501 -0.00000000000E+00  0.00000000000E+00  0.38800230640E+03  0.38800230640E+03  0.00000000000E+00 0.  1.
          2   -1    0    0  501    0  0.00000000000E+00 -0.00000000000E+00 -0.33614451119E+04  0.33614451119E+04  0.00000000000E+00 0. -1.
         24    2    1    2    0    0 -0.30637788332E+03 -0.42508856609E+03  0.74845301034E+02  0.53522198474E+03  0.79328793358E+02 0.  0.
        254    2    1    2    0    0  0.30637788332E+03  0.42508856609E+03 -0.30482881066E+04  0.32142254336E+04  0.87442384515E+03 0.  0.
         23    2    4    4    0    0 -0.26439935057E+03  0.28207395263E+03 -0.87598563024E+03  0.96178021558E+03  0.90540749767E+02 0.  0.
         23    2    4    4    0    0  0.57077723389E+03  0.14301461345E+03 -0.21723024763E+04  0.22524452180E+04  0.91496344859E+02 0.  0.
          4    1    3    3  502    0 -0.65255492087E+02 -0.43470241285E+02  0.15497745151E+02  0.79925723204E+02  0.00000000000E+00 0. -1.
         -3    1    3    3    0  502 -0.24112239123E+03 -0.38161832480E+03  0.59347555883E+02  0.45529626153E+03  0.00000000000E+00 0.  1.
         13    1    5    5    0    0 -0.11763127068E+03  0.84044172141E+02 -0.24666178316E+03  0.28590658261E+03  0.00000000000E+00 0. -1.
        -13    1    5    5    0    0 -0.14676807989E+03  0.19802978049E+03 -0.62932384708E+03  0.67587363297E+03  0.00000000000E+00 0.  1.
          3    1    6    6  503    0  0.78810194396E+02 -0.11848881372E+02 -0.29863773758E+03  0.30908888857E+03  0.00000000000E+00 0. -1.
         -3    1    6    6    0  503  0.49196703949E+03  0.15486349482E+03 -0.18736647387E+04  0.19433563294E+04  0.00000000000E+00 0.  1.
<mgrwt>
<rscale>  0 0.22840740E+04</rscale>
<asrwt>0</asrwt>
<pdfrwt beam="1">  1        2 0.51714541E+00 0.22840740E+04</pdfrwt>
<pdfrwt beam="2">  1       -1 0.59692661E-01 0.22840740E+04</pdfrwt>
<totfact> 0.29825506E+00</totfact>
</mgrwt>
</event>
<event>
12    7  0.1660832E-007  0.2177656E+04  0.7818608E-02  0.8527786E-01
         -1   -1    0    0    0  501 -0.00000000000E+00  0.00000000000E+00  0.64075947773E+03  0.64075947773E+03  0.00000000000E+00 0.  1.
          2   -1    0    0  501    0  0.00000000000E+00 -0.00000000000E+00 -0.18502211147E+04  0.18502211147E+04  0.00000000000E+00 0. -1.
         24    2    1    2    0    0 -0.36824243417E+03 -0.45516151698E+03 -0.12883520753E+04  0.14173942559E+04  0.79880597262E+02 0.  0.
        254    2    1    2    0    0  0.36824243417E+03  0.45516151698E+03  0.78890438315E+02  0.10735863366E+04  0.89643149427E+03 0.  0.
         23    2    4    4    0    0  0.10325800100E+03  0.64100584055E+03 -0.14267943480E+03  0.67045180036E+03  0.87163599600E+02 0.  0.
         23    2    4    4    0    0  0.26498443317E+03 -0.18584432357E+03  0.22156987312E+03  0.40313453619E+03  0.93109522446E+02 0.  0.
          2    1    3    3  502    0 -0.31721811476E+03 -0.41917378551E+03 -0.11041778921E+04  0.12229238783E+04  0.00000000000E+00 0. -1.
         -1    1    3    3    0  502 -0.51024319407E+02 -0.35987731472E+02 -0.18417418322E+03  0.19447037757E+03  0.00000000000E+00 0.  1.
         13    1    5    5    0    0  0.99838630910E+02  0.51924952549E+03 -0.14618759891E+03  0.54859697047E+03  0.00000000000E+00 0. -1.
        -13    1    5    5    0    0  0.34193700867E+01  0.12175631507E+03  0.35081641070E+01  0.12185482988E+03  0.00000000000E+00 0.  1.
          4    1    6    6  503    0  0.13683021484E+03 -0.11350095678E+03  0.17326704422E+03  0.24824673915E+03  0.00000000000E+00 0. -1.
         -4    1    6    6    0  503  0.12815421833E+03 -0.72343366793E+02  0.48302828897E+02  0.15488779705E+03  0.00000000000E+00 0.  1.
<mgrwt>
<rscale>  0 0.21776563E+04</rscale>
<asrwt>0</asrwt>
<pdfrwt beam="1">  1        2 0.28464940E+00 0.21776563E+04</pdfrwt>
<pdfrwt beam="2">  1       -1 0.98578383E-01 0.21776563E+04</pdfrwt>
<totfact> 0.83079341E+00</totfact>
</mgrwt>
</event>
<event>
12    7  0.1660832E-007  0.2492975E+04  0.7818608E-02  0.8405492E-01
         -1   -1    0    0    0  501 -0.00000000000E+00  0.00000000000E+00  0.72875237001E+03  0.72875237001E+03  0.00000000000E+00 0.  1.
          2   -1    0    0  501    0  0.00000000000E+00 -0.00000000000E+00 -0.21320429195E+04  0.21320429195E+04  0.00000000000E+00 0. -1.
         24    2    1    2    0    0 -0.60627349570E+03  0.90077300501E+03 -0.55419080640E+03  0.12214871596E+04  0.77096517453E+02 0.  0.
        254    2    1    2    0    0  0.60627349570E+03 -0.90077300501E+03 -0.84909974312E+03  0.16393081299E+04  0.88735630554E+03 0.  0.
         23    2    4    4    0    0  0.59396254192E+03 -0.97276144681E+03 -0.94856789901E+03  0.14857007829E+04  0.92029471931E+02 0.  0.
         23    2    4    4    0    0  0.12310953785E+02  0.71988441793E+02  0.99468155889E+02  0.15360734703E+03  0.91473535474E+02 0.  0.
          2    1    3    3  502    0 -0.37403042989E+02  0.72503639792E+02 -0.62818092219E+02  0.10296542195E+03  0.00000000000E+00 0. -1.
         -1    1    3    3    0  502 -0.56887045271E+03  0.82826936522E+03 -0.49137271418E+03  0.11185217376E+04  0.00000000000E+00 0.  1.
         13    1    5    5    0    0  0.58406120390E+03 -0.95488656427E+03 -0.94510054099E+03  0.14649747005E+04  0.00000000000E+00 0. -1.
        -13    1    5    5    0    0  0.99013380185E+01 -0.17874882538E+02 -0.34673580164E+01  0.20726082406E+02  0.00000000000E+00 0.  1.
          4    1    6    6  503    0  0.33078637347E+01  0.48707215134E+02  0.11449724302E+03  0.12447069305E+03  0.00000000000E+00 0. -1.
         -4    1    6    6    0  503  0.90030900503E+01  0.23281226659E+02 -0.15029087135E+02  0.29136653983E+02  0.00000000000E+00 0.  1.
<mgrwt>
<rscale>  0 0.24929752E+04</rscale>
<asrwt>0</asrwt>
<pdfrwt beam="1">  1        2 0.32800660E+00 0.24929752E+04</pdfrwt>
<pdfrwt beam="2">  1       -1 0.11211575E+00 0.24929752E+04</pdfrwt>
<totfact> 0.41748772E+00</totfact>
</mgrwt>
</event>
<event>
12    7  0.1660832E-007  0.1637556E+04  0.7818608E-02  0.8797802E-01
          2   -1    0    0  501    0  0.00000000000E+00  0.00000000000E+00  0.81238236272E+03  0.81238236272E+03  0.00000000000E+00 0. -1.
         -1   -1    0    0    0  501 -0.00000000000E+00 -0.00000000000E+00 -0.82522406377E+03  0.82522406377E+03  0.00000000000E+00 0.  1.
         24    2    1    2    0    0  0.38085286930E+03  0.24389056922E+03  0.33490774030E+03  0.56822672185E+03  0.78656818552E+02 0.  0.
        254    2    1    2    0    0 -0.38085286930E+03 -0.24389056922E+03 -0.34774944135E+03  0.10693797046E+04  0.90449530730E+03 0.  0.
         23    2    4    4    0    0 -0.95965847658E+01 -0.42806221395E+03  0.10293870318E+03  0.45031674143E+03  0.94124585269E+02 0.  0.
         23    2    4    4    0    0 -0.37125628454E+03  0.18417164473E+03 -0.45068814453E+03  0.61906296321E+03  0.91480737100E+02 0.  0.
          4    1    3    3  502    0  0.18878650583E+03  0.10638145595E+03  0.11420234046E+03  0.24494802208E+03  0.00000000000E+00 0. -1.
         -3    1    3    3    0  502  0.19206636347E+03  0.13750911327E+03  0.22070539984E+03  0.32327869977E+03  0.00000000000E+00 0.  1.
         13    1    5    5    0    0 -0.37402714537E+02 -0.38661626383E+03  0.93626820540E+02  0.39954609251E+03  0.00000000000E+00 0.  1.
        -13    1    5    5    0    0  0.27806129771E+02 -0.41445950121E+02  0.93118826387E+01  0.50770648928E+02  0.00000000000E+00 0. -1.
          1    1    6    6  503    0 -0.10056689697E+03  0.91928448975E+02 -0.17555898812E+03  0.22222848334E+03  0.00000000000E+00 0. -1.
         -1    1    6    6    0  503 -0.27068938756E+03  0.92243195759E+02 -0.27512915641E+03  0.39683447987E+03  0.00000000000E+00 0.  1.
<mgrwt>
<rscale>  0 0.16375561E+04</rscale>
<asrwt>0</asrwt>
<pdfrwt beam="1">  1        2 0.12498190E+00 0.16375561E+04</pdfrwt>
<pdfrwt beam="2">  1       -1 0.12695755E+00 0.16375561E+04</pdfrwt>
<totfact> 0.19832984E+01</totfact>
</mgrwt>
</event>
<event>
12    7  0.1660832E-007  0.1448373E+04  0.7818608E-02  0.8919529E-01
          2   -1    0    0  501    0  0.00000000000E+00  0.00000000000E+00  0.13476017970E+04  0.13476017970E+04  0.00000000000E+00 0. -1.
         -1   -1    0    0    0  501 -0.00000000000E+00 -0.00000000000E+00 -0.38916973093E+03  0.38916973093E+03  0.00000000000E+00 0.  1.
         24    2    1    2    0    0 -0.36443485628E+03  0.37434962429E+02  0.60116582596E+03  0.70820492013E+03  0.77069564101E+02 0.  0.
        254    2    1    2    0    0  0.36443485628E+03 -0.37434962429E+02  0.35726624013E+03  0.10285666078E+04  0.89224209691E+03 0.  0.
         23    2    4    4    0    0 -0.51770323903E+02 -0.18238533569E+02 -0.25764948692E+03  0.27915445317E+03  0.92364170920E+02 0.  0.
         23    2    4    4    0    0  0.41620518018E+03 -0.19196428859E+02  0.61491572705E+03  0.74941215465E+03  0.99508649266E+02 0.  0.
          2    1    3    3  502    0 -0.35766818616E+03  0.40239938726E+02  0.60139973064E+03  0.70087618027E+03  0.00000000000E+00 0. -1.
         -1    1    3    3    0  502 -0.67666701199E+01 -0.28049762973E+01 -0.23390467714E+00  0.73287398601E+01  0.00000000000E+00 0.  1.
         13    1    5    5    0    0 -0.81739422523E+01 -0.48094828595E+02 -0.16950259787E+03  0.17638326608E+03  0.00000000000E+00 0.  1.
        -13    1    5    5    0    0 -0.43596381651E+02  0.29856295026E+02 -0.88146889054E+02  0.10277118709E+03  0.00000000000E+00 0. -1.
          1    1    6    6  503    0  0.19795161050E+03 -0.56992125386E+02  0.27247893178E+03  0.34158119199E+03  0.00000000000E+00 0. -1.
         -1    1    6    6    0  503  0.21825356967E+03  0.37795696527E+02  0.34243679527E+03  0.40783096266E+03  0.00000000000E+00 0.  1.
<mgrwt>
<rscale>  0 0.14483726E+04</rscale>
<asrwt>0</asrwt>
<pdfrwt beam="1">  1        2 0.20732335E+00 0.14483726E+04</pdfrwt>
<pdfrwt beam="2">  1       -1 0.59872267E-01 0.14483726E+04</pdfrwt>
<totfact> 0.48499732E+01</totfact>
</mgrwt>
</event>
<event>
12    7  0.1660832E-007  0.2011414E+04  0.7818608E-02  0.8601303E-01
          2   -1    0    0  501    0  0.00000000000E+00  0.00000000000E+00  0.32122054977E+04  0.32122054977E+04  0.00000000000E+00 0. -1.
         -1   -1    0    0    0  501 -0.00000000000E+00 -0.00000000000E+00 -0.31487610680E+03  0.31487610680E+03  0.00000000000E+00 0.  1.
         24    2    1    2    0    0 -0.14863984661E+03  0.78011643260E+03  0.10523378072E+04  0.13210243629E+04  0.83755923110E+02 0.  0.
        254    2    1    2    0    0  0.14863984661E+03 -0.78011643260E+03  0.18449915838E+04  0.22060572416E+04  0.91215084091E+03 0.  0.
         23    2    4    4    0    0 -0.26795777507E+03  0.37735654104E+02  0.48822557587E+03  0.56583044589E+03  0.92598767537E+02 0.  0.
         23    2    4    4    0    0  0.41659762168E+03 -0.81785208670E+03  0.13567660079E+04  0.16402267957E+04  0.84227828094E+02 0.  0.
          4    1    3    3  502    0 -0.95016906343E+02  0.33200740237E+03  0.50180040843E+03  0.60914758279E+03  0.00000000000E+00 0. -1.
         -3    1    3    3    0  502 -0.53622940270E+02  0.44810903023E+03  0.55053739873E+03  0.71187678013E+03  0.00000000000E+00 0.  1.
         13    1    5    5    0    0 -0.27012174370E+03  0.46798524757E+02  0.48235607604E+03  0.55481820665E+03  0.00000000000E+00 0.  1.
        -13    1    5    5    0    0  0.21639686338E+01 -0.90628706528E+01  0.58694998295E+01  0.11012239235E+02  0.00000000000E+00 0. -1.
          3    1    6    6  503    0  0.29948433255E+03 -0.65281974339E+03  0.10907895272E+04  0.13060192478E+04  0.00000000000E+00 0. -1.
         -3    1    6    6    0  503  0.11711328914E+03 -0.16503234332E+03  0.26597648065E+03  0.33420754793E+03  0.00000000000E+00 0.  1.
<mgrwt>
<rscale>  0 0.20114142E+04</rscale>
<asrwt>0</asrwt>
<pdfrwt beam="1">  1        2 0.49418544E+00 0.20114142E+04</pdfrwt>
<pdfrwt beam="2">  1       -1 0.48442480E-01 0.20114142E+04</pdfrwt>
<totfact> 0.57536616E+00</totfact>
</mgrwt>
</event>
<event>
12    7  0.1660832E-007  0.1537360E+04  0.7818608E-02  0.8859982E-01
         -3   -1    0    0    0  501 -0.00000000000E+00  0.00000000000E+00  0.42462290710E+03  0.42462290710E+03  0.00000000000E+00 0.  1.
          2   -1    0    0  501    0  0.00000000000E+00 -0.00000000000E+00 -0.13915154143E+04  0.13915154143E+04  0.00000000000E+00 0. -1.
         24    2    1    2    0    0 -0.18704933320E+03 -0.13062987989E+03  0.21198093045E+03  0.32289883017E+03  0.85300182180E+02 0.  0.
        254    2    1    2    0    0  0.18704933320E+03  0.13062987989E+03 -0.11788734377E+04  0.14932394913E+04  0.88767673037E+03 0.  0.
         23    2    4    4    0    0 -0.54746144783E+01  0.44990299430E+03 -0.34061406765E+03  0.57142153533E+03  0.89788374974E+02 0.  0.
         23    2    4    4    0    0  0.19252394768E+03 -0.31927311441E+03 -0.83825937005E+03  0.92181795595E+03  0.89826390407E+02 0.  0.
          2    1    3    3  502    0 -0.32524489827E+02  0.63862399560E+01  0.51980442475E+02  0.61648948889E+02  0.00000000000E+00 0. -1.
         -1    1    3    3    0  502 -0.15452484337E+03 -0.13701611984E+03  0.16000048798E+03  0.26124988128E+03  0.00000000000E+00 0.  1.
         13    1    5    5    0    0 -0.25530440865E+02  0.41524197198E+03 -0.29117930802E+03  0.50780221359E+03  0.00000000000E+00 0. -1.
        -13    1    5    5    0    0  0.20055826387E+02  0.34661022323E+02 -0.49434759626E+02  0.63619321749E+02  0.00000000000E+00 0.  1.
          3    1    6    6  503    0  0.13215107713E+03 -0.28433632390E+03 -0.69686078496E+03  0.76415051259E+03  0.00000000000E+00 0. -1.
         -3    1    6    6    0  503  0.60372870549E+02 -0.34936790516E+02 -0.14139858509E+03  0.15766744336E+03  0.00000000000E+00 0.  1.
<mgrwt>
<rscale>  0 0.15373605E+04</rscale>
<asrwt>0</asrwt>
<pdfrwt beam="1">  1        2 0.21407930E+00 0.15373605E+04</pdfrwt>
<pdfrwt beam="2">  1       -3 0.65326601E-01 0.15373605E+04</pdfrwt>
<totfact> 0.20386201E+01</totfact>
</mgrwt>
</event>
<event>
12    7  0.1660832E-007  0.2127369E+04  0.7818608E-02  0.8549282E-01
         -1   -1    0    0    0  501 -0.00000000000E+00  0.00000000000E+00  0.43030222240E+03  0.43030222240E+03  0.00000000000E+00 0.  1.
          2   -1    0    0  501    0  0.00000000000E+00 -0.00000000000E+00 -0.26293715498E+04  0.26293715498E+04  0.00000000000E+00 0. -1.
         24    2    1    2    0    0 -0.86941376018E+03  0.11878320023E+02 -0.10442782891E+04  0.13612211481E+04  0.79902990793E+02 0.  0.
        254    2    1    2    0    0  0.86941376018E+03 -0.11878320023E+02 -0.11547910383E+04  0.16984526241E+04  0.89172730892E+03 0.  0.
         23    2    4    4    0    0  0.39665647084E+03 -0.19970614957E+03 -0.10861995224E+04  0.11770517116E+04  0.91664754948E+02 0.  0.
         23    2    4    4    0    0  0.47275728934E+03  0.18782782954E+03 -0.68591515882E+02  0.52140091254E+03  0.91517033229E+02 0.  0.
          2    1    3    3  502    0 -0.16816010173E+03  0.15649686231E+02 -0.16014002647E+03  0.23273925447E+03  0.00000000000E+00 0. -1.
         -1    1    3    3    0  502 -0.70125365844E+03 -0.37713662085E+01 -0.88413826266E+03  0.11284818936E+04  0.00000000000E+00 0.  1.
         13    1    5    5    0    0  0.33763938446E+03 -0.15260843532E+03 -0.81012563298E+03  0.89083849809E+03  0.00000000000E+00 0.  1.
        -13    1    5    5    0    0  0.59017086384E+02 -0.47097714242E+02 -0.27607388941E+03  0.28621321351E+03  0.00000000000E+00 0. -1.
          2    1    6    6  503    0  0.12611098213E+03  0.69283453173E+02 -0.57277760832E+02  0.15487065114E+03  0.00000000000E+00 0. -1.
         -2    1    6    6    0  503  0.34664630721E+03  0.11854437637E+03 -0.11313755050E+02  0.36653026140E+03  0.00000000000E+00 0.  1.
<mgrwt>
<rscale>  0 0.21273687E+04</rscale>
<asrwt>0</asrwt>
<pdfrwt beam="1">  1        2 0.40451870E+00 0.21273687E+04</pdfrwt>
<pdfrwt beam="2">  1       -1 0.66200343E-01 0.21273687E+04</pdfrwt>
<totfact> 0.70800964E+00</totfact>
</mgrwt>
</event>
<event>
12    7  0.1660832E-007  0.1162744E+04  0.7818608E-02  0.9146106E-01
          2   -1    0    0  501    0  0.00000000000E+00  0.00000000000E+00  0.11734487503E+04  0.11734487503E+04  0.00000000000E+00 0. -1.
         -1   -1    0    0    0  501 -0.00000000000E+00 -0.00000000000E+00 -0.28803432485E+03  0.28803432485E+03  0.00000000000E+00 0.  1.
         24    2    1    2    0    0  0.19865059350E+02  0.32231159939E+02 -0.95486645224E+02  0.12977174849E+03  0.79306614075E+02 0.  0.
        254    2    1    2    0    0 -0.19865059350E+02 -0.32231159939E+02  0.98090107063E+03  0.13317113266E+04  0.89991926238E+03 0.  0.
         23    2    4    4    0    0 -0.74277882159E+02  0.17333480135E+03 -0.95889686385E+02  0.23034483571E+03  0.91113962944E+02 0.  0.
         23    2    4    4    0    0  0.54412822809E+02 -0.20556596129E+03  0.10767907570E+04  0.11013664909E+04  0.91168487755E+02 0.  0.
          4    1    3    3  502    0 -0.84436733978E+01  0.31808670058E+01  0.11926439029E+02  0.14955048755E+02  0.00000000000E+00 0. -1.
         -3    1    3    3    0  502  0.28308732748E+02  0.29050292933E+02 -0.10741308425E+03  0.11481669973E+03  0.00000000000E+00 0.  1.
         13    1    5    5    0    0  0.11990811943E+02 -0.35282294560E+01 -0.79078973024E+01  0.14790632640E+02  0.00000000000E+00 0.  1.
        -13    1    5    5    0    0 -0.86268694103E+02  0.17686303081E+03 -0.87981789083E+02  0.21555420307E+03  0.00000000000E+00 0. -1.
          1    1    6    6  503    0 -0.37964045924E+01 -0.85596543417E+02  0.60702269229E+03  0.61303974576E+03  0.00000000000E+00 0. -1.
         -1    1    6    6    0  503  0.58209227402E+02 -0.11996941788E+03  0.46976806473E+03  0.48832674514E+03  0.00000000000E+00 0.  1.
<mgrwt>
<rscale>  0 0.11627442E+04</rscale>
<asrwt>0</asrwt>
<pdfrwt beam="1">  1        2 0.18053057E+00 0.11627442E+04</pdfrwt>
<pdfrwt beam="2">  1       -1 0.44312974E-01 0.11627442E+04</pdfrwt>
<totfact> 0.11161333E+02</totfact>
</mgrwt>
</event>
<event>
12    7  0.1660832E-007  0.3574281E+04  0.7818608E-02  0.8096408E-01
          2   -1    0    0  501    0  0.00000000000E+00  0.00000000000E+00  0.19806983562E+04  0.19806983562E+04  0.00000000000E+00 0. -1.
         -1   -1    0    0    0  501 -0.00000000000E+00 -0.00000000000E+00 -0.16124975929E+04  0.16124975929E+04  0.00000000000E+00 0.  1.
         24    2    1    2    0    0 -0.55275916779E+03  0.72266190088E+03 -0.12468228732E+04  0.15455867181E+04  0.80548776063E+02 0.  0.
        254    2    1    2    0    0  0.55275916779E+03 -0.72266190088E+03  0.16150236366E+04  0.20476092310E+04  0.86983866069E+03 0.  0.
         23    2    4    4    0    0  0.45554925297E+03 -0.52745648713E+02  0.10910726054E+04  0.11870755441E+04  0.91660742893E+02 0.  0.
         23    2    4    4    0    0  0.97209914821E+02 -0.66991625217E+03  0.52395103121E+03  0.86053368694E+03  0.88068103176E+02 0.  0.
          2    1    3    3  502    0 -0.12305359084E+03  0.12508207605E+03 -0.28076661739E+03  0.33108549561E+03  0.00000000000E+00 0. -1.
         -1    1    3    3    0  502 -0.42970557695E+03  0.59757982483E+03 -0.96605625583E+03  0.12145012225E+04  0.00000000000E+00 0.  1.
         13    1    5    5    0    0  0.13826691546E+03 -0.58969035423E+02  0.35276929908E+03  0.38345960077E+03  0.00000000000E+00 0. -1.
        -13    1    5    5    0    0  0.31728233751E+03  0.62233867099E+01  0.73830330629E+03  0.80361594330E+03  0.00000000000E+00 0.  1.
          4    1    6    6  503    0 -0.10701596028E+02 -0.16095486720E+03  0.10412273888E+03  0.19199619315E+03  0.00000000000E+00 0.  1.
         -4    1    6    6    0  503  0.10791151085E+03 -0.50896138497E+03  0.41982829233E+03  0.66853749379E+03  0.00000000000E+00 0. -1.
<mgrwt>
<rscale>  0 0.35742811E+04</rscale>
<asrwt>0</asrwt>
<pdfrwt beam="1">  1        2 0.30472282E+00 0.35742811E+04</pdfrwt>
<pdfrwt beam="2">  1       -1 0.24807655E+00 0.35742811E+04</pdfrwt>
<totfact> 0.45665816E-01</totfact>
</mgrwt>
</event>
<event>
12    7  0.1660832E-007  0.1128167E+04  0.7818608E-02  0.9178165E-01
          2   -1    0    0  501    0  0.00000000000E+00  0.00000000000E+00  0.82748515272E+03  0.82748515272E+03  0.00000000000E+00 0. -1.
         -1   -1    0    0    0  501 -0.00000000000E+00 -0.00000000000E+00 -0.38452682438E+03  0.38452682438E+03  0.00000000000E+00 0.  1.
         24    2    1    2    0    0 -0.26807602024E+02 -0.18760965773E+03  0.71305253642E+02  0.21678476044E+03  0.77428431224E+02 0.  0.
        254    2    1    2    0    0  0.26807602024E+02  0.18760965773E+03  0.37165307470E+03  0.99522721666E+03  0.90356802381E+03 0.  0.
         23    2    4    4    0    0 -0.20525687426E+03  0.62841620861E+00  0.57881962851E+03  0.62085136709E+03  0.91068536480E+02 0.  0.
         23    2    4    4    0    0  0.23206447629E+03  0.18698124153E+03 -0.20716655381E+03  0.37437584957E+03  0.91779027474E+02 0.  0.
          2    1    3    3  502    0  0.15889994190E+02 -0.20520511523E+02  0.29577879010E+02  0.39350149113E+02  0.00000000000E+00 0. -1.
         -1    1    3    3    0  502 -0.42697596214E+02 -0.16708914621E+03  0.41727374632E+02  0.17743461133E+03  0.00000000000E+00 0.  1.
         13    1    5    5    0    0 -0.44102528670E+02 -0.38666932770E+02  0.14720063324E+03  0.15845564411E+03  0.00000000000E+00 0. -1.
        -13    1    5    5    0    0 -0.16115434559E+03  0.39295348978E+02  0.43161899527E+03  0.46239572298E+03  0.00000000000E+00 0.  1.
          1    1    6    6  503    0  0.15471328072E+03  0.16356664140E+03 -0.11857934954E+03  0.25446278224E+03  0.00000000000E+00 0. -1.
         -1    1    6    6    0  503  0.77351195566E+02  0.23414600130E+02 -0.88587204270E+02  0.11991306732E+03  0.00000000000E+00 0.  1.
<mgrwt>
<rscale>  0 0.11281671E+04</rscale>
<asrwt>0</asrwt>
<pdfrwt beam="1">  1        2 0.12730541E+00 0.11281671E+04</pdfrwt>
<pdfrwt beam="2">  1       -1 0.59157973E-01 0.11281671E+04</pdfrwt>
<totfact> 0.10787453E+02</totfact>
</mgrwt>
</event>
<event>
12    7  0.1660832E-007  0.1533321E+04  0.7818608E-02  0.8862592E-01
          2   -1    0    0  501    0  0.00000000000E+00  0.00000000000E+00  0.63586564840E+03  0.63586564840E+03  0.00000000000E+00 0. -1.
         -1   -1    0    0    0  501 -0.00000000000E+00 -0.00000000000E+00 -0.92435979819E+03  0.92435979819E+03  0.00000000000E+00 0.  1.
         24    2    1    2    0    0  0.63954081993E+02  0.44816342108E+03  0.11044840714E+03  0.47288248128E+03  0.80488594607E+02 0.  0.
        254    2    1    2    0    0 -0.63954081993E+02 -0.44816342108E+03 -0.39894255694E+03  0.10873429653E+04  0.90455457761E+03 0.  0.
         23    2    4    4    0    0  0.29767174767E+03 -0.10141679274E+03 -0.47013961437E+03  0.57290427482E+03  0.91072585853E+02 0.  0.
         23    2    4    4    0    0 -0.36162582966E+03 -0.34674662834E+03  0.71197057436E+02  0.51443869049E+03  0.92583369688E+02 0.  0.
          2    1    3    3  502    0  0.34685883637E+02  0.33104479279E+03  0.45953997340E+02  0.33601418902E+03  0.00000000000E+00 0. -1.
         -1    1    3    3    0  502  0.29268198356E+02  0.11711862829E+03  0.64494409804E+02  0.13686829225E+03  0.00000000000E+00 0.  1.
         13    1    5    5    0    0  0.77841751825E+02 -0.66619877961E+02 -0.18147101502E+03  0.20839691879E+03  0.00000000000E+00 0. -1.
        -13    1    5    5    0    0  0.21982999584E+03 -0.34796914781E+02 -0.28866859935E+03  0.36450735603E+03  0.00000000000E+00 0.  1.
          3    1    6    6  503    0 -0.67533536127E+02 -0.42538265868E+02  0.42299521504E+02  0.90330128331E+02  0.00000000000E+00 0. -1.
         -3    1    6    6    0  503 -0.29409229353E+03 -0.30420836247E+03  0.28897535932E+02  0.42410856216E+03  0.00000000000E+00 0.  1.
<mgrwt>
<rscale>  0 0.15333214E+04</rscale>
<asrwt>0</asrwt>
<pdfrwt beam="1">  1        2 0.97825484E-01 0.15333214E+04</pdfrwt>
<pdfrwt beam="2">  1       -1 0.14220920E+00 0.15333214E+04</pdfrwt>
<totfact> 0.20465775E+01</totfact>
</mgrwt>
</event>
<event>
12    7  0.1660832E-007  0.1024029E+04  0.7818608E-02  0.9282576E-01
          2   -1    0    0  501    0  0.00000000000E+00  0.00000000000E+00  0.16008280874E+04  0.16008280874E+04  0.00000000000E+00 0. -1.
         -1   -1    0    0    0  501 -0.00000000000E+00 -0.00000000000E+00 -0.16376440721E+03  0.16376440721E+03  0.00000000000E+00 0.  1.
         24    2    1    2    0    0  0.46720776204E+02 -0.76195262150E+02  0.32309090449E+03  0.34381231216E+03  0.76358526218E+02 0.  0.
        254    2    1    2    0    0 -0.46720776204E+02  0.76195262150E+02  0.11139727757E+04  0.14207801824E+04  0.87732116861E+03 0.  0.
         23    2    4    4    0    0 -0.36412398086E+02 -0.37638227686E+03  0.68710994571E+03  0.79053736935E+03  0.99195633852E+02 0.  0.
         23    2    4    4    0    0 -0.10308378118E+02  0.45257753901E+03  0.42686282995E+03  0.63024281305E+03  0.10030671130E+03 0.  0.
          2    1    3    3  502    0 -0.13028988322E+02  0.52720222830E-01  0.96608497377E+02  0.97483122034E+02  0.00000000000E+00 0. -1.
         -3    1    3    3    0  502  0.59749764526E+02 -0.76247982373E+02  0.22648240711E+03  0.24632919013E+03  0.00000000000E+00 0.  1.
         13    1    5    5    0    0 -0.94246275896E+01 -0.34730260130E+03  0.57732830929E+03  0.67380701776E+03  0.00000000000E+00 0.  1.
        -13    1    5    5    0    0 -0.26987770497E+02 -0.29079675559E+02  0.10978163642E+03  0.11673035159E+03  0.00000000000E+00 0. -1.
          3    1    6    6  503    0  0.20933409766E+02  0.10291568903E+03  0.53885687286E+02  0.11804030662E+03  0.00000000000E+00 0. -1.
         -3    1    6    6    0  503 -0.31241787884E+02  0.34966184998E+03  0.37297714267E+03  0.51220250643E+03  0.00000000000E+00 0.  1.
<mgrwt>
<rscale>  0 0.10240286E+04</rscale>
<asrwt>0</asrwt>
<pdfrwt beam="1">  1        2 0.24628123E+00 0.10240286E+04</pdfrwt>
<pdfrwt beam="2">  1       -1 0.25194525E-01 0.10240286E+04</pdfrwt>
<totfact> 0.17486071E+02</totfact>
</mgrwt>
</event>
<event>
12    7  0.1660832E-007  0.2430817E+04  0.7818608E-02  0.8428055E-01
          2   -1    0    0  501    0  0.00000000000E+00  0.00000000000E+00  0.31251748462E+04  0.31251748462E+04  0.00000000000E+00 0. -1.
         -1   -1    0    0    0  501 -0.00000000000E+00 -0.00000000000E+00 -0.47268321116E+03  0.47268321116E+03  0.00000000000E+00 0.  1.
         24    2    1    2    0    0  0.80834901088E+02  0.96541915868E+03  0.55699870318E+03  0.11203412787E+04  0.79678053579E+02 0.  0.
        254    2    1    2    0    0 -0.80834901088E+02 -0.96541915868E+03  0.20954929318E+04  0.24775167786E+04  0.89912753704E+03 0.  0.
         23    2    4    4    0    0  0.27334718815E+03 -0.59977406373E+03  0.17048028123E+04  0.18301252643E+04  0.92510762290E+02 0.  0.
         23    2    4    4    0    0 -0.35418208924E+03 -0.36564509495E+03  0.39069011949E+03  0.64739151437E+03  0.85648792192E+02 0.  0.
          2    1    3    3  502    0  0.16130278825E+02  0.22604193865E+03  0.17006851999E+03  0.28333451151E+03  0.00000000000E+00 0. -1.
         -1    1    3    3    0  502  0.64704622263E+02  0.73937722004E+03  0.38693018319E+03  0.83700676719E+03  0.00000000000E+00 0.  1.
         13    1    5    5    0    0  0.69801045275E+02 -0.83391514903E+02  0.33207335148E+03  0.34942673258E+03  0.00000000000E+00 0.  1.
        -13    1    5    5    0    0  0.20354614288E+03 -0.51638254883E+03  0.13727294609E+04  0.14806985317E+04  0.00000000000E+00 0. -1.
          4    1    6    6  503    0 -0.28136397989E+03 -0.29069896668E+03  0.35102306359E+03  0.53561998616E+03  0.00000000000E+00 0. -1.
         -4    1    6    6    0  503 -0.72818109350E+02 -0.74946128278E+02  0.39667055904E+02  0.11177152820E+03  0.00000000000E+00 0.  1.
<mgrwt>
<rscale>  0 0.24308169E+04</rscale>
<asrwt>0</asrwt>
<pdfrwt beam="1">  1        2 0.48079612E+00 0.24308169E+04</pdfrwt>
<pdfrwt beam="2">  1       -1 0.72720496E-01 0.24308169E+04</pdfrwt>
<totfact> 0.28223485E+00</totfact>
</mgrwt>
</event>
<event>
12    7  0.1660832E-007  0.1307022E+04  0.7818608E-02  0.9024015E-01
          2   -1    0    0  501    0  0.00000000000E+00  0.00000000000E+00  0.17400276700E+04  0.17400276700E+04  0.00000000000E+00 0. -1.
         -1   -1    0    0    0  501 -0.00000000000E+00 -0.00000000000E+00 -0.24544260551E+03  0.24544260551E+03  0.00000000000E+00 0.  1.
         24    2    1    2    0    0 -0.23957262377E+03  0.97261781959E+02  0.72002055832E+03  0.76931210789E+03  0.80972950123E+02 0.  0.
        254    2    1    2    0    0  0.23957262377E+03 -0.97261781959E+02  0.77456450622E+03  0.12161581677E+04  0.90124115430E+03 0.  0.
         23    2    4    4    0    0  0.35446526688E+03 -0.31614014620E+03  0.81612499391E+03  0.94903394342E+03  0.94948420803E+02 0.  0.
         23    2    4    4    0    0 -0.11489264311E+03  0.21887836424E+03 -0.41560487686E+02  0.26712422425E+03  0.92303950477E+02 0.  0.
          4    1    3    3  502    0 -0.17528498229E+03  0.10664932822E+03  0.57097495064E+03  0.60672176365E+03  0.00000000000E+00 0. -1.
         -3    1    3    3    0  502 -0.64287641480E+02 -0.93875462582E+01  0.14904560768E+03  0.16259034424E+03  0.00000000000E+00 0.  1.
         13    1    5    5    0    0 -0.59175908408E+01 -0.20243446723E+01  0.12044236635E+02  0.13571274400E+02  0.00000000000E+00 0.  1.
        -13    1    5    5    0    0  0.36038285773E+03 -0.31411580152E+03  0.80408075727E+03  0.93546266902E+03  0.00000000000E+00 0. -1.
          1    1    6    6  503    0 -0.10427479695E+03  0.14966451700E+03  0.59485895408E+01  0.18250503183E+03  0.00000000000E+00 0. -1.
         -1    1    6    6    0  503 -0.10617846163E+02  0.69213847239E+02 -0.47509077227E+02  0.84619192419E+02  0.00000000000E+00 0.  1.
<mgrwt>
<rscale>  0 0.13070225E+04</rscale>
<asrwt>0</asrwt>
<pdfrwt beam="1">  1        2 0.26769656E+00 0.13070225E+04</pdfrwt>
<pdfrwt beam="2">  1       -1 0.37760402E-01 0.13070225E+04</pdfrwt>
<totfact> 0.70356023E+01</totfact>
</mgrwt>
</event>
<event>
12    7  0.1660832E-007  0.2665853E+04  0.7818608E-02  0.8346170E-01
          2   -1    0    0  501    0  0.00000000000E+00  0.00000000000E+00  0.17635534404E+04  0.17635534404E+04  0.00000000000E+00 0. -1.
         -1   -1    0    0    0  501 -0.00000000000E+00 -0.00000000000E+00 -0.10074503218E+04  0.10074503218E+04  0.00000000000E+00 0.  1.
         24    2    1    2    0    0  0.82238186824E+02  0.30557143229E+03 -0.83770791146E+03  0.89882707929E+03  0.77450332028E+02 0.  0.
        254    2    1    2    0    0 -0.82238186824E+02 -0.30557143229E+03  0.15938110301E+04  0.18721766829E+04  0.92987897752E+03 0.  0.
         23    2    4    4    0    0  0.30556970812E+03  0.64729070828E+02  0.10652397918E+04  0.11137642950E+04  0.90401280428E+02 0.  0.
         23    2    4    4    0    0 -0.38780789494E+03 -0.37030050311E+03  0.52857123826E+03  0.75841238796E+03  0.91018516294E+02 0.  0.
          4    1    3    3  502    0  0.57497374218E+02  0.12125205158E+03 -0.27138526338E+03  0.30275067173E+03  0.00000000000E+00 0. -1.
         -3    1    3    3    0  502  0.24740812606E+02  0.18431938070E+03 -0.56632264808E+03  0.59607640755E+03  0.00000000000E+00 0.  1.
         13    1    5    5    0    0  0.19670620180E+03  0.82967888942E+02  0.65363668696E+03  0.68761756738E+03  0.00000000000E+00 0.  1.
        -13    1    5    5    0    0  0.10886350631E+03 -0.18238818114E+02  0.41160310488E+03  0.42614672760E+03  0.00000000000E+00 0. -1.
          1    1    6    6  503    0 -0.29830631714E+03 -0.33234961031E+03  0.43873304454E+03  0.62604281538E+03  0.00000000000E+00 0.  1.
         -1    1    6    6    0  503 -0.89501577801E+02 -0.37950892803E+02  0.89838193722E+02  0.13236957258E+03  0.00000000000E+00 0. -1.
<mgrwt>
<rscale>  0 0.26658526E+04</rscale>
<asrwt>0</asrwt>
<pdfrwt beam="1">  1        2 0.27131591E+00 0.26658526E+04</pdfrwt>
<pdfrwt beam="2">  1       -1 0.15499236E+00 0.26658526E+04</pdfrwt>
<totfact> 0.28895169E+00</totfact>
</mgrwt>
</event>
<event>
12    7  0.1660832E-007  0.1377792E+04  0.7818608E-02  0.8970052E-01
         -1   -1    0    0    0  501 -0.00000000000E+00  0.00000000000E+00  0.73897820693E+03  0.73897820693E+03  0.00000000000E+00 0.  1.
          2   -1    0    0  501    0  0.00000000000E+00 -0.00000000000E+00 -0.64220822840E+03  0.64220822840E+03  0.00000000000E+00 0. -1.
         24    2    1    2    0    0  0.51195835621E+02 -0.47230797930E+02 -0.35597681269E+03  0.37195522325E+03  0.82337324914E+02 0.  0.
        254    2    1    2    0    0 -0.51195835621E+02  0.47230797930E+02  0.45274679123E+03  0.10092312121E+04  0.89928650641E+03 0.  0.
         23    2    4    4    0    0 -0.44174437590E+03  0.12610449608E+03  0.35817100413E+03  0.58966004969E+03  0.91499007780E+02 0.  0.
         23    2    4    4    0    0  0.39054854028E+03 -0.78873698148E+02  0.94575787094E+02  0.41957116239E+03  0.91357310755E+02 0.  0.
          4    1    3    3  502    0  0.61988488849E+02 -0.21902547003E+02 -0.31983086601E+03  0.32651811155E+03  0.00000000000E+00 0. -1.
         -3    1    3    3    0  502 -0.10792653228E+02 -0.25328250928E+02 -0.36145946675E+02  0.45437111702E+02  0.00000000000E+00 0.  1.
         13    1    5    5    0    0 -0.15091657880E+03  0.89063771302E+02  0.13366996571E+03  0.22039924875E+03  0.00000000000E+00 0.  1.
        -13    1    5    5    0    0 -0.29082779710E+03  0.37040724777E+02  0.22450103842E+03  0.36926080094E+03  0.00000000000E+00 0. -1.
          3    1    6    6  503    0  0.22587129819E+03 -0.17510484376E+02  0.16140021083E+02  0.22712322798E+03  0.00000000000E+00 0. -1.
         -3    1    6    6    0  503  0.16467724210E+03 -0.61363213773E+02  0.78435766011E+02  0.19244793441E+03  0.00000000000E+00 0.  1.
<mgrwt>
<rscale>  0 0.13777923E+04</rscale>
<asrwt>0</asrwt>
<pdfrwt beam="1">  1        2 0.98801266E-01 0.13777923E+04</pdfrwt>
<pdfrwt beam="2">  1       -1 0.11368896E+00 0.13777923E+04</pdfrwt>
<totfact> 0.35879109E+01</totfact>
</mgrwt>
</event>
<event>
12    7  0.1660832E-007  0.2602107E+04  0.7818608E-02  0.8367486E-01
          2   -1    0    0  501    0  0.00000000000E+00  0.00000000000E+00  0.29169363631E+04  0.29169363631E+04  0.00000000000E+00 0. -1.
         -1   -1    0    0    0  501 -0.00000000000E+00 -0.00000000000E+00 -0.58031431392E+03  0.58031431392E+03  0.00000000000E+00 0.  1.
         24    2    1    2    0    0 -0.80596237846E+03 -0.55459724141E+03  0.17894732569E+04  0.20410015421E+04  0.79494039508E+02 0.  0.
        254    2    1    2    0    0  0.80596237846E+03  0.55459724141E+03  0.54714879230E+03  0.14562491349E+04  0.92958931050E+03 0.  0.
         23    2    4    4    0    0  0.70868630194E+03  0.22000416953E+03  0.73679620203E+03  0.10491620693E+04  0.85054659880E+02 0.  0.
         23    2    4    4    0    0  0.97276076523E+02  0.33459307188E+03 -0.18964740973E+03  0.40708706556E+03  0.91315826181E+02 0.  0.
          4    1    3    3  502    0 -0.78901125272E+03 -0.55345892259E+03  0.17679650284E+04  0.20135927785E+04  0.00000000000E+00 0. -1.
         -3    1    3    3    0  502 -0.16951125747E+02 -0.11383188212E+01  0.21508228478E+02  0.27408763674E+02  0.00000000000E+00 0.  1.
         13    1    5    5    0    0  0.19364030511E+03  0.55927167424E+02  0.25520296791E+03  0.32519681833E+03  0.00000000000E+00 0.  1.
        -13    1    5    5    0    0  0.51504599683E+03  0.16407700211E+03  0.48159323412E+03  0.72396525098E+03  0.00000000000E+00 0. -1.
          3    1    6    6  503    0  0.11869074881E+02  0.15683957990E+03 -0.12038345005E+03  0.19806994675E+03  0.00000000000E+00 0. -1.
         -3    1    6    6    0  503  0.85407001642E+02  0.17775349199E+03 -0.69263959680E+02  0.20901711881E+03  0.00000000000E+00 0.  1.
<mgrwt>
<rscale>  0 0.26021068E+04</rscale>
<asrwt>0</asrwt>
<pdfrwt beam="1">  1        2 0.44875943E+00 0.26021068E+04</pdfrwt>
<pdfrwt beam="2">  1       -1 0.89279127E-01 0.26021068E+04</pdfrwt>
<totfact> 0.24246778E+00</totfact>
</mgrwt>
</event>
<event>
12    7  0.1660832E-007  0.1424945E+04  0.7818608E-02  0.8935957E-01
         -1   -1    0    0    0  501 -0.00000000000E+00  0.00000000000E+00  0.44869393550E+03  0.44869393550E+03  0.00000000000E+00 0.  1.
          2   -1    0    0  501    0  0.00000000000E+00 -0.00000000000E+00 -0.11313214314E+04  0.11313214314E+04  0.00000000000E+00 0. -1.
         24    2    1    2    0    0  0.17947871231E+03 -0.35154703130E+03  0.62139638419E+02  0.40757394101E+03  0.80357073964E+02 0.  0.
        254    2    1    2    0    0 -0.17947871231E+03  0.35154703130E+03 -0.74476713435E+03  0.11724414259E+04  0.81494962384E+03 0.  0.
         23    2    4    4    0    0 -0.48565810914E+03  0.23531392185E+03 -0.56450111605E+03  0.78591101187E+03  0.88080461836E+02 0.  0.
         23    2    4    4    0    0  0.30617939683E+03  0.11623310946E+03 -0.18026601829E+03  0.38653041404E+03  0.98254592024E+02 0.  0.
          2    1    3    3  502    0  0.29898390000E+02 -0.24083033623E+02  0.24635786794E+02  0.45616096107E+02  0.00000000000E+00 0. -1.
         -3    1    3    3    0  502  0.14958032231E+03 -0.32746399768E+03  0.37503851624E+02  0.36195784490E+03  0.00000000000E+00 0.  1.
         13    1    5    5    0    0 -0.32667358453E+03  0.11157724638E+03 -0.34787328272E+03  0.49008257832E+03  0.00000000000E+00 0. -1.
        -13    1    5    5    0    0 -0.15898452461E+03  0.12373667547E+03 -0.21662783333E+03  0.29582843355E+03  0.00000000000E+00 0.  1.
          4    1    6    6  503    0  0.11438684708E+03  0.89642917052E+02 -0.10265755166E+03  0.17792913273E+03  0.00000000000E+00 0. -1.
         -4    1    6    6    0  503  0.19179254975E+03  0.26590192404E+02 -0.77608466631E+02  0.20860128131E+03  0.00000000000E+00 0.  1.
<mgrwt>
<rscale>  0 0.14249450E+04</rscale>
<asrwt>0</asrwt>
<pdfrwt beam="1">  1        2 0.17404945E+00 0.14249450E+04</pdfrwt>
<pdfrwt beam="2">  1       -1 0.69029836E-01 0.14249450E+04</pdfrwt>
<totfact> 0.49035151E+01</totfact>
</mgrwt>
</event>
<event>
12    7  0.1660832E-007  0.2759794E+04  0.7818608E-02  0.8315861E-01
         -1   -1    0    0    0  501 -0.00000000000E+00  0.00000000000E+00  0.12963316894E+04  0.12963316894E+04  0.00000000000E+00 0.  1.
          2   -1    0    0  501    0  0.00000000000E+00 -0.00000000000E+00 -0.14688488389E+04  0.14688488389E+04  0.00000000000E+00 0. -1.
         24    2    1    2    0    0  0.35616128183E+03 -0.40596254609E+03  0.10340556378E+04  0.11692921437E+04  0.79477089848E+02 0.  0.
        254    2    1    2    0    0 -0.35616128183E+03  0.40596254609E+03 -0.12065727872E+04  0.15958883846E+04  0.89408355192E+03 0.  0.
         23    2    4    4    0    0 -0.12692819451E+03  0.20828561488E+03 -0.12506281660E+04  0.12774075715E+04  0.90584933464E+02 0.  0.
         23    2    4    4    0    0 -0.22923308732E+03  0.19767693121E+03  0.44055378805E+02  0.31848081312E+03  0.88685818865E+02 0.  0.
          4    1    3    3  502    0  0.26192881149E+03 -0.31910629309E+03  0.71773863780E+03  0.82800016955E+03  0.00000000000E+00 0. -1.
         -3    1    3    3    0  502  0.94232470342E+02 -0.86856253000E+02  0.31631699995E+03  0.34129197414E+03  0.00000000000E+00 0.  1.
         13    1    5    5    0    0 -0.81374195913E+01  0.37958177462E+02 -0.39659457093E+03  0.39849001810E+03  0.00000000000E+00 0.  1.
        -13    1    5    5    0    0 -0.11879077492E+03  0.17032743742E+03 -0.85403359506E+03  0.87891755338E+03  0.00000000000E+00 0. -1.
          3    1    6    6  503    0 -0.17975250517E+03  0.19162408683E+03  0.52473008147E+02  0.26792568065E+03  0.00000000000E+00 0. -1.
         -3    1    6    6    0  503 -0.49480582154E+02  0.60528443811E+01 -0.84176293413E+01  0.50555132470E+02  0.00000000000E+00 0.  1.
<mgrwt>
<rscale>  0 0.27597937E+04</rscale>
<asrwt>0</asrwt>
<pdfrwt beam="1">  1        2 0.22597674E+00 0.27597937E+04</pdfrwt>
<pdfrwt beam="2">  1       -1 0.19943565E+00 0.27597937E+04</pdfrwt>
<totfact> 0.19961539E+00</totfact>
</mgrwt>
</event>
<event>
12    7  0.1660832E-007  0.1656016E+04  0.7818608E-02  0.8786856E-01
          2   -1    0    0  501    0  0.00000000000E+00  0.00000000000E+00  0.16682123083E+04  0.16682123083E+04  0.00000000000E+00 0. -1.
         -1   -1    0    0    0  501 -0.00000000000E+00 -0.00000000000E+00 -0.41097710461E+03  0.41097710461E+03  0.00000000000E+00 0.  1.
         24    2    1    2    0    0  0.49692658745E+03  0.88189410082E+02  0.18678289619E+03  0.54549811004E+03  0.89257674071E+02 0.  0.
        254    2    1    2    0    0 -0.49692658745E+03 -0.88189410082E+02  0.10704523075E+04  0.15336913029E+04  0.97551394893E+03 0.  0.
         23    2    4    4    0    0  0.12119060611E+03 -0.40560380027E+01 -0.11514806225E+03  0.19073926029E+03  0.91753881238E+02 0.  0.
         23    2    4    4    0    0 -0.61811719356E+03 -0.84133372079E+02  0.11856003698E+04  0.13429520426E+04  0.93405902820E+02 0.  0.
          2    1    3    3  502    0  0.30851602756E+03  0.23426721187E+02  0.80562874194E+02  0.31972070191E+03  0.00000000000E+00 0. -1.
         -1    1    3    3    0  502  0.18841055989E+03  0.64762688895E+02  0.10622002200E+03  0.22577740814E+03  0.00000000000E+00 0.  1.
         13    1    5    5    0    0  0.93035970204E+02 -0.41493257672E+02 -0.59395044258E+02  0.11792011477E+03  0.00000000000E+00 0.  1.
        -13    1    5    5    0    0  0.28154635907E+02  0.37437219670E+02 -0.55753017991E+02  0.72819145523E+02  0.00000000000E+00 0. -1.
          4    1    6    6  503    0 -0.31581878795E+03 -0.87769763026E+02  0.58596661886E+03  0.67141784049E+03  0.00000000000E+00 0. -1.
         -4    1    6    6    0  503 -0.30229840562E+03  0.36363909475E+01  0.59963375093E+03  0.67153420213E+03  0.00000000000E+00 0.  1.
<mgrwt>
<rscale>  0 0.16560158E+04</rscale>
<asrwt>0</asrwt>
<pdfrwt beam="1">  1        2 0.25664804E+00 0.16560158E+04</pdfrwt>
<pdfrwt beam="2">  1       -1 0.63227247E-01 0.16560158E+04</pdfrwt>
<totfact> 0.28189369E+01</totfact>
</mgrwt>
</event>
<event>
12    7  0.1660832E-007  0.1666247E+04  0.7818608E-02  0.8780853E-01
         -1   -1    0    0    0  501 -0.00000000000E+00  0.00000000000E+00  0.11021246594E+04  0.11021246594E+04  0.00000000000E+00 0.  1.
          2   -1    0    0  501    0  0.00000000000E+00 -0.00000000000E+00 -0.62977863199E+03  0.62977863199E+03  0.00000000000E+00 0. -1.
         24    2    1    2    0    0 -0.18938834690E+03  0.11755477955E+02  0.74552843953E+03  0.77341731719E+03  0.79721735919E+02 0.  0.
        254    2    1    2    0    0  0.18938834690E+03 -0.11755477955E+02 -0.27318241216E+03  0.95848597416E+03  0.89892190715E+03 0.  0.
         23    2    4    4    0    0 -0.85671742340E+02 -0.34446713617E+03  0.10112822307E+03  0.38011011093E+03  0.90881921151E+02 0.  0.
         23    2    4    4    0    0  0.27506008924E+03  0.33271165821E+03 -0.37431063523E+03  0.57837586324E+03  0.89750138289E+02 0.  0.
          4    1    3    3  502    0 -0.64166247325E+01  0.42728810618E+01  0.24235423539E+01  0.80810978875E+01  0.00000000000E+00 0. -1.
         -3    1    3    3    0  502 -0.18297172217E+03  0.74825968932E+01  0.74310489718E+03  0.76533621930E+03  0.00000000000E+00 0.  1.
         13    1    5    5    0    0  0.18816849087E+02 -0.57563333982E+02  0.24300700601E+02  0.65254388959E+02  0.00000000000E+00 0.  1.
        -13    1    5    5    0    0 -0.10448859143E+03 -0.28690380218E+03  0.76827522471E+02  0.31485572197E+03  0.00000000000E+00 0. -1.
          2    1    6    6  503    0  0.17553879421E+03  0.14688949749E+03 -0.17319777255E+03  0.28703285728E+03  0.00000000000E+00 0. -1.
         -2    1    6    6    0  503  0.99521295032E+02  0.18582216072E+03 -0.20111286268E+03  0.29134300595E+03  0.00000000000E+00 0.  1.
<mgrwt>
<rscale>  0 0.16662468E+04</rscale>
<asrwt>0</asrwt>
<pdfrwt beam="1">  1        2 0.96889020E-01 0.16662468E+04</pdfrwt>
<pdfrwt beam="2">  1       -1 0.16955764E+00 0.16662468E+04</pdfrwt>
<totfact> 0.12630555E+01</totfact>
</mgrwt>
</event>
<event>
12    7  0.1660832E-007  0.2898151E+04  0.7818608E-02  0.8273428E-01
         -1   -1    0    0    0  501 -0.00000000000E+00  0.00000000000E+00  0.14237085580E+04  0.14237085580E+04  0.00000000000E+00 0.  1.
          2   -1    0    0  501    0  0.00000000000E+00 -0.00000000000E+00 -0.14748943176E+04  0.14748943176E+04  0.00000000000E+00 0. -1.
         24    2    1    2    0    0  0.14220065584E+03 -0.36817656608E+03 -0.12383094233E+04  0.13021024353E+04  0.79281233164E+02 0.  0.
        254    2    1    2    0    0 -0.14220065584E+03  0.36817656608E+03  0.11871236637E+04  0.15965004403E+04  0.99185485456E+03 0.  0.
         23    2    4    4    0    0 -0.55181729242E+02 -0.80082600763E+02 -0.13797560698E+03  0.19193122750E+03  0.91334997565E+02 0.  0.
         23    2    4    4    0    0 -0.87018926595E+02  0.44825916685E+03  0.13250992707E+04  0.14045692128E+04  0.91749779520E+02 0.  0.
          2    1    3    3  502    0  0.13377818111E+03 -0.25067869640E+03 -0.84152902368E+03  0.88820465450E+03  0.00000000000E+00 0. -1.
         -1    1    3    3    0  502  0.84224747295E+01 -0.11749786969E+03 -0.39678039957E+03  0.41389778080E+03  0.00000000000E+00 0.  1.
         13    1    5    5    0    0 -0.22800667576E+02 -0.88961545832E+02 -0.67852282583E+02  0.11418388385E+03  0.00000000000E+00 0. -1.
        -13    1    5    5    0    0 -0.32381061666E+02  0.88789450690E+01 -0.70123324399E+02  0.77747343652E+02  0.00000000000E+00 0.  1.
          1    1    6    6  503    0 -0.25744528578E+02  0.18764665220E+02  0.96128663239E+02  0.10127000202E+03  0.00000000000E+00 0. -1.
         -1    1    6    6    0  503 -0.61274398016E+02  0.42949450163E+03  0.12289706074E+04  0.13032992107E+04  0.00000000000E+00 0.  1.
<mgrwt>
<rscale>  0 0.28981509E+04</rscale>
<asrwt>0</asrwt>
<pdfrwt beam="1">  1        2 0.22690682E+00 0.28981509E+04</pdfrwt>
<pdfrwt beam="2">  1       -1 0.21903209E+00 0.28981509E+04</pdfrwt>
<totfact> 0.14402579E+00</totfact>
</mgrwt>
</event>
<event>
12    7  0.1660832E-007  0.1676808E+04  0.7818608E-02  0.8774703E-01
          2   -1    0    0  501    0  0.00000000000E+00  0.00000000000E+00  0.13896161158E+04  0.13896161158E+04  0.00000000000E+00 0. -1.
         -1   -1    0    0    0  501 -0.00000000000E+00 -0.00000000000E+00 -0.50583834415E+03  0.50583834415E+03  0.00000000000E+00 0.  1.
         24    2    1    2    0    0 -0.54548546306E+03  0.45802925087E+02  0.56956736140E+03  0.79764356909E+03  0.11034484937E+03 0.  0.
        254    2    1    2    0    0  0.54548546306E+03 -0.45802925087E+02  0.31421041021E+03  0.10978108908E+04  0.89822506743E+03 0.  0.
         23    2    4    4    0    0 -0.12130479203E+03  0.66623791272E+02 -0.18850514188E+03  0.25026815235E+03  0.89142455837E+02 0.  0.
         23    2    4    4    0    0  0.66679025509E+03 -0.11242671636E+03  0.50271555209E+03  0.84754273847E+03  0.91415296212E+02 0.  0.
          4    1    3    3  502    0 -0.54932660265E+03  0.39422381307E+02  0.55910085022E+03  0.78479780915E+03  0.00000000000E+00 0. -1.
         -3    1    3    3    0  502  0.38411395883E+01  0.63805437800E+01  0.10466511177E+02  0.12845759942E+02  0.00000000000E+00 0.  1.
         13    1    5    5    0    0 -0.13485495355E+03  0.61544560507E+02 -0.15885499454E+03  0.21727517280E+03  0.00000000000E+00 0. -1.
        -13    1    5    5    0    0  0.13550161518E+02  0.50792307651E+01 -0.29650147341E+02  0.32992979551E+02  0.00000000000E+00 0.  1.
          2    1    6    6  503    0  0.51426609601E+03 -0.99442903416E+02  0.43183952267E+03  0.67885483124E+03  0.00000000000E+00 0. -1.
         -2    1    6    6    0  503  0.15252415908E+03 -0.12983812943E+02  0.70876029417E+02  0.16868790723E+03  0.00000000000E+00 0.  1.
<mgrwt>
<rscale>  0 0.16768078E+04</rscale>
<asrwt>0</asrwt>
<pdfrwt beam="1">  1        2 0.21378709E+00 0.16768078E+04</pdfrwt>
<pdfrwt beam="2">  1       -1 0.77821284E-01 0.16768078E+04</pdfrwt>
<totfact> 0.26366934E+01</totfact>
</mgrwt>
</event>
<event>
12    7  0.1660832E-007  0.1646181E+04  0.7818608E-02  0.8792669E-01
         -1   -1    0    0    0  501 -0.00000000000E+00  0.00000000000E+00  0.45457275992E+03  0.45457275992E+03  0.00000000000E+00 0.  1.
          2   -1    0    0  501    0  0.00000000000E+00 -0.00000000000E+00 -0.14903618104E+04  0.14903618104E+04  0.00000000000E+00 0. -1.
         24    2    1    2    0    0  0.55768966516E+02 -0.45249963965E+03  0.49770770719E+02  0.46561562157E+03  0.80340997737E+02 0.  0.
        254    2    1    2    0    0 -0.55768966516E+02  0.45249963965E+03 -0.10855598212E+04  0.14793189487E+04  0.89558825651E+03 0.  0.
         23    2    4    4    0    0  0.16130868100E+03 -0.19280374277E+03 -0.53972484744E+03  0.60171994167E+03  0.87006916197E+02 0.  0.
         23    2    4    4    0    0 -0.21707764751E+03  0.64530338243E+03 -0.54583497372E+03  0.87759900705E+03  0.93300794314E+02 0.  0.
          2    1    3    3  502    0  0.48754886164E+02 -0.15323256704E+03 -0.68974970485E+01  0.16094978717E+03  0.00000000000E+00 0. -1.
         -1    1    3    3    0  502  0.70140803517E+01 -0.29926707262E+03  0.56668267768E+02  0.30466583439E+03  0.00000000000E+00 0.  1.
         13    1    5    5    0    0  0.16548368113E+03 -0.19732280461E+03 -0.53564640152E+03  0.59433846030E+03  0.00000000000E+00 0. -1.
        -13    1    5    5    0    0 -0.41750001313E+01  0.45190618356E+01 -0.40784459172E+01  0.73814813601E+01  0.00000000000E+00 0.  1.
          4    1    6    6  503    0 -0.16204220757E+02  0.13503209424E+03 -0.14154252956E+03  0.19629195327E+03  0.00000000000E+00 0. -1.
         -4    1    6    6    0  503 -0.20087342676E+03  0.51027128818E+03 -0.40429244416E+03  0.68130705378E+03  0.00000000000E+00 0.  1.
<mgrwt>
<rscale>  0 0.16461809E+04</rscale>
<asrwt>0</asrwt>
<pdfrwt beam="1">  1        2 0.22928643E+00 0.16461809E+04</pdfrwt>
<pdfrwt beam="2">  1       -1 0.69934272E-01 0.16461809E+04</pdfrwt>
<totfact> 0.28933283E+01</totfact>
</mgrwt>
</event>
<event>
12    7  0.1660832E-007  0.1545336E+04  0.7818608E-02  0.8854852E-01
          2   -1    0    0  501    0  0.00000000000E+00  0.00000000000E+00  0.14761863284E+04  0.14761863284E+04  0.00000000000E+00 0. -1.
         -1   -1    0    0    0  501 -0.00000000000E+00 -0.00000000000E+00 -0.40443123324E+03  0.40443123324E+03  0.00000000000E+00 0.  1.
         24    2    1    2    0    0  0.14047353703E+02  0.32757960327E+03 -0.11240732974E+03  0.35591755480E+03  0.80846604195E+02 0.  0.
        254    2    1    2    0    0 -0.14047353703E+02 -0.32757960327E+03  0.11841624248E+04  0.15247000068E+04  0.90275342020E+03 0.  0.
         23    2    4    4    0    0  0.22233039878E+03 -0.13376226929E+03  0.11733706697E+04  0.12053315522E+04  0.93285965756E+02 0.  0.
         23    2    4    4    0    0 -0.23637775248E+03 -0.19381733398E+03  0.10791755147E+02  0.31936845456E+03  0.91870272479E+02 0.  0.
          4    1    3    3  502    0  0.17224838569E+02  0.35045574638E+02 -0.37021146261E+02  0.53809410291E+02  0.00000000000E+00 0. -1.
         -3    1    3    3    0  502 -0.31774848663E+01  0.29253402863E+03 -0.75386183475E+02  0.30210814451E+03  0.00000000000E+00 0.  1.
         13    1    5    5    0    0  0.14773559978E+03 -0.47406123983E+02  0.80020346600E+03  0.81510657894E+03  0.00000000000E+00 0.  1.
        -13    1    5    5    0    0  0.74594798999E+02 -0.86356145305E+02  0.37316720371E+03  0.39022497331E+03  0.00000000000E+00 0. -1.
          1    1    6    6  503    0 -0.15232149184E+03 -0.13016706823E+03 -0.36756772036E+02  0.20370656057E+03  0.00000000000E+00 0. -1.
         -1    1    6    6    0  503 -0.84056260641E+02 -0.63650265755E+02  0.47548527183E+02  0.11566189399E+03  0.00000000000E+00 0.  1.
<mgrwt>
<rscale>  0 0.15453360E+04</rscale>
<asrwt>0</asrwt>
<pdfrwt beam="1">  1        2 0.22710559E+00 0.15453360E+04</pdfrwt>
<pdfrwt beam="2">  1       -1 0.62220190E-01 0.15453360E+04</pdfrwt>
<totfact> 0.37642209E+01</totfact>
</mgrwt>
</event>
<event>
12    7  0.1660832E-007  0.2107670E+04  0.7818608E-02  0.8557872E-01
         -1   -1    0    0    0  501 -0.00000000000E+00  0.00000000000E+00  0.71039489705E+03  0.71039489705E+03  0.00000000000E+00 0.  1.
          2   -1    0    0  501    0  0.00000000000E+00 -0.00000000000E+00 -0.15633105303E+04  0.15633105303E+04  0.00000000000E+00 0. -1.
         24    2    1    2    0    0 -0.76779138305E+03  0.35319705844E+03 -0.48023359618E+03  0.97515677162E+03  0.77811646602E+02 0.  0.
        254    2    1    2    0    0  0.76779138305E+03 -0.35319705844E+03 -0.37268203707E+03  0.12985486557E+04  0.91273486872E+03 0.  0.
         23    2    4    4    0    0  0.62568787474E+03  0.10556224898E+03 -0.47680088754E+03  0.79868182435E+03  0.89021711892E+02 0.  0.
         23    2    4    4    0    0  0.14210350831E+03 -0.45875930742E+03  0.10411885046E+03  0.49986683139E+03  0.91501939210E+02 0.  0.
          4    1    3    3  502    0 -0.19971287591E+03  0.63469381817E+02 -0.14385876437E+03  0.25418288558E+03  0.00000000000E+00 0. -1.
         -3    1    3    3    0  502 -0.56807850714E+03  0.28972767662E+03 -0.33637483181E+03  0.72097388604E+03  0.00000000000E+00 0.  1.
         13    1    5    5    0    0  0.62352096516E+03  0.97838793326E+02 -0.47618880248E+03  0.79063683135E+03  0.00000000000E+00 0.  1.
        -13    1    5    5    0    0  0.21669095760E+01  0.77234556546E+01 -0.61208506361E+00  0.80449930071E+01  0.00000000000E+00 0. -1.
          3    1    6    6  503    0  0.54579742612E+02 -0.22021094259E+03  0.44412230857E+01  0.22691745637E+03  0.00000000000E+00 0. -1.
         -3    1    6    6    0  503  0.87523765700E+02 -0.23854836483E+03  0.99677627378E+02  0.27294937502E+03  0.00000000000E+00 0.  1.
<mgrwt>
<rscale>  0 0.21076696E+04</rscale>
<asrwt>0</asrwt>
<pdfrwt beam="1">  1        2 0.24050931E+00 0.21076696E+04</pdfrwt>
<pdfrwt beam="2">  1       -1 0.10929152E+00 0.21076696E+04</pdfrwt>
<totfact> 0.95064802E+00</totfact>
</mgrwt>
</event>
<event>
12    7  0.1660832E-007  0.1583252E+04  0.7818608E-02  0.8830904E-01
         -1   -1    0    0    0  501 -0.00000000000E+00  0.00000000000E+00  0.32840350664E+03  0.32840350664E+03  0.00000000000E+00 0.  1.
          2   -1    0    0  501    0  0.00000000000E+00 -0.00000000000E+00 -0.19082365958E+04  0.19082365958E+04  0.00000000000E+00 0. -1.
         24    2    1    2    0    0 -0.16382819889E+03 -0.20254840808E+03  0.12925485283E+03  0.30183564331E+03  0.80823277743E+02 0.  0.
        254    2    1    2    0    0  0.16382819889E+03  0.20254840808E+03 -0.17090879420E+04  0.19348044592E+04  0.86868933758E+03 0.  0.
         23    2    4    4    0    0  0.17865535217E+03  0.38185061442E+02  0.11272820006E+02  0.20435442479E+03  0.90872551882E+02 0.  0.
         23    2    4    4    0    0 -0.14827153279E+02  0.16436334664E+03 -0.17203607620E+04  0.17304500344E+04  0.87069028413E+02 0.  0.
          4    1    3    3  502    0 -0.22424473142E+02  0.10975175352E+01  0.46739979972E+00  0.22456179617E+02  0.00000000000E+00 0. -1.
         -3    1    3    3    0  502 -0.14140372575E+03 -0.20364592562E+03  0.12878745303E+03  0.27937946370E+03  0.00000000000E+00 0.  1.
         13    1    5    5    0    0  0.76165465785E+01  0.25807702643E+02  0.18601462182E+02  0.32711828026E+02  0.00000000000E+00 0.  1.
        -13    1    5    5    0    0  0.17103880559E+03  0.12377358798E+02 -0.73286421764E+01  0.17164259676E+03  0.00000000000E+00 0. -1.
          1    1    6    6  503    0 -0.30862359276E+01  0.53834183689E+02 -0.10107056313E+04  0.10121430321E+04  0.00000000000E+00 0. -1.
         -1    1    6    6    0  503 -0.11740917352E+02  0.11052916295E+03 -0.70965513070E+03  0.71830700228E+03  0.00000000000E+00 0.  1.
<mgrwt>
<rscale>  0 0.15832518E+04</rscale>
<asrwt>0</asrwt>
<pdfrwt beam="1">  1        2 0.29357486E+00 0.15832518E+04</pdfrwt>
<pdfrwt beam="2">  1       -1 0.50523617E-01 0.15832518E+04</pdfrwt>
<totfact> 0.32339709E+01</totfact>
</mgrwt>
</event>
<event>
12    7  0.1660832E-007  0.1130180E+04  0.7818608E-02  0.9176265E-01
          2   -1    0    0  501    0  0.00000000000E+00  0.00000000000E+00  0.43093570527E+04  0.43093570527E+04  0.00000000000E+00 0. -1.
         -1   -1    0    0    0  501 -0.00000000000E+00 -0.00000000000E+00 -0.74100815099E+02  0.74100815099E+02  0.00000000000E+00 0.  1.
         24    2    1    2    0    0  0.79750900984E+02  0.12113601005E+03  0.12554123937E+04  0.12658969704E+04  0.73489605920E+02 0.  0.
        254    2    1    2    0    0 -0.79750900984E+02 -0.12113601005E+03  0.29798438439E+04  0.31175608974E+04  0.90481074046E+03 0.  0.
         23    2    4    4    0    0  0.25336082978E+03 -0.37368120922E+03  0.11656282143E+04  0.12535655100E+04  0.94382190533E+02 0.  0.
         23    2    4    4    0    0 -0.33311173077E+03  0.25254519917E+03  0.18142156296E+04  0.18639953874E+04  0.91421827863E+02 0.  0.
          4    1    3    3  502    0  0.62115751415E+02  0.97527408670E+02  0.11667547556E+04  0.11724703074E+04  0.00000000000E+00 0. -1.
         -3    1    3    3    0  502  0.17635149569E+02  0.23608601380E+02  0.88657638143E+02  0.93426663006E+02  0.00000000000E+00 0.  1.
         13    1    5    5    0    0  0.61988472779E+01 -0.17511256418E+02  0.14680856084E+02  0.23676936970E+02  0.00000000000E+00 0.  1.
        -13    1    5    5    0    0  0.24716198251E+03 -0.35616995280E+03  0.11509473582E+04  0.12298885731E+04  0.00000000000E+00 0. -1.
          1    1    6    6  503    0 -0.15774407376E+03  0.10914046738E+03  0.10302747653E+04  0.10479794494E+04  0.00000000000E+00 0. -1.
         -1    1    6    6    0  503 -0.17536765701E+03  0.14340473179E+03  0.78394086429E+03  0.81601593791E+03  0.00000000000E+00 0.  1.
<mgrwt>
<rscale>  0 0.11301803E+04</rscale>
<asrwt>0</asrwt>
<pdfrwt beam="1">  1        2 0.66297781E+00 0.11301803E+04</pdfrwt>
<pdfrwt beam="2">  1       -1 0.11400129E-01 0.11301803E+04</pdfrwt>
<totfact> 0.11383438E+01</totfact>
</mgrwt>
</event>
<event>
12    7  0.1660832E-007  0.2233759E+04  0.7818608E-02  0.8504507E-01
         -1   -1    0    0    0  501 -0.00000000000E+00  0.00000000000E+00  0.72639672652E+03  0.72639672652E+03  0.00000000000E+00 0.  1.
          2   -1    0    0  501    0  0.00000000000E+00 -0.00000000000E+00 -0.17172711198E+04  0.17172711198E+04  0.00000000000E+00 0. -1.
         24    2    1    2    0    0  0.22337523111E+03  0.73095963215E+03 -0.99974558263E+03  0.12611196580E+04  0.82055372507E+02 0.  0.
        254    2    1    2    0    0 -0.22337523111E+03 -0.73095963215E+03  0.88711893186E+01  0.11825481883E+04  0.90229875431E+03 0.  0.
         23    2    4    4    0    0 -0.93002206999E+02 -0.90973519275E+03  0.10337637703E+03  0.92509404314E+03  0.94046700527E+02 0.  0.
         23    2    4    4    0    0 -0.13037302411E+03  0.17877556060E+03 -0.94505187712E+02  0.25745414520E+03  0.91616482651E+02 0.  0.
          2    1    3    3  502    0  0.12289048395E+03  0.52513934884E+03 -0.68403670727E+03  0.87107957365E+03  0.00000000000E+00 0. -1.
         -1    1    3    3    0  502  0.10048474715E+03  0.20582028332E+03 -0.31570887536E+03  0.39004008437E+03  0.00000000000E+00 0.  1.
         13    1    5    5    0    0 -0.67933886928E+02 -0.73295267325E+03  0.11983959480E+03  0.74578560102E+03  0.00000000000E+00 0. -1.
        -13    1    5    5    0    0 -0.25068320072E+02 -0.17678251951E+03 -0.16463217765E+02  0.17930844211E+03  0.00000000000E+00 0.  1.
          3    1    6    6  503    0 -0.11120598570E+03  0.82847810064E+02 -0.35253309024E+02  0.14308503306E+03  0.00000000000E+00 0. -1.
         -3    1    6    6    0  503 -0.19167038408E+02  0.95927750537E+02 -0.59251878688E+02  0.11436911214E+03  0.00000000000E+00 0.  1.
<mgrwt>
<rscale>  0 0.22337593E+04</rscale>
<asrwt>0</asrwt>
<pdfrwt beam="1">  1        2 0.26419555E+00 0.22337593E+04</pdfrwt>
<pdfrwt beam="2">  1       -1 0.11175334E+00 0.22337593E+04</pdfrwt>
<totfact> 0.73182157E+00</totfact>
</mgrwt>
</event>
<event>
12    7  0.1660832E-007  0.1488228E+04  0.7818608E-02  0.8892319E-01
          2   -1    0    0  501    0  0.00000000000E+00  0.00000000000E+00  0.86131172882E+03  0.86131172882E+03  0.00000000000E+00 0. -1.
         -1   -1    0    0    0  501 -0.00000000000E+00 -0.00000000000E+00 -0.64286336966E+03  0.64286336966E+03  0.00000000000E+00 0.  1.
         24    2    1    2    0    0  0.19520113738E+03  0.39023861083E+03  0.24282303056E+03  0.50648607902E+03  0.84708126252E+02 0.  0.
        254    2    1    2    0    0 -0.19520113738E+03 -0.39023861083E+03 -0.24374671396E+02  0.99768901946E+03  0.89688326862E+03 0.  0.
         23    2    4    4    0    0  0.22281912202E+03  0.85449075562E+02  0.19553644528E+03  0.32138134586E+03  0.90008679462E+02 0.  0.
         23    2    4    4    0    0 -0.41802025940E+03 -0.47568768639E+03 -0.21991111668E+03  0.67630767361E+03  0.89506747721E+02 0.  0.
          2    1    3    3  502    0  0.12952332248E+03  0.21215622776E+03  0.17870784652E+03  0.30614220625E+03  0.00000000000E+00 0. -1.
         -1    1    3    3    0  502  0.65677814901E+02  0.17808238307E+03  0.64115184046E+02  0.20034387277E+03  0.00000000000E+00 0.  1.
         13    1    5    5    0    0  0.13571088746E+02  0.21443600404E+02 -0.34568320893E+01  0.25611562548E+02  0.00000000000E+00 0.  1.
        -13    1    5    5    0    0  0.20924803327E+03  0.64005475158E+02  0.19899327737E+03  0.29576978331E+03  0.00000000000E+00 0. -1.
          3    1    6    6  503    0 -0.40475336950E+03 -0.47673314384E+03 -0.20993662240E+03  0.65967656165E+03  0.00000000000E+00 0. -1.
         -3    1    6    6    0  503 -0.13266889901E+02  0.10454574534E+01 -0.99744942786E+01  0.16631111961E+02  0.00000000000E+00 0.  1.
<mgrwt>
<rscale>  0 0.14882282E+04</rscale>
<asrwt>0</asrwt>
<pdfrwt beam="1">  1        2 0.13250950E+00 0.14882282E+04</pdfrwt>
<pdfrwt beam="2">  1       -1 0.98902056E-01 0.14882282E+04</pdfrwt>
<totfact> 0.33640843E+01</totfact>
</mgrwt>
</event>
<event>
12    7  0.1660832E-007  0.1935380E+04  0.7818608E-02  0.8637443E-01
          2   -1    0    0  501    0  0.00000000000E+00  0.00000000000E+00  0.21784533597E+04  0.21784533597E+04  0.00000000000E+00 0. -1.
         -1   -1    0    0    0  501 -0.00000000000E+00 -0.00000000000E+00 -0.42985701784E+03  0.42985701784E+03  0.00000000000E+00 0.  1.
         24    2    1    2    0    0 -0.50075536577E+03 -0.37043754359E+03  0.12582688364E+04  0.14062585799E+04  0.79641815930E+02 0.  0.
        254    2    1    2    0    0  0.50075536577E+03  0.37043754359E+03  0.49032750550E+03  0.12020517977E+04  0.90361914078E+03 0.  0.
         23    2    4    4    0    0  0.34684764902E+02  0.54002320767E+03  0.87544589244E+02  0.55606320548E+03  0.93349534796E+02 0.  0.
         23    2    4    4    0    0  0.46607060087E+03 -0.16958566408E+03  0.40278291626E+03  0.64598859219E+03  0.95320937657E+02 0.  0.
          2    1    3    3  502    0 -0.45972053643E+03 -0.31552292257E+03  0.11511933012E+04  0.12791183303E+04  0.00000000000E+00 0. -1.
         -1    1    3    3    0  502 -0.41034829335E+02 -0.54914621020E+02  0.10707553521E+03  0.12714024957E+03  0.00000000000E+00 0.  1.
         13    1    5    5    0    0  0.21382514617E+01  0.61205509355E+02  0.41408826376E+02  0.73928190810E+02  0.00000000000E+00 0.  1.
        -13    1    5    5    0    0  0.32546513440E+02  0.47881769832E+03  0.46135762869E+02  0.48213501467E+03  0.00000000000E+00 0. -1.
          1    1    6    6  503    0  0.27566766914E+03 -0.14930034477E+03  0.24522454822E+03  0.39801800940E+03  0.00000000000E+00 0. -1.
         -1    1    6    6    0  503  0.19040293173E+03 -0.20285319308E+02  0.15755836803E+03  0.24797058279E+03  0.00000000000E+00 0.  1.
<mgrwt>
<rscale>  0 0.19353795E+04</rscale>
<asrwt>0</asrwt>
<pdfrwt beam="1">  1        2 0.33514666E+00 0.19353795E+04</pdfrwt>
<pdfrwt beam="2">  1       -1 0.66131850E-01 0.19353795E+04</pdfrwt>
<totfact> 0.13084722E+01</totfact>
</mgrwt>
</event>
<event>
12    7  0.1660832E-007  0.1403755E+04  0.7818608E-02  0.8951105E-01
         -1   -1    0    0    0  501 -0.00000000000E+00  0.00000000000E+00  0.28523000713E+03  0.28523000713E+03  0.00000000000E+00 0.  1.
          2   -1    0    0  501    0  0.00000000000E+00 -0.00000000000E+00 -0.17271386904E+04  0.17271386904E+04  0.00000000000E+00 0. -1.
         24    2    1    2    0    0  0.16963828171E+03 -0.14044094839E+03 -0.92456463510E+03  0.95195803879E+03  0.53884473964E+02 0.  0.
        254    2    1    2    0    0 -0.16963828171E+03  0.14044094839E+03 -0.51734404814E+03  0.10604106587E+04  0.89906901534E+03 0.  0.
         23    2    4    4    0    0  0.17604223695E+03  0.41742690417E+03 -0.17848482827E+03  0.49553756173E+03  0.92002998067E+02 0.  0.
         23    2    4    4    0    0 -0.34568051866E+03 -0.27698595577E+03 -0.33885921987E+03  0.56487309698E+03  0.89664954808E+02 0.  0.
          4    1    3    3  502    0  0.10821894522E+03 -0.11232971238E+03 -0.71342033175E+03  0.73027246569E+03  0.00000000000E+00 0. -1.
         -3    1    3    3    0  502  0.61419336488E+02 -0.28111236019E+02 -0.21114430335E+03  0.22168557310E+03  0.00000000000E+00 0.  1.
         13    1    5    5    0    0  0.65349999622E+02  0.19803709269E+03 -0.36429429246E+02  0.21169888013E+03  0.00000000000E+00 0. -1.
        -13    1    5    5    0    0  0.11069223732E+03  0.21938981148E+03 -0.14205539902E+03  0.28383868160E+03  0.00000000000E+00 0.  1.
          2    1    6    6  503    0 -0.33866780960E+03 -0.24239934392E+03 -0.31654879648E+03  0.52312184789E+03  0.00000000000E+00 0.  1.
         -2    1    6    6    0  503 -0.70127090537E+01 -0.34586611854E+02 -0.22310423398E+02  0.41751249083E+02  0.00000000000E+00 0. -1.
<mgrwt>
<rscale>  0 0.14037547E+04</rscale>
<asrwt>0</asrwt>
<pdfrwt beam="1">  1        2 0.26571364E+00 0.14037547E+04</pdfrwt>
<pdfrwt beam="2">  1       -1 0.43881541E-01 0.14037547E+04</pdfrwt>
<totfact> 0.53894102E+01</totfact>
</mgrwt>
</event>
<event>
12    7  0.1660832E-007  0.1956715E+04  0.7818608E-02  0.8627130E-01
         -1   -1    0    0    0  501 -0.00000000000E+00  0.00000000000E+00  0.10442759641E+04  0.10442759641E+04  0.00000000000E+00 0.  1.
          2   -1    0    0  501    0  0.00000000000E+00 -0.00000000000E+00 -0.91659991796E+03  0.91659991796E+03  0.00000000000E+00 0. -1.
         24    2    1    2    0    0 -0.58019112529E+02 -0.74476003602E+03 -0.11016916482E+03  0.75939767871E+03  0.80708493210E+02 0.  0.
        254    2    1    2    0    0  0.58019112529E+02  0.74476003602E+03  0.23784521096E+03  0.12014782034E+04  0.91046460672E+03 0.  0.
         23    2    4    4    0    0  0.11928631287E+03  0.10506093639E+03  0.47595698576E+03  0.51005228519E+03  0.91385209670E+02 0.  0.
         23    2    4    4    0    0 -0.61267200339E+02  0.63969909963E+03 -0.23811177480E+03  0.69142591816E+03  0.91673197280E+02 0.  0.
          4    1    3    3  502    0 -0.70910839041E+02 -0.71701713965E+03 -0.10957936601E+03  0.72880008446E+03  0.00000000000E+00 0. -1.
         -3    1    3    3    0  502  0.12891726511E+02 -0.27742896371E+02 -0.58979881711E+00  0.30597594254E+02  0.00000000000E+00 0.  1.
         13    1    5    5    0    0  0.92442043937E+02  0.24683162992E+02  0.20661856879E+03  0.22769721779E+03  0.00000000000E+00 0.  1.
        -13    1    5    5    0    0  0.26844268931E+02  0.80377773402E+02  0.26933841697E+03  0.28235506740E+03  0.00000000000E+00 0. -1.
          3    1    6    6  503    0 -0.34678882088E+02  0.64937018074E+02 -0.22516837901E+02  0.76983434376E+02  0.00000000000E+00 0. -1.
         -3    1    6    6    0  503 -0.26588318251E+02  0.57476208155E+03 -0.21559493690E+03  0.61444248378E+03  0.00000000000E+00 0.  1.
<mgrwt>
<rscale>  0 0.19567149E+04</rscale>
<asrwt>0</asrwt>
<pdfrwt beam="1">  1        2 0.14101537E+00 0.19567149E+04</pdfrwt>
<pdfrwt beam="2">  1       -1 0.16065784E+00 0.19567149E+04</pdfrwt>
<totfact> 0.87819853E+00</totfact>
</mgrwt>
</event>
<event>
12    7  0.1660832E-007  0.1179300E+04  0.7818608E-02  0.9131171E-01
          2   -1    0    0  501    0  0.00000000000E+00  0.00000000000E+00  0.44974453596E+03  0.44974453596E+03  0.00000000000E+00 0. -1.
         -1   -1    0    0    0  501 -0.00000000000E+00 -0.00000000000E+00 -0.77307690723E+03  0.77307690723E+03  0.00000000000E+00 0.  1.
         24    2    1    2    0    0  0.13331605268E+03  0.52855534499E+01 -0.27631411114E+03  0.31686793067E+03  0.79086601233E+02 0.  0.
        254    2    1    2    0    0 -0.13331605268E+03 -0.52855534499E+01 -0.47018260121E+02  0.90595351252E+03  0.89484073616E+03 0.  0.
         23    2    4    4    0    0  0.11484628863E+03 -0.46737135308E+02  0.37576904064E+03  0.40537599618E+03  0.88052805430E+02 0.  0.
         23    2    4    4    0    0 -0.24816234130E+03  0.41451581858E+02 -0.42278730076E+03  0.50057751634E+03  0.92336162498E+02 0.  0.
          2    1    3    3  502    0  0.11420041347E+03  0.23047006860E+02 -0.16156085369E+03  0.19918536193E+03  0.00000000000E+00 0. -1.
         -1    1    3    3    0  502  0.19115639206E+02 -0.17761453410E+02 -0.11475325745E+03  0.11768256874E+03  0.00000000000E+00 0.  1.
         13    1    5    5    0    0  0.50922672785E+02  0.24353366571E+02  0.13586476306E+03  0.14712388966E+03  0.00000000000E+00 0.  1.
        -13    1    5    5    0    0  0.63923615843E+02 -0.71090501878E+02  0.23990427758E+03  0.25825210652E+03  0.00000000000E+00 0. -1.
          4    1    6    6  503    0 -0.57031407754E+02  0.11910295655E+02 -0.18563412168E+03  0.19456223617E+03  0.00000000000E+00 0. -1.
         -4    1    6    6    0  503 -0.19113093355E+03  0.29541286202E+02 -0.23715317908E+03  0.30601528017E+03  0.00000000000E+00 0.  1.
<mgrwt>
<rscale>  0 0.11793000E+04</rscale>
<asrwt>0</asrwt>
<pdfrwt beam="1">  1        2 0.69191467E-01 0.11793000E+04</pdfrwt>
<pdfrwt beam="2">  1       -1 0.11893491E+00 0.11793000E+04</pdfrwt>
<totfact> 0.49797466E+01</totfact>
</mgrwt>
</event>
<event>
12    7  0.1660832E-007  0.1262650E+04  0.7818608E-02  0.9059720E-01
          2   -1    0    0  501    0  0.00000000000E+00  0.00000000000E+00  0.22698510768E+04  0.22698510768E+04  0.00000000000E+00 0. -1.
         -1   -1    0    0    0  501 -0.00000000000E+00 -0.00000000000E+00 -0.17559363783E+03  0.17559363783E+03  0.00000000000E+00 0.  1.
         24    2    1    2    0    0  0.12733266922E+03  0.15461394840E+02 -0.13976736042E+02  0.15135765630E+03  0.79127287262E+02 0.  0.
        254    2    1    2    0    0 -0.12733266922E+03 -0.15461394840E+02  0.21082341750E+04  0.22940870583E+04  0.89539456729E+03 0.  0.
         23    2    4    4    0    0  0.33761233827E+03 -0.14811815181E+03  0.12335139087E+04  0.12905934230E+04  0.90298076373E+02 0.  0.
         23    2    4    4    0    0 -0.46494500749E+03  0.13265675697E+03  0.87472026630E+03  0.10034936354E+04  0.89956971767E+02 0.  0.
          4    1    3    3  502    0  0.12627384536E+02 -0.15993118735E+02 -0.24600902484E+02  0.31944249719E+02  0.00000000000E+00 0. -1.
         -3    1    3    3    0  502  0.11470528469E+03  0.31454513575E+02  0.10624166442E+02  0.11941340659E+03  0.00000000000E+00 0.  1.
         13    1    5    5    0    0  0.24715598478E+03 -0.71975210874E+02  0.92655094882E+03  0.96164607447E+03  0.00000000000E+00 0.  1.
        -13    1    5    5    0    0  0.90456353483E+02 -0.76142940933E+02  0.30696295988E+03  0.32894734849E+03  0.00000000000E+00 0. -1.
          2    1    6    6  503    0 -0.65054209034E+02  0.38369361042E+02  0.88120991083E+02  0.11605846393E+03  0.00000000000E+00 0. -1.
         -2    1    6    6    0  503 -0.39989079846E+03  0.94287395926E+02  0.78659927521E+03  0.88743517143E+03  0.00000000000E+00 0.  1.
<mgrwt>
<rscale>  0 0.12626502E+04</rscale>
<asrwt>0</asrwt>
<pdfrwt beam="1">  1        2 0.34920784E+00 0.12626502E+04</pdfrwt>
<pdfrwt beam="2">  1       -1 0.27014407E-01 0.12626502E+04</pdfrwt>
<totfact> 0.64867546E+01</totfact>
</mgrwt>
</event>
<event>
12    7  0.1660832E-007  0.2184421E+04  0.7818608E-02  0.8524940E-01
          2   -1    0    0  501    0  0.00000000000E+00  0.00000000000E+00  0.22596251432E+04  0.22596251432E+04  0.00000000000E+00 0. -1.
         -1   -1    0    0    0  501 -0.00000000000E+00 -0.00000000000E+00 -0.52793006411E+03  0.52793006411E+03  0.00000000000E+00 0.  1.
         24    2    1    2    0    0  0.53043614935E+03  0.69755788533E+03  0.38183259294E+03  0.95916015579E+03  0.79009894860E+02 0.  0.
        254    2    1    2    0    0 -0.53043614935E+03 -0.69755788533E+03  0.13498624862E+04  0.18283950516E+04  0.86772704292E+03 0.  0.
         23    2    4    4    0    0 -0.38233100754E+03  0.10640964434E+03  0.41447306672E+03  0.58283017705E+03  0.10199549260E+03 0.  0.
         23    2    4    4    0    0 -0.14810514182E+03 -0.80396752967E+03  0.93538941948E+03  0.12455648745E+04  0.90440968335E+02 0.  0.
          4    1    3    3  502    0  0.47431365562E+03  0.62957741930E+03  0.31642658093E+03  0.84939210728E+03  0.00000000000E+00 0. -1.
         -3    1    3    3    0  502  0.56122493737E+02  0.67980466036E+02  0.65406012006E+02  0.10976804850E+03  0.00000000000E+00 0.  1.
         13    1    5    5    0    0 -0.36797525083E+03  0.10166175005E+03  0.41920498819E+03  0.56698652433E+03  0.00000000000E+00 0. -1.
        -13    1    5    5    0    0 -0.14355756705E+02  0.47478942874E+01 -0.47319214680E+01  0.15843652720E+02  0.00000000000E+00 0.  1.
          3    1    6    6  503    0 -0.11453774974E+03 -0.50786422479E+03  0.53564800944E+03  0.74696971623E+03  0.00000000000E+00 0. -1.
         -3    1    6    6    0  503 -0.33567392077E+02 -0.29610330488E+03  0.39974141004E+03  0.49859515829E+03  0.00000000000E+00 0.  1.
<mgrwt>
<rscale>  0 0.21844212E+04</rscale>
<asrwt>0</asrwt>
<pdfrwt beam="1">  1        2 0.34763463E+00 0.21844212E+04</pdfrwt>
<pdfrwt beam="2">  1       -1 0.81220011E-01 0.21844212E+04</pdfrwt>
<totfact> 0.75168275E+00</totfact>
</mgrwt>
</event>
<event>
12    7  0.1660832E-007  0.2302550E+04  0.7818608E-02  0.8476916E-01
         -1   -1    0    0    0  501 -0.00000000000E+00  0.00000000000E+00  0.39543520993E+03  0.39543520993E+03  0.00000000000E+00 0.  1.
          2   -1    0    0  501    0  0.00000000000E+00 -0.00000000000E+00 -0.33518364164E+04  0.33518364164E+04  0.00000000000E+00 0. -1.
         24    2    1    2    0    0  0.22846836976E+03 -0.21865743494E+03 -0.27438379744E+04  0.27631961428E+04  0.81223297628E+02 0.  0.
        254    2    1    2    0    0 -0.22846836976E+03  0.21865743494E+03 -0.21256323200E+03  0.98407548345E+03  0.90731061919E+03 0.  0.
         23    2    4    4    0    0  0.24175286495E+03  0.33297931841E+03  0.52702619157E+02  0.42482353215E+03  0.91530285705E+02 0.  0.
         23    2    4    4    0    0 -0.47022123471E+03 -0.11432188347E+03 -0.26526585116E+03  0.55925195130E+03  0.90660193164E+02 0.  0.
          4    1    3    3  502    0  0.20983015942E+03 -0.16859996723E+03 -0.24277680353E+04  0.24426445255E+04  0.00000000000E+00 0. -1.
         -3    1    3    3    0  502  0.18638210340E+02 -0.50057467712E+02 -0.31606993910E+03  0.32055161731E+03  0.00000000000E+00 0.  1.
         13    1    5    5    0    0  0.12898324651E+03  0.10197658071E+03  0.23967603898E+02  0.16616361494E+03  0.00000000000E+00 0. -1.
        -13    1    5    5    0    0  0.11276961844E+03  0.23100273770E+03  0.28735015259E+02  0.25865991721E+03  0.00000000000E+00 0.  1.
          4    1    6    6  503    0 -0.19187976494E+03 -0.92837144376E+02 -0.11307854431E+03  0.24129512376E+03  0.00000000000E+00 0.  1.
         -4    1    6    6    0  503 -0.27834146978E+03 -0.21484739097E+02 -0.15218730685E+03  0.31795682754E+03  0.00000000000E+00 0. -1.
<mgrwt>
<rscale>  0 0.23025500E+04</rscale>
<asrwt>0</asrwt>
<pdfrwt beam="1">  1        2 0.51566711E+00 0.23025500E+04</pdfrwt>
<pdfrwt beam="2">  1       -1 0.60836189E-01 0.23025500E+04</pdfrwt>
<totfact> 0.29106886E+00</totfact>
</mgrwt>
</event>
<event>
12    7  0.1660832E-007  0.1397108E+04  0.7818608E-02  0.8955914E-01
          2   -1    0    0  501    0  0.00000000000E+00  0.00000000000E+00  0.24985194007E+03  0.24985194007E+03  0.00000000000E+00 0. -1.
         -1   -1    0    0    0  501 -0.00000000000E+00 -0.00000000000E+00 -0.19530682492E+04  0.19530682492E+04  0.00000000000E+00 0.  1.
         24    2    1    2    0    0  0.18001872021E+03  0.36155253331E+03 -0.56049176621E+03  0.69548710661E+03  0.80151865239E+02 0.  0.
        254    2    1    2    0    0 -0.18001872021E+03 -0.36155253331E+03 -0.11427245429E+04  0.15074330826E+04  0.89633037642E+03 0.  0.
         23    2    4    4    0    0  0.23248718591E+03 -0.78843056658E+02 -0.91362798851E+03  0.95019817606E+03  0.88847921749E+02 0.  0.
         23    2    4    4    0    0 -0.41250590611E+03 -0.28270947666E+03 -0.22909655437E+03  0.55723490656E+03  0.89105213608E+02 0.  0.
          4    1    3    3  502    0  0.49359328909E+02  0.10435311256E+03 -0.10341943248E+03  0.15498869141E+03  0.00000000000E+00 0. -1.
         -3    1    3    3    0  502  0.13065939130E+03  0.25719942076E+03 -0.45707233373E+03  0.54049841520E+03  0.00000000000E+00 0.  1.
         13    1    5    5    0    0  0.22635946301E+03 -0.92553309406E+02 -0.83181771297E+03  0.86702100850E+03  0.00000000000E+00 0.  1.
        -13    1    5    5    0    0  0.61277228992E+01  0.13710252748E+02 -0.81810275542E+02  0.83177167556E+02  0.00000000000E+00 0. -1.
          4    1    6    6  503    0 -0.11275934151E+02 -0.18306562785E+02 -0.30455990386E+02  0.37280615370E+02  0.00000000000E+00 0. -1.
         -4    1    6    6    0  503 -0.40122997196E+03 -0.26440291387E+03 -0.19864056398E+03  0.51995429119E+03  0.00000000000E+00 0.  1.
<mgrwt>
<rscale>  0 0.13971083E+04</rscale>
<asrwt>0</asrwt>
<pdfrwt beam="1">  1        2 0.38438759E-01 0.13971083E+04</pdfrwt>
<pdfrwt beam="2">  1       -1 0.30047204E+00 0.13971083E+04</pdfrwt>
<totfact> 0.49448960E+00</totfact>
</mgrwt>
</event>
<event>
12    7  0.1660832E-007  0.1510900E+04  0.7818608E-02  0.8877237E-01
          2   -1    0    0  501    0  0.00000000000E+00  0.00000000000E+00  0.55015966027E+03  0.55015966027E+03  0.00000000000E+00 0. -1.
         -1   -1    0    0    0  501 -0.00000000000E+00 -0.00000000000E+00 -0.10373436281E+04  0.10373436281E+04  0.00000000000E+00 0.  1.
         24    2    1    2    0    0 -0.12534984184E+03 -0.36172769975E+03  0.14186366186E+03  0.41865740760E+03  0.92678016630E+02 0.  0.
        254    2    1    2    0    0  0.12534984184E+03  0.36172769975E+03 -0.62904762973E+03  0.11688458808E+04  0.90771155166E+03 0.  0.
         23    2    4    4    0    0  0.19031550102E+03  0.64610749680E+03 -0.41804650069E+03  0.79781259780E+03  0.89817465574E+02 0.  0.
         23    2    4    4    0    0 -0.64965659180E+02 -0.28437979705E+03 -0.21100112904E+03  0.37103328301E+03  0.89731905145E+02 0.  0.
          2    1    3    3  502    0 -0.12762360842E+03 -0.32476153501E+03  0.15146995740E+03  0.38039583074E+03  0.00000000000E+00 0. -1.
         -3    1    3    3    0  502  0.22737665855E+01 -0.36966164737E+02 -0.96062955358E+01  0.38261576859E+02  0.00000000000E+00 0.  1.
         13    1    5    5    0    0  0.17645596169E+03  0.49077011484E+03 -0.34713156809E+03  0.62649208901E+03  0.00000000000E+00 0. -1.
        -13    1    5    5    0    0  0.13859539328E+02  0.15533738196E+03 -0.70914932605E+02  0.17132050879E+03  0.00000000000E+00 0.  1.
          1    1    6    6  503    0  0.18264260818E+01 -0.16784517961E+03 -0.14286163733E+03  0.22041957166E+03  0.00000000000E+00 0. -1.
         -1    1    6    6    0  503 -0.66792085262E+02 -0.11653461744E+03 -0.68139491711E+02  0.15061371135E+03  0.00000000000E+00 0.  1.
<mgrwt>
<rscale>  0 0.15108999E+04</rscale>
<asrwt>0</asrwt>
<pdfrwt beam="1">  1        2 0.84639949E-01 0.15108999E+04</pdfrwt>
<pdfrwt beam="2">  1       -1 0.15959132E+00 0.15108999E+04</pdfrwt>
<totfact> 0.17872813E+01</totfact>
</mgrwt>
</event>
<event>
12    7  0.1660832E-007  0.1396593E+04  0.7818608E-02  0.8956288E-01
         -1   -1    0    0    0  501 -0.00000000000E+00  0.00000000000E+00  0.40507274911E+03  0.40507274911E+03  0.00000000000E+00 0.  1.
          2   -1    0    0  501    0  0.00000000000E+00 -0.00000000000E+00 -0.12037792090E+04  0.12037792090E+04  0.00000000000E+00 0. -1.
         24    2    1    2    0    0  0.20482277446E+03  0.35069538748E+03 -0.21549045647E+03  0.46700063537E+03  0.81937981856E+02 0.  0.
        254    2    1    2    0    0 -0.20482277446E+03 -0.35069538748E+03 -0.58321600339E+03  0.11418513227E+04  0.89372474108E+03 0.  0.
         23    2    4    4    0    0 -0.54996573065E+02  0.10303933033E+03  0.18413247605E+03  0.23398908766E+03  0.84878723860E+02 0.  0.
         23    2    4    4    0    0 -0.14982620140E+03 -0.45373471781E+03 -0.76734847943E+03  0.90786223504E+03  0.84065832288E+02 0.  0.
          2    1    3    3  502    0  0.20838195414E+03  0.34967242402E+03 -0.21871241805E+03  0.46209194404E+03  0.00000000000E+00 0. -1.
         -1    1    3    3    0  502 -0.35591796773E+01  0.10229634594E+01  0.32219615823E+01  0.49086913380E+01  0.00000000000E+00 0.  1.
         13    1    5    5    0    0  0.20655708056E+02  0.10562716956E+02  0.44749697214E+02  0.50405998309E+02  0.00000000000E+00 0. -1.
        -13    1    5    5    0    0 -0.75652281121E+02  0.92476613372E+02  0.13938277883E+03  0.18358308935E+03  0.00000000000E+00 0.  1.
          2    1    6    6  503    0 -0.70027015680E+02 -0.19166488927E+03 -0.40612439583E+03  0.45450658696E+03  0.00000000000E+00 0. -1.
         -2    1    6    6    0  503 -0.79799185716E+02 -0.26206982854E+03 -0.36122408361E+03  0.45335564808E+03  0.00000000000E+00 0.  1.
<mgrwt>
<rscale>  0 0.13965932E+04</rscale>
<asrwt>0</asrwt>
<pdfrwt beam="1">  1        2 0.18519680E+00 0.13965932E+04</pdfrwt>
<pdfrwt beam="2">  1       -1 0.62318885E-01 0.13965932E+04</pdfrwt>
<totfact> 0.54625529E+01</totfact>
</mgrwt>
</event>
<event>
12    7  0.1660832E-007  0.1832598E+04  0.7818608E-02  0.8689154E-01
         -1   -1    0    0    0  501 -0.00000000000E+00  0.00000000000E+00  0.23853072904E+03  0.23853072904E+03  0.00000000000E+00 0.  1.
          2   -1    0    0  501    0  0.00000000000E+00 -0.00000000000E+00 -0.35198983989E+04  0.35198983989E+04  0.00000000000E+00 0. -1.
         24    2    1    2    0    0  0.41164202780E+02  0.63987815504E+03 -0.17790084546E+04  0.18927237184E+04  0.79959039597E+02 0.  0.
        254    2    1    2    0    0 -0.41164202780E+02 -0.63987815504E+03 -0.15023592152E+04  0.18657054095E+04  0.90146265502E+03 0.  0.
         23    2    4    4    0    0  0.14323161966E+03  0.16260319669E+03 -0.57966291689E+03  0.62548943535E+03  0.90955154205E+02 0.  0.
         23    2    4    4    0    0 -0.18439582244E+03 -0.80248135172E+03 -0.92269629835E+03  0.12402159741E+04  0.93750009362E+02 0.  0.
          4    1    3    3  502    0  0.56089781780E+02  0.43071858771E+03 -0.12695828595E+04  0.13418290512E+04  0.00000000000E+00 0. -1.
         -3    1    3    3    0  502 -0.14925579000E+02  0.20915956733E+03 -0.50942559507E+03  0.55089466727E+03  0.00000000000E+00 0.  1.
         13    1    5    5    0    0  0.63886767576E+02  0.12671787512E+03 -0.42407007490E+03  0.44718493643E+03  0.00000000000E+00 0. -1.
        -13    1    5    5    0    0  0.79344852086E+02  0.35885321565E+02 -0.15559284199E+03  0.17830449892E+03  0.00000000000E+00 0.  1.
          4    1    6    6  503    0 -0.19513161409E+03 -0.76672009648E+03 -0.87502774704E+03  0.11796650420E+04  0.00000000000E+00 0. -1.
         -4    1    6    6    0  503  0.10735791646E+02 -0.35761255241E+02 -0.47668551315E+02  0.60550932141E+02  0.00000000000E+00 0.  1.
<mgrwt>
<rscale>  0 0.18325981E+04</rscale>
<asrwt>0</asrwt>
<pdfrwt beam="1">  1        2 0.54152285E+00 0.18325981E+04</pdfrwt>
<pdfrwt beam="2">  1       -1 0.36697034E-01 0.18325981E+04</pdfrwt>
<totfact> 0.60607075E+00</totfact>
</mgrwt>
</event>
<event>
12    7  0.1660832E-007  0.1742055E+04  0.7818608E-02  0.8737735E-01
          2   -1    0    0  501    0  0.00000000000E+00  0.00000000000E+00  0.76300998877E+03  0.76300998877E+03  0.00000000000E+00 0. -1.
         -1   -1    0    0    0  501 -0.00000000000E+00 -0.00000000000E+00 -0.99433734167E+03  0.99433734167E+03  0.00000000000E+00 0.  1.
         24    2    1    2    0    0  0.50242754239E+03 -0.75495177870E+02 -0.47071540623E+03  0.69732482885E+03  0.80968920215E+02 0.  0.
        254    2    1    2    0    0 -0.50242754239E+03  0.75495177870E+02  0.23938805333E+03  0.10600225016E+04  0.89900395247E+03 0.  0.
         23    2    4    4    0    0 -0.32519576930E+03 -0.33710395197E+03 -0.10201415114E+03  0.48835646038E+03  0.93240455632E+02 0.  0.
         23    2    4    4    0    0 -0.17723177309E+03  0.41259912984E+03  0.34140220446E+03  0.57166604120E+03  0.92722457444E+02 0.  0.
          4    1    3    3  502    0  0.63228975172E+02 -0.36437586775E+02 -0.78691988224E+02  0.10732208553E+03  0.00000000000E+00 0. -1.
         -3    1    3    3    0  502  0.43919856721E+03 -0.39057591095E+02 -0.39202341800E+03  0.59000274332E+03  0.00000000000E+00 0.  1.
         13    1    5    5    0    0 -0.24181510253E+03 -0.26771389720E+03 -0.11607766922E+03  0.37897137076E+03  0.00000000000E+00 0.  1.
        -13    1    5    5    0    0 -0.83380666769E+02 -0.69390054763E+02  0.14063518080E+02  0.10938508962E+03  0.00000000000E+00 0. -1.
          2    1    6    6  503    0 -0.13673346065E+03  0.30688624305E+03  0.20173798959E+03  0.39188444965E+03  0.00000000000E+00 0. -1.
         -2    1    6    6    0  503 -0.40498312442E+02  0.10571288678E+03  0.13966421488E+03  0.17978159155E+03  0.00000000000E+00 0.  1.
<mgrwt>
<rscale>  0 0.17420555E+04</rscale>
<asrwt>0</asrwt>
<pdfrwt beam="1">  1        2 0.11738615E+00 0.17420555E+04</pdfrwt>
<pdfrwt beam="2">  1       -1 0.15297498E+00 0.17420555E+04</pdfrwt>
<totfact> 0.13134971E+01</totfact>
</mgrwt>
</event>
<event>
12    7  0.1660832E-007  0.1125883E+04  0.7818608E-02  0.9180326E-01
          2   -1    0    0  501    0  0.00000000000E+00  0.00000000000E+00  0.97128866918E+03  0.97128866918E+03  0.00000000000E+00 0. -1.
         -1   -1    0    0    0  501 -0.00000000000E+00 -0.00000000000E+00 -0.32627069885E+03  0.32627069885E+03  0.00000000000E+00 0.  1.
         24    2    1    2    0    0  0.16877024583E+03  0.78658818778E+02  0.94905527572E+02  0.22408776395E+03  0.80855804601E+02 0.  0.
        254    2    1    2    0    0 -0.16877024583E+03 -0.78658818778E+02  0.55011244275E+03  0.10734716041E+04  0.90279952339E+03 0.  0.
         23    2    4    4    0    0  0.29038524192E+03  0.14891498234E+03  0.33503833092E+02  0.34037422228E+03  0.90735018980E+02 0.  0.
         23    2    4    4    0    0 -0.45915548776E+03 -0.22757380111E+03  0.51660860966E+03  0.73309738180E+03  0.89071424865E+02 0.  0.
          2    1    3    3  502    0  0.11726333590E+03  0.24778122039E+02  0.89060308894E+02  0.14931973714E+03  0.00000000000E+00 0. -1.
         -1    1    3    3    0  502  0.51506909936E+02  0.53880696740E+02  0.58452186774E+01  0.74768026814E+02  0.00000000000E+00 0.  1.
         13    1    5    5    0    0  0.15533283660E+03  0.10627811606E+03  0.57356983045E+02  0.19675657952E+03  0.00000000000E+00 0. -1.
        -13    1    5    5    0    0  0.13505240533E+03  0.42636866275E+02 -0.23853149953E+02  0.14361764276E+03  0.00000000000E+00 0.  1.
          2    1    6    6  503    0 -0.38768328968E+03 -0.19790770345E+03  0.38853096287E+03  0.58345702608E+03  0.00000000000E+00 0. -1.
         -2    1    6    6    0  503 -0.71472198083E+02 -0.29666097661E+02  0.12807764680E+03  0.14964035571E+03  0.00000000000E+00 0.  1.
<mgrwt>
<rscale>  0 0.11258828E+04</rscale>
<asrwt>0</asrwt>
<pdfrwt beam="1">  1        2 0.14942902E+00 0.11258828E+04</pdfrwt>
<pdfrwt beam="2">  1       -1 0.50195493E-01 0.11258828E+04</pdfrwt>
<totfact> 0.11840732E+02</totfact>
</mgrwt>
</event>
<event>
12    7  0.1660832E-007  0.1458648E+04  0.7818608E-02  0.8912427E-01
         -1   -1    0    0    0  501 -0.00000000000E+00  0.00000000000E+00  0.44426334571E+03  0.44426334571E+03  0.00000000000E+00 0.  1.
          2   -1    0    0  501    0  0.00000000000E+00 -0.00000000000E+00 -0.11972929748E+04  0.11972929748E+04  0.00000000000E+00 0. -1.
         24    2    1    2    0    0 -0.20064737533E+03 -0.34154440924E+03  0.27782877851E+01  0.40442562088E+03  0.81488718434E+02 0.  0.
        254    2    1    2    0    0  0.20064737533E+03  0.34154440924E+03 -0.75580791683E+03  0.12371306996E+04  0.89573143744E+03 0.  0.
         23    2    4    4    0    0 -0.22284815085E+03  0.19980074169E+02  0.69090065217E+02  0.25176575154E+03  0.92477320670E+02 0.  0.
         23    2    4    4    0    0  0.42349552618E+03  0.32156433507E+03 -0.82489798205E+03  0.98536494805E+03  0.87950655353E+02 0.  0.
          4    1    3    3  502    0 -0.10835945395E+03 -0.16763762913E+03 -0.38446015064E+02  0.20327872991E+03  0.00000000000E+00 0. -1.
         -3    1    3    3    0  502 -0.92287921382E+02 -0.17390678010E+03  0.41224302849E+02  0.20114689096E+03  0.00000000000E+00 0.  1.
         13    1    5    5    0    0 -0.15104781476E+03  0.53385182814E+02  0.63659398303E+02  0.17238891809E+03  0.00000000000E+00 0. -1.
        -13    1    5    5    0    0 -0.71800336087E+02 -0.33405108645E+02  0.54306669132E+01  0.79376833452E+02  0.00000000000E+00 0.  1.
          1    1    6    6  503    0  0.29599268901E+03  0.20227863743E+03 -0.61974791076E+03  0.71597192124E+03  0.00000000000E+00 0. -1.
         -1    1    6    6    0  503  0.12750283716E+03  0.11928569763E+03 -0.20515007129E+03  0.26939302681E+03  0.00000000000E+00 0.  1.
<mgrwt>
<rscale>  0 0.14586478E+04</rscale>
<asrwt>0</asrwt>
<pdfrwt beam="1">  1        2 0.18419892E+00 0.14586478E+04</pdfrwt>
<pdfrwt beam="2">  1       -1 0.68348207E-01 0.14586478E+04</pdfrwt>
<totfact> 0.45526334E+01</totfact>
</mgrwt>
</event>
<event>
12    7  0.1660832E-007  0.1920137E+04  0.7818608E-02  0.8644897E-01
         -1   -1    0    0    0  501 -0.00000000000E+00  0.00000000000E+00  0.11913399080E+04  0.11913399080E+04  0.00000000000E+00 0.  1.
          2   -1    0    0  501    0  0.00000000000E+00 -0.00000000000E+00 -0.77369303644E+03  0.77369303644E+03  0.00000000000E+00 0. -1.
         24    2    1    2    0    0  0.57397910379E+02  0.30260688189E+03  0.90025730538E+03  0.95461060183E+03  0.77154002785E+02 0.  0.
        254    2    1    2    0    0 -0.57397910379E+02 -0.30260688189E+03 -0.48261043379E+03  0.10104223426E+04  0.83257133907E+03 0.  0.
         23    2    4    4    0    0  0.35326562547E+03 -0.25101203639E+03 -0.35586910342E+03  0.56806476171E+03  0.90835621781E+02 0.  0.
         23    2    4    4    0    0 -0.41066353585E+03 -0.51594845500E+02 -0.12674133038E+03  0.44235758094E+03  0.91160829474E+02 0.  0.
          2    1    3    3  502    0 -0.58523614367E+01  0.64133606915E+00  0.45486167883E+02  0.45865596203E+02  0.00000000000E+00 0. -1.
         -1    1    3    3    0  502  0.63250271816E+02  0.30196554583E+03  0.85477113750E+03  0.90874500563E+03  0.00000000000E+00 0.  1.
         13    1    5    5    0    0  0.77851123047E+02 -0.62463802742E+02 -0.36976529667E+02  0.10644147575E+03  0.00000000000E+00 0. -1.
        -13    1    5    5    0    0  0.27541450242E+03 -0.18854823365E+03 -0.31889257375E+03  0.46162328597E+03  0.00000000000E+00 0.  1.
          4    1    6    6  503    0 -0.13229235361E+02  0.86878601248E+01 -0.21738432510E+02  0.26889608212E+02  0.00000000000E+00 0. -1.
         -4    1    6    6    0  503 -0.39743430048E+03 -0.60282705625E+02 -0.10500289787E+03  0.41546797272E+03  0.00000000000E+00 0.  1.
<mgrwt>
<rscale>  0 0.19201369E+04</rscale>
<asrwt>0</asrwt>
<pdfrwt beam="1">  1        2 0.11902970E+00 0.19201369E+04</pdfrwt>
<pdfrwt beam="2">  1       -1 0.18328306E+00 0.19201369E+04</pdfrwt>
<totfact> 0.75754743E+00</totfact>
</mgrwt>
</event>
<event>
12    7  0.1660832E-007  0.1285773E+04  0.7818608E-02  0.9040924E-01
          2   -1    0    0  501    0  0.00000000000E+00  0.00000000000E+00  0.65300103138E+03  0.65300103138E+03  0.00000000000E+00 0. -1.
         -1   -1    0    0    0  501 -0.00000000000E+00 -0.00000000000E+00 -0.63292884048E+03  0.63292884048E+03  0.00000000000E+00 0.  1.
         24    2    1    2    0    0  0.58654882352E+02 -0.34411546416E+02 -0.29669154098E+03  0.31393006276E+03  0.76822288883E+02 0.  0.
        254    2    1    2    0    0 -0.58654882352E+02  0.34411546416E+02  0.31676373188E+03  0.97199980909E+03  0.91641683600E+03 0.  0.
         23    2    4    4    0    0 -0.42983684278E+03 -0.16099802442E+03  0.27021007885E+03  0.54037454709E+03  0.91165175122E+02 0.  0.
         23    2    4    4    0    0  0.37118196043E+03  0.19540957084E+03  0.46553653031E+02  0.43162526201E+03  0.90400088878E+02 0.  0.
          2    1    3    3  502    0  0.91679196873E+01 -0.34114204531E+02 -0.43936773574E+02  0.56376145437E+02  0.00000000000E+00 0. -1.
         -1    1    3    3    0  502  0.49486962665E+02 -0.29734188564E+00 -0.25275476740E+03  0.25755391733E+03  0.00000000000E+00 0.  1.
         13    1    5    5    0    0 -0.35422929672E+03 -0.11762619483E+03  0.17810777912E+03  0.41356583194E+03  0.00000000000E+00 0. -1.
        -13    1    5    5    0    0 -0.75607546055E+02 -0.43371829594E+02  0.92102299724E+02  0.12680871515E+03  0.00000000000E+00 0.  1.
          3    1    6    6  503    0  0.36952737845E+03  0.18730695599E+03  0.32809493030E+02  0.41558493959E+03  0.00000000000E+00 0. -1.
         -3    1    6    6    0  503  0.16545819793E+01  0.81026148502E+01  0.13744160002E+02  0.16040322412E+02  0.00000000000E+00 0.  1.
<mgrwt>
<rscale>  0 0.12857732E+04</rscale>
<asrwt>0</asrwt>
<pdfrwt beam="1">  1        2 0.10046170E+00 0.12857732E+04</pdfrwt>
<pdfrwt beam="2">  1       -1 0.97373668E-01 0.12857732E+04</pdfrwt>
<totfact> 0.50776022E+01</totfact>
</mgrwt>
</event>
<event>
12    7  0.1660832E-007  0.1878498E+04  0.7818608E-02  0.8665634E-01
          2   -1    0    0  501    0  0.00000000000E+00  0.00000000000E+00  0.15495230397E+04  0.15495230397E+04  0.00000000000E+00 0. -1.
         -1   -1    0    0    0  501 -0.00000000000E+00 -0.00000000000E+00 -0.56932929763E+03  0.56932929763E+03  0.00000000000E+00 0.  1.
         24    2    1    2    0    0 -0.46217544027E+03  0.12311294668E+03 -0.22746355009E+03  0.53543176101E+03  0.78642029808E+02 0.  0.
        254    2    1    2    0    0  0.46217544027E+03 -0.12311294668E+03  0.12076572922E+04  0.15834205763E+04  0.90555046850E+03 0.  0.
         23    2    4    4    0    0  0.64103780816E+02  0.16585201652E+03 -0.70930181404E+02  0.21056781781E+03  0.87701363521E+02 0.  0.
         23    2    4    4    0    0  0.39807165945E+03 -0.28896496320E+03  0.12785874736E+04  0.13728527585E+04  0.89313901394E+02 0.  0.
          4    1    3    3  502    0 -0.30618452111E+03  0.11095179004E+03 -0.12736069084E+03  0.34968558199E+03  0.00000000000E+00 0. -1.
         -3    1    3    3    0  502 -0.15599091916E+03  0.12161156640E+02 -0.10010285925E+03  0.18574617902E+03  0.00000000000E+00 0.  1.
         13    1    5    5    0    0  0.49452825744E+02  0.15165613080E+03 -0.89562897174E+02  0.18293899675E+03  0.00000000000E+00 0. -1.
        -13    1    5    5    0    0  0.14650955072E+02  0.14195885725E+02  0.18632715770E+02  0.27628821057E+02  0.00000000000E+00 0.  1.
          4    1    6    6  503    0  0.29168430234E+03 -0.23125151764E+03  0.10528675813E+04  0.11167305585E+04  0.00000000000E+00 0. -1.
         -4    1    6    6    0  503  0.10638735712E+03 -0.57713445562E+02  0.22571989232E+03  0.25612220002E+03  0.00000000000E+00 0.  1.
<mgrwt>
<rscale>  0 0.18784982E+04</rscale>
<asrwt>0</asrwt>
<pdfrwt beam="1">  1        2 0.23838816E+00 0.18784982E+04</pdfrwt>
<pdfrwt beam="2">  1       -1 0.87589124E-01 0.18784982E+04</pdfrwt>
<totfact> 0.16315557E+01</totfact>
</mgrwt>
</event>
<event>
12    7  0.1660832E-007  0.2083858E+04  0.7818608E-02  0.8568387E-01
         -1   -1    0    0    0  501 -0.00000000000E+00  0.00000000000E+00  0.33103806035E+03  0.33103806035E+03  0.00000000000E+00 0.  1.
          2   -1    0    0  501    0  0.00000000000E+00 -0.00000000000E+00 -0.32794305161E+04  0.32794305161E+04  0.00000000000E+00 0. -1.
         24    2    1    2    0    0 -0.69559722133E+03  0.44526730460E+03 -0.90783864540E+03  0.12298578927E+04  0.79126248930E+02 0.  0.
        254    2    1    2    0    0  0.69559722133E+03 -0.44526730460E+03 -0.20405538103E+04  0.23806106837E+04  0.90627198334E+03 0.  0.
         23    2    4    4    0    0  0.60249010147E+03 -0.63390126800E+03 -0.10811302260E+04  0.13934365311E+04  0.89429641781E+02 0.  0.
         23    2    4    4    0    0  0.93107119857E+02  0.18863396340E+03 -0.95942358434E+03  0.98717415259E+03  0.98830589581E+02 0.  0.
          2    1    3    3  502    0 -0.36109034850E+03  0.21009607306E+03 -0.51117636263E+03  0.66017260879E+03  0.00000000000E+00 0. -1.
         -1    1    3    3    0  502 -0.33450687283E+03  0.23517123154E+03 -0.39666228278E+03  0.56968528390E+03  0.00000000000E+00 0.  1.
         13    1    5    5    0    0  0.53545650344E+03 -0.56739573213E+03 -0.10041884737E+04  0.12716312652E+04  0.00000000000E+00 0.  1.
        -13    1    5    5    0    0  0.67033598033E+02 -0.66505535873E+02 -0.76941752290E+02  0.12180526595E+03  0.00000000000E+00 0. -1.
          1    1    6    6  503    0  0.18570053742E+02  0.20891613976E+02 -0.35450636488E+02  0.45144812082E+02  0.00000000000E+00 0. -1.
         -1    1    6    6    0  503  0.74537066116E+02  0.16774234943E+03 -0.92397294785E+03  0.94202934051E+03  0.00000000000E+00 0.  1.
<mgrwt>
<rscale>  0 0.20838583E+04</rscale>
<asrwt>0</asrwt>
<pdfrwt beam="1">  1        2 0.50452779E+00 0.20838583E+04</pdfrwt>
<pdfrwt beam="2">  1       -1 0.50928930E-01 0.20838583E+04</pdfrwt>
<totfact> 0.46936023E+00</totfact>
</mgrwt>
</event>
<event>
12    7  0.1660832E-007  0.1604633E+04  0.7818608E-02  0.8817707E-01
          2   -1    0    0  501    0  0.00000000000E+00  0.00000000000E+00  0.16109466228E+04  0.16109466228E+04  0.00000000000E+00 0. -1.
         -1   -1    0    0    0  501 -0.00000000000E+00 -0.00000000000E+00 -0.39958579859E+03  0.39958579859E+03  0.00000000000E+00 0.  1.
         24    2    1    2    0    0  0.36087338131E+03 -0.37514671811E+03  0.19293136978E+03  0.56091059736E+03  0.80209272141E+02 0.  0.
        254    2    1    2    0    0 -0.36087338131E+03  0.37514671811E+03  0.10184294544E+04  0.14496218240E+04  0.89064034356E+03 0.  0.
         23    2    4    4    0    0 -0.26002901806E+02 -0.26090967148E+03  0.44927488801E+03  0.52830517136E+03  0.92241105336E+02 0.  0.
         23    2    4    4    0    0 -0.33487047951E+03  0.63605638959E+03  0.56915456641E+03  0.92131665266E+03  0.90451562766E+02 0.  0.
          4    1    3    3  502    0  0.31127707455E+03 -0.35201139975E+03  0.15696255286E+03  0.49542172509E+03  0.00000000000E+00 0. -1.
         -3    1    3    3    0  502  0.49596306766E+02 -0.23135318359E+02  0.35968816919E+02  0.65488872268E+02  0.00000000000E+00 0.  1.
         13    1    5    5    0    0 -0.52705326270E+02 -0.12170600177E+03  0.25962903196E+03  0.29154319838E+03  0.00000000000E+00 0. -1.
        -13    1    5    5    0    0  0.26702424463E+02 -0.13920366971E+03  0.18964585606E+03  0.23676197299E+03  0.00000000000E+00 0.  1.
          4    1    6    6  503    0 -0.29281848842E+03  0.56036742154E+03  0.45949739184E+03  0.78159591055E+03  0.00000000000E+00 0. -1.
         -4    1    6    6    0  503 -0.42051991089E+02  0.75688968057E+02  0.10965717457E+03  0.13972074211E+03  0.00000000000E+00 0.  1.
<mgrwt>
<rscale>  0 0.16046325E+04</rscale>
<asrwt>0</asrwt>
<pdfrwt beam="1">  1        2 0.24783794E+00 0.16046325E+04</pdfrwt>
<pdfrwt beam="2">  1       -1 0.61474739E-01 0.16046325E+04</pdfrwt>
<totfact> 0.32227972E+01</totfact>
</mgrwt>
</event>
<event>
12    7  0.1660832E-007  0.1690177E+04  0.7818608E-02  0.8766987E-01
          2   -1    0    0  501    0  0.00000000000E+00  0.00000000000E+00  0.31988054475E+04  0.31988054475E+04  0.00000000000E+00 0. -1.
         -1   -1    0    0    0  501 -0.00000000000E+00 -0.00000000000E+00 -0.22326279249E+03  0.22326279249E+03  0.00000000000E+00 0.  1.
         24    2    1    2    0    0  0.21961567923E+03 -0.85148859416E+00  0.22911463025E+04  0.23029606569E+04  0.77747257404E+02 0.  0.
        254    2    1    2    0    0 -0.21961567923E+03  0.85148859416E+00  0.68439635248E+03  0.11191075831E+04  0.85777132364E+03 0.  0.
         23    2    4    4    0    0  0.15695433364E+03  0.29620479538E+03  0.10939679656E+03  0.36547768170E+03  0.96095437299E+02 0.  0.
         23    2    4    4    0    0 -0.37657001288E+03 -0.29535330679E+03  0.57499955592E+03  0.75362990139E+03  0.91076827645E+02 0.  0.
          2    1    3    3  502    0  0.19991342491E+03 -0.24388789345E+02  0.19136241363E+04  0.19241926945E+04  0.00000000000E+00 0. -1.
         -1    1    3    3    0  502  0.19702254327E+02  0.23537300751E+02  0.37752216624E+03  0.37876796242E+03  0.00000000000E+00 0.  1.
         13    1    5    5    0    0  0.99993422901E+02  0.26360400880E+03  0.76840596490E+02  0.29221607647E+03  0.00000000000E+00 0.  1.
        -13    1    5    5    0    0  0.56960910744E+02  0.32600786582E+02  0.32556200070E+02  0.73261605235E+02  0.00000000000E+00 0. -1.
          2    1    6    6  503    0 -0.65175820752E+02 -0.99543156905E+02  0.15292156154E+03  0.19375688808E+03  0.00000000000E+00 0. -1.
         -2    1    6    6    0  503 -0.31139419213E+03 -0.19581014988E+03  0.42207799438E+03  0.55987301331E+03  0.00000000000E+00 0.  1.
<mgrwt>
<rscale>  0 0.16901766E+04</rscale>
<asrwt>0</asrwt>
<pdfrwt beam="1">  1        2 0.49212388E+00 0.16901766E+04</pdfrwt>
<pdfrwt beam="2">  1       -1 0.34348124E-01 0.16901766E+04</pdfrwt>
<totfact> 0.11381428E+01</totfact>
</mgrwt>
</event>
<event>
12    7  0.1660832E-007  0.1787526E+04  0.7818608E-02  0.8712961E-01
          2   -1    0    0  501    0  0.00000000000E+00  0.00000000000E+00  0.20861695200E+04  0.20861695200E+04  0.00000000000E+00 0. -1.
         -1   -1    0    0    0  501 -0.00000000000E+00 -0.00000000000E+00 -0.38290880750E+03  0.38290880750E+03  0.00000000000E+00 0.  1.
         24    2    1    2    0    0  0.39419707922E+03  0.51905643777E+03  0.46914530606E+03  0.80705184699E+03  0.80152621173E+02 0.  0.
        254    2    1    2    0    0 -0.39419707922E+03 -0.51905643777E+03  0.12341154064E+04  0.16620264805E+04  0.90248560245E+03 0.  0.
         23    2    4    4    0    0 -0.33483858923E+03 -0.52331457654E+03  0.13585254083E+04  0.14963588240E+04  0.86737640872E+02 0.  0.
         23    2    4    4    0    0 -0.59358489986E+02  0.42581387688E+01 -0.12441000187E+03  0.16566765649E+03  0.91795216445E+02 0.  0.
          2    1    3    3  502    0  0.17657148218E+03  0.17493983918E+03  0.15673859114E+03  0.29385101941E+03  0.00000000000E+00 0. -1.
         -1    1    3    3    0  502  0.21762559704E+03  0.34411659859E+03  0.31240671492E+03  0.51320082759E+03  0.00000000000E+00 0.  1.
         13    1    5    5    0    0 -0.24089065834E+03 -0.42201950714E+03  0.11168193348E+04  0.12179549254E+04  0.00000000000E+00 0. -1.
        -13    1    5    5    0    0 -0.93947930893E+02 -0.10129506940E+03  0.24170607345E+03  0.27840389858E+03  0.00000000000E+00 0.  1.
          1    1    6    6  503    0 -0.80128013108E+02 -0.48498788606E+01 -0.11683964211E+03  0.14175867444E+03  0.00000000000E+00 0. -1.
         -1    1    6    6    0  503  0.20769523122E+02  0.91080176294E+01 -0.75703597565E+01  0.23908982050E+02  0.00000000000E+00 0.  1.
<mgrwt>
<rscale>  0 0.17875264E+04</rscale>
<asrwt>0</asrwt>
<pdfrwt beam="1">  1        2 0.32094915E+00 0.17875264E+04</pdfrwt>
<pdfrwt beam="2">  1       -1 0.58909048E-01 0.17875264E+04</pdfrwt>
<totfact> 0.18802748E+01</totfact>
</mgrwt>
</event>
<event>
12    7  0.1660832E-007  0.2256428E+04  0.7818608E-02  0.8495302E-01
          2   -1    0    0  501    0  0.00000000000E+00  0.00000000000E+00  0.12152020164E+04  0.12152020164E+04  0.00000000000E+00 0. -1.
         -1   -1    0    0    0  501 -0.00000000000E+00 -0.00000000000E+00 -0.10474532063E+04  0.10474532063E+04  0.00000000000E+00 0.  1.
         24    2    1    2    0    0  0.41156803130E+03 -0.49566539204E+03  0.77367622170E+03  0.10099603042E+04  0.79827907609E+02 0.  0.
        254    2    1    2    0    0 -0.41156803130E+03  0.49566539204E+03 -0.60592741163E+03  0.12526949185E+04  0.88714379078E+03 0.  0.
         23    2    4    4    0    0  0.14173246849E+03  0.47111979995E+03 -0.44452061788E+03  0.66899156020E+03  0.88933510937E+02 0.  0.
         23    2    4    4    0    0 -0.55330049979E+03  0.24545592087E+02 -0.16140679374E+03  0.58370335834E+03  0.88958014323E+02 0.  0.
          2    1    3    3  502    0  0.32165744375E+03 -0.42752553519E+03  0.61308912634E+03  0.81370748503E+03  0.00000000000E+00 0. -1.
         -1    1    3    3    0  502  0.89910587555E+02 -0.68139856845E+02  0.16058709536E+03  0.19625281920E+03  0.00000000000E+00 0.  1.
         13    1    5    5    0    0  0.86659444752E+02  0.23764674169E+03 -0.17177238131E+03  0.30576393538E+03  0.00000000000E+00 0. -1.
        -13    1    5    5    0    0  0.55073023734E+02  0.23347305826E+03 -0.27274823657E+03  0.36322762482E+03  0.00000000000E+00 0.  1.
          3    1    6    6  503    0 -0.32276832595E+03  0.40886455891E+02 -0.13046226821E+03  0.35053030958E+03  0.00000000000E+00 0. -1.
         -3    1    6    6    0  503 -0.23053217384E+03 -0.16340863804E+02 -0.30944525537E+02  0.23317304876E+03  0.00000000000E+00 0.  1.
<mgrwt>
<rscale>  0 0.22564284E+04</rscale>
<asrwt>0</asrwt>
<pdfrwt beam="1">  1        2 0.18695416E+00 0.22564284E+04</pdfrwt>
<pdfrwt beam="2">  1       -1 0.16114665E+00 0.22564284E+04</pdfrwt>
<totfact> 0.55109735E+00</totfact>
</mgrwt>
</event>
<event>
12    7  0.1660832E-007  0.2906897E+04  0.7818608E-02  0.8270828E-01
          2   -1    0    0  501    0  0.00000000000E+00  0.00000000000E+00  0.17300733283E+04  0.17300733283E+04  0.00000000000E+00 0. -1.
         -1   -1    0    0    0  501 -0.00000000000E+00 -0.00000000000E+00 -0.12210539207E+04  0.12210539207E+04  0.00000000000E+00 0.  1.
         24    2    1    2    0    0 -0.11443620620E+04  0.26710202448E+03 -0.36230252843E+03  0.12323210917E+04  0.80275341912E+02 0.  0.
        254    2    1    2    0    0  0.11443620620E+04 -0.26710202448E+03  0.87132193604E+03  0.17188061573E+04  0.90232182162E+03 0.  0.
         23    2    4    4    0    0 -0.12211409322E+02 -0.14196777140E+03  0.44590486475E+03  0.47669876876E+03  0.90036665297E+02 0.  0.
         23    2    4    4    0    0  0.11565734713E+04 -0.12513425309E+03  0.42541707130E+03  0.12421073885E+04  0.92359646660E+02 0.  0.
          4    1    3    3  502    0 -0.55559031691E+01  0.72962887706E+01  0.56811113514E+00  0.91883970370E+01  0.00000000000E+00 0. -1.
         -3    1    3    3    0  502 -0.11388061588E+04  0.25980573571E+03 -0.36287063957E+03  0.12231326946E+04  0.00000000000E+00 0.  1.
         13    1    5    5    0    0 -0.74751604412E+00 -0.52155435340E+01  0.15457849195E+03  0.15466826064E+03  0.00000000000E+00 0. -1.
        -13    1    5    5    0    0 -0.11463893277E+02 -0.13675222786E+03  0.29132637279E+03  0.32203050812E+03  0.00000000000E+00 0.  1.
          3    1    6    6  503    0  0.46670662695E+03 -0.92202491907E+02  0.15391462812E+03  0.50000608786E+03  0.00000000000E+00 0. -1.
         -3    1    6    6    0  503  0.68986684432E+03 -0.32931761180E+02  0.27150244318E+03  0.74210130066E+03  0.00000000000E+00 0.  1.
<mgrwt>
<rscale>  0 0.29068972E+04</rscale>
<asrwt>0</asrwt>
<pdfrwt beam="1">  1        2 0.26616513E+00 0.29068972E+04</pdfrwt>
<pdfrwt beam="2">  1       -1 0.18785445E+00 0.29068972E+04</pdfrwt>
<totfact> 0.16950024E+00</totfact>
</mgrwt>
</event>
<event>
12    7  0.1660832E-007  0.1362158E+04  0.7818608E-02  0.8981676E-01
          2   -1    0    0  501    0  0.00000000000E+00  0.00000000000E+00  0.51201673752E+03  0.51201673752E+03  0.00000000000E+00 0. -1.
         -1   -1    0    0    0  501 -0.00000000000E+00 -0.00000000000E+00 -0.90596313841E+03  0.90596313841E+03  0.00000000000E+00 0.  1.
         24    2    1    2    0    0 -0.39563056112E+03  0.81312109234E+02 -0.27221396822E+01  0.41192982510E+03  0.80892340524E+02 0.  0.
        254    2    1    2    0    0  0.39563056112E+03 -0.81312109234E+02 -0.39122426120E+03  0.10060500508E+04  0.83423323012E+03 0.  0.
         23    2    4    4    0    0  0.12607729637E+02  0.18633194166E+03 -0.47906888853E+03  0.52183624379E+03  0.89036610699E+02 0.  0.
         23    2    4    4    0    0  0.38302283149E+03 -0.26764405089E+03  0.87844627327E+02  0.48421380705E+03  0.91686994551E+02 0.  0.
          4    1    3    3  502    0 -0.16011395340E+02  0.63664410761E+01  0.17364091942E+02  0.24462380132E+02  0.00000000000E+00 0. -1.
         -3    1    3    3    0  502 -0.37961916578E+03  0.74945668158E+02 -0.20086231625E+02  0.38746744496E+03  0.00000000000E+00 0.  1.
         13    1    5    5    0    0  0.33061138534E+02  0.16869385447E+03 -0.34956872498E+03  0.38954967450E+03  0.00000000000E+00 0. -1.
        -13    1    5    5    0    0 -0.20453408896E+02  0.17638087187E+02 -0.12950016355E+03  0.13228656929E+03  0.00000000000E+00 0.  1.
          4    1    6    6  503    0  0.16955612988E+03 -0.87062636963E+02  0.73372216860E+02  0.20423678939E+03  0.00000000000E+00 0.  1.
         -4    1    6    6    0  503  0.21346670161E+03 -0.18058141393E+03  0.14472410468E+02  0.27997701766E+03  0.00000000000E+00 0. -1.
<mgrwt>
<rscale>  0 0.13621575E+04</rscale>
<asrwt>0</asrwt>
<pdfrwt beam="1">  1        2 0.78771806E-01 0.13621575E+04</pdfrwt>
<pdfrwt beam="2">  1       -1 0.13937894E+00 0.13621575E+04</pdfrwt>
<totfact> 0.28347938E+01</totfact>
</mgrwt>
</event>
<event>
12    7  0.2469209E-007  0.1612235E+04  0.7818608E-02  0.8813067E-01
         -1   -1    0    0    0  501 -0.00000000000E+00  0.00000000000E+00  0.67213782211E+03  0.67213782211E+03  0.00000000000E+00 0.  1.
          2   -1    0    0  501    0  0.00000000000E+00 -0.00000000000E+00 -0.96680352775E+03  0.96680352775E+03  0.00000000000E+00 0. -1.
         24    2    1    2    0    0  0.41705158289E+03 -0.11182263272E+03  0.30695864545E+03  0.53558786837E+03  0.78704706010E+02 0.  0.
        254    2    1    2    0    0 -0.41705158289E+03  0.11182263272E+03 -0.60162435110E+03  0.11033534815E+04  0.81792464281E+03 0.  0.
         23    2    4    4    0    0 -0.42442915702E+03 -0.28289012963E+03 -0.30412438558E+03  0.60068809829E+03  0.90374856863E+02 0.  0.
         23    2    4    4    0    0  0.73775741329E+01  0.39471276235E+03 -0.29749996552E+03  0.50266538320E+03  0.91179299343E+02 0.  0.
          4    1    3    3  502    0  0.34469176365E+02  0.10767871710E+02  0.36125253573E+02  0.51079400214E+02  0.00000000000E+00 0. -1.
         -3    1    3    3    0  502  0.38258240652E+03 -0.12259050443E+03  0.27083339188E+03  0.48450846815E+03  0.00000000000E+00 0.  1.
         13    1    5    5    0    0 -0.38137768368E+03 -0.28153002988E+03 -0.26851299201E+03  0.54480025900E+03  0.00000000000E+00 0. -1.
        -13    1    5    5    0    0 -0.43051473335E+02 -0.13600997501E+01 -0.35611393574E+02  0.55887839285E+02  0.00000000000E+00 0.  1.
          3    1    6    6  503    0  0.35101737343E+02  0.32128740168E+03 -0.21158193728E+03  0.38629605567E+03  0.00000000000E+00 0. -1.
         -3    1    6    6    0  503 -0.27724163211E+02  0.73425360673E+02 -0.85918028236E+02  0.11636932754E+03  0.00000000000E+00 0.  1.
<mgrwt>
<rscale>  0 0.16122347E+04</rscale>
<asrwt>0</asrwt>
<pdfrwt beam="1">  1        2 0.14873900E+00 0.16122347E+04</pdfrwt>
<pdfrwt beam="2">  1       -1 0.10340582E+00 0.16122347E+04</pdfrwt>
<totfact> 0.25532555E+01</totfact>
</mgrwt>
</event>
<event>
12    7  0.1660832E-007  0.1266957E+04  0.7818608E-02  0.9056187E-01
         -1   -1    0    0    0  501 -0.00000000000E+00  0.00000000000E+00  0.17051766150E+03  0.17051766150E+03  0.00000000000E+00 0.  1.
          2   -1    0    0  501    0  0.00000000000E+00 -0.00000000000E+00 -0.23533927801E+04  0.23533927801E+04  0.00000000000E+00 0. -1.
         24    2    1    2    0    0  0.13280883908E+03  0.32242396518E+03 -0.64384094880E+03  0.73686066855E+03  0.82686615885E+02 0.  0.
        254    2    1    2    0    0 -0.13280883908E+03 -0.32242396518E+03 -0.15390341698E+04  0.17870497730E+04  0.83864492753E+03 0.  0.
         23    2    4    4    0    0 -0.25696462006E+03 -0.30830098826E+03 -0.15761781608E+04  0.16289827183E+04  0.90370275396E+02 0.  0.
         23    2    4    4    0    0  0.12415578098E+03 -0.14122976929E+02  0.37143991073E+02  0.15806705466E+03  0.89394637818E+02 0.  0.
          2    1    3    3  502    0  0.14007597875E+02  0.67845285448E+01 -0.65905804560E+02  0.67718665820E+02  0.00000000000E+00 0. -1.
         -1    1    3    3    0  502  0.11880124121E+03  0.31563943664E+03 -0.57793514424E+03  0.66914200273E+03  0.00000000000E+00 0.  1.
         13    1    5    5    0    0 -0.27316062055E+02 -0.15303524750E+01 -0.13377022338E+03  0.13653930529E+03  0.00000000000E+00 0. -1.
        -13    1    5    5    0    0 -0.22964855800E+03 -0.30677063578E+03 -0.14424079374E+04  0.14924434131E+04  0.00000000000E+00 0.  1.
          1    1    6    6  503    0  0.54046753057E+02 -0.30270978826E+02 -0.21162895247E+02  0.65461834761E+02  0.00000000000E+00 0. -1.
         -1    1    6    6    0  503  0.70109027919E+02  0.16148001897E+02  0.58306886320E+02  0.92605219903E+02  0.00000000000E+00 0.  1.
<mgrwt>
<rscale>  0 0.12669570E+04</rscale>
<asrwt>0</asrwt>
<pdfrwt beam="1">  1        2 0.36206043E+00 0.12669570E+04</pdfrwt>
<pdfrwt beam="2">  1       -1 0.26233487E-01 0.12669570E+04</pdfrwt>
<totfact> 0.61203191E+01</totfact>
</mgrwt>
</event>
<event>
12    7  0.1660832E-007  0.1344814E+04  0.7818608E-02  0.8994763E-01
          2   -1    0    0  501    0  0.00000000000E+00  0.00000000000E+00  0.19978105368E+04  0.19978105368E+04  0.00000000000E+00 0. -1.
         -1   -1    0    0    0  501 -0.00000000000E+00 -0.00000000000E+00 -0.22631319491E+03  0.22631319491E+03  0.00000000000E+00 0.  1.
         24    2    1    2    0    0 -0.20185534836E+03  0.23782848932E+02 -0.72311024704E+01  0.21837802316E+03  0.79532801996E+02 0.  0.
        254    2    1    2    0    0  0.20185534836E+03 -0.23782848932E+02  0.17787284443E+04  0.20057457085E+04  0.90433940697E+03 0.  0.
         23    2    4    4    0    0  0.17357012146E+03 -0.42479721349E+03  0.62666617582E+03  0.78204527993E+03  0.91132125445E+02 0.  0.
         23    2    4    4    0    0  0.28285226891E+02  0.40101436456E+03  0.11520622685E+04  0.12237004286E+04  0.92642828907E+02 0.  0.
          2    1    3    3  502    0 -0.24170899300E+02  0.32878914440E+00  0.26647752183E+02  0.35978370887E+02  0.00000000000E+00 0. -1.
         -1    1    3    3    0  502 -0.17768444906E+03  0.23454059787E+02 -0.33878854654E+02  0.18239965227E+03  0.00000000000E+00 0.  1.
         13    1    5    5    0    0  0.70984180809E+02 -0.14104959744E+03  0.28816582562E+03  0.32859288781E+03  0.00000000000E+00 0. -1.
        -13    1    5    5    0    0  0.10258594065E+03 -0.28374761605E+03  0.33850035020E+03  0.45345239212E+03  0.00000000000E+00 0.  1.
          3    1    6    6  503    0 -0.20756297744E+01  0.28581419964E+03  0.69761397164E+03  0.75389609256E+03  0.00000000000E+00 0. -1.
         -3    1    6    6    0  503  0.30360856666E+02  0.11520016492E+03  0.45444829688E+03  0.46980433603E+03  0.00000000000E+00 0.  1.
<mgrwt>
<rscale>  0 0.13448136E+04</rscale>
<asrwt>0</asrwt>
<pdfrwt beam="1">  1        2 0.30735546E+00 0.13448136E+04</pdfrwt>
<pdfrwt beam="2">  1       -1 0.34817416E-01 0.13448136E+04</pdfrwt>
<totfact> 0.58459125E+01</totfact>
</mgrwt>
</event>
<event>
12    7  0.1660832E-007  0.1753648E+04  0.7818608E-02  0.8731345E-01
          2   -1    0    0  501    0  0.00000000000E+00  0.00000000000E+00  0.22001320410E+04  0.22001320410E+04  0.00000000000E+00 0. -1.
         -1   -1    0    0    0  501 -0.00000000000E+00 -0.00000000000E+00 -0.34944268034E+03  0.34944268034E+03  0.00000000000E+00 0.  1.
         24    2    1    2    0    0  0.14518208633E+03 -0.24463266231E+03 -0.15142978209E+03  0.33241706198E+03  0.81530034534E+02 0.  0.
        254    2    1    2    0    0 -0.14518208633E+03  0.24463266231E+03  0.20021191427E+04  0.22171576593E+04  0.90905667974E+03 0.  0.
         23    2    4    4    0    0 -0.32865692144E+03 -0.13033541023E+03  0.15596922922E+04  0.16021966234E+04  0.96908629412E+02 0.  0.
         23    2    4    4    0    0  0.18347483512E+03  0.37496807254E+03  0.44242685054E+03  0.61496103595E+03  0.90396278244E+02 0.  0.
          2    1    3    3  502    0 -0.23078094115E+01 -0.51131867594E+02 -0.14356263011E+02  0.53159158717E+02  0.00000000000E+00 0. -1.
         -1    1    3    3    0  502  0.14748989574E+03 -0.19350079472E+03 -0.13707351908E+03  0.27925790327E+03  0.00000000000E+00 0.  1.
         13    1    5    5    0    0 -0.25927966935E+03 -0.14160361109E+03  0.13014967962E+04  0.13346053499E+04  0.00000000000E+00 0.  1.
        -13    1    5    5    0    0 -0.69377252093E+02  0.11268200865E+02  0.25819549603E+03  0.26759127346E+03  0.00000000000E+00 0. -1.
          4    1    6    6  503    0  0.42210881262E+02  0.15926441972E+03  0.21704523878E+03  0.27249871479E+03  0.00000000000E+00 0. -1.
         -4    1    6    6    0  503  0.14126395385E+03  0.21570365282E+03  0.22538161176E+03  0.34246232117E+03  0.00000000000E+00 0.  1.
<mgrwt>
<rscale>  0 0.17536477E+04</rscale>
<asrwt>0</asrwt>
<pdfrwt beam="1">  1        2 0.33848184E+00 0.17536477E+04</pdfrwt>
<pdfrwt beam="2">  1       -1 0.53760414E-01 0.17536477E+04</pdfrwt>
<totfact> 0.19462162E+01</totfact>
</mgrwt>
</event>
<event>
12    7  0.1660832E-007  0.2103992E+04  0.7818608E-02  0.8559487E-01
         -1   -1    0    0    0  501 -0.00000000000E+00  0.00000000000E+00  0.24408648424E+03  0.24408648424E+03  0.00000000000E+00 0.  1.
          2   -1    0    0  501    0  0.00000000000E+00 -0.00000000000E+00 -0.45340296760E+04  0.45340296760E+04  0.00000000000E+00 0. -1.
         24    2    1    2    0    0  0.90897185173E+02  0.80846576792E+03 -0.11479440089E+04  0.14092551133E+04  0.79657584153E+02 0.  0.
        254    2    1    2    0    0 -0.90897185173E+02 -0.80846576792E+03 -0.31419991829E+04  0.33688610469E+04  0.90287689749E+03 0.  0.
         23    2    4    4    0    0 -0.47680527911E+03 -0.53668719760E+03 -0.20958477460E+04  0.22172987995E+04  0.91977006306E+02 0.  0.
         23    2    4    4    0    0  0.38590809394E+03 -0.27177857033E+03 -0.10461514369E+04  0.11515622474E+04  0.94202614004E+02 0.  0.
          2    1    3    3  502    0  0.16370492096E+02  0.31238004318E+02 -0.34546890559E+02  0.49368953529E+02  0.00000000000E+00 0. -1.
         -1    1    3    3    0  502  0.74526693077E+02  0.77722776361E+03 -0.11133971183E+04  0.13598861598E+04  0.00000000000E+00 0.  1.
         13    1    5    5    0    0 -0.15561308180E+03 -0.14890749812E+03 -0.75117934113E+03  0.78144691231E+03  0.00000000000E+00 0. -1.
        -13    1    5    5    0    0 -0.32119219731E+03 -0.38777969948E+03 -0.13446684049E+04  0.14358518872E+04  0.00000000000E+00 0.  1.
          4    1    6    6  503    0  0.49112579572E+01 -0.21059603831E+02 -0.84684411554E+02  0.87401813073E+02  0.00000000000E+00 0.  1.
         -4    1    6    6    0  503  0.38099683598E+03 -0.25071896650E+03 -0.96146702531E+03  0.10641604343E+04  0.00000000000E+00 0. -1.
<mgrwt>
<rscale>  0 0.21039918E+04</rscale>
<asrwt>0</asrwt>
<pdfrwt beam="1">  1        2 0.69754301E+00 0.21039918E+04</pdfrwt>
<pdfrwt beam="2">  1       -1 0.37551768E-01 0.21039918E+04</pdfrwt>
<totfact> 0.82807690E-01</totfact>
</mgrwt>
</event>
<event>
12    7  0.1660832E-007  0.1478410E+04  0.7818608E-02  0.8898938E-01
          2   -1    0    0  501    0  0.00000000000E+00  0.00000000000E+00  0.22048911528E+04  0.22048911528E+04  0.00000000000E+00 0. -1.
         -1   -1    0    0    0  501 -0.00000000000E+00 -0.00000000000E+00 -0.24782356249E+03  0.24782356249E+03  0.00000000000E+00 0.  1.
         24    2    1    2    0    0 -0.28192923414E+03  0.11691702421E+03  0.36402134948E+02  0.31899701238E+03  0.85324643947E+02 0.  0.
        254    2    1    2    0    0  0.28192923414E+03 -0.11691702421E+03  0.19206654553E+04  0.21337177029E+04  0.87786203967E+03 0.  0.
         23    2    4    4    0    0  0.47721985407E+03 -0.96009326234E+02  0.18353939972E+04  0.19010488828E+04  0.91428388301E+02 0.  0.
         23    2    4    4    0    0 -0.19529061994E+03 -0.20907697978E+02  0.85271458159E+02  0.23266882006E+03  0.91038454414E+02 0.  0.
          4    1    3    3  502    0  0.51499171069E+00  0.26689777509E+01  0.13157977124E+02  0.13435811129E+02  0.00000000000E+00 0. -1.
         -3    1    3    3    0  502 -0.28244422585E+03  0.11424804646E+03  0.23244157824E+02  0.30556120125E+03  0.00000000000E+00 0.  1.
         13    1    5    5    0    0  0.18971381538E+03 -0.88628644931E+01  0.58433751874E+03  0.61442673926E+03  0.00000000000E+00 0.  1.
        -13    1    5    5    0    0  0.28750603869E+03 -0.87146461740E+02  0.12510564784E+04  0.12866221435E+04  0.00000000000E+00 0. -1.
          4    1    6    6  503    0 -0.96332503712E+02 -0.29810494503E+02  0.87168729714E+02  0.13329292665E+03  0.00000000000E+00 0.  1.
         -4    1    6    6    0  503 -0.98958116224E+02  0.89027965252E+01 -0.18972715550E+01  0.99375893414E+02  0.00000000000E+00 0. -1.
<mgrwt>
<rscale>  0 0.14784099E+04</rscale>
<asrwt>0</asrwt>
<pdfrwt beam="1">  1        2 0.33921401E+00 0.14784099E+04</pdfrwt>
<pdfrwt beam="2">  1       -1 0.38126703E-01 0.14784099E+04</pdfrwt>
<totfact> 0.37646916E+01</totfact>
</mgrwt>
</event>
<event>
12    7  0.1660832E-007  0.1922399E+04  0.7818608E-02  0.8643786E-01
          2   -1    0    0  501    0  0.00000000000E+00  0.00000000000E+00  0.23773470198E+04  0.23773470198E+04  0.00000000000E+00 0. -1.
         -1   -1    0    0    0  501 -0.00000000000E+00 -0.00000000000E+00 -0.38862851662E+03  0.38862851662E+03  0.00000000000E+00 0.  1.
         24    2    1    2    0    0 -0.54817869845E+03  0.55822681440E+02  0.15016068829E+04  0.16015540621E+04  0.80846311149E+02 0.  0.
        254    2    1    2    0    0  0.54817869845E+03 -0.55822681440E+02  0.48711162028E+03  0.11644214743E+04  0.90276441108E+03 0.  0.
         23    2    4    4    0    0  0.22522544955E+03 -0.46740619709E+03  0.25689855656E+03  0.58586407914E+03  0.89692779324E+02 0.  0.
         23    2    4    4    0    0  0.32295324890E+03  0.41158351565E+03  0.23021306372E+03  0.57855739512E+03  0.89614805775E+02 0.  0.
          4    1    3    3  502    0 -0.42316381603E+03  0.90918000549E+01  0.11591366906E+04  0.12339968167E+04  0.00000000000E+00 0. -1.
         -3    1    3    3    0  502 -0.12501488242E+03  0.46730881386E+02  0.34247019223E+03  0.36755724543E+03  0.00000000000E+00 0.  1.
         13    1    5    5    0    0  0.57803502765E+02 -0.21219941372E+03  0.86767050363E+02  0.23642833406E+03  0.00000000000E+00 0.  1.
        -13    1    5    5    0    0  0.16742194679E+03 -0.25520678337E+03  0.17013150620E+03  0.34943574509E+03  0.00000000000E+00 0. -1.
          3    1    6    6  503    0  0.46273400493E+02  0.76722088137E+02  0.61799064232E+01  0.89809229173E+02  0.00000000000E+00 0. -1.
         -3    1    6    6    0  503  0.27667984840E+03  0.33486142751E+03  0.22403315730E+03  0.48874816595E+03  0.00000000000E+00 0.  1.
<mgrwt>
<rscale>  0 0.19223994E+04</rscale>
<asrwt>0</asrwt>
<pdfrwt beam="1">  1        2 0.36574569E+00 0.19223994E+04</pdfrwt>
<pdfrwt beam="2">  1       -1 0.59789004E-01 0.19223994E+04</pdfrwt>
<totfact> 0.12370576E+01</totfact>
</mgrwt>
</event>
<event>
12    7  0.1660832E-007  0.1341137E+04  0.7818608E-02  0.8997565E-01
          2   -1    0    0  501    0  0.00000000000E+00  0.00000000000E+00  0.18952875946E+04  0.18952875946E+04  0.00000000000E+00 0. -1.
         -1   -1    0    0    0  501 -0.00000000000E+00 -0.00000000000E+00 -0.23725261577E+03  0.23725261577E+03  0.00000000000E+00 0.  1.
         24    2    1    2    0    0  0.57788960898E+02  0.20198515772E+02 -0.10836630063E+03  0.14795867299E+03  0.80006060759E+02 0.  0.
        254    2    1    2    0    0 -0.57788960898E+02 -0.20198515772E+02  0.17664012795E+04  0.19845815374E+04  0.90257567794E+03 0.  0.
         23    2    4    4    0    0 -0.34563565306E+03 -0.18290108720E+03  0.14942338793E+04  0.15470001819E+04  0.86935977757E+02 0.  0.
         23    2    4    4    0    0  0.28784669216E+03  0.16270257143E+03  0.27216740017E+03  0.43758135554E+03  0.89858244255E+02 0.  0.
          4    1    3    3  502    0  0.44045663584E+01 -0.26275753103E+02 -0.14299240765E+02  0.30237124407E+02  0.00000000000E+00 0. -1.
         -3    1    3    3    0  502  0.53384394540E+02  0.46474268876E+02 -0.94067059868E+02  0.11772154858E+03  0.00000000000E+00 0.  1.
         13    1    5    5    0    0 -0.27231839638E+03 -0.10177961486E+03  0.10494065252E+04  0.10889308766E+04  0.00000000000E+00 0. -1.
        -13    1    5    5    0    0 -0.73317256679E+02 -0.81121472344E+02  0.44482735415E+03  0.45806930524E+03  0.00000000000E+00 0.  1.
          3    1    6    6  503    0  0.29451692437E+03  0.16117062269E+03  0.26549482935E+03  0.42802300495E+03  0.00000000000E+00 0. -1.
         -3    1    6    6    0  503 -0.66702322039E+01  0.15319487416E+01  0.66725708167E+01  0.95583505849E+01  0.00000000000E+00 0.  1.
<mgrwt>
<rscale>  0 0.13411367E+04</rscale>
<asrwt>0</asrwt>
<pdfrwt beam="1">  1        2 0.29158270E+00 0.13411367E+04</pdfrwt>
<pdfrwt beam="2">  1       -1 0.36500404E-01 0.13411367E+04</pdfrwt>
<totfact> 0.61220149E+01</totfact>
</mgrwt>
</event>
<event>
12    7  0.1660832E-007  0.1692852E+04  0.7818608E-02  0.8765452E-01
          2   -1    0    0  501    0  0.00000000000E+00  0.00000000000E+00  0.90531609941E+03  0.90531609941E+03  0.00000000000E+00 0. -1.
         -1   -1    0    0    0  501 -0.00000000000E+00 -0.00000000000E+00 -0.79136665473E+03  0.79136665473E+03  0.00000000000E+00 0.  1.
         24    2    1    2    0    0  0.59494110025E+03 -0.27910272948E+02  0.97990130645E+02  0.60881330608E+03  0.79483833896E+02 0.  0.
        254    2    1    2    0    0 -0.59494110025E+03  0.27910272948E+02  0.15959314028E+02  0.10878694481E+04  0.91020401022E+03 0.  0.
         23    2    4    4    0    0  0.21390394501E+03  0.98476448916E+02  0.88788624291E+02  0.26748107295E+03  0.90610131352E+02 0.  0.
         23    2    4    4    0    0 -0.80884504526E+03 -0.70566175968E+02 -0.72829310263E+02  0.82038837511E+03  0.92320556500E+02 0.  0.
          2    1    3    3  502    0  0.81617949077E+02  0.22231948163E+01 -0.13237098012E+02  0.82714285166E+02  0.00000000000E+00 0. -1.
         -1    1    3    3    0  502  0.51332315117E+03 -0.30133467764E+02  0.11122722866E+03  0.52609902091E+03  0.00000000000E+00 0.  1.
         13    1    5    5    0    0  0.73523952825E+02  0.17066004241E+02 -0.12035441176E+02  0.76432139732E+02  0.00000000000E+00 0.  1.
        -13    1    5    5    0    0  0.14037999218E+03  0.81410444675E+02  0.10082406547E+03  0.19104893322E+03  0.00000000000E+00 0. -1.
          1    1    6    6  503    0 -0.64182417394E+03 -0.36891215434E+02 -0.24779911667E+02  0.64336092207E+03  0.00000000000E+00 0. -1.
         -1    1    6    6    0  503 -0.16702087132E+03 -0.33674960534E+02 -0.48049398596E+02  0.17702745304E+03  0.00000000000E+00 0.  1.
<mgrwt>
<rscale>  0 0.16928520E+04</rscale>
<asrwt>0</asrwt>
<pdfrwt beam="1">  1        2 0.13927940E+00 0.16928520E+04</pdfrwt>
<pdfrwt beam="2">  1       -1 0.12174872E+00 0.16928520E+04</pdfrwt>
<totfact> 0.18880028E+01</totfact>
</mgrwt>
</event>
<event>
12    7  0.1660832E-007  0.1751011E+04  0.7818608E-02  0.8732794E-01
         -1   -1    0    0    0  501 -0.00000000000E+00  0.00000000000E+00  0.57382694322E+03  0.57382694322E+03  0.00000000000E+00 0.  1.
          2   -1    0    0  501    0  0.00000000000E+00 -0.00000000000E+00 -0.13357855909E+04  0.13357855909E+04  0.00000000000E+00 0. -1.
         24    2    1    2    0    0  0.35463228365E+03  0.36261148512E+03  0.14918712717E+03  0.53452130799E+03  0.78772355778E+02 0.  0.
        254    2    1    2    0    0 -0.35463228365E+03 -0.36261148512E+03 -0.91114577489E+03  0.13750912262E+04  0.89634709317E+03 0.  0.
         23    2    4    4    0    0 -0.50436185256E+03 -0.15931130128E+03 -0.96197641955E+03  0.11018240518E+04  0.94109725331E+02 0.  0.
         23    2    4    4    0    0  0.14972956891E+03 -0.20330018384E+03  0.50830644662E+02  0.27326717433E+03  0.91330638740E+02 0.  0.
          2    1    3    3  502    0  0.13911923934E+03  0.11267162713E+03  0.20091013739E+02  0.18014634925E+03  0.00000000000E+00 0. -1.
         -1    1    3    3    0  502  0.21551304431E+03  0.24993985799E+03  0.12909611343E+03  0.35437495874E+03  0.00000000000E+00 0.  1.
         13    1    5    5    0    0 -0.21750617406E+03 -0.84586665457E+02 -0.51597920128E+03  0.56630237143E+03  0.00000000000E+00 0. -1.
        -13    1    5    5    0    0 -0.28685567850E+03 -0.74724635824E+02 -0.44599721826E+03  0.53552168041E+03  0.00000000000E+00 0.  1.
          2    1    6    6  503    0 -0.57243454624E+01  0.52416466518E+01 -0.16092817406E+01  0.79267129578E+01  0.00000000000E+00 0. -1.
         -2    1    6    6    0  503  0.15545391438E+03 -0.20854183049E+03  0.52439926402E+02  0.26534046137E+03  0.00000000000E+00 0.  1.
<mgrwt>
<rscale>  0 0.17510109E+04</rscale>
<asrwt>0</asrwt>
<pdfrwt beam="1">  1        2 0.20550547E+00 0.17510109E+04</pdfrwt>
<pdfrwt beam="2">  1       -1 0.88281070E-01 0.17510109E+04</pdfrwt>
<totfact> 0.21457122E+01</totfact>
</mgrwt>
</event>
<event>
12    7  0.1660832E-007  0.1087059E+04  0.7818608E-02  0.9217898E-01
          2   -1    0    0  501    0  0.00000000000E+00  0.00000000000E+00  0.93169684569E+03  0.93169684569E+03  0.00000000000E+00 0. -1.
         -1   -1    0    0    0  501 -0.00000000000E+00 -0.00000000000E+00 -0.31708185233E+03  0.31708185233E+03  0.00000000000E+00 0.  1.
         24    2    1    2    0    0  0.51441107369E+02 -0.10982120974E+03  0.23531735342E+03  0.27649012912E+03  0.79785017660E+02 0.  0.
        254    2    1    2    0    0 -0.51441107369E+02  0.10982120974E+03  0.37929763995E+03  0.97228856891E+03  0.88700139567E+03 0.  0.
         23    2    4    4    0    0 -0.36710941854E+01  0.13915106008E+02  0.65490584199E+03  0.66142891958E+03  0.91539317643E+02 0.  0.
         23    2    4    4    0    0 -0.47770013184E+02  0.95906103732E+02 -0.27560820205E+03  0.31085964932E+03  0.95884751907E+02 0.  0.
          4    1    3    3  502    0 -0.73592388506E+01  0.64848072633E+01  0.43473815750E+02  0.44566621787E+02  0.00000000000E+00 0. -1.
         -3    1    3    3    0  502  0.58800346220E+02 -0.11630601700E+03  0.19184353767E+03  0.23192350733E+03  0.00000000000E+00 0.  1.
         13    1    5    5    0    0 -0.20864172337E+01  0.18681065044E+01  0.64683697062E+03  0.64684303314E+03  0.00000000000E+00 0.  1.
        -13    1    5    5    0    0 -0.15846769517E+01  0.12046999504E+02  0.80688713721E+01  0.14585886442E+02  0.00000000000E+00 0. -1.
          2    1    6    6  503    0 -0.38186726796E+02  0.52250837807E+02 -0.52544927351E+02  0.83362734751E+02  0.00000000000E+00 0. -1.
         -2    1    6    6    0  503 -0.95832863880E+01  0.43655265925E+02 -0.22306327470E+03  0.22749691457E+03  0.00000000000E+00 0.  1.
<mgrwt>
<rscale>  0 0.10870587E+04</rscale>
<asrwt>0</asrwt>
<pdfrwt beam="1">  1        2 0.14333798E+00 0.10870587E+04</pdfrwt>
<pdfrwt beam="2">  1       -1 0.48781824E-01 0.10870587E+04</pdfrwt>
<totfact> 0.13307055E+02</totfact>
</mgrwt>
</event>
<event>
12    7  0.1825741E-007  0.1519937E+04  0.7818608E-02  0.8871302E-01
          2   -1    0    0  501    0  0.00000000000E+00  0.00000000000E+00  0.18368047724E+04  0.18368047724E+04  0.00000000000E+00 0. -1.
         -3   -1    0    0    0  501 -0.00000000000E+00 -0.00000000000E+00 -0.31443323745E+03  0.31443323745E+03  0.00000000000E+00 0.  1.
         24    2    1    2    0    0 -0.40811512062E+03  0.12529680136E+03  0.92598753841E+03  0.10227989542E+04  0.80047107205E+02 0.  0.
        254    2    1    2    0    0  0.40811512062E+03 -0.12529680136E+03  0.59638399651E+03  0.11284390556E+04  0.85758007835E+03 0.  0.
         23    2    4    4    0    0  0.10971448590E+03 -0.74577519075E+02  0.75668658330E+03  0.77357024989E+03  0.90759414947E+02 0.  0.
         23    2    4    4    0    0  0.29840063473E+03 -0.50719282287E+02 -0.16030258679E+03  0.35486880570E+03  0.92841615279E+02 0.  0.
          4    1    3    3  502    0 -0.40137718360E+03  0.10789563414E+03  0.88977293527E+03  0.98205956424E+03  0.00000000000E+00 0. -1.
         -3    1    3    3    0  502 -0.67379370223E+01  0.17401167222E+02  0.36214603144E+02  0.40739389991E+02  0.00000000000E+00 0.  1.
         13    1    5    5    0    0  0.11664630945E+03 -0.87361258485E+02  0.66934592704E+03  0.68502724109E+03  0.00000000000E+00 0. -1.
        -13    1    5    5    0    0 -0.69318235551E+01  0.12783739410E+02  0.87340656264E+02  0.88543008802E+02  0.00000000000E+00 0.  1.
          4    1    6    6  503    0  0.28720330170E+03 -0.25440563495E+02 -0.13969970737E+03  0.32038877480E+03  0.00000000000E+00 0. -1.
         -4    1    6    6    0  503  0.11197333028E+02 -0.25278718792E+02 -0.20602879420E+02  0.34480030903E+02  0.00000000000E+00 0.  1.
<mgrwt>
<rscale>  0 0.15199375E+04</rscale>
<asrwt>0</asrwt>
<pdfrwt beam="1">  1        2 0.28258534E+00 0.15199375E+04</pdfrwt>
<pdfrwt beam="2">  1       -3 0.48374345E-01 0.15199375E+04</pdfrwt>
<totfact> 0.21649427E+01</totfact>
</mgrwt>
</event>
<event>
12    7  0.1660832E-007  0.1734835E+04  0.7818608E-02  0.8741742E-01
          2   -1    0    0  501    0  0.00000000000E+00  0.00000000000E+00  0.82038664225E+03  0.82038664225E+03  0.00000000000E+00 0. -1.
         -1   -1    0    0    0  501 -0.00000000000E+00 -0.00000000000E+00 -0.91714434012E+03  0.91714434012E+03  0.00000000000E+00 0.  1.
         24    2    1    2    0    0 -0.11352692181E+03 -0.27429565488E+03 -0.58986428186E+03  0.66521527473E+03  0.80280897222E+02 0.  0.
        254    2    1    2    0    0  0.11352692181E+03  0.27429565488E+03  0.49310658399E+03  0.10723157076E+04  0.90475433429E+03 0.  0.
         23    2    4    4    0    0  0.43829696100E+03 -0.81221595329E+02  0.17183879942E+03  0.48624093250E+03  0.90556600418E+02 0.  0.
         23    2    4    4    0    0 -0.32477003919E+03  0.35551725021E+03  0.32126778457E+03  0.58607477514E+03  0.91665473885E+02 0.  0.
          4    1    3    3  502    0  0.10324199748E+02 -0.46165403823E+02 -0.10726019081E+03  0.11722875988E+03  0.00000000000E+00 0. -1.
         -3    1    3    3    0  502 -0.12385112156E+03 -0.22813025106E+03 -0.48260409105E+03  0.54798651485E+03  0.00000000000E+00 0.  1.
         13    1    5    5    0    0  0.45569776366E+02 -0.75744655727E+01  0.50965648580E+02  0.68785713502E+02  0.00000000000E+00 0. -1.
        -13    1    5    5    0    0  0.39272718464E+03 -0.73647129756E+02  0.12087315084E+03  0.41745521900E+03  0.00000000000E+00 0.  1.
          4    1    6    6  503    0 -0.67467168967E+02  0.26764625980E+02  0.43035560906E+02  0.84381417355E+02  0.00000000000E+00 0. -1.
         -4    1    6    6    0  503 -0.25730287022E+03  0.32875262423E+03  0.27823222366E+03  0.50169335779E+03  0.00000000000E+00 0.  1.
<mgrwt>
<rscale>  0 0.17348348E+04</rscale>
<asrwt>0</asrwt>
<pdfrwt beam="1">  1        2 0.12621333E+00 0.17348348E+04</pdfrwt>
<pdfrwt beam="2">  1       -1 0.14109913E+00 0.17348348E+04</pdfrwt>
<totfact> 0.14815944E+01</totfact>
</mgrwt>
</event>
<event>
12    7  0.1660832E-007  0.2024667E+04  0.7818608E-02  0.8595174E-01
         -1   -1    0    0    0  501 -0.00000000000E+00  0.00000000000E+00  0.91206615064E+03  0.91206615064E+03  0.00000000000E+00 0.  1.
          2   -1    0    0  501    0  0.00000000000E+00 -0.00000000000E+00 -0.11236238560E+04  0.11236238560E+04  0.00000000000E+00 0. -1.
         24    2    1    2    0    0 -0.16702333591E+02 -0.65286437039E+03 -0.56532843270E+03  0.86751391133E+03  0.80456792473E+02 0.  0.
        254    2    1    2    0    0  0.16702333591E+02  0.65286437039E+03  0.35377072731E+03  0.11681760953E+04  0.90164893842E+03 0.  0.
         23    2    4    4    0    0  0.39929535576E+03  0.13155998929E+03  0.10165611785E+02  0.43026940596E+03  0.91014340231E+02 0.  0.
         23    2    4    4    0    0 -0.38259302217E+03  0.52130438110E+03  0.34360511553E+03  0.73790668939E+03  0.91137963910E+02 0.  0.
          4    1    3    3  502    0 -0.60392442680E+01 -0.20254103778E+01 -0.20046078299E+01  0.66778148431E+01  0.00000000000E+00 0. -1.
         -3    1    3    3    0  502 -0.10663089323E+02 -0.65083896001E+03 -0.56332382487E+03  0.86083609649E+03  0.00000000000E+00 0.  1.
         13    1    5    5    0    0  0.36281688374E+03  0.12831413100E+03  0.34371359810E+02  0.38637028576E+03  0.00000000000E+00 0.  1.
        -13    1    5    5    0    0  0.36478472015E+02  0.32458582905E+01 -0.24205748025E+02  0.43899120196E+02  0.00000000000E+00 0. -1.
          4    1    6    6  503    0 -0.12846574397E+03  0.23754978685E+03  0.17149566648E+03  0.31991266344E+03  0.00000000000E+00 0. -1.
         -4    1    6    6    0  503 -0.25412727819E+03  0.28375459425E+03  0.17210944905E+03  0.41799402595E+03  0.00000000000E+00 0.  1.
<mgrwt>
<rscale>  0 0.20246672E+04</rscale>
<asrwt>0</asrwt>
<pdfrwt beam="1">  1        2 0.17286521E+00 0.20246672E+04</pdfrwt>
<pdfrwt beam="2">  1       -1 0.14031787E+00 0.20246672E+04</pdfrwt>
<totfact> 0.92830091E+00</totfact>
</mgrwt>
</event>
<event>
12    7  0.1660832E-007  0.2011576E+04  0.7818608E-02  0.8601228E-01
          2   -1    0    0  501    0  0.00000000000E+00  0.00000000000E+00  0.11763515421E+04  0.11763515421E+04  0.00000000000E+00 0. -1.
         -1   -1    0    0    0  501 -0.00000000000E+00 -0.00000000000E+00 -0.85995484023E+03  0.85995484023E+03  0.00000000000E+00 0.  1.
         24    2    1    2    0    0 -0.65441338777E+03 -0.11099216753E+03 -0.32388209291E+03  0.74363182191E+03  0.86674870038E+02 0.  0.
        254    2    1    2    0    0  0.65441338777E+03  0.11099216753E+03  0.64027879477E+03  0.12926745604E+04  0.90580044201E+03 0.  0.
         23    2    4    4    0    0  0.72015588789E+03  0.87068336318E+02  0.96969957464E+02  0.73740136045E+03  0.90289510360E+02 0.  0.
         23    2    4    4    0    0 -0.65742500123E+02  0.23923831209E+02  0.54330883730E+03  0.55527319996E+03  0.90826251065E+02 0.  0.
          4    1    3    3  502    0 -0.42168053929E+03 -0.74177949529E+02 -0.25414460701E+03  0.49790192477E+03  0.00000000000E+00 0. -1.
         -3    1    3    3    0  502 -0.23273284848E+03 -0.36814217998E+02 -0.69737485900E+02  0.24572989714E+03  0.00000000000E+00 0.  1.
         13    1    5    5    0    0  0.48559206373E+03  0.63820019149E+02  0.22815672685E+02  0.49029909456E+03  0.00000000000E+00 0.  1.
        -13    1    5    5    0    0  0.23456382416E+03  0.23248317168E+02  0.74154284779E+02  0.24710226589E+03  0.00000000000E+00 0. -1.
          2    1    6    6  503    0 -0.23121175706E+02 -0.19024810403E+02  0.50092112971E+02  0.58358820745E+02  0.00000000000E+00 0. -1.
         -2    1    6    6    0  503 -0.42621324417E+02  0.42948641613E+02  0.49321672433E+03  0.49691437922E+03  0.00000000000E+00 0.  1.
<mgrwt>
<rscale>  0 0.20115757E+04</rscale>
<asrwt>0</asrwt>
<pdfrwt beam="1">  1        2 0.18097716E+00 0.20115757E+04</pdfrwt>
<pdfrwt beam="2">  1       -1 0.13230074E+00 0.20115757E+04</pdfrwt>
<totfact> 0.10047452E+01</totfact>
</mgrwt>
</event>
<event>
12    7  0.1660832E-007  0.1797476E+04  0.7818608E-02  0.8707643E-01
         -1   -1    0    0    0  501 -0.00000000000E+00  0.00000000000E+00  0.60169401147E+03  0.60169401147E+03  0.00000000000E+00 0.  1.
          2   -1    0    0  501    0  0.00000000000E+00 -0.00000000000E+00 -0.13424266208E+04  0.13424266208E+04  0.00000000000E+00 0. -1.
         24    2    1    2    0    0 -0.10306972786E+03  0.25984518774E+03 -0.94026033241E+03  0.98419073329E+03  0.79993852279E+02 0.  0.
        254    2    1    2    0    0  0.10306972786E+03 -0.25984518774E+03  0.19952772312E+03  0.95992989894E+03  0.89638786704E+03 0.  0.
         23    2    4    4    0    0 -0.15648233089E+03  0.15149096649E+03  0.36807365097E+03  0.43721076138E+03  0.90767860595E+02 0.  0.
         23    2    4    4    0    0  0.25955205875E+03 -0.41133615424E+03 -0.16854592784E+03  0.52271913756E+03  0.90900296999E+02 0.  0.
          4    1    3    3  502    0 -0.98226344441E+02  0.26563227772E+03 -0.91651926278E+03  0.95927914642E+03  0.00000000000E+00 0. -1.
         -3    1    3    3    0  502 -0.48433834219E+01 -0.57870899781E+01 -0.23741069631E+02  0.24911586875E+02  0.00000000000E+00 0.  1.
         13    1    5    5    0    0  0.67761791958E+01 -0.39687230785E+01  0.28929781409E+02  0.29976651243E+02  0.00000000000E+00 0.  1.
        -13    1    5    5    0    0 -0.16325851008E+03  0.15545968957E+03  0.33914386956E+03  0.40723411013E+03  0.00000000000E+00 0. -1.
          3    1    6    6  503    0  0.18528284372E+03 -0.21295947722E+03 -0.82520626956E+02  0.29409373504E+03  0.00000000000E+00 0. -1.
         -3    1    6    6    0  503  0.74269215027E+02 -0.19837667701E+03 -0.86025300888E+02  0.22862540252E+03  0.00000000000E+00 0.  1.
<mgrwt>
<rscale>  0 0.17974761E+04</rscale>
<asrwt>0</asrwt>
<pdfrwt beam="1">  1        2 0.20652717E+00 0.17974761E+04</pdfrwt>
<pdfrwt beam="2">  1       -1 0.92568310E-01 0.17974761E+04</pdfrwt>
<totfact> 0.19077626E+01</totfact>
</mgrwt>
</event>
<event>
12    7  0.1660832E-007  0.4514763E+04  0.7818608E-02  0.7908057E-01
         -1   -1    0    0    0  501 -0.00000000000E+00  0.00000000000E+00  0.25335070737E+04  0.25335070737E+04  0.00000000000E+00 0.  1.
          2   -1    0    0  501    0  0.00000000000E+00 -0.00000000000E+00 -0.20113507929E+04  0.20113507929E+04  0.00000000000E+00 0. -1.
         24    2    1    2    0    0  0.71602561051E+02  0.18382300926E+04 -0.90255637313E+03  0.20507047481E+04  0.81025655752E+02 0.  0.
        254    2    1    2    0    0 -0.71602561051E+02 -0.18382300926E+04  0.14247126540E+04  0.24941531185E+04  0.89820756618E+03 0.  0.
         23    2    4    4    0    0  0.31827825209E+03 -0.34886931067E+03  0.51049804631E+03  0.70127513383E+03  0.90375419024E+02 0.  0.
         23    2    4    4    0    0 -0.38988081314E+03 -0.14893607820E+04  0.91421460766E+03  0.17928779847E+04  0.91763455473E+02 0.  0.
          2    1    3    3  502    0  0.76132333788E+02  0.11487663302E+04 -0.59063602653E+03  0.12939517493E+04  0.00000000000E+00 0. -1.
         -1    1    3    3    0  502 -0.45297727371E+01  0.68946376248E+03 -0.31192034660E+03  0.75675299883E+03  0.00000000000E+00 0.  1.
         13    1    5    5    0    0  0.23426982895E+03 -0.26949581427E+03  0.32570150251E+03  0.48331337184E+03  0.00000000000E+00 0. -1.
        -13    1    5    5    0    0  0.84008423141E+02 -0.79373496409E+02  0.18479654380E+03  0.21796176200E+03  0.00000000000E+00 0.  1.
          2    1    6    6  503    0 -0.15092189551E+03 -0.41786014502E+03  0.27569368340E+03  0.52286855557E+03  0.00000000000E+00 0. -1.
         -2    1    6    6    0  503 -0.23895891763E+03 -0.10715006370E+04  0.63852092426E+03  0.12700094291E+04  0.00000000000E+00 0.  1.
<mgrwt>
<rscale>  0 0.45147631E+04</rscale>
<asrwt>0</asrwt>
<pdfrwt beam="1">  1        2 0.30943858E+00 0.45147631E+04</pdfrwt>
<pdfrwt beam="2">  1       -1 0.38977032E+00 0.45147631E+04</pdfrwt>
<totfact> 0.47642711E-02</totfact>
</mgrwt>
</event>
<event>
12    7  0.1660832E-007  0.2636058E+04  0.7818608E-02  0.8356055E-01
          2   -1    0    0  501    0  0.00000000000E+00  0.00000000000E+00  0.12421125743E+04  0.12421125743E+04  0.00000000000E+00 0. -1.
         -1   -1    0    0    0  501 -0.00000000000E+00 -0.00000000000E+00 -0.13985856972E+04  0.13985856972E+04  0.00000000000E+00 0.  1.
         24    2    1    2    0    0 -0.58639609237E+03 -0.74948606366E+03 -0.73105737282E+03  0.12026214404E+04  0.79143601884E+02 0.  0.
        254    2    1    2    0    0  0.58639609237E+03  0.74948606366E+03  0.57458424990E+03  0.14380768312E+04  0.91232021540E+03 0.  0.
         23    2    4    4    0    0  0.39132809563E+03  0.89537722073E+03  0.23222418654E+03  0.10086217148E+04  0.92475104315E+02 0.  0.
         23    2    4    4    0    0  0.19506799674E+03 -0.14589115707E+03  0.34236006336E+03  0.42945511640E+03  0.88800512101E+02 0.  0.
          4    1    3    3  502    0 -0.10569043512E+03 -0.15644104191E+03 -0.11002653797E+03  0.21851797804E+03  0.00000000000E+00 0. -1.
         -3    1    3    3    0  502 -0.48070565725E+03 -0.59304502175E+03 -0.62103083485E+03  0.98410346233E+03  0.00000000000E+00 0.  1.
         13    1    5    5    0    0  0.37392614687E+03  0.88577511920E+03  0.23022213604E+03  0.98864581981E+03  0.00000000000E+00 0. -1.
        -13    1    5    5    0    0  0.17401948761E+02  0.96021015359E+01  0.20020504981E+01  0.19975894993E+02  0.00000000000E+00 0.  1.
          4    1    6    6  503    0  0.18858156352E+03 -0.14814499284E+03  0.34653259935E+03  0.42141996561E+03  0.00000000000E+00 0. -1.
         -4    1    6    6    0  503  0.64864332214E+01  0.22538357621E+01 -0.41725359895E+01  0.80351507865E+01  0.00000000000E+00 0.  1.
<mgrwt>
<rscale>  0 0.26360583E+04</rscale>
<asrwt>0</asrwt>
<pdfrwt beam="1">  1        2 0.19109424E+00 0.26360583E+04</pdfrwt>
<pdfrwt beam="2">  1       -1 0.21516703E+00 0.26360583E+04</pdfrwt>
<totfact> 0.21309546E+00</totfact>
</mgrwt>
</event>
<event>
12    7  0.1660832E-007  0.1590224E+04  0.7818608E-02  0.8826576E-01
         -1   -1    0    0    0  501 -0.00000000000E+00  0.00000000000E+00  0.89645496493E+03  0.89645496493E+03  0.00000000000E+00 0.  1.
          2   -1    0    0  501    0  0.00000000000E+00 -0.00000000000E+00 -0.70522571068E+03  0.70522571068E+03  0.00000000000E+00 0. -1.
         24    2    1    2    0    0 -0.32226737076E+03 -0.25848811568E+03 -0.25751738184E+03  0.49347346540E+03  0.80799102107E+02 0.  0.
        254    2    1    2    0    0  0.32226737076E+03  0.25848811568E+03  0.44874663610E+03  0.11082072102E+04  0.92524446128E+03 0.  0.
         23    2    4    4    0    0  0.14184304188E+03  0.49738156734E+03  0.56915442659E+03  0.77454621137E+03  0.92071712176E+02 0.  0.
         23    2    4    4    0    0  0.18042432888E+03 -0.23889345166E+03 -0.12040779049E+03  0.33366099884E+03  0.84903512509E+02 0.  0.
          2    1    3    3  502    0 -0.31750330843E+03 -0.25077478012E+03 -0.26329584889E+03  0.48272253443E+03  0.00000000000E+00 0. -1.
         -1    1    3    3    0  502 -0.47640623308E+01 -0.77133355601E+01  0.57784670441E+01  0.10750930971E+02  0.00000000000E+00 0.  1.
         13    1    5    5    0    0  0.14482469069E+03  0.47182179855E+03  0.50837832363E+03  0.70854676667E+03  0.00000000000E+00 0.  1.
        -13    1    5    5    0    0 -0.29816488034E+01  0.25559768791E+02  0.60776102959E+02  0.65999444703E+02  0.00000000000E+00 0. -1.
          2    1    6    6  503    0  0.82404158962E+02 -0.45873223260E+02 -0.44205437561E+02  0.10415814292E+03  0.00000000000E+00 0. -1.
         -2    1    6    6    0  503  0.98020169917E+02 -0.19302022840E+03 -0.76202352931E+02  0.22950285592E+03  0.00000000000E+00 0.  1.
<mgrwt>
<rscale>  0 0.15902240E+04</rscale>
<asrwt>0</asrwt>
<pdfrwt beam="1">  1        2 0.10849626E+00 0.15902240E+04</pdfrwt>
<pdfrwt beam="2">  1       -1 0.13791615E+00 0.15902240E+04</pdfrwt>
<totfact> 0.19393250E+01</totfact>
</mgrwt>
</event>
<event>
12    7  0.1660832E-007  0.1751928E+04  0.7818608E-02  0.8732290E-01
          2   -1    0    0  501    0  0.00000000000E+00  0.00000000000E+00  0.11407324160E+04  0.11407324160E+04  0.00000000000E+00 0. -1.
         -1   -1    0    0    0  501 -0.00000000000E+00 -0.00000000000E+00 -0.67264949755E+03  0.67264949755E+03  0.00000000000E+00 0.  1.
         24    2    1    2    0    0  0.43671303516E+03  0.15255772605E+03 -0.28027238344E+03  0.54666679918E+03  0.79371566347E+02 0.  0.
        254    2    1    2    0    0 -0.43671303516E+03 -0.15255772605E+03  0.74835530189E+03  0.12667151144E+04  0.91133933758E+03 0.  0.
         23    2    4    4    0    0 -0.55069629381E+03 -0.35987567547E+03  0.25562538638E+03  0.71160114382E+03  0.90856699846E+02 0.  0.
         23    2    4    4    0    0  0.11398325865E+03  0.20731794941E+03  0.49272991551E+03  0.55511397054E+03  0.96932116723E+02 0.  0.
          2    1    3    3  502    0  0.14976661747E+03  0.18251575720E+02 -0.69306229334E+02  0.16603166309E+03  0.00000000000E+00 0. -1.
         -1    1    3    3    0  502  0.28694641769E+03  0.13430615033E+03 -0.21096615411E+03  0.38063513609E+03  0.00000000000E+00 0.  1.
         13    1    5    5    0    0 -0.11308540852E+03 -0.37149601039E+02  0.63533652978E+02  0.13492563707E+03  0.00000000000E+00 0. -1.
        -13    1    5    5    0    0 -0.43761088530E+03 -0.32272607443E+03  0.19209173340E+03  0.57667550675E+03  0.00000000000E+00 0.  1.
          4    1    6    6  503    0 -0.15930291073E+01  0.27287366838E+02  0.13900736705E+02  0.30665430238E+02  0.00000000000E+00 0. -1.
         -4    1    6    6    0  503  0.11557628776E+03  0.18003058258E+03  0.47882917880E+03  0.52444854031E+03  0.00000000000E+00 0.  1.
<mgrwt>
<rscale>  0 0.17519282E+04</rscale>
<asrwt>0</asrwt>
<pdfrwt beam="1">  1        2 0.17549729E+00 0.17519282E+04</pdfrwt>
<pdfrwt beam="2">  1       -1 0.10348454E+00 0.17519282E+04</pdfrwt>
<totfact> 0.19578863E+01</totfact>
</mgrwt>
</event>
<event>
12    7  0.1660832E-007  0.2402434E+04  0.7818608E-02  0.8438593E-01
          2   -1    0    0  501    0  0.00000000000E+00  0.00000000000E+00  0.29643619549E+04  0.29643619549E+04  0.00000000000E+00 0. -1.
         -1   -1    0    0    0  501 -0.00000000000E+00 -0.00000000000E+00 -0.48675647085E+03  0.48675647085E+03  0.00000000000E+00 0.  1.
         24    2    1    2    0    0 -0.68134376099E+03  0.58047372680E+03  0.33146983019E+03  0.95822321462E+03  0.84500961971E+02 0.  0.
        254    2    1    2    0    0  0.68134376099E+03 -0.58047372680E+03  0.21461356539E+04  0.24928952111E+04  0.89858178299E+03 0.  0.
         23    2    4    4    0    0 -0.13441235222E+03  0.50919453812E+02  0.93999520013E+02  0.19403448170E+03  0.90299496795E+02 0.  0.
         23    2    4    4    0    0  0.81575611321E+03 -0.63139318061E+03  0.20521361339E+04  0.22988607294E+04  0.96863598249E+02 0.  0.
          4    1    3    3  502    0 -0.24878689624E+03  0.19928279799E+03  0.16030756368E+03  0.35680116072E+03  0.00000000000E+00 0. -1.
         -3    1    3    3    0  502 -0.43255686475E+03  0.38119092881E+03  0.17116226650E+03  0.60142205391E+03  0.00000000000E+00 0.  1.
         13    1    5    5    0    0 -0.22276471728E+02 -0.20278825211E+02  0.41331197969E+02  0.51144304377E+02  0.00000000000E+00 0.  1.
        -13    1    5    5    0    0 -0.11213588049E+03  0.71198279024E+02  0.52668322044E+02  0.14289017733E+03  0.00000000000E+00 0. -1.
          1    1    6    6  503    0  0.61458205113E+03 -0.42126808728E+03  0.14619487098E+04  0.16408753545E+04  0.00000000000E+00 0.  1.
         -1    1    6    6    0  503  0.20117406209E+03 -0.21012509333E+03  0.59018742402E+03  0.65798537489E+03  0.00000000000E+00 0. -1.
<mgrwt>
<rscale>  0 0.24024341E+04</rscale>
<asrwt>0</asrwt>
<pdfrwt beam="1">  1        2 0.45605567E+00 0.24024341E+04</pdfrwt>
<pdfrwt beam="2">  1       -1 0.74885613E-01 0.24024341E+04</pdfrwt>
<totfact> 0.33631007E+00</totfact>
</mgrwt>
</event>
<event>
12    7  0.1660832E-007  0.1735852E+04  0.7818608E-02  0.8741177E-01
          2   -1    0    0  501    0  0.00000000000E+00  0.00000000000E+00  0.13378015998E+04  0.13378015998E+04  0.00000000000E+00 0. -1.
         -1   -1    0    0    0  501 -0.00000000000E+00 -0.00000000000E+00 -0.56308433735E+03  0.56308433735E+03  0.00000000000E+00 0.  1.
         24    2    1    2    0    0  0.51094399513E+03 -0.14086478515E+03  0.68549865548E+03  0.86950449759E+03  0.72270400677E+02 0.  0.
        254    2    1    2    0    0 -0.51094399513E+03  0.14086478515E+03  0.89218606976E+02  0.10313814396E+04  0.88027328722E+03 0.  0.
         23    2    4    4    0    0 -0.24704930713E+02  0.69086496336E+02 -0.34846161461E+03  0.36697557469E+03  0.88669600103E+02 0.  0.
         23    2    4    4    0    0 -0.48623906441E+03  0.71778288812E+02  0.43768022159E+03  0.66440586488E+03  0.91052876979E+02 0.  0.
          2    1    3    3  502    0  0.46362143707E+03 -0.14874708159E+03  0.62103325459E+03  0.78914690299E+03  0.00000000000E+00 0. -1.
         -1    1    3    3    0  502  0.47322558057E+02  0.78822964369E+01  0.64465400890E+02  0.80357594601E+02  0.00000000000E+00 0.  1.
         13    1    5    5    0    0  0.67572663577E+01  0.39568598977E+02 -0.44347404291E+02  0.59816610912E+02  0.00000000000E+00 0.  1.
        -13    1    5    5    0    0 -0.31462197071E+02  0.29517897358E+02 -0.30411421032E+03  0.30715896378E+03  0.00000000000E+00 0. -1.
          3    1    6    6  503    0 -0.20141938047E+03  0.74843494666E+02  0.19653981324E+03  0.29120304551E+03  0.00000000000E+00 0. -1.
         -3    1    6    6    0  503 -0.28481968395E+03 -0.30652058532E+01  0.24114040834E+03  0.37320281937E+03  0.00000000000E+00 0.  1.
<mgrwt>
<rscale>  0 0.17358515E+04</rscale>
<asrwt>0</asrwt>
<pdfrwt beam="1">  1        2 0.20581563E+00 0.17358515E+04</pdfrwt>
<pdfrwt beam="2">  1       -1 0.86628360E-01 0.17358515E+04</pdfrwt>
<totfact> 0.22330616E+01</totfact>
</mgrwt>
</event>
<event>
12    7  0.1660832E-007  0.1588354E+04  0.7818608E-02  0.8827735E-01
         -3   -1    0    0    0  501 -0.00000000000E+00  0.00000000000E+00  0.70982575016E+03  0.70982575016E+03  0.00000000000E+00 0.  1.
          2   -1    0    0  501    0  0.00000000000E+00 -0.00000000000E+00 -0.88855222671E+03  0.88855222671E+03  0.00000000000E+00 0. -1.
         24    2    1    2    0    0  0.43411426878E+03  0.16024044139E+03 -0.33093268902E+03  0.57459625754E+03  0.80698309194E+02 0.  0.
        254    2    1    2    0    0 -0.43411426878E+03 -0.16024044139E+03  0.15220621247E+03  0.10237817193E+04  0.90046103763E+03 0.  0.
         23    2    4    4    0    0 -0.57187770744E+03 -0.14778712874E+03 -0.20322479339E+03  0.63130332944E+03  0.91424446539E+02 0.  0.
         23    2    4    4    0    0  0.13776343866E+03 -0.12453312651E+02  0.35543100586E+03  0.39247838989E+03  0.92597173683E+02 0.  0.
          4    1    3    3  502    0  0.25766535071E+03  0.52436113444E+02 -0.18380251772E+03  0.32081824211E+03  0.00000000000E+00 0. -1.
         -3    1    3    3    0  502  0.17644891807E+03  0.10780432794E+03 -0.14713017130E+03  0.25377801544E+03  0.00000000000E+00 0.  1.
         13    1    5    5    0    0 -0.59071592647E+02 -0.32854064495E+01  0.47943109061E+01  0.59356822442E+02  0.00000000000E+00 0.  1.
        -13    1    5    5    0    0 -0.51280611479E+03 -0.14450172229E+03 -0.20801910430E+03  0.57194650699E+03  0.00000000000E+00 0. -1.
          1    1    6    6  503    0  0.11222503098E+03 -0.23912664881E+02  0.17096815987E+03  0.20590382418E+03  0.00000000000E+00 0. -1.
         -1    1    6    6    0  503  0.25538407679E+02  0.11459352231E+02  0.18446284599E+03  0.18657456571E+03  0.00000000000E+00 0.  1.
<mgrwt>
<rscale>  0 0.15883542E+04</rscale>
<asrwt>0</asrwt>
<pdfrwt beam="1">  1        2 0.13670034E+00 0.15883542E+04</pdfrwt>
<pdfrwt beam="2">  1       -3 0.10920396E+00 0.15883542E+04</pdfrwt>
<totfact> 0.12861582E+01</totfact>
</mgrwt>
</event>
<event>
12    7  0.1660832E-007  0.1305159E+04  0.7818608E-02  0.9025484E-01
          2   -1    0    0  501    0  0.00000000000E+00  0.00000000000E+00  0.52515776931E+03  0.52515776931E+03  0.00000000000E+00 0. -1.
         -1   -1    0    0    0  501 -0.00000000000E+00 -0.00000000000E+00 -0.81091879018E+03  0.81091879018E+03  0.00000000000E+00 0.  1.
         24    2    1    2    0    0 -0.70757614604E+02 -0.21307136535E+03  0.11607786313E+03  0.26540999817E+03  0.81008333292E+02 0.  0.
        254    2    1    2    0    0  0.70757614604E+02  0.21307136535E+03 -0.40183888400E+03  0.10706665613E+04  0.96666765234E+03 0.  0.
         23    2    4    4    0    0  0.20352502425E+03 -0.98783610289E+02  0.23808104996E+03  0.34080846103E+03  0.91033969480E+02 0.  0.
         23    2    4    4    0    0 -0.13276740965E+03  0.31185497564E+03 -0.63991993396E+03  0.72985810029E+03  0.91184504061E+02 0.  0.
          2    1    3    3  502    0 -0.88685174508E+02 -0.17951653901E+03  0.10310521836E+03  0.22521530589E+03  0.00000000000E+00 0. -1.
         -1    1    3    3    0  502  0.17927559904E+02 -0.33554826344E+02  0.12972644774E+02  0.40194692281E+02  0.00000000000E+00 0.  1.
         13    1    5    5    0    0  0.65829484541E+02 -0.58923504016E+02  0.14530610610E+03  0.17005694585E+03  0.00000000000E+00 0. -1.
        -13    1    5    5    0    0  0.13769553971E+03 -0.39860106274E+02  0.92774943859E+02  0.17075151518E+03  0.00000000000E+00 0.  1.
          2    1    6    6  503    0 -0.26089649151E+02  0.15638695341E+03 -0.34693523541E+03  0.38144672833E+03  0.00000000000E+00 0. -1.
         -2    1    6    6    0  503 -0.10667776050E+03  0.15546802223E+03 -0.29298469855E+03  0.34841137196E+03  0.00000000000E+00 0.  1.
<mgrwt>
<rscale>  0 0.13051595E+04</rscale>
<asrwt>0</asrwt>
<pdfrwt beam="1">  1        2 0.80793504E-01 0.13051595E+04</pdfrwt>
<pdfrwt beam="2">  1       -1 0.12475674E+00 0.13051595E+04</pdfrwt>
<totfact> 0.36640945E+01</totfact>
</mgrwt>
</event>
<event>
12    7  0.1660832E-007  0.1760798E+04  0.7818608E-02  0.8727429E-01
         -1   -1    0    0    0  501 -0.00000000000E+00  0.00000000000E+00  0.55396957661E+03  0.55396957661E+03  0.00000000000E+00 0.  1.
          2   -1    0    0  501    0  0.00000000000E+00 -0.00000000000E+00 -0.13991781368E+04  0.13991781368E+04  0.00000000000E+00 0. -1.
         24    2    1    2    0    0  0.28392575166E+03  0.56468966987E+03 -0.30248556060E+03  0.70529233157E+03  0.80321248065E+02 0.  0.
        254    2    1    2    0    0 -0.28392575166E+03 -0.56468966987E+03 -0.54272299957E+03  0.12478553818E+04  0.92903527594E+03 0.  0.
         23    2    4    4    0    0  0.15558994165E+03 -0.40068836279E+03  0.96781757279E+02  0.44960471886E+03  0.89544964461E+02 0.  0.
         23    2    4    4    0    0 -0.43951569331E+03 -0.16400130708E+03 -0.63950475685E+03  0.79825066295E+03  0.90373190034E+02 0.  0.
          4    1    3    3  502    0  0.40500275865E+02  0.56385157955E+02 -0.94097936110E+01  0.70057851798E+02  0.00000000000E+00 0. -1.
         -3    1    3    3    0  502  0.24342547580E+03  0.50830451191E+03 -0.29307576699E+03  0.63523447977E+03  0.00000000000E+00 0.  1.
         13    1    5    5    0    0  0.13588609564E+03 -0.38586842594E+03  0.10709184624E+03  0.42288075938E+03  0.00000000000E+00 0. -1.
        -13    1    5    5    0    0  0.19703846008E+02 -0.14819936856E+02 -0.10310088961E+02  0.26723959480E+02  0.00000000000E+00 0.  1.
          2    1    6    6  503    0 -0.43719167822E+03 -0.15611140167E+03 -0.60391133965E+03  0.76171926548E+03  0.00000000000E+00 0. -1.
         -2    1    6    6    0  503 -0.23240150871E+01 -0.78899054032E+01 -0.35593417199E+02  0.36531397472E+02  0.00000000000E+00 0.  1.
<mgrwt>
<rscale>  0 0.17607977E+04</rscale>
<asrwt>0</asrwt>
<pdfrwt beam="1">  1        2 0.21525817E+00 0.17607977E+04</pdfrwt>
<pdfrwt beam="2">  1       -1 0.85226089E-01 0.17607977E+04</pdfrwt>
<totfact> 0.21283912E+01</totfact>
</mgrwt>
</event>
<event>
12    7  0.1660832E-007  0.1621640E+04  0.7818608E-02  0.8807363E-01
         -1   -1    0    0    0  501 -0.00000000000E+00  0.00000000000E+00  0.85924945790E+03  0.85924945790E+03  0.00000000000E+00 0.  1.
          2   -1    0    0  501    0  0.00000000000E+00 -0.00000000000E+00 -0.76512026551E+03  0.76512026551E+03  0.00000000000E+00 0. -1.
         24    2    1    2    0    0  0.42914663898E+03 -0.31901317940E+03 -0.10496623285E+03  0.55039959634E+03  0.77366396014E+02 0.  0.
        254    2    1    2    0    0 -0.42914663898E+03  0.31901317940E+03  0.19909542524E+03  0.10739701271E+04  0.90985526273E+03 0.  0.
         23    2    4    4    0    0 -0.17756411561E+02 -0.10125981088E+03 -0.27867431832E+03  0.31099742250E+03  0.92147607989E+02 0.  0.
         23    2    4    4    0    0 -0.41139022742E+03  0.42027299028E+03  0.47776974357E+03  0.76297270457E+03  0.89398626821E+02 0.  0.
          2    1    3    3  502    0  0.38757361095E+03 -0.30122389013E+03 -0.11482772048E+03  0.50411758676E+03  0.00000000000E+00 0. -1.
         -1    1    3    3    0  502  0.41573028028E+02 -0.17789289265E+02  0.98614876296E+01  0.46282009574E+02  0.00000000000E+00 0.  1.
         13    1    5    5    0    0  0.15518888495E+02 -0.93169170490E+00 -0.31089168686E+01  0.15854630669E+02  0.00000000000E+00 0. -1.
        -13    1    5    5    0    0 -0.33275300056E+02 -0.10032811918E+03 -0.27556540146E+03  0.29514279183E+03  0.00000000000E+00 0.  1.
          3    1    6    6  503    0 -0.30561877918E+02  0.11991160399E+02  0.92348190642E+01  0.34104225438E+02  0.00000000000E+00 0. -1.
         -3    1    6    6    0  503 -0.38082834950E+03  0.40828182988E+03  0.46853492450E+03  0.72886847913E+03  0.00000000000E+00 0.  1.
<mgrwt>
<rscale>  0 0.16216401E+04</rscale>
<asrwt>0</asrwt>
<pdfrwt beam="1">  1        2 0.11771081E+00 0.16216401E+04</pdfrwt>
<pdfrwt beam="2">  1       -1 0.13219222E+00 0.16216401E+04</pdfrwt>
<totfact> 0.19415952E+01</totfact>
</mgrwt>
</event>
<event>
12    7  0.1660832E-007  0.1528129E+04  0.7818608E-02  0.8865960E-01
         -1   -1    0    0    0  501 -0.00000000000E+00  0.00000000000E+00  0.31079831038E+03  0.31079831038E+03  0.00000000000E+00 0.  1.
          2   -1    0    0  501    0  0.00000000000E+00 -0.00000000000E+00 -0.18783706834E+04  0.18783706834E+04  0.00000000000E+00 0. -1.
         24    2    1    2    0    0 -0.13881749249E+03 -0.35849250887E+03 -0.74481467515E+02  0.39969110549E+03  0.80114391142E+02 0.  0.
        254    2    1    2    0    0  0.13881749249E+03  0.35849250887E+03 -0.14930909055E+04  0.17894778882E+04  0.90836308016E+03 0.  0.
         23    2    4    4    0    0  0.10767338881E+03 -0.16053788224E+03 -0.11275911343E+04  0.11474034407E+04  0.87789060211E+02 0.  0.
         23    2    4    4    0    0  0.31144103678E+02  0.51903039111E+03 -0.36549977112E+03  0.64207444758E+03  0.91142808080E+02 0.  0.
          4    1    3    3  502    0 -0.67234843283E+01 -0.51981270536E+02 -0.36286838452E+02  0.63749449981E+02  0.00000000000E+00 0. -1.
         -3    1    3    3    0  502 -0.13209400816E+03 -0.30651123833E+03 -0.38194629063E+02  0.33594165551E+03  0.00000000000E+00 0.  1.
         13    1    5    5    0    0  0.71316654407E+02 -0.64183804216E+02 -0.34599646952E+03  0.35905317551E+03  0.00000000000E+00 0.  1.
        -13    1    5    5    0    0  0.36356734406E+02 -0.96354078024E+02 -0.78159466482E+03  0.78835026515E+03  0.00000000000E+00 0. -1.
          2    1    6    6  503    0  0.54136527584E+02  0.45757650195E+03 -0.33524275197E+03  0.56981990270E+03  0.00000000000E+00 0. -1.
         -2    1    6    6    0  503 -0.22992423906E+02  0.61453889156E+02 -0.30257019146E+02  0.72254544888E+02  0.00000000000E+00 0.  1.
<mgrwt>
<rscale>  0 0.15281288E+04</rscale>
<asrwt>0</asrwt>
<pdfrwt beam="1">  1        2 0.28898010E+00 0.15281288E+04</pdfrwt>
<pdfrwt beam="2">  1       -1 0.47815125E-01 0.15281288E+04</pdfrwt>
<totfact> 0.37464479E+01</totfact>
</mgrwt>
</event>
<event>
12    7  0.1660832E-007  0.1305419E+04  0.7818608E-02  0.9025279E-01
          2   -1    0    0  501    0  0.00000000000E+00  0.00000000000E+00  0.10665680311E+04  0.10665680311E+04  0.00000000000E+00 0. -1.
         -1   -1    0    0    0  501 -0.00000000000E+00 -0.00000000000E+00 -0.39943994732E+03  0.39943994732E+03  0.00000000000E+00 0.  1.
         24    2    1    2    0    0 -0.14733434216E+03  0.18662514441E+02  0.50833919766E+03  0.53558089429E+03  0.79890278610E+02 0.  0.
        254    2    1    2    0    0  0.14733434216E+03 -0.18662514441E+02  0.15878888610E+03  0.93042708412E+03  0.90466842030E+03 0.  0.
         23    2    4    4    0    0  0.22957593901E+03 -0.33570537195E+02  0.50442713611E+03  0.56266464496E+03  0.91173868534E+02 0.  0.
         23    2    4    4    0    0 -0.82241596852E+02  0.14908022754E+02 -0.34563825002E+03  0.36776243916E+03  0.93794895307E+02 0.  0.
          2    1    3    3  502    0 -0.11493963395E+03  0.47365323630E+02  0.40157590763E+03  0.42037816656E+03  0.00000000000E+00 0. -1.
         -1    1    3    3    0  502 -0.32394708209E+02 -0.28702809190E+02  0.10676329004E+03  0.11520272772E+03  0.00000000000E+00 0.  1.
         13    1    5    5    0    0  0.64044016708E+00  0.45068681797E+00  0.73593337077E+02  0.73597503656E+02  0.00000000000E+00 0.  1.
        -13    1    5    5    0    0  0.22893549885E+03 -0.34021224013E+02  0.43083379904E+03  0.48906714131E+03  0.00000000000E+00 0. -1.
          3    1    6    6  503    0 -0.10162382451E+03  0.90882736111E+01 -0.31440796842E+03  0.33054858801E+03  0.00000000000E+00 0. -1.
         -3    1    6    6    0  503  0.19382227659E+02  0.58197491432E+01 -0.31230281594E+02  0.37213851151E+02  0.00000000000E+00 0.  1.
<mgrwt>
<rscale>  0 0.13054193E+04</rscale>
<asrwt>0</asrwt>
<pdfrwt beam="1">  1        2 0.16408739E+00 0.13054193E+04</pdfrwt>
<pdfrwt beam="2">  1       -1 0.61452300E-01 0.13054193E+04</pdfrwt>
<totfact> 0.68597323E+01</totfact>
</mgrwt>
</event>
<event>
12    7  0.1660832E-007  0.1094237E+04  0.7818608E-02  0.9210827E-01
         -1   -1    0    0    0  501 -0.00000000000E+00  0.00000000000E+00  0.97380336802E+03  0.97380336802E+03  0.00000000000E+00 0.  1.
          4   -1    0    0  501    0  0.00000000000E+00 -0.00000000000E+00 -0.30739134503E+03  0.30739134503E+03  0.00000000000E+00 0. -1.
         24    2    1    2    0    0  0.68087463921E+02 -0.72500794443E+02 -0.39515182640E+02  0.13505291847E+03  0.82374590682E+02 0.  0.
        254    2    1    2    0    0 -0.68087463921E+02  0.72500794443E+02  0.70592720564E+03  0.11461417946E+04  0.89744945578E+03 0.  0.
         23    2    4    4    0    0 -0.45612328704E+03  0.14383840758E+03  0.47226638979E+03  0.67831792976E+03  0.91333074160E+02 0.  0.
         23    2    4    4    0    0  0.38803582312E+03 -0.71337613140E+02  0.23366081585E+03  0.46782386482E+03  0.92741234398E+02 0.  0.
          2    1    3    3  502    0  0.56105673800E+02 -0.71123587611E+02 -0.61836185899E+02  0.10968192756E+03  0.00000000000E+00 0. -1.
         -1    1    3    3    0  502  0.11981790121E+02 -0.13772068325E+01  0.22321003259E+02  0.25370990908E+02  0.00000000000E+00 0.  1.
         13    1    5    5    0    0 -0.29981416675E+03  0.13891918760E+03  0.32651604305E+03  0.46454257247E+03  0.00000000000E+00 0. -1.
        -13    1    5    5    0    0 -0.15630912029E+03  0.49192199854E+01  0.14575034674E+03  0.21377535729E+03  0.00000000000E+00 0.  1.
          2    1    6    6  503    0  0.24338482312E+03 -0.87246658610E+02  0.16672227235E+03  0.30764340991E+03  0.00000000000E+00 0. -1.
         -2    1    6    6    0  503  0.14465100000E+03  0.15909045470E+02  0.66938543496E+02  0.16018045491E+03  0.00000000000E+00 0.  1.
<mgrwt>
<rscale>  0 0.10942371E+04</rscale>
<asrwt>0</asrwt>
<pdfrwt beam="1">  1        4 0.47290977E-01 0.10942371E+04</pdfrwt>
<pdfrwt beam="2">  1       -1 0.14981590E+00 0.10942371E+04</pdfrwt>
<totfact> 0.63179745E+00</totfact>
</mgrwt>
</event>
<event>
12    7  0.1660832E-007  0.1262500E+04  0.7818608E-02  0.9059843E-01
          2   -1    0    0  501    0  0.00000000000E+00  0.00000000000E+00  0.13715180564E+04  0.13715180564E+04  0.00000000000E+00 0. -1.
         -1   -1    0    0    0  501 -0.00000000000E+00 -0.00000000000E+00 -0.29053687007E+03  0.29053687007E+03  0.00000000000E+00 0.  1.
         24    2    1    2    0    0  0.13483949875E+03 -0.73019028459E+02  0.64090369489E+03  0.66378304257E+03  0.79604726829E+02 0.  0.
        254    2    1    2    0    0 -0.13483949875E+03  0.73019028459E+02  0.44007749141E+03  0.99827188388E+03  0.88281656461E+03 0.  0.
         23    2    4    4    0    0 -0.42921961650E+03 -0.19435576355E+03  0.30203248233E+03  0.56763962398E+03  0.94802322297E+02 0.  0.
         23    2    4    4    0    0  0.29438011775E+03  0.26737479201E+03  0.13804500908E+03  0.43063225990E+03  0.90767756451E+02 0.  0.
          2    1    3    3  502    0  0.12141001328E+03 -0.52708270852E+02  0.61123813770E+03  0.62540436049E+03  0.00000000000E+00 0. -1.
         -1    1    3    3    0  502  0.13429485470E+02 -0.20310757608E+02  0.29665557198E+02  0.38378682083E+02  0.00000000000E+00 0.  1.
         13    1    5    5    0    0 -0.26220111936E+03 -0.16831372715E+03  0.19688766331E+03  0.36856978946E+03  0.00000000000E+00 0. -1.
        -13    1    5    5    0    0 -0.16701849714E+03 -0.26042036399E+02  0.10514481902E+03  0.19906983451E+03  0.00000000000E+00 0.  1.
          1    1    6    6  503    0  0.21978692819E+03  0.14647830669E+03  0.70719004211E+02  0.27342890427E+03  0.00000000000E+00 0. -1.
         -1    1    6    6    0  503  0.74593189558E+02  0.12089648532E+03  0.67326004872E+02  0.15720335563E+03  0.00000000000E+00 0.  1.
<mgrwt>
<rscale>  0 0.12625000E+04</rscale>
<asrwt>0</asrwt>
<pdfrwt beam="1">  1        2 0.21100277E+00 0.12625000E+04</pdfrwt>
<pdfrwt beam="2">  1       -1 0.44697981E-01 0.12625000E+04</pdfrwt>
<totfact> 0.83426924E+01</totfact>
</mgrwt>
</event>
<event>
12    7  0.1660832E-007  0.1761342E+04  0.7818608E-02  0.8727132E-01
         -1   -1    0    0    0  501 -0.00000000000E+00  0.00000000000E+00  0.78847329628E+03  0.78847329628E+03  0.00000000000E+00 0.  1.
          2   -1    0    0  501    0  0.00000000000E+00 -0.00000000000E+00 -0.98365011248E+03  0.98365011248E+03  0.00000000000E+00 0. -1.
         24    2    1    2    0    0  0.25557536127E+02 -0.18186137791E+03 -0.70130109440E+03  0.72947803194E+03  0.81167885535E+02 0.  0.
        254    2    1    2    0    0 -0.25557536127E+02  0.18186137791E+03  0.50612427820E+03  0.10426453768E+04  0.89287224640E+03 0.  0.
         23    2    4    4    0    0  0.10177663400E+03  0.46703697572E+03  0.62593782830E+02  0.49063583016E+03  0.91233306798E+02 0.  0.
         23    2    4    4    0    0 -0.12733417013E+03 -0.28517559781E+03  0.44353049537E+03  0.55200954666E+03  0.10225520433E+03 0.  0.
          2    1    3    3  502    0  0.63537161129E+00 -0.47518054240E+02 -0.33814917113E+03  0.34147215276E+03  0.00000000000E+00 0. -1.
         -1    1    3    3    0  502  0.24922164516E+02 -0.13434332367E+03 -0.36315192328E+03  0.38800587918E+03  0.00000000000E+00 0.  1.
         13    1    5    5    0    0  0.77144956211E+02  0.23838449942E+03  0.71274198575E+02  0.26049668945E+03  0.00000000000E+00 0. -1.
        -13    1    5    5    0    0  0.24631677793E+02  0.22865247630E+03 -0.86804157440E+01  0.23013914071E+03  0.00000000000E+00 0.  1.
          4    1    6    6  503    0 -0.79543864500E+01 -0.71456671761E+01 -0.43148884678E+01  0.11530441695E+02  0.00000000000E+00 0.  1.
         -4    1    6    6    0  503 -0.11937978368E+03 -0.27802993063E+03  0.44784538384E+03  0.54047910496E+03  0.00000000000E+00 0. -1.
<mgrwt>
<rscale>  0 0.17613425E+04</rscale>
<asrwt>0</asrwt>
<pdfrwt beam="1">  1        2 0.15133079E+00 0.17613425E+04</pdfrwt>
<pdfrwt beam="2">  1       -1 0.12130358E+00 0.17613425E+04</pdfrwt>
<totfact> 0.16812614E+01</totfact>
</mgrwt>
</event>
<event>
12    7  0.1660832E-007  0.1798038E+04  0.7818608E-02  0.8707343E-01
          2   -1    0    0  501    0  0.00000000000E+00  0.00000000000E+00  0.48623496061E+03  0.48623496061E+03  0.00000000000E+00 0. -1.
         -1   -1    0    0    0  501 -0.00000000000E+00 -0.00000000000E+00 -0.16622321693E+04  0.16622321693E+04  0.00000000000E+00 0.  1.
         24    2    1    2    0    0  0.62997782855E+03 -0.15969477654E+03 -0.27661841739E+03  0.71076173683E+03  0.79309593294E+02 0.  0.
        254    2    1    2    0    0 -0.62997782855E+03  0.15969477654E+03 -0.89937879131E+03  0.14377053931E+04  0.91418821964E+03 0.  0.
         23    2    4    4    0    0  0.22923623748E+02  0.38398446919E+03 -0.49166355140E+03  0.63080646602E+03  0.90632139443E+02 0.  0.
         23    2    4    4    0    0 -0.65290145230E+03 -0.22428969265E+03 -0.40771523992E+03  0.80689892707E+03  0.90928482900E+02 0.  0.
          2    1    3    3  502    0  0.61357221481E+03 -0.16548243081E+03 -0.25975488921E+03  0.68653324767E+03  0.00000000000E+00 0. -1.
         -1    1    3    3    0  502  0.16405613740E+02  0.57876542753E+01 -0.16863528180E+02  0.24228489158E+02  0.00000000000E+00 0.  1.
         13    1    5    5    0    0  0.32872549956E+02  0.18921815461E+03 -0.30766129029E+03  0.36268386250E+03  0.00000000000E+00 0. -1.
        -13    1    5    5    0    0 -0.99489262082E+01  0.19476631458E+03 -0.18400226111E+03  0.26812260352E+03  0.00000000000E+00 0.  1.
          1    1    6    6  503    0 -0.41431253860E+03 -0.13808727132E+03 -0.20637031476E+03  0.48302347868E+03  0.00000000000E+00 0. -1.
         -1    1    6    6    0  503 -0.23858891369E+03 -0.86202421333E+02 -0.20134492516E+03  0.32387544839E+03  0.00000000000E+00 0.  1.
<mgrwt>
<rscale>  0 0.17980383E+04</rscale>
<asrwt>0</asrwt>
<pdfrwt beam="1">  1        2 0.74805380E-01 0.17980383E+04</pdfrwt>
<pdfrwt beam="2">  1       -1 0.25572802E+00 0.17980383E+04</pdfrwt>
<totfact> 0.43918007E+00</totfact>
</mgrwt>
</event>
<event>
12    7  0.1660832E-007  0.2381577E+04  0.7818608E-02  0.8446433E-01
          2   -1    0    0  501    0  0.00000000000E+00  0.00000000000E+00  0.11389595356E+04  0.11389595356E+04  0.00000000000E+00 0. -1.
         -1   -1    0    0    0  501 -0.00000000000E+00 -0.00000000000E+00 -0.12449760467E+04  0.12449760467E+04  0.00000000000E+00 0.  1.
         24    2    1    2    0    0 -0.77220822819E+03 -0.50926069393E+03  0.39399245833E+03  0.10083241119E+04  0.76390151586E+02 0.  0.
        254    2    1    2    0    0  0.77220822819E+03  0.50926069393E+03 -0.50000896938E+03  0.13756114705E+04  0.88693063208E+03 0.  0.
         23    2    4    4    0    0  0.59489067610E+03  0.59181990981E+03 -0.14562417830E+02  0.84436160796E+03  0.92675448857E+02 0.  0.
         23    2    4    4    0    0  0.17731755209E+03 -0.82559215879E+02 -0.48544655155E+03  0.53124986250E+03  0.91162073211E+02 0.  0.
          4    1    3    3  502    0 -0.75463454433E+03 -0.48603940848E+03  0.37117510236E+03  0.97132824458E+03  0.00000000000E+00 0. -1.
         -3    1    3    3    0  502 -0.17573683854E+02 -0.23221285449E+02  0.22817355970E+02  0.36995867277E+02  0.00000000000E+00 0.  1.
         13    1    5    5    0    0  0.50661200147E+03  0.53913351610E+03  0.43869813885E+01  0.73982424523E+03  0.00000000000E+00 0.  1.
        -13    1    5    5    0    0  0.88278674626E+02  0.52686393711E+02 -0.18949399219E+02  0.10453736273E+03  0.00000000000E+00 0. -1.
          2    1    6    6  503    0  0.11733113978E+03 -0.60641827512E+02 -0.41797486660E+03  0.43834577301E+03  0.00000000000E+00 0. -1.
         -2    1    6    6    0  503  0.59986412306E+02 -0.21917388367E+02 -0.67471684943E+02  0.92904089486E+02  0.00000000000E+00 0.  1.
<mgrwt>
<rscale>  0 0.23815771E+04</rscale>
<asrwt>0</asrwt>
<pdfrwt beam="1">  1        2 0.17522454E+00 0.23815771E+04</pdfrwt>
<pdfrwt beam="2">  1       -1 0.19153478E+00 0.23815771E+04</pdfrwt>
<totfact> 0.36487803E+00</totfact>
</mgrwt>
</event>
<event>
12    7  0.1660832E-007  0.1247245E+04  0.7818608E-02  0.9072480E-01
         -1   -1    0    0    0  501 -0.00000000000E+00  0.00000000000E+00  0.15468747357E+03  0.15468747357E+03  0.00000000000E+00 0.  1.
          2   -1    0    0  501    0  0.00000000000E+00 -0.00000000000E+00 -0.25141328675E+04  0.25141328675E+04  0.00000000000E+00 0. -1.
         24    2    1    2    0    0 -0.23659373393E+03 -0.45976750355E+01 -0.92415730420E+03  0.95732397917E+03  0.80029648421E+02 0.  0.
        254    2    1    2    0    0  0.23659373393E+03  0.45976750355E+01 -0.14352880897E+04  0.17114963619E+04  0.90175948165E+03 0.  0.
         23    2    4    4    0    0  0.48045371004E+03  0.19593659740E+03 -0.51842475011E+03  0.73852180774E+03  0.86158698259E+02 0.  0.
         23    2    4    4    0    0 -0.24385997611E+03 -0.19133892236E+03 -0.91686333962E+03  0.97297455417E+03  0.99813968763E+02 0.  0.
          2    1    3    3  502    0 -0.21112901851E+03 -0.42720308095E+01 -0.68492044841E+03  0.71673546958E+03  0.00000000000E+00 0. -1.
         -1    1    3    3    0  502 -0.25464715419E+02 -0.32564422599E+00 -0.23923685579E+03  0.24058850958E+03  0.00000000000E+00 0.  1.
         13    1    5    5    0    0  0.39175356305E+03  0.12316155460E+03 -0.39050865814E+03  0.56668918710E+03  0.00000000000E+00 0.  1.
        -13    1    5    5    0    0  0.88700146995E+02  0.72775042800E+02 -0.12791609197E+03  0.17183262064E+03  0.00000000000E+00 0. -1.
          2    1    6    6  503    0 -0.22428304723E+03 -0.15876986396E+03 -0.87151250612E+03  0.91380785907E+03  0.00000000000E+00 0.  1.
         -2    1    6    6    0  503 -0.19576928881E+02 -0.32569058401E+02 -0.45350833499E+02  0.59166695096E+02  0.00000000000E+00 0. -1.
<mgrwt>
<rscale>  0 0.12472447E+04</rscale>
<asrwt>0</asrwt>
<pdfrwt beam="1">  1        2 0.38678967E+00 0.12472447E+04</pdfrwt>
<pdfrwt beam="2">  1       -1 0.23798073E-01 0.12472447E+04</pdfrwt>
<totfact> 0.58665037E+01</totfact>
</mgrwt>
</event>
<event>
12    7  0.1660832E-007  0.1837472E+04  0.7818608E-02  0.8686622E-01
          2   -1    0    0  501    0  0.00000000000E+00  0.00000000000E+00  0.31640964202E+04  0.31640964202E+04  0.00000000000E+00 0. -1.
         -1   -1    0    0    0  501 -0.00000000000E+00 -0.00000000000E+00 -0.26676669272E+03  0.26676669272E+03  0.00000000000E+00 0.  1.
         24    2    1    2    0    0  0.20439098973E+03  0.72880160667E+02  0.23402185091E+04  0.23516544487E+04  0.81048019540E+02 0.  0.
        254    2    1    2    0    0 -0.20439098973E+03 -0.72880160667E+02  0.55711121840E+03  0.10792086642E+04  0.89846048143E+03 0.  0.
         23    2    4    4    0    0 -0.26578844317E+03 -0.39896594038E+03  0.85511324128E+02  0.49546025596E+03  0.91385778843E+02 0.  0.
         23    2    4    4    0    0  0.61397453443E+02  0.32608577971E+03  0.47159989428E+03  0.58374840823E+03  0.90852412254E+02 0.  0.
          4    1    3    3  502    0  0.41553428212E+02 -0.16010514965E+02  0.57179287241E+03  0.57352429149E+03  0.00000000000E+00 0. -1.
         -3    1    3    3    0  502  0.16283756152E+03  0.88890675632E+02  0.17684256367E+04  0.17781301573E+04  0.00000000000E+00 0.  1.
         13    1    5    5    0    0 -0.25316144603E+03 -0.38594131404E+03  0.99965517412E+02  0.47226530712E+03  0.00000000000E+00 0.  1.
        -13    1    5    5    0    0 -0.12626997140E+02 -0.13024626338E+02 -0.14454193284E+02  0.23194948836E+02  0.00000000000E+00 0. -1.
          1    1    6    6  503    0 -0.12654143049E+01  0.58378494021E+02  0.14809317219E+03  0.15918931336E+03  0.00000000000E+00 0. -1.
         -1    1    6    6    0  503  0.62662867748E+02  0.26770728569E+03  0.32350672208E+03  0.42455909487E+03  0.00000000000E+00 0.  1.
<mgrwt>
<rscale>  0 0.18374717E+04</rscale>
<asrwt>0</asrwt>
<pdfrwt beam="1">  1        2 0.48678404E+00 0.18374717E+04</pdfrwt>
<pdfrwt beam="2">  1       -1 0.41041032E-01 0.18374717E+04</pdfrwt>
<totfact> 0.85594232E+00</totfact>
</mgrwt>
</event>
<event>
12    7  0.1660832E-007  0.1835788E+04  0.7818608E-02  0.8687496E-01
         -1   -1    0    0    0  501 -0.00000000000E+00  0.00000000000E+00  0.36980066783E+03  0.36980066783E+03  0.00000000000E+00 0.  1.
          2   -1    0    0  501    0  0.00000000000E+00 -0.00000000000E+00 -0.22783346058E+04  0.22783346058E+04  0.00000000000E+00 0. -1.
         24    2    1    2    0    0  0.41224662366E+03  0.55981198208E+03 -0.10176415202E+04  0.12350611635E+04  0.80281254803E+02 0.  0.
        254    2    1    2    0    0 -0.41224662366E+03 -0.55981198208E+03 -0.89089241773E+03  0.14130741101E+04  0.84838222916E+03 0.  0.
         23    2    4    4    0    0 -0.27769646236E+02  0.20255225406E+03 -0.28233474870E+03  0.36063502161E+03  0.92445333097E+02 0.  0.
         23    2    4    4    0    0 -0.38447697742E+03 -0.76236423614E+03 -0.60855766904E+03  0.10524390885E+04  0.90905576248E+02 0.  0.
          4    1    3    3  502    0  0.38289789292E+03  0.54716567923E+03 -0.96790606164E+03  0.11759435450E+04  0.00000000000E+00 0. -1.
         -3    1    3    3    0  502  0.29348730743E+02  0.12646302844E+02 -0.49735458553E+02  0.59117618434E+02  0.00000000000E+00 0.  1.
         13    1    5    5    0    0 -0.51951289946E+02  0.16916876203E+03 -0.25770418299E+03  0.31261550266E+03  0.00000000000E+00 0. -1.
        -13    1    5    5    0    0  0.24181643710E+02  0.33383492035E+02 -0.24630565704E+02  0.48019518947E+02  0.00000000000E+00 0.  1.
          3    1    6    6  503    0 -0.34803947391E+03 -0.67542469249E+03 -0.57311256078E+03  0.95172895194E+03  0.00000000000E+00 0. -1.
         -3    1    6    6    0  503 -0.36437503509E+02 -0.86939543647E+02 -0.35445108253E+02  0.10071013658E+03  0.00000000000E+00 0.  1.
<mgrwt>
<rscale>  0 0.18357883E+04</rscale>
<asrwt>0</asrwt>
<pdfrwt beam="1">  1        2 0.35051302E+00 0.18357883E+04</pdfrwt>
<pdfrwt beam="2">  1       -1 0.56892409E-01 0.18357883E+04</pdfrwt>
<totfact> 0.15641514E+01</totfact>
</mgrwt>
</event>
<event>
12    7  0.1660832E-007  0.2237537E+04  0.7818608E-02  0.8502965E-01
          2   -1    0    0  501    0  0.00000000000E+00  0.00000000000E+00  0.71408735480E+03  0.71408735480E+03  0.00000000000E+00 0. -1.
         -1   -1    0    0    0  501 -0.00000000000E+00 -0.00000000000E+00 -0.17527876757E+04  0.17527876757E+04  0.00000000000E+00 0.  1.
         24    2    1    2    0    0  0.48508071450E+03 -0.79735227538E+03 -0.35564564729E+03  0.10016137773E+04  0.75315216258E+02 0.  0.
        254    2    1    2    0    0 -0.48508071450E+03  0.79735227538E+03 -0.68305467356E+03  0.14652612532E+04  0.89964042944E+03 0.  0.
         23    2    4    4    0    0 -0.60778532406E+03  0.57504712563E+03 -0.13066643249E+03  0.85122833885E+03  0.86219321756E+02 0.  0.
         23    2    4    4    0    0  0.12270460956E+03  0.22230514976E+03 -0.55238824107E+03  0.61403291431E+03  0.86183816140E+02 0.  0.
          4    1    3    3  502    0  0.39473564337E+03 -0.58989912752E+03 -0.25897304653E+03  0.75555558870E+03  0.00000000000E+00 0. -1.
         -3    1    3    3    0  502  0.90345071130E+02 -0.20745314787E+03 -0.96672600763E+02  0.24605818860E+03  0.00000000000E+00 0.  1.
         13    1    5    5    0    0 -0.34452702447E+03  0.30452258980E+03 -0.11215297045E+03  0.47329817987E+03  0.00000000000E+00 0.  1.
        -13    1    5    5    0    0 -0.26325829959E+03  0.27052453583E+03 -0.18513462039E+02  0.37793015898E+03  0.00000000000E+00 0. -1.
          3    1    6    6  503    0  0.11899741417E+02  0.44666176111E+02 -0.18972963563E+03  0.19527930195E+03  0.00000000000E+00 0. -1.
         -3    1    6    6    0  503  0.11080486814E+03  0.17763897365E+03 -0.36265860545E+03  0.41875361236E+03  0.00000000000E+00 0.  1.
<mgrwt>
<rscale>  0 0.22375375E+04</rscale>
<asrwt>0</asrwt>
<pdfrwt beam="1">  1        2 0.10985959E+00 0.22375375E+04</pdfrwt>
<pdfrwt beam="2">  1       -1 0.26965964E+00 0.22375375E+04</pdfrwt>
<totfact> 0.21573394E+00</totfact>
</mgrwt>
</event>
<event>
12    7  0.1660832E-007  0.2381292E+04  0.7818608E-02  0.8446541E-01
         -1   -1    0    0    0  501 -0.00000000000E+00  0.00000000000E+00  0.11881265663E+04  0.11881265663E+04  0.00000000000E+00 0.  1.
          2   -1    0    0  501    0  0.00000000000E+00 -0.00000000000E+00 -0.11931705249E+04  0.11931705249E+04  0.00000000000E+00 0. -1.
         24    2    1    2    0    0 -0.27214173099E+03  0.73559689755E+03  0.64605039975E+03  0.10192793791E+04  0.79908799995E+02 0.  0.
        254    2    1    2    0    0  0.27214173099E+03 -0.73559689755E+03 -0.65109435831E+03  0.13620177121E+04  0.90332965591E+03 0.  0.
         23    2    4    4    0    0 -0.16363454695E+02  0.12725330950E+03 -0.37482927523E+03  0.40689042205E+03  0.92745148438E+02 0.  0.
         23    2    4    4    0    0  0.28850518569E+03 -0.86285020705E+03 -0.27626508309E+03  0.95512729006E+03  0.90553973429E+02 0.  0.
          2    1    3    3  502    0 -0.55450912946E+02  0.25619241057E+03  0.20530178877E+03  0.33295371969E+03  0.00000000000E+00 0. -1.
         -1    1    3    3    0  502 -0.21669081805E+03  0.47940448697E+03  0.44074861098E+03  0.68632565946E+03  0.00000000000E+00 0.  1.
         13    1    5    5    0    0  0.21634583977E+02 -0.20664295090E+01 -0.33722278437E+02  0.40118791330E+02  0.00000000000E+00 0.  1.
        -13    1    5    5    0    0 -0.37998038672E+02  0.12931973901E+03 -0.34110699679E+03  0.36677163072E+03  0.00000000000E+00 0. -1.
          3    1    6    6  503    0  0.20909102706E+03 -0.70024385016E+03 -0.24941240196E+03  0.77218330307E+03  0.00000000000E+00 0. -1.
         -3    1    6    6    0  503  0.79414158631E+02 -0.16260635689E+03 -0.26852681121E+02  0.18294398699E+03  0.00000000000E+00 0.  1.
<mgrwt>
<rscale>  0 0.23812917E+04</rscale>
<asrwt>0</asrwt>
<pdfrwt beam="1">  1        2 0.18356470E+00 0.23812917E+04</pdfrwt>
<pdfrwt beam="2">  1       -1 0.18278870E+00 0.23812917E+04</pdfrwt>
<totfact> 0.39010886E+00</totfact>
</mgrwt>
</event>
<event>
12    7  0.1660832E-007  0.2159086E+04  0.7818608E-02  0.8535653E-01
         -1   -1    0    0    0  501 -0.00000000000E+00  0.00000000000E+00  0.17125900226E+04  0.17125900226E+04  0.00000000000E+00 0.  1.
          2   -1    0    0  501    0  0.00000000000E+00 -0.00000000000E+00 -0.68049728932E+03  0.68049728932E+03  0.00000000000E+00 0. -1.
         24    2    1    2    0    0 -0.28497445873E+03 -0.47828924318E+03 -0.34158335110E+03  0.65797558566E+03  0.79256818713E+02 0.  0.
        254    2    1    2    0    0  0.28497445873E+03  0.47828924318E+03  0.13736760843E+04  0.17351117262E+04  0.90202864452E+03 0.  0.
         23    2    4    4    0    0  0.18789940553E+03 -0.18750178208E+03  0.79864855772E+03  0.84647280564E+03  0.90628842325E+02 0.  0.
         23    2    4    4    0    0  0.97075053197E+02  0.66579102525E+03  0.57502752660E+03  0.88863892057E+03  0.79506097520E+02 0.  0.
          4    1    3    3  502    0 -0.23112438659E+03 -0.32709902897E+03 -0.22287402300E+03  0.45835039757E+03  0.00000000000E+00 0. -1.
         -3    1    3    3    0  502 -0.53850072144E+02 -0.15119021421E+03 -0.11870932809E+03  0.19962518809E+03  0.00000000000E+00 0.  1.
         13    1    5    5    0    0  0.11575882168E+02 -0.59378474082E+02  0.21894675940E+03  0.22715080384E+03  0.00000000000E+00 0.  1.
        -13    1    5    5    0    0  0.17632352337E+03 -0.12812330800E+03  0.57970179832E+03  0.61932200181E+03  0.00000000000E+00 0. -1.
          2    1    6    6  503    0  0.78074392145E+02  0.27840951179E+03  0.22852201581E+03  0.36855091734E+03  0.00000000000E+00 0.  1.
         -2    1    6    6    0  503  0.19000661052E+02  0.38738151347E+03  0.34650551079E+03  0.52008800323E+03  0.00000000000E+00 0. -1.
<mgrwt>
<rscale>  0 0.21590858E+04</rscale>
<asrwt>0</asrwt>
<pdfrwt beam="1">  1        2 0.10469189E+00 0.21590858E+04</pdfrwt>
<pdfrwt beam="2">  1       -1 0.26347539E+00 0.21590858E+04</pdfrwt>
<totfact> 0.25319287E+00</totfact>
</mgrwt>
</event>
<event>
12    7  0.1660832E-007  0.1568457E+04  0.7818608E-02  0.8840164E-01
          2   -1    0    0  501    0  0.00000000000E+00  0.00000000000E+00  0.67089074343E+03  0.67089074343E+03  0.00000000000E+00 0. -1.
         -1   -1    0    0    0  501 -0.00000000000E+00 -0.00000000000E+00 -0.91671339219E+03  0.91671339219E+03  0.00000000000E+00 0.  1.
         24    2    1    2    0    0 -0.11382548493E+03  0.23780701144E+03  0.37086537860E+03  0.46226191530E+03  0.81464922408E+02 0.  0.
        254    2    1    2    0    0  0.11382548493E+03 -0.23780701144E+03 -0.61668802735E+03  0.11253422203E+04  0.90364958587E+03 0.  0.
         23    2    4    4    0    0 -0.64740819239E+02 -0.81614702238E+02  0.21379617532E+03  0.25655068902E+03  0.96213918733E+02 0.  0.
         23    2    4    4    0    0  0.17856630417E+03 -0.15619230920E+03 -0.83048420268E+03  0.86879153130E+03  0.93876256399E+02 0.  0.
          4    1    3    3  502    0 -0.80760642802E+02  0.17521471096E+03  0.20287365876E+03  0.27996463666E+03  0.00000000000E+00 0. -1.
         -3    1    3    3    0  502 -0.33064842131E+02  0.62592300481E+02  0.16799171984E+03  0.18229727864E+03  0.00000000000E+00 0.  1.
         13    1    5    5    0    0 -0.68064097379E+02 -0.10104694153E+03  0.17834093918E+03  0.21598309270E+03  0.00000000000E+00 0.  1.
        -13    1    5    5    0    0  0.33232781396E+01  0.19432239291E+02  0.35455236142E+02  0.40567596322E+02  0.00000000000E+00 0. -1.
          2    1    6    6  503    0  0.73197444573E+01  0.76463103681E+01 -0.92954619681E+01  0.14087240126E+02  0.00000000000E+00 0.  1.
         -2    1    6    6    0  503  0.17124655971E+03 -0.16383861957E+03 -0.82118874071E+03  0.85470429117E+03  0.00000000000E+00 0. -1.
<mgrwt>
<rscale>  0 0.15684572E+04</rscale>
<asrwt>0</asrwt>
<pdfrwt beam="1">  1        2 0.10321396E+00 0.15684572E+04</pdfrwt>
<pdfrwt beam="2">  1       -1 0.14103283E+00 0.15684572E+04</pdfrwt>
<totfact> 0.19516111E+01</totfact>
</mgrwt>
</event>
<event>
12    7  0.1660832E-007  0.2805277E+04  0.7818608E-02  0.8301632E-01
         -1   -1    0    0    0  501 -0.00000000000E+00  0.00000000000E+00  0.74784252043E+03  0.74784252043E+03  0.00000000000E+00 0.  1.
          2   -1    0    0  501    0  0.00000000000E+00 -0.00000000000E+00 -0.26307608542E+04  0.26307608542E+04  0.00000000000E+00 0. -1.
         24    2    1    2    0    0  0.27681943267E+03  0.69312699841E+03  0.37256618040E+03  0.83758554464E+03  0.75431767695E+02 0.  0.
        254    2    1    2    0    0 -0.27681943267E+03 -0.69312699841E+03 -0.22554845142E+04  0.25410178300E+04  0.90139180407E+03 0.  0.
         23    2    4    4    0    0 -0.49070570756E+03 -0.39839802880E+03 -0.72953356776E+03  0.96954249073E+03  0.90996340915E+02 0.  0.
         23    2    4    4    0    0  0.21388627490E+03 -0.29472896962E+03 -0.15259509464E+04  0.15714753393E+04  0.91629399880E+02 0.  0.
          4    1    3    3  502    0  0.71711608742E+02  0.20579751394E+03  0.14621474039E+03  0.26243841540E+03  0.00000000000E+00 0. -1.
         -3    1    3    3    0  502  0.20510782392E+03  0.48732948448E+03  0.22635144001E+03  0.57514712924E+03  0.00000000000E+00 0.  1.
         13    1    5    5    0    0 -0.47796898191E+03 -0.39048460576E+03 -0.72807520090E+03  0.95447685837E+03  0.00000000000E+00 0. -1.
        -13    1    5    5    0    0 -0.12736725652E+02 -0.79134230409E+01 -0.14583668638E+01  0.15065632362E+02  0.00000000000E+00 0.  1.
          4    1    6    6  503    0  0.22282171979E+03 -0.28271523379E+03 -0.14799735023E+04  0.15231214626E+04  0.00000000000E+00 0. -1.
         -4    1    6    6    0  503 -0.89354448937E+01 -0.12013735828E+02 -0.45977444154E+02  0.48353876731E+02  0.00000000000E+00 0.  1.
<mgrwt>
<rscale>  0 0.28052770E+04</rscale>
<asrwt>0</asrwt>
<pdfrwt beam="1">  1        2 0.40473244E+00 0.28052770E+04</pdfrwt>
<pdfrwt beam="2">  1       -1 0.11505270E+00 0.28052770E+04</pdfrwt>
<totfact> 0.19781290E+00</totfact>
</mgrwt>
</event>
<event>
12    7  0.1660832E-007  0.1471658E+04  0.7818608E-02  0.8903522E-01
         -1   -1    0    0    0  501 -0.00000000000E+00  0.00000000000E+00  0.26749484948E+03  0.26749484948E+03  0.00000000000E+00 0.  1.
          2   -1    0    0  501    0  0.00000000000E+00 -0.00000000000E+00 -0.20241292936E+04  0.20241292936E+04  0.00000000000E+00 0. -1.
         24    2    1    2    0    0  0.31135224555E+03 -0.17660559918E+03 -0.96224773391E+03  0.10313216557E+04  0.97846296149E+02 0.  0.
        254    2    1    2    0    0 -0.31135224555E+03  0.17660559918E+03 -0.79438671021E+03  0.12603024874E+04  0.91059450679E+03 0.  0.
         23    2    4    4    0    0 -0.11953394944E+02  0.47755649012E+03 -0.20364259582E+03  0.52733056839E+03  0.91674078203E+02 0.  0.
         23    2    4    4    0    0 -0.29939885061E+03 -0.30095089094E+03 -0.59074411438E+03  0.73297191896E+03  0.89767002896E+02 0.  0.
          2    1    3    3  502    0  0.20837618539E+03 -0.81414070464E+02 -0.68533185901E+03  0.72092207796E+03  0.00000000000E+00 0. -1.
         -1    1    3    3    0  502  0.10297606016E+03 -0.95191528717E+02 -0.27691587490E+03  0.31039957777E+03  0.00000000000E+00 0.  1.
         13    1    5    5    0    0  0.18109813136E+02  0.10096713660E+03 -0.10727745864E+02  0.10313783271E+03  0.00000000000E+00 0.  1.
        -13    1    5    5    0    0 -0.30063208080E+02  0.37658935352E+03 -0.19291484996E+03  0.42419273567E+03  0.00000000000E+00 0. -1.
          1    1    6    6  503    0 -0.14220369266E+03 -0.19866319860E+03 -0.29862728357E+03  0.38583313903E+03  0.00000000000E+00 0. -1.
         -1    1    6    6    0  503 -0.15719515795E+03 -0.10228769234E+03 -0.29211683081E+03  0.34713877993E+03  0.00000000000E+00 0.  1.
<mgrwt>
<rscale>  0 0.14716578E+04</rscale>
<asrwt>0</asrwt>
<pdfrwt beam="1">  1        2 0.31140449E+00 0.14716578E+04</pdfrwt>
<pdfrwt beam="2">  1       -1 0.41153056E-01 0.14716578E+04</pdfrwt>
<totfact> 0.41321699E+01</totfact>
</mgrwt>
</event>
<event>
12    7  0.1660832E-007  0.1801558E+04  0.7818608E-02  0.8705471E-01
          2   -1    0    0  501    0  0.00000000000E+00  0.00000000000E+00  0.28594237210E+04  0.28594237210E+04  0.00000000000E+00 0. -1.
         -1   -1    0    0    0  501 -0.00000000000E+00 -0.00000000000E+00 -0.28376444315E+03  0.28376444315E+03  0.00000000000E+00 0.  1.
         24    2    1    2    0    0  0.58609123315E+03  0.13039955696E+03  0.42292173004E+03  0.73876272276E+03  0.80003704724E+02 0.  0.
        254    2    1    2    0    0 -0.58609123315E+03 -0.13039955696E+03  0.21527375478E+04  0.24044254414E+04  0.88683469455E+03 0.  0.
         23    2    4    4    0    0 -0.55971887010E+03  0.29134777843E+03  0.12263792143E+04  0.13822568486E+04  0.91974325646E+02 0.  0.
         23    2    4    4    0    0 -0.26372363044E+02 -0.42174733539E+03  0.92635833347E+03  0.10221685928E+04  0.90125211101E+02 0.  0.
          4    1    3    3  502    0  0.27058020341E+01 -0.53490044729E+01  0.84973081433E+01  0.10398916250E+02  0.00000000000E+00 0. -1.
         -3    1    3    3    0  502  0.58338543111E+03  0.13574856143E+03  0.41442442190E+03  0.72836380651E+03  0.00000000000E+00 0.  1.
         13    1    5    5    0    0 -0.27860163291E+03  0.95350115084E+02  0.59438539992E+03  0.66332836359E+03  0.00000000000E+00 0.  1.
        -13    1    5    5    0    0 -0.28111723719E+03  0.19599766335E+03  0.63199381439E+03  0.71892848497E+03  0.00000000000E+00 0. -1.
          4    1    6    6  503    0 -0.10125478640E+02 -0.41374393013E+03  0.89165567704E+03  0.98302411539E+03  0.00000000000E+00 0. -1.
         -4    1    6    6    0  503 -0.16246884404E+02 -0.80034052635E+01  0.34702656426E+02  0.39144477410E+02  0.00000000000E+00 0.  1.
<mgrwt>
<rscale>  0 0.18015580E+04</rscale>
<asrwt>0</asrwt>
<pdfrwt beam="1">  1        2 0.43991132E+00 0.18015580E+04</pdfrwt>
<pdfrwt beam="2">  1       -1 0.43656070E-01 0.18015580E+04</pdfrwt>
<totfact> 0.11884813E+01</totfact>
</mgrwt>
</event>
<event>
12    7  0.1660832E-007  0.2135025E+04  0.7818608E-02  0.8545970E-01
          2   -1    0    0  501    0  0.00000000000E+00  0.00000000000E+00  0.23282000778E+04  0.23282000778E+04  0.00000000000E+00 0. -1.
         -1   -1    0    0    0  501 -0.00000000000E+00 -0.00000000000E+00 -0.48946955732E+03  0.48946955732E+03  0.00000000000E+00 0.  1.
         24    2    1    2    0    0 -0.19130424852E+03  0.85183310468E+03  0.92062713021E+03  0.12715116947E+04  0.83490856142E+02 0.  0.
        254    2    1    2    0    0  0.19130424852E+03 -0.85183310468E+03  0.91810339031E+03  0.15461579405E+04  0.88626947816E+03 0.  0.
         23    2    4    4    0    0 -0.10151587327E+02  0.11972591007E+03  0.38590616921E+03  0.41659183108E+03  0.10093480086E+03 0.  0.
         23    2    4    4    0    0  0.20145583585E+03 -0.97155901474E+03  0.53219722111E+03  0.11295661094E+04  0.90412059252E+02 0.  0.
          2    1    3    3  502    0 -0.68625409352E+02  0.48634019160E+03  0.49807823837E+03  0.69951280211E+03  0.00000000000E+00 0. -1.
         -1    1    3    3    0  502 -0.12267883917E+03  0.36549291308E+03  0.42254889184E+03  0.57199889256E+03  0.00000000000E+00 0.  1.
         13    1    5    5    0    0 -0.41413098724E+02  0.11815426854E+03  0.29588067163E+03  0.32128001457E+03  0.00000000000E+00 0. -1.
        -13    1    5    5    0    0  0.31261511397E+02  0.15716415287E+01  0.90025497575E+02  0.95311816505E+02  0.00000000000E+00 0.  1.
          3    1    6    6  503    0  0.12458383663E+03 -0.75681473933E+03  0.43360979208E+03  0.88108293242E+03  0.00000000000E+00 0. -1.
         -3    1    6    6    0  503  0.76871999220E+02 -0.21474427542E+03  0.98587429030E+02  0.24848317700E+03  0.00000000000E+00 0.  1.
<mgrwt>
<rscale>  0 0.21350251E+04</rscale>
<asrwt>0</asrwt>
<pdfrwt beam="1">  1        2 0.35818462E+00 0.21350251E+04</pdfrwt>
<pdfrwt beam="2">  1       -1 0.75303011E-01 0.21350251E+04</pdfrwt>
<totfact> 0.81015880E+00</totfact>
</mgrwt>
</event>
<event>
12    7  0.1660832E-007  0.2030373E+04  0.7818608E-02  0.8592551E-01
         -3   -1    0    0    0  501 -0.00000000000E+00  0.00000000000E+00  0.28924703295E+03  0.28924703295E+03  0.00000000000E+00 0.  1.
          2   -1    0    0  501    0  0.00000000000E+00 -0.00000000000E+00 -0.35630551697E+04  0.35630551697E+04  0.00000000000E+00 0. -1.
         24    2    1    2    0    0 -0.33039452913E+03 -0.38124576609E+03 -0.25035622178E+04  0.25550291192E+04  0.76427370606E+02 0.  0.
        254    2    1    2    0    0  0.33039452913E+03  0.38124576609E+03 -0.77024591898E+03  0.12972730834E+04  0.91385436376E+03 0.  0.
         23    2    4    4    0    0  0.12247933137E+03 -0.27090721539E+03 -0.42356502063E+03  0.52457110904E+03  0.85881405295E+02 0.  0.
         23    2    4    4    0    0  0.20791519776E+03  0.65215298148E+03 -0.34668089834E+03  0.77270197435E+03  0.91369881174E+02 0.  0.
          4    1    3    3  502    0 -0.28380719292E+03 -0.31594505740E+03 -0.22239517566E+04  0.22641398406E+04  0.00000000000E+00 0. -1.
         -3    1    3    3    0  502 -0.46587336208E+02 -0.65300708690E+02 -0.27961046113E+03  0.29088927863E+03  0.00000000000E+00 0.  1.
         13    1    5    5    0    0  0.95466429949E+02 -0.19061119486E+03 -0.36103170996E+03  0.41927361287E+03  0.00000000000E+00 0. -1.
        -13    1    5    5    0    0  0.27012901425E+02 -0.80296020531E+02 -0.62533310670E+02  0.10529749617E+03  0.00000000000E+00 0.  1.
          1    1    6    6  503    0  0.18148606401E+03  0.60255055203E+03 -0.29005531010E+03  0.69291878463E+03  0.00000000000E+00 0. -1.
         -1    1    6    6    0  503  0.26429133748E+02  0.49602429446E+02 -0.56625588247E+02  0.79783189720E+02  0.00000000000E+00 0.  1.
<mgrwt>
<rscale>  0 0.20303725E+04</rscale>
<asrwt>0</asrwt>
<pdfrwt beam="1">  1        2 0.54816235E+00 0.20303725E+04</pdfrwt>
<pdfrwt beam="2">  1       -3 0.44499542E-01 0.20303725E+04</pdfrwt>
<totfact> 0.22256062E+00</totfact>
</mgrwt>
</event>
<event>
12    7  0.1660832E-007  0.2213974E+04  0.7818608E-02  0.8512634E-01
         -1   -1    0    0    0  501 -0.00000000000E+00  0.00000000000E+00  0.89389477627E+03  0.89389477627E+03  0.00000000000E+00 0.  1.
          2   -1    0    0  501    0  0.00000000000E+00 -0.00000000000E+00 -0.13708773576E+04  0.13708773576E+04  0.00000000000E+00 0. -1.
         24    2    1    2    0    0 -0.16947340362E+03 -0.69796509100E+03 -0.79665431848E+03  0.10756371012E+04  0.80377656186E+02 0.  0.
        254    2    1    2    0    0  0.16947340362E+03  0.69796509100E+03  0.31967173717E+03  0.11891350326E+04  0.89217464851E+03 0.  0.
         23    2    4    4    0    0  0.39567574733E+03  0.17240554521E+03 -0.12515908879E+03  0.45869733769E+03  0.91953689733E+02 0.  0.
         23    2    4    4    0    0 -0.22620234370E+03  0.52555954578E+03  0.44483082597E+03  0.73043769491E+03  0.91018821997E+02 0.  0.
          2    1    3    3  502    0 -0.16540127632E+03 -0.66613582598E+03 -0.78161094597E+03  0.10401971889E+04  0.00000000000E+00 0. -1.
         -1    1    3    3    0  502 -0.40721273020E+01 -0.31829265015E+02 -0.15043372508E+02  0.35439912367E+02  0.00000000000E+00 0.  1.
         13    1    5    5    0    0  0.12509594945E+03  0.10225751688E+03 -0.52423139124E+02  0.16986400985E+03  0.00000000000E+00 0.  1.
        -13    1    5    5    0    0  0.27057979787E+03  0.70148028334E+02 -0.72735949670E+02  0.28883332784E+03  0.00000000000E+00 0. -1.
          3    1    6    6  503    0 -0.14978871571E+03  0.29578625030E+03  0.30675455373E+03  0.45169073652E+03  0.00000000000E+00 0. -1.
         -3    1    6    6    0  503 -0.76413627988E+02  0.22977329548E+03  0.13807627224E+03  0.27874695839E+03  0.00000000000E+00 0.  1.
<mgrwt>
<rscale>  0 0.22139739E+04</rscale>
<asrwt>0</asrwt>
<pdfrwt beam="1">  1        2 0.21090421E+00 0.22139739E+04</pdfrwt>
<pdfrwt beam="2">  1       -1 0.13752227E+00 0.22139739E+04</pdfrwt>
<totfact> 0.68715126E+00</totfact>
</mgrwt>
</event>
<event>
12    7  0.1660832E-007  0.1215921E+04  0.7818608E-02  0.9099034E-01
          2   -1    0    0  501    0  0.00000000000E+00  0.00000000000E+00  0.36768940633E+04  0.36768940633E+04  0.00000000000E+00 0. -1.
         -1   -1    0    0    0  501 -0.00000000000E+00 -0.00000000000E+00 -0.10052391039E+03  0.10052391039E+03  0.00000000000E+00 0.  1.
         24    2    1    2    0    0 -0.36185680699E+02  0.23570439789E+03  0.42638738293E+03  0.49519590469E+03  0.80912403419E+02 0.  0.
        254    2    1    2    0    0  0.36185680699E+02 -0.23570439789E+03  0.31499827700E+04  0.32822220690E+04  0.89091205650E+03 0.  0.
         23    2    4    4    0    0 -0.12364245776E+03  0.36776846868E+02  0.27930902412E+04  0.27972130883E+04  0.80049810583E+02 0.  0.
         23    2    4    4    0    0  0.15982813846E+03 -0.27248124476E+03  0.35689252875E+03  0.48500898065E+03  0.89835247249E+02 0.  0.
          4    1    3    3  502    0 -0.21727345855E+01  0.43775112720E+01  0.62333946596E+02  0.62525229138E+02  0.00000000000E+00 0. -1.
         -3    1    3    3    0  502 -0.34012946113E+02  0.23132688662E+03  0.36405343633E+03  0.43267067555E+03  0.00000000000E+00 0.  1.
         13    1    5    5    0    0 -0.34649646466E+02 -0.24610247102E+02  0.63925170822E+03  0.64066294471E+03  0.00000000000E+00 0. -1.
        -13    1    5    5    0    0 -0.88992811290E+02  0.61387093971E+02  0.21538385330E+04  0.21565501436E+04  0.00000000000E+00 0.  1.
          3    1    6    6  503    0  0.13871223152E+02 -0.49953532510E+02  0.19723911167E+02  0.55468900419E+02  0.00000000000E+00 0. -1.
         -3    1    6    6    0  503  0.14595691530E+03 -0.22252771225E+03  0.33716861758E+03  0.42954008023E+03  0.00000000000E+00 0.  1.
<mgrwt>
<rscale>  0 0.12159207E+04</rscale>
<asrwt>0</asrwt>
<pdfrwt beam="1">  1        2 0.56567590E+00 0.12159207E+04</pdfrwt>
<pdfrwt beam="2">  1       -1 0.15465220E-01 0.12159207E+04</pdfrwt>
<totfact> 0.21972142E+01</totfact>
</mgrwt>
</event>
<event>
12    7  0.1660832E-007  0.1979373E+04  0.7818608E-02  0.8616326E-01
          2   -1    0    0  501    0  0.00000000000E+00  0.00000000000E+00  0.55836053822E+03  0.55836053822E+03  0.00000000000E+00 0. -1.
         -1   -1    0    0    0  501 -0.00000000000E+00 -0.00000000000E+00 -0.17542052214E+04  0.17542052214E+04  0.00000000000E+00 0.  1.
         24    2    1    2    0    0  0.24305830322E+03  0.22019017283E+03 -0.12894512052E+04  0.13330124488E+04  0.81711243035E+02 0.  0.
        254    2    1    2    0    0 -0.24305830322E+03 -0.22019017283E+03  0.93606522024E+02  0.97955331075E+03  0.91826001583E+03 0.  0.
         23    2    4    4    0    0  0.16043353038E+03  0.15568495302E+02 -0.30580123079E+03  0.35740022344E+03  0.90770211259E+02 0.  0.
         23    2    4    4    0    0 -0.40349183359E+03 -0.23575866813E+03  0.39940775281E+03  0.62215308731E+03  0.95708420029E+02 0.  0.
          2    1    3    3  502    0 -0.93257306995E+00  0.20014696772E+01 -0.80624422080E+02  0.80654652743E+02  0.00000000000E+00 0. -1.
         -1    1    3    3    0  502  0.24399087629E+03  0.21818870315E+03 -0.12088267831E+04  0.12523577961E+04  0.00000000000E+00 0.  1.
         13    1    5    5    0    0  0.81159852071E+02  0.11360296109E+00 -0.23959041585E+03  0.25296343977E+03  0.00000000000E+00 0. -1.
        -13    1    5    5    0    0  0.79273678304E+02  0.15454892341E+02 -0.66210814936E+02  0.10443678367E+03  0.00000000000E+00 0.  1.
          3    1    6    6  503    0 -0.28087773521E+03 -0.13353728392E+03  0.31030956167E+03  0.43933646832E+03  0.00000000000E+00 0. -1.
         -3    1    6    6    0  503 -0.12261409838E+03 -0.10222138421E+03  0.89098191141E+02  0.18281661898E+03  0.00000000000E+00 0.  1.
<mgrwt>
<rscale>  0 0.19793726E+04</rscale>
<asrwt>0</asrwt>
<pdfrwt beam="1">  1        2 0.85901623E-01 0.19793726E+04</pdfrwt>
<pdfrwt beam="2">  1       -1 0.26987772E+00 0.19793726E+04</pdfrwt>
<totfact> 0.29757447E+00</totfact>
</mgrwt>
</event>
<event>
12    7  0.1660832E-007  0.2698485E+04  0.7818608E-02  0.8335497E-01
         -1   -1    0    0    0  501 -0.00000000000E+00  0.00000000000E+00  0.81855316068E+03  0.81855316068E+03  0.00000000000E+00 0.  1.
          2   -1    0    0  501    0  0.00000000000E+00 -0.00000000000E+00 -0.22239913409E+04  0.22239913409E+04  0.00000000000E+00 0. -1.
         24    2    1    2    0    0  0.16219264926E+03 -0.11562882366E+04 -0.34218738502E+03  0.12192974240E+04  0.79278370083E+02 0.  0.
        254    2    1    2    0    0 -0.16219264926E+03  0.11562882366E+04 -0.10632507952E+04  0.18232470776E+04  0.91127312638E+03 0.  0.
         23    2    4    4    0    0  0.15536820940E+03 -0.77520234912E+02 -0.21496487095E+03  0.29003032326E+03  0.88085329975E+02 0.  0.
         23    2    4    4    0    0 -0.31756085866E+03  0.12338084715E+04 -0.84828592421E+03  0.15332167543E+04  0.89645764636E+02 0.  0.
          2    1    3    3  502    0  0.40078399837E+02 -0.30825121189E+03 -0.55077256990E+02  0.31568749105E+03  0.00000000000E+00 0. -1.
         -1    1    3    3    0  502  0.12211424942E+03 -0.84803702473E+03 -0.28711012803E+03  0.90360993290E+03  0.00000000000E+00 0.  1.
         13    1    5    5    0    0  0.52419528206E+02 -0.36351644818E+02 -0.14633226451E+03  0.15963201639E+03  0.00000000000E+00 0. -1.
        -13    1    5    5    0    0  0.10294868119E+03 -0.41168590094E+02 -0.68632606438E+02  0.13039830688E+03  0.00000000000E+00 0.  1.
          4    1    6    6  503    0 -0.74132158418E+02  0.32580091224E+03 -0.17738301508E+03  0.37829425764E+03  0.00000000000E+00 0. -1.
         -4    1    6    6    0  503 -0.24342870024E+03  0.90800755930E+03 -0.67090290913E+03  0.11549224967E+04  0.00000000000E+00 0.  1.
<mgrwt>
<rscale>  0 0.26984849E+04</rscale>
<asrwt>0</asrwt>
<pdfrwt beam="1">  1        2 0.34215251E+00 0.26984849E+04</pdfrwt>
<pdfrwt beam="2">  1       -1 0.12593126E+00 0.26984849E+04</pdfrwt>
<totfact> 0.27436606E+00</totfact>
</mgrwt>
</event>
<event>
12    7  0.1660832E-007  0.1594630E+04  0.7818608E-02  0.8823854E-01
         -1   -1    0    0    0  501 -0.00000000000E+00  0.00000000000E+00  0.45558570859E+03  0.45558570859E+03  0.00000000000E+00 0.  1.
          2   -1    0    0  501    0  0.00000000000E+00 -0.00000000000E+00 -0.13953720819E+04  0.13953720819E+04  0.00000000000E+00 0. -1.
         24    2    1    2    0    0  0.22156311632E+02  0.53632124644E+03 -0.37562870669E+03  0.66009148794E+03  0.80575837750E+02 0.  0.
        254    2    1    2    0    0 -0.22156311632E+02 -0.53632124644E+03 -0.56415766662E+03  0.11908663026E+04  0.90097574676E+03 0.  0.
         23    2    4    4    0    0 -0.38095894643E+03 -0.13795863598E+03 -0.49080229293E+03  0.64183395517E+03  0.83076056486E+02 0.  0.
         23    2    4    4    0    0  0.35880263480E+03 -0.39836261046E+03 -0.73355373694E+02  0.54903234739E+03  0.92862303887E+02 0.  0.
          4    1    3    3  502    0  0.14974732005E+02  0.48545556709E+02 -0.61948159366E+02  0.80115467443E+02  0.00000000000E+00 0. -1.
         -3    1    3    3    0  502  0.71815796272E+01  0.48777568973E+03 -0.31368054733E+03  0.57997602049E+03  0.00000000000E+00 0.  1.
         13    1    5    5    0    0 -0.19065319179E+03 -0.44291481476E+02 -0.18248744745E+03  0.26760426632E+03  0.00000000000E+00 0.  1.
        -13    1    5    5    0    0 -0.19030575463E+03 -0.93667154503E+02 -0.30831484548E+03  0.37422968886E+03  0.00000000000E+00 0. -1.
          1    1    6    6  503    0  0.40273845512E+02 -0.52154707949E+02  0.21112481709E+02  0.69194169389E+02  0.00000000000E+00 0. -1.
         -1    1    6    6    0  503  0.31852878928E+03 -0.34620790251E+03 -0.94467855403E+02  0.47983817800E+03  0.00000000000E+00 0.  1.
<mgrwt>
<rscale>  0 0.15946305E+04</rscale>
<asrwt>0</asrwt>
<pdfrwt beam="1">  1        2 0.21467262E+00 0.15946305E+04</pdfrwt>
<pdfrwt beam="2">  1       -1 0.70090111E-01 0.15946305E+04</pdfrwt>
<totfact> 0.32757738E+01</totfact>
</mgrwt>
</event>
<event>
12    7  0.1660832E-007  0.1222987E+04  0.7818608E-02  0.9092971E-01
         -1   -1    0    0    0  501 -0.00000000000E+00  0.00000000000E+00  0.64223262748E+03  0.64223262748E+03  0.00000000000E+00 0.  1.
          2   -1    0    0  501    0  0.00000000000E+00 -0.00000000000E+00 -0.58222542825E+03  0.58222542825E+03  0.00000000000E+00 0. -1.
         24    2    1    2    0    0  0.45882507614E+02 -0.25131765654E+03 -0.28424960307E+02  0.26904472307E+03  0.79443789222E+02 0.  0.
        254    2    1    2    0    0 -0.45882507614E+02  0.25131765654E+03  0.88432159540E+02  0.95541333266E+03  0.91636707731E+03 0.  0.
         23    2    4    4    0    0 -0.11363156308E+03 -0.23748379827E+03 -0.22882661985E+03  0.36034699497E+03  0.90430350353E+02 0.  0.
         23    2    4    4    0    0  0.67749055471E+02  0.48880145481E+03  0.31725877939E+03  0.59506633769E+03  0.99669536013E+02 0.  0.
          4    1    3    3  502    0  0.54387621586E+02 -0.97398962576E+02 -0.27472643142E+02  0.11488828232E+03  0.00000000000E+00 0. -1.
         -3    1    3    3    0  502 -0.85051139719E+01 -0.15391869397E+03 -0.95231716469E+00  0.15415644075E+03  0.00000000000E+00 0.  1.
         13    1    5    5    0    0 -0.35770219975E+02 -0.15818865814E+03 -0.10141883498E+03  0.19128235750E+03  0.00000000000E+00 0. -1.
        -13    1    5    5    0    0 -0.77861343109E+02 -0.79295140123E+02 -0.12740778487E+03  0.16906463747E+03  0.00000000000E+00 0.  1.
          3    1    6    6  503    0  0.50168669654E+01  0.30220727803E+03  0.15346239858E+03  0.33897657091E+03  0.00000000000E+00 0. -1.
         -3    1    6    6    0  503  0.62732188505E+02  0.18659417678E+03  0.16379638080E+03  0.25608976678E+03  0.00000000000E+00 0.  1.
<mgrwt>
<rscale>  0 0.12229868E+04</rscale>
<asrwt>0</asrwt>
<pdfrwt beam="1">  1        2 0.89573142E-01 0.12229868E+04</pdfrwt>
<pdfrwt beam="2">  1       -1 0.98805020E-01 0.12229868E+04</pdfrwt>
<totfact> 0.56770146E+01</totfact>
</mgrwt>
</event>
<event>
12    7  0.1660832E-007  0.3244552E+04  0.7818608E-02  0.8177149E-01
         -1   -1    0    0    0  501 -0.00000000000E+00  0.00000000000E+00  0.16900092437E+04  0.16900092437E+04  0.00000000000E+00 0.  1.
          2   -1    0    0  501    0  0.00000000000E+00 -0.00000000000E+00 -0.15572575539E+04  0.15572575539E+04  0.00000000000E+00 0. -1.
         24    2    1    2    0    0 -0.23215332139E+03 -0.12530375507E+04 -0.72298339208E+03  0.14674004619E+04  0.80999149248E+02 0.  0.
        254    2    1    2    0    0  0.23215332139E+03  0.12530375507E+04  0.85573508187E+03  0.17798663358E+04  0.90091252338E+03 0.  0.
         23    2    4    4    0    0 -0.18729201780E+03  0.18815505955E+03 -0.87336513062E+02  0.29402108872E+03  0.91324190280E+02 0.  0.
         23    2    4    4    0    0  0.41944533919E+03  0.10648824911E+04  0.94307159493E+03  0.14858452470E+04  0.91885540188E+02 0.  0.
          4    1    3    3  502    0 -0.19882313726E+03 -0.10106167136E+04 -0.61769056791E+03  0.12010072520E+04  0.00000000000E+00 0. -1.
         -3    1    3    3    0  502 -0.33330184124E+02 -0.24242083708E+03 -0.10529282418E+03  0.26639320984E+03  0.00000000000E+00 0.  1.
         13    1    5    5    0    0 -0.15848044001E+03  0.98624330282E+02 -0.55861138856E+02  0.19484166707E+03  0.00000000000E+00 0.  1.
        -13    1    5    5    0    0 -0.28811577791E+02  0.89530729271E+02 -0.31475374206E+02  0.99179421656E+02  0.00000000000E+00 0. -1.
          1    1    6    6  503    0  0.51093932820E+01  0.14279164892E+02  0.29777377958E+02  0.33416952102E+02  0.00000000000E+00 0. -1.
         -1    1    6    6    0  503  0.41433594591E+03  0.10506033263E+04  0.91329421697E+03  0.14524282949E+04  0.00000000000E+00 0.  1.
<mgrwt>
<rscale>  0 0.32445521E+04</rscale>
<asrwt>0</asrwt>
<pdfrwt beam="1">  1        2 0.23957808E+00 0.32445521E+04</pdfrwt>
<pdfrwt beam="2">  1       -1 0.26000142E+00 0.32445521E+04</pdfrwt>
<totfact> 0.67533836E-01</totfact>
</mgrwt>
</event>
<event>
12    7  0.1660832E-007  0.1497360E+04  0.7818608E-02  0.8886210E-01
         -3   -1    0    0    0  501 -0.00000000000E+00  0.00000000000E+00  0.90694862965E+03  0.90694862965E+03  0.00000000000E+00 0.  1.
          4   -1    0    0  501    0  0.00000000000E+00 -0.00000000000E+00 -0.61803069018E+03  0.61803069018E+03  0.00000000000E+00 0. -1.
         24    2    1    2    0    0  0.27282652386E+03  0.26925692258E+03 -0.19747053551E+03  0.43942875167E+03  0.84672385810E+02 0.  0.
        254    2    1    2    0    0 -0.27282652386E+03 -0.26925692258E+03  0.48638847499E+03  0.10855505682E+04  0.89157875982E+03 0.  0.
         23    2    4    4    0    0  0.29944176948E+03 -0.68472136304E+02  0.31361229284E+03  0.44836764363E+03  0.91252763674E+02 0.  0.
         23    2    4    4    0    0 -0.57226829334E+03 -0.20078478627E+03  0.17277618215E+03  0.63718292453E+03  0.91350644402E+02 0.  0.
          2    1    3    3  502    0  0.25479575544E+03  0.25992372975E+03 -0.16166456626E+03  0.39826706400E+03  0.00000000000E+00 0. -1.
         -1    1    3    3    0  502  0.18030768417E+02  0.93331928254E+01 -0.35805969247E+02  0.41161687669E+02  0.00000000000E+00 0.  1.
         13    1    5    5    0    0  0.11243025960E+03 -0.76048616611E+01  0.17354137438E+03  0.20691787216E+03  0.00000000000E+00 0.  1.
        -13    1    5    5    0    0  0.18701150988E+03 -0.60867274643E+02  0.14007091846E+03  0.24144977148E+03  0.00000000000E+00 0. -1.
          4    1    6    6  503    0 -0.13199002271E+03 -0.44340820949E+02  0.80750122817E+02  0.16095979881E+03  0.00000000000E+00 0. -1.
         -4    1    6    6    0  503 -0.44027827063E+03 -0.15644396533E+03  0.92026059330E+02  0.47622312572E+03  0.00000000000E+00 0.  1.
<mgrwt>
<rscale>  0 0.14973605E+04</rscale>
<asrwt>0</asrwt>
<pdfrwt beam="1">  1        4 0.95081645E-01 0.14973605E+04</pdfrwt>
<pdfrwt beam="2">  1       -3 0.13953056E+00 0.14973605E+04</pdfrwt>
<totfact> 0.79939678E-01</totfact>
</mgrwt>
</event>
<event>
12    7  0.1660832E-007  0.1802729E+04  0.7818608E-02  0.8704850E-01
         -1   -1    0    0    0  501 -0.00000000000E+00  0.00000000000E+00  0.24288048687E+03  0.24288048687E+03  0.00000000000E+00 0.  1.
          2   -1    0    0  501    0  0.00000000000E+00 -0.00000000000E+00 -0.33450935833E+04  0.33450935833E+04  0.00000000000E+00 0. -1.
         24    2    1    2    0    0 -0.29210565751E+02 -0.41566278179E+03 -0.22860578545E+04  0.23251385596E+04  0.81117210811E+02 0.  0.
        254    2    1    2    0    0  0.29210565751E+02  0.41566278179E+03 -0.81615524195E+03  0.12628355106E+04  0.86891618844E+03 0.  0.
         23    2    4    4    0    0  0.18904599035E+03  0.16123563283E+03  0.10962042227E+03  0.28545974770E+03  0.87950638521E+02 0.  0.
         23    2    4    4    0    0 -0.15983542460E+03  0.25442714896E+03 -0.92577566422E+03  0.97737576289E+03  0.89007102816E+02 0.  0.
          4    1    3    3  502    0  0.14481016206E+01 -0.31541568961E+03 -0.15617089060E+04  0.15932431897E+04  0.00000000000E+00 0. -1.
         -3    1    3    3    0  502 -0.30658667372E+02 -0.10024709219E+03 -0.72434894843E+03  0.73189536989E+03  0.00000000000E+00 0.  1.
         13    1    5    5    0    0  0.54073317944E+02  0.43455358620E+02 -0.99542091470E+01  0.70081225632E+02  0.00000000000E+00 0. -1.
        -13    1    5    5    0    0  0.13497267240E+03  0.11778027421E+03  0.11957463142E+03  0.21537852207E+03  0.00000000000E+00 0.  1.
          1    1    6    6  503    0 -0.20207665452E+02  0.15716219481E+01 -0.30190795829E+02  0.36363496688E+02  0.00000000000E+00 0. -1.
         -1    1    6    6    0  503 -0.13962775914E+03  0.25285552701E+03 -0.89558486839E+03  0.94101226621E+03  0.00000000000E+00 0.  1.
<mgrwt>
<rscale>  0 0.18027290E+04</rscale>
<asrwt>0</asrwt>
<pdfrwt beam="1">  1        2 0.51462981E+00 0.18027290E+04</pdfrwt>
<pdfrwt beam="2">  1       -1 0.37366227E-01 0.18027290E+04</pdfrwt>
<totfact> 0.77494705E+00</totfact>
</mgrwt>
</event>
<event>
12    7  0.1660832E-007  0.2053579E+04  0.7818608E-02  0.8581972E-01
         -1   -1    0    0    0  501 -0.00000000000E+00  0.00000000000E+00  0.60292022040E+03  0.60292022040E+03  0.00000000000E+00 0.  1.
          2   -1    0    0  501    0  0.00000000000E+00 -0.00000000000E+00 -0.17486512361E+04  0.17486512361E+04  0.00000000000E+00 0. -1.
         24    2    1    2    0    0 -0.43025884017E+03 -0.27579700774E+03 -0.12033807720E+04  0.13098077202E+04  0.79273718091E+02 0.  0.
        254    2    1    2    0    0  0.43025884017E+03  0.27579700774E+03  0.57649756316E+02  0.10417637363E+04  0.90595890022E+03 0.  0.
         23    2    4    4    0    0  0.16505642867E+03 -0.31816553758E+03 -0.58842627036E+02  0.37478589224E+03  0.92352998418E+02 0.  0.
         23    2    4    4    0    0  0.26520241150E+03  0.59396254532E+03  0.11649238335E+03  0.66697784408E+03  0.90361190847E+02 0.  0.
          4    1    3    3  502    0 -0.39135926624E+03 -0.25757915249E+03 -0.10362201606E+04  0.11372164773E+04  0.00000000000E+00 0. -1.
         -3    1    3    3    0  502 -0.38899573932E+02 -0.18217855247E+02 -0.16716061147E+03  0.17259124291E+03  0.00000000000E+00 0.  1.
         13    1    5    5    0    0  0.12585085664E+03 -0.20391032934E+03 -0.79029143215E+02  0.25231620243E+03  0.00000000000E+00 0.  1.
        -13    1    5    5    0    0  0.39205572026E+02 -0.11425520823E+03  0.20186516178E+02  0.12246968981E+03  0.00000000000E+00 0. -1.
          4    1    6    6  503    0  0.21308508091E+03  0.37611006180E+03  0.65020706267E+02  0.43714039225E+03  0.00000000000E+00 0. -1.
         -4    1    6    6    0  503  0.52117330594E+02  0.21785248351E+03  0.51471677085E+02  0.22983745183E+03  0.00000000000E+00 0.  1.
<mgrwt>
<rscale>  0 0.20535795E+04</rscale>
<asrwt>0</asrwt>
<pdfrwt beam="1">  1        2 0.26902327E+00 0.20535795E+04</pdfrwt>
<pdfrwt beam="2">  1       -1 0.92756957E-01 0.20535795E+04</pdfrwt>
<totfact> 0.10965009E+01</totfact>
</mgrwt>
</event>
<event>
12    7  0.1660832E-007  0.1810279E+04  0.7818608E-02  0.8700852E-01
          2   -1    0    0  501    0  0.00000000000E+00  0.00000000000E+00  0.10621531865E+04  0.10621531865E+04  0.00000000000E+00 0. -1.
         -1   -1    0    0    0  501 -0.00000000000E+00 -0.00000000000E+00 -0.77133658373E+03  0.77133658373E+03  0.00000000000E+00 0.  1.
         24    2    1    2    0    0 -0.29125155197E+03  0.11264247143E+03 -0.50193081172E+03  0.59691273341E+03  0.82791778959E+02 0.  0.
        254    2    1    2    0    0  0.29125155197E+03 -0.11264247143E+03  0.79274741448E+03  0.12365770368E+04  0.89619111348E+03 0.  0.
         23    2    4    4    0    0  0.15748985246E+03  0.30691765751E+03  0.68747462449E+03  0.77455289639E+03  0.91155514730E+02 0.  0.
         23    2    4    4    0    0  0.13376169951E+03 -0.41956012895E+03  0.10527278999E+03  0.46202414041E+03  0.91983976591E+02 0.  0.
          4    1    3    3  502    0 -0.23565088216E+02  0.36271549568E+02 -0.49820453612E+02  0.65977392255E+02  0.00000000000E+00 0. -1.
         -3    1    3    3    0  502 -0.26768646375E+03  0.76370921867E+02 -0.45211035811E+03  0.53093534116E+03  0.00000000000E+00 0.  1.
         13    1    5    5    0    0  0.14357525514E+03  0.27960948654E+03  0.54793205665E+03  0.63168414382E+03  0.00000000000E+00 0. -1.
        -13    1    5    5    0    0  0.13914597316E+02  0.27308170975E+02  0.13954256784E+03  0.14286875257E+03  0.00000000000E+00 0.  1.
          4    1    6    6  503    0  0.13076437123E+03 -0.40466158988E+03  0.80283716340E+02  0.43277684575E+03  0.00000000000E+00 0. -1.
         -4    1    6    6    0  503  0.29973282759E+01 -0.14898539071E+02  0.24989073646E+02  0.29247294660E+02  0.00000000000E+00 0.  1.
<mgrwt>
<rscale>  0 0.18102791E+04</rscale>
<asrwt>0</asrwt>
<pdfrwt beam="1">  1        2 0.16340818E+00 0.18102791E+04</pdfrwt>
<pdfrwt beam="2">  1       -1 0.11866717E+00 0.18102791E+04</pdfrwt>
<totfact> 0.15747946E+01</totfact>
</mgrwt>
</event>
<event>
12    7  0.1660832E-007  0.1603998E+04  0.7818608E-02  0.8818095E-01
         -1   -1    0    0    0  501 -0.00000000000E+00  0.00000000000E+00  0.97866611640E+03  0.97866611640E+03  0.00000000000E+00 0.  1.
          2   -1    0    0  501    0  0.00000000000E+00 -0.00000000000E+00 -0.65722391142E+03  0.65722391142E+03  0.00000000000E+00 0. -1.
         24    2    1    2    0    0 -0.27863166209E+03  0.31228254779E+03 -0.24594801911E+03  0.49181516949E+03  0.78966702267E+02 0.  0.
        254    2    1    2    0    0  0.27863166209E+03 -0.31228254779E+03  0.56739022409E+03  0.11440748583E+04  0.90101033417E+03 0.  0.
         23    2    4    4    0    0 -0.78004793682E+02  0.30784056424E+02 -0.19492205787E+03  0.23051628733E+03  0.90059669717E+02 0.  0.
         23    2    4    4    0    0  0.35663645577E+03 -0.34306660421E+03  0.76231228197E+03  0.91355857100E+03  0.92655225960E+02 0.  0.
          2    1    3    3  502    0 -0.97758395107E+02  0.14327247425E+03 -0.65169951553E+02  0.18528580161E+03  0.00000000000E+00 0. -1.
         -1    1    3    3    0  502 -0.18087326698E+03  0.16901007353E+03 -0.18077806756E+03  0.30652936788E+03  0.00000000000E+00 0.  1.
         13    1    5    5    0    0 -0.21692027764E+02 -0.31976953028E+02 -0.65536802391E+02  0.76079840044E+02  0.00000000000E+00 0.  1.
        -13    1    5    5    0    0 -0.56312765918E+02  0.62761009452E+02 -0.12938525548E+03  0.15443644728E+03  0.00000000000E+00 0. -1.
          1    1    6    6  503    0  0.84874164217E+02 -0.13414629404E+03  0.27954184460E+03  0.32146927511E+03  0.00000000000E+00 0. -1.
         -1    1    6    6    0  503  0.27176229155E+03 -0.20892031017E+03  0.48277043736E+03  0.59208929589E+03  0.00000000000E+00 0.  1.
<mgrwt>
<rscale>  0 0.16039985E+04</rscale>
<asrwt>0</asrwt>
<pdfrwt beam="1">  1        2 0.10111137E+00 0.16039985E+04</pdfrwt>
<pdfrwt beam="2">  1       -1 0.15056402E+00 0.16039985E+04</pdfrwt>
<totfact> 0.16774162E+01</totfact>
</mgrwt>
</event>
<event>
12    7  0.1660832E-007  0.1653181E+04  0.7818608E-02  0.8788527E-01
          2   -1    0    0  501    0  0.00000000000E+00  0.00000000000E+00  0.35376543921E+04  0.35376543921E+04  0.00000000000E+00 0. -1.
         -1   -1    0    0    0  501 -0.00000000000E+00 -0.00000000000E+00 -0.19313698411E+03  0.19313698411E+03  0.00000000000E+00 0.  1.
         24    2    1    2    0    0 -0.28641293278E+03  0.31983750871E+03  0.20470190881E+04  0.20931105884E+04  0.80600175624E+02 0.  0.
        254    2    1    2    0    0  0.28641293278E+03 -0.31983750871E+03  0.12974983199E+04  0.16376807878E+04  0.90231262461E+03 0.  0.
         23    2    4    4    0    0  0.31113560749E+02  0.19343258457E+03 -0.38121345295E+00  0.21593193322E+03  0.90786761306E+02 0.  0.
         23    2    4    4    0    0  0.25529937203E+03 -0.51327009327E+03  0.12978795334E+04  0.14217488546E+04  0.90854633161E+02 0.  0.
          4    1    3    3  502    0 -0.26766435182E+03  0.28580997420E+03  0.19431892006E+04  0.19822501901E+04  0.00000000000E+00 0. -1.
         -1    1    3    3    0  502 -0.18748580956E+02  0.34027534506E+02  0.10382988749E+03  0.11086039838E+03  0.00000000000E+00 0.  1.
         13    1    5    5    0    0 -0.19397795449E+02  0.43535359538E+01 -0.35592692647E+01  0.20196438826E+02  0.00000000000E+00 0. -1.
        -13    1    5    5    0    0  0.50511356198E+02  0.18907904861E+03  0.31780558117E+01  0.19573549440E+03  0.00000000000E+00 0.  1.
          1    1    6    6  503    0  0.94672745215E+02 -0.15578505417E+03  0.51372832252E+03  0.54511347548E+03  0.00000000000E+00 0. -1.
         -1    1    6    6    0  503  0.16062662681E+03 -0.35748503910E+03  0.78415121083E+03  0.87663537909E+03  0.00000000000E+00 0.  1.
<mgrwt>
<rscale>  0 0.16531811E+04</rscale>
<asrwt>0</asrwt>
<pdfrwt beam="1">  1        2 0.54425448E+00 0.16531811E+04</pdfrwt>
<pdfrwt beam="2">  1       -1 0.29713385E-01 0.16531811E+04</pdfrwt>
<totfact> 0.87287968E+00</totfact>
</mgrwt>
</event>
<event>
12    7  0.1660832E-007  0.1677519E+04  0.7818608E-02  0.8774291E-01
          2   -1    0    0  501    0  0.00000000000E+00  0.00000000000E+00  0.78385744137E+03  0.78385744137E+03  0.00000000000E+00 0. -1.
         -1   -1    0    0    0  501 -0.00000000000E+00 -0.00000000000E+00 -0.89750697646E+03  0.89750697646E+03  0.00000000000E+00 0.  1.
         24    2    1    2    0    0 -0.16162086397E+03  0.56311629383E+03  0.70065447832E+02  0.59524892009E+03  0.78681928330E+02 0.  0.
        254    2    1    2    0    0  0.16162086397E+03 -0.56311629383E+03 -0.18371498292E+03  0.10861154977E+04  0.89592098727E+03 0.  0.
         23    2    4    4    0    0  0.16120308393E+03 -0.59637343459E+02  0.31598690143E+03  0.37073029892E+03  0.89722826849E+02 0.  0.
         23    2    4    4    0    0  0.41778003863E+00 -0.50347895037E+03 -0.49970188435E+03  0.71538519882E+03  0.92643302304E+02 0.  0.
          2    1    3    3  502    0 -0.16487128318E+01  0.32572508132E+02 -0.12632256948E+02  0.34975140538E+02  0.00000000000E+00 0. -1.
         -1    1    3    3    0  502 -0.15997215113E+03  0.53054378570E+03  0.82697704780E+02  0.56027377955E+03  0.00000000000E+00 0.  1.
         13    1    5    5    0    0  0.43674658175E+02 -0.34908391517E+02  0.37151036689E+02  0.67128765012E+02  0.00000000000E+00 0. -1.
        -13    1    5    5    0    0  0.11752842575E+03 -0.24728951942E+02  0.27883586474E+03  0.30360153390E+03  0.00000000000E+00 0.  1.
          2    1    6    6  503    0  0.22839282127E+02 -0.76241437910E+02 -0.46638630931E+02  0.92247230624E+02  0.00000000000E+00 0. -1.
         -2    1    6    6    0  503 -0.22421502089E+02 -0.42723751246E+03 -0.45306325341E+03  0.62313796819E+03  0.00000000000E+00 0.  1.
<mgrwt>
<rscale>  0 0.16775190E+04</rscale>
<asrwt>0</asrwt>
<pdfrwt beam="1">  1        2 0.12059345E+00 0.16775190E+04</pdfrwt>
<pdfrwt beam="2">  1       -1 0.13807800E+00 0.16775190E+04</pdfrwt>
<totfact> 0.16739690E+01</totfact>
</mgrwt>
</event>
<event>
12    7  0.2226731E-007  0.1743498E+04  0.7818608E-02  0.8736937E-01
         -1   -1    0    0    0  501 -0.00000000000E+00  0.00000000000E+00  0.89554689597E+03  0.89554689597E+03  0.00000000000E+00 0.  1.
          2   -1    0    0  501    0  0.00000000000E+00 -0.00000000000E+00 -0.84858390607E+03  0.84858390607E+03  0.00000000000E+00 0. -1.
         24    2    1    2    0    0  0.11000284641E+03  0.24893314045E+03  0.58618305824E+03  0.65110635724E+03  0.79123801984E+02 0.  0.
        254    2    1    2    0    0 -0.11000284641E+03 -0.24893314045E+03 -0.53922006834E+03  0.10930244448E+04  0.91097520284E+03 0.  0.
         23    2    4    4    0    0  0.13719939889E+03 -0.46144425651E+03 -0.57199945398E+03  0.75313392877E+03  0.90955276900E+02 0.  0.
         23    2    4    4    0    0 -0.24720224529E+03  0.21251111606E+03  0.32779385635E+02  0.33989051603E+03  0.90449711082E+02 0.  0.
          4    1    3    3  502    0  0.25957996993E+02  0.65041641896E+01  0.50993682056E+02  0.57588864977E+02  0.00000000000E+00 0. -1.
         -3    1    3    3    0  502  0.84044849414E+02  0.24242897626E+03  0.53518937619E+03  0.59351749227E+03  0.00000000000E+00 0.  1.
         13    1    5    5    0    0  0.11901867357E+03 -0.39146217277E+03 -0.52985348963E+03  0.66944215422E+03  0.00000000000E+00 0. -1.
        -13    1    5    5    0    0  0.18180725319E+02 -0.69982083735E+02 -0.42145964344E+02  0.83691774551E+02  0.00000000000E+00 0.  1.
          1    1    6    6  503    0 -0.16415796913E+03  0.10292070632E+03  0.53095648139E+02  0.20089713405E+03  0.00000000000E+00 0. -1.
         -1    1    6    6    0  503 -0.83044276163E+02  0.10959040975E+03 -0.20316262504E+02  0.13899338198E+03  0.00000000000E+00 0.  1.
<mgrwt>
<rscale>  0 0.17434984E+04</rscale>
<asrwt>0</asrwt>
<pdfrwt beam="1">  1        2 0.13055137E+00 0.17434984E+04</pdfrwt>
<pdfrwt beam="2">  1       -1 0.13777645E+00 0.17434984E+04</pdfrwt>
<totfact> 0.15050222E+01</totfact>
</mgrwt>
</event>
<event>
12    7  0.1660832E-007  0.1724265E+04  0.7818608E-02  0.8747645E-01
         -3   -1    0    0    0  501 -0.00000000000E+00  0.00000000000E+00  0.81990471788E+03  0.81990471788E+03  0.00000000000E+00 0.  1.
          4   -1    0    0  501    0  0.00000000000E+00 -0.00000000000E+00 -0.90653502843E+03  0.90653502843E+03  0.00000000000E+00 0. -1.
         24    2    1    2    0    0  0.11381402035E+03 -0.57115360334E+03 -0.25911108877E+03  0.64240792073E+03  0.79870585644E+02 0.  0.
        254    2    1    2    0    0 -0.11381402035E+03  0.57115360334E+03  0.17248077823E+03  0.10840318256E+04  0.89788936411E+03 0.  0.
         23    2    4    4    0    0  0.17459221031E+03  0.58750188174E+03 -0.15291895096E+03  0.63827651330E+03  0.91497545952E+02 0.  0.
         23    2    4    4    0    0 -0.28840623066E+03 -0.16348278405E+02  0.32539972919E+03  0.44575531228E+03  0.96785301481E+02 0.  0.
          2    1    3    3  502    0  0.67870842163E+02 -0.40624390788E+03 -0.14491389136E+03  0.43662409440E+03  0.00000000000E+00 0. -1.
         -1    1    3    3    0  502  0.45943178184E+02 -0.16490969546E+03 -0.11419719742E+03  0.20578382632E+03  0.00000000000E+00 0.  1.
         13    1    5    5    0    0  0.94845674098E+02  0.45269342777E+03 -0.10263308767E+03  0.47377272201E+03  0.00000000000E+00 0. -1.
        -13    1    5    5    0    0  0.79746536212E+02  0.13480845398E+03 -0.50285863289E+02  0.16450379129E+03  0.00000000000E+00 0.  1.
          3    1    6    6  503    0 -0.52383472458E+02 -0.25172988019E+02  0.11755970694E+03  0.13114111563E+03  0.00000000000E+00 0. -1.
         -3    1    6    6    0  503 -0.23602275820E+03  0.88247096145E+01  0.20784002225E+03  0.31461419666E+03  0.00000000000E+00 0.  1.
<mgrwt>
<rscale>  0 0.17242649E+04</rscale>
<asrwt>0</asrwt>
<pdfrwt beam="1">  1        4 0.13946693E+00 0.17242649E+04</pdfrwt>
<pdfrwt beam="2">  1       -3 0.12613919E+00 0.17242649E+04</pdfrwt>
<totfact> 0.39207956E-01</totfact>
</mgrwt>
</event>
<event>
12    7  0.1660832E-007  0.1718140E+04  0.7818608E-02  0.8751086E-01
          2   -1    0    0  501    0  0.00000000000E+00  0.00000000000E+00  0.68993159844E+03  0.68993159844E+03  0.00000000000E+00 0. -1.
         -1   -1    0    0    0  501 -0.00000000000E+00 -0.00000000000E+00 -0.10696726863E+04  0.10696726863E+04  0.00000000000E+00 0.  1.
         24    2    1    2    0    0 -0.79783040340E+02  0.59940453096E+03 -0.23719071003E+02  0.61052817842E+03  0.80814213215E+02 0.  0.
        254    2    1    2    0    0  0.79783040340E+02 -0.59940453096E+03 -0.35602201687E+03  0.11490761063E+04  0.90993027007E+03 0.  0.
         23    2    4    4    0    0  0.43841994823E+02 -0.23256526140E+03  0.29859326736E+03  0.39250594845E+03  0.94309378845E+02 0.  0.
         23    2    4    4    0    0  0.35941045517E+02 -0.36683926955E+03 -0.65461528422E+03  0.75657015787E+03  0.89523321029E+02 0.  0.
          4    1    3    3  502    0 -0.15626839112E+02  0.32424354134E+02  0.14148779988E+02  0.38674601702E+02  0.00000000000E+00 0. -1.
         -3    1    3    3    0  502 -0.64156201227E+02  0.56698017682E+03 -0.37867850991E+02  0.57185357672E+03  0.00000000000E+00 0.  1.
         13    1    5    5    0    0  0.13337991372E+02 -0.19442561499E+03  0.18434873912E+03  0.26826046931E+03  0.00000000000E+00 0. -1.
        -13    1    5    5    0    0  0.30504003450E+02 -0.38139646408E+02  0.11424452824E+03  0.12424547914E+03  0.00000000000E+00 0.  1.
          3    1    6    6  503    0  0.47884917163E+02 -0.30622250103E+03 -0.59409221576E+03  0.67008264136E+03  0.00000000000E+00 0. -1.
         -3    1    6    6    0  503 -0.11943871646E+02 -0.60616768526E+02 -0.60523068464E+02  0.86487516513E+02  0.00000000000E+00 0.  1.
<mgrwt>
<rscale>  0 0.17181397E+04</rscale>
<asrwt>0</asrwt>
<pdfrwt beam="1">  1        2 0.10614332E+00 0.17181397E+04</pdfrwt>
<pdfrwt beam="2">  1       -1 0.16456503E+00 0.17181397E+04</pdfrwt>
<totfact> 0.12226240E+01</totfact>
</mgrwt>
</event>
<event>
12    7  0.1660832E-007  0.1645608E+04  0.7818608E-02  0.8793009E-01
         -1   -1    0    0    0  501 -0.00000000000E+00  0.00000000000E+00  0.74224072438E+03  0.74224072438E+03  0.00000000000E+00 0.  1.
          2   -1    0    0  501    0  0.00000000000E+00 -0.00000000000E+00 -0.91211139031E+03  0.91211139031E+03  0.00000000000E+00 0. -1.
         24    2    1    2    0    0  0.38547712399E+03  0.21685179423E+03  0.30201707052E+03  0.54160959648E+03  0.80680421021E+02 0.  0.
        254    2    1    2    0    0 -0.38547712399E+03 -0.21685179423E+03 -0.47188773646E+03  0.11127425182E+04  0.90548360682E+03 0.  0.
         23    2    4    4    0    0 -0.44307928569E+03  0.25145976266E+03 -0.31732981516E+03  0.60764454123E+03  0.94775583663E+02 0.  0.
         23    2    4    4    0    0  0.57602161700E+02 -0.46831155689E+03 -0.15455792130E+03  0.50509797698E+03  0.92747463375E+02 0.  0.
          4    1    3    3  502    0  0.18012734330E+03  0.77501240566E+02  0.92448553030E+02  0.21679261300E+03  0.00000000000E+00 0. -1.
         -3    1    3    3    0  502  0.20534978069E+03  0.13935055367E+03  0.20956851749E+03  0.32481698348E+03  0.00000000000E+00 0.  1.
         13    1    5    5    0    0 -0.37597453358E+03  0.22947975960E+03 -0.23521323553E+03  0.49934264402E+03  0.00000000000E+00 0. -1.
        -13    1    5    5    0    0 -0.67104752110E+02  0.21980003052E+02 -0.82116579629E+02  0.10830189721E+03  0.00000000000E+00 0.  1.
          4    1    6    6  503    0  0.31917282707E+02 -0.25066383645E+03 -0.13114475887E+03  0.28469285136E+03  0.00000000000E+00 0. -1.
         -4    1    6    6    0  503  0.25684878993E+02 -0.21764772044E+03 -0.23413162428E+02  0.22040512561E+03  0.00000000000E+00 0.  1.
<mgrwt>
<rscale>  0 0.16456078E+04</rscale>
<asrwt>0</asrwt>
<pdfrwt beam="1">  1        2 0.14032483E+00 0.16456078E+04</pdfrwt>
<pdfrwt beam="2">  1       -1 0.11419088E+00 0.16456078E+04</pdfrwt>
<totfact> 0.21911955E+01</totfact>
</mgrwt>
</event>
<event>
12    7  0.1660832E-007  0.1274742E+04  0.7818608E-02  0.9049838E-01
         -1   -1    0    0    0  501 -0.00000000000E+00  0.00000000000E+00  0.67175237372E+03  0.67175237372E+03  0.00000000000E+00 0.  1.
          2   -1    0    0  501    0  0.00000000000E+00 -0.00000000000E+00 -0.60474951865E+03  0.60474951865E+03  0.00000000000E+00 0. -1.
         24    2    1    2    0    0 -0.86177664760E+02 -0.24978555794E+03  0.18610825281E+03  0.33299789612E+03  0.80199140863E+02 0.  0.
        254    2    1    2    0    0  0.86177664760E+02  0.24978555794E+03 -0.11910539775E+03  0.94350399625E+03  0.89788322198E+03 0.  0.
         23    2    4    4    0    0  0.26106091434E+03  0.17440207287E+03 -0.44624770602E+03  0.55336336042E+03  0.92223150631E+02 0.  0.
         23    2    4    4    0    0 -0.17488324958E+03  0.75383485073E+02  0.32714230827E+03  0.39014063583E+03  0.94450013524E+02 0.  0.
          2    1    3    3  502    0  0.40975524209E+01 -0.55623192989E+02  0.12065635177E+02  0.57064078774E+02  0.00000000000E+00 0. -1.
         -1    1    3    3    0  502 -0.90275217181E+02 -0.19416236495E+03  0.17404261763E+03  0.27593381734E+03  0.00000000000E+00 0.  1.
         13    1    5    5    0    0  0.34400747549E+02  0.37916710968E+02 -0.13770021805E+03  0.14690962682E+03  0.00000000000E+00 0. -1.
        -13    1    5    5    0    0  0.22666016679E+03  0.13648536190E+03 -0.30854748797E+03  0.40645373360E+03  0.00000000000E+00 0.  1.
          2    1    6    6  503    0 -0.14589142185E+03  0.97920097108E+02  0.26496001539E+03  0.31792524615E+03  0.00000000000E+00 0.  1.
         -2    1    6    6    0  503 -0.28991827733E+02 -0.22536612035E+02  0.62182292887E+02  0.72215389675E+02  0.00000000000E+00 0. -1.
<mgrwt>
<rscale>  0 0.12747422E+04</rscale>
<asrwt>0</asrwt>
<pdfrwt beam="1">  1        2 0.93038388E-01 0.12747422E+04</pdfrwt>
<pdfrwt beam="2">  1       -1 0.10334652E+00 0.12747422E+04</pdfrwt>
<totfact> 0.48718361E+01</totfact>
</mgrwt>
</event>
<event>
12    7  0.1660832E-007  0.1484313E+04  0.7818608E-02  0.8894952E-01
         -1   -1    0    0    0  501 -0.00000000000E+00  0.00000000000E+00  0.38963926885E+03  0.38963926885E+03  0.00000000000E+00 0.  1.
          2   -1    0    0  501    0  0.00000000000E+00 -0.00000000000E+00 -0.14136053460E+04  0.14136053460E+04  0.00000000000E+00 0. -1.
         24    2    1    2    0    0  0.17327895003E+03  0.55362589544E+02  0.19633904678E+03  0.27945600125E+03  0.80349390167E+02 0.  0.
        254    2    1    2    0    0 -0.17327895003E+03 -0.55362589544E+02 -0.12203051239E+04  0.15237886136E+04  0.89425753147E+03 0.  0.
         23    2    4    4    0    0  0.12400820047E+03 -0.33003291166E+03 -0.18384414025E+03  0.40734043425E+03  0.88474882942E+02 0.  0.
         23    2    4    4    0    0 -0.29728715051E+03  0.27467032211E+03 -0.10364609836E+04  0.11164481793E+04  0.91551792819E+02 0.  0.
          2    1    3    3  502    0  0.13779138088E+03  0.67693395580E+01  0.14746377307E+03  0.20193526926E+03  0.00000000000E+00 0. -1.
         -1    1    3    3    0  502  0.35487569152E+02  0.48593249986E+02  0.48875273711E+02  0.77520731993E+02  0.00000000000E+00 0.  1.
         13    1    5    5    0    0  0.15314155419E+02 -0.34843813098E+02  0.79977942679E+01  0.38891893507E+02  0.00000000000E+00 0.  1.
        -13    1    5    5    0    0  0.10869404505E+03 -0.29518909856E+03 -0.19184193451E+03  0.36844854074E+03  0.00000000000E+00 0. -1.
          2    1    6    6  503    0 -0.85556611046E+01  0.25183529153E+02 -0.30079075337E+02  0.40151715413E+02  0.00000000000E+00 0. -1.
         -2    1    6    6    0  503 -0.28873148940E+03  0.24948679296E+03 -0.10063819083E+04  0.10762964639E+04  0.00000000000E+00 0.  1.
<mgrwt>
<rscale>  0 0.14843128E+04</rscale>
<asrwt>0</asrwt>
<pdfrwt beam="1">  1        2 0.21747775E+00 0.14843128E+04</pdfrwt>
<pdfrwt beam="2">  1       -1 0.59944502E-01 0.14843128E+04</pdfrwt>
<totfact> 0.44212182E+01</totfact>
</mgrwt>
</event>
<event>
12    7  0.1660832E-007  0.1202186E+04  0.7818608E-02  0.9110946E-01
         -1   -1    0    0    0  501 -0.00000000000E+00  0.00000000000E+00  0.30734089778E+03  0.30734089778E+03  0.00000000000E+00 0.  1.
          2   -1    0    0  501    0  0.00000000000E+00 -0.00000000000E+00 -0.11756083031E+04  0.11756083031E+04  0.00000000000E+00 0. -1.
         24    2    1    2    0    0  0.37740925624E+02  0.14424647721E+03 -0.49690356552E+03  0.52481947830E+03  0.79315242647E+02 0.  0.
        254    2    1    2    0    0 -0.37740925624E+02 -0.14424647721E+03 -0.37136383981E+03  0.95812972260E+03  0.87055731584E+03 0.  0.
         23    2    4    4    0    0  0.14280968859E+03 -0.72508245832E+01 -0.60017156075E+03  0.62371504066E+03  0.91473318494E+02 0.  0.
         23    2    4    4    0    0 -0.18055061422E+03 -0.13699565263E+03  0.22880772094E+03  0.33441468195E+03  0.90077040388E+02 0.  0.
          4    1    3    3  502    0  0.62264848329E+02  0.10477848864E+03 -0.34035419781E+03  0.36151960249E+03  0.00000000000E+00 0. -1.
         -3    1    3    3    0  502 -0.24523922705E+02  0.39467988569E+02 -0.15654936772E+03  0.16329987581E+03  0.00000000000E+00 0.  1.
         13    1    5    5    0    0  0.23931928467E+02  0.67801877142E+01 -0.21764763900E+02  0.33051673078E+02  0.00000000000E+00 0. -1.
        -13    1    5    5    0    0  0.11887776012E+03 -0.14031012297E+02 -0.57840679685E+03  0.59066336758E+03  0.00000000000E+00 0.  1.
          1    1    6    6  503    0 -0.20146515418E+02 -0.55014898667E+02  0.88247105934E+02  0.10592484536E+03  0.00000000000E+00 0. -1.
         -1    1    6    6    0  503 -0.16040409880E+03 -0.81980753961E+02  0.14056061501E+03  0.22848983659E+03  0.00000000000E+00 0.  1.
<mgrwt>
<rscale>  0 0.12021855E+04</rscale>
<asrwt>0</asrwt>
<pdfrwt beam="1">  1        2 0.18086282E+00 0.12021855E+04</pdfrwt>
<pdfrwt beam="2">  1       -1 0.47283215E-01 0.12021855E+04</pdfrwt>
<totfact> 0.98298028E+01</totfact>
</mgrwt>
</event>
<event>
12    7  0.1660832E-007  0.1358676E+04  0.7818608E-02  0.8984286E-01
         -1   -1    0    0    0  501 -0.00000000000E+00  0.00000000000E+00  0.86334908291E+03  0.86334908291E+03  0.00000000000E+00 0.  1.
          2   -1    0    0  501    0  0.00000000000E+00 -0.00000000000E+00 -0.53454628804E+03  0.53454628804E+03  0.00000000000E+00 0. -1.
         24    2    1    2    0    0  0.19487328603E+03  0.26313085223E+03 -0.97161254941E+02  0.35097376891E+03  0.80801200470E+02 0.  0.
        254    2    1    2    0    0 -0.19487328603E+03 -0.26313085223E+03  0.42596404982E+03  0.10469216020E+04  0.89854661876E+03 0.  0.
         23    2    4    4    0    0 -0.93918078710E+02  0.17146623923E+03 -0.18554955835E+03  0.28469499107E+03  0.91658729175E+02 0.  0.
         23    2    4    4    0    0 -0.10095520732E+03 -0.43459709145E+03  0.61151360817E+03  0.76222661098E+03  0.89296851702E+02 0.  0.
          2    1    3    3  502    0 -0.45383444934E+01 -0.23058789740E+01 -0.28843349133E+01  0.58509004842E+01  0.00000000000E+00 0. -1.
         -1    1    3    3    0  502  0.19941163052E+03  0.26543673120E+03 -0.94276920028E+02  0.34512286842E+03  0.00000000000E+00 0.  1.
         13    1    5    5    0    0 -0.38315520581E+02  0.14435935529E+03 -0.10252676677E+03  0.18116136586E+03  0.00000000000E+00 0.  1.
        -13    1    5    5    0    0 -0.55602558129E+02  0.27106883938E+02 -0.83022791576E+02  0.10353362521E+03  0.00000000000E+00 0. -1.
          1    1    6    6  503    0 -0.27366221593E+02 -0.20186399268E+02  0.50403991029E+02  0.60802657107E+02  0.00000000000E+00 0. -1.
         -1    1    6    6    0  503 -0.73588985728E+02 -0.41441069218E+03  0.56110961714E+03  0.70142395387E+03  0.00000000000E+00 0.  1.
<mgrwt>
<rscale>  0 0.13586759E+04</rscale>
<asrwt>0</asrwt>
<pdfrwt beam="1">  1        2 0.82237890E-01 0.13586759E+04</pdfrwt>
<pdfrwt beam="2">  1       -1 0.13282294E+00 0.13586759E+04</pdfrwt>
<totfact> 0.30522767E+01</totfact>
</mgrwt>
</event>
<event>
12    7  0.1660832E-007  0.4900969E+04  0.7818608E-02  0.7843968E-01
         -1   -1    0    0    0  501 -0.00000000000E+00  0.00000000000E+00  0.21630816715E+04  0.21630816715E+04  0.00000000000E+00 0.  1.
          2   -1    0    0  501    0  0.00000000000E+00 -0.00000000000E+00 -0.27760739270E+04  0.27760739270E+04  0.00000000000E+00 0. -1.
         24    2    1    2    0    0  0.17142089478E+04 -0.13513618201E+04  0.62515157780E+03  0.22720118779E+04  0.80823216383E+02 0.  0.
        254    2    1    2    0    0 -0.17142089478E+04  0.13513618201E+04 -0.12381438333E+04  0.26671437206E+04  0.90330747205E+03 0.  0.
         23    2    4    4    0    0 -0.11757660344E+04  0.76168289018E+03 -0.30625214704E+03  0.14365952027E+04  0.86190522087E+02 0.  0.
         23    2    4    4    0    0 -0.53844291339E+03  0.58967892996E+03 -0.93189168623E+03  0.12305485179E+04  0.90473911404E+02 0.  0.
          2    1    3    3  502    0  0.13521259135E+04 -0.10768083008E+04  0.46182170744E+03  0.17891450171E+04  0.00000000000E+00 0. -1.
         -1    1    3    3    0  502  0.36208303429E+03 -0.27455351931E+03  0.16332987036E+03  0.48286686078E+03  0.00000000000E+00 0.  1.
         13    1    5    5    0    0 -0.99844511497E+03  0.66163612391E+03 -0.28981953611E+03  0.12323353324E+04  0.00000000000E+00 0.  1.
        -13    1    5    5    0    0 -0.17732091943E+03  0.10004676628E+03 -0.16432610926E+02  0.20425987029E+03  0.00000000000E+00 0. -1.
          3    1    6    6  503    0 -0.10300077573E+03  0.89621796981E+02 -0.11571294483E+03  0.17897125997E+03  0.00000000000E+00 0. -1.
         -3    1    6    6    0  503 -0.43544213766E+03  0.50005713298E+03 -0.81617874141E+03  0.10515772579E+04  0.00000000000E+00 0.  1.
<mgrwt>
<rscale>  0 0.49009691E+04</rscale>
<asrwt>0</asrwt>
<pdfrwt beam="1">  1        2 0.42708829E+00 0.49009691E+04</pdfrwt>
<pdfrwt beam="2">  1       -1 0.33278180E+00 0.49009691E+04</pdfrwt>
<totfact> 0.40253901E-02</totfact>
</mgrwt>
</event>
