<LesHouchesEvents version="3.0">
  <!--
  <scalesfunctionalform>
    muR  H_T/2 := sum_i mT(i)/2, i=final state
    muF1 H_T/2 := sum_i mT(i)/2, i=final state
    muF2 H_T/2 := sum_i mT(i)/2, i=final state
    QES  H_T/2 := sum_i mT(i)/2, i=final state
  </scalesfunctionalform>
HERWIG6   
  -->
  <header>
      752
  </header>
  <init>
   2212   2212 0.65000000D+04 0.65000000D+04 -1 -1   244800   244800 -4   1
 0.40663176D-03 0.20934677D-05 0.58687835D-06     66
  </init>
  <event>
  8     66 0.58687835E-06 0.36646756E+03 0.75467711E-02 0.92397838E-01
       -1 -1    0    0    0  501 0.00000000E+00 0.00000000E+00 0.32013096E+03 0.32013112E+03 0.32000000E+00 0.0000E+00 0.9000E+01
        1 -1    0    0  501    0 0.00000000E+00 0.00000000E+00 -.91889914E+03 0.91889920E+03 0.32000000E+00 0.0000E+00 0.9000E+01
       25  2    1    2    0    0 0.41999446E+03 -.25846893E+03 -.37535222E+03 0.69019005E+03 0.30376221E+03 0.0000E+00 0.0000E+00
       23  2    1    2    0    0 -.41999446E+03 0.25846893E+03 -.22341596E+03 0.54884027E+03 0.90052276E+02 0.0000E+00 0.0000E+00
       23  1    3    3    0    0 0.11621177E+03 -.13316316E+03 -.26585899E+03 0.33201484E+03 0.91188000E+02 0.0000E+00 0.9000E+01
      -11  1    4    4    0    0 -.14063499E+03 0.12846459E+03 -.11330504E+03 0.22162893E+03 0.51099893E-03 0.0000E+00 0.9000E+01
       11  1    4    4    0    0 -.27935948E+03 0.13000434E+03 -.11011092E+03 0.32721134E+03 0.51099893E-03 0.0000E+00 0.9000E+01
       23  1    3    3    0    0 0.30378269E+03 -.12530577E+03 -.10949323E+03 0.35817521E+03 0.91188000E+02 0.0000E+00 0.9000E+01
#aMCatNLO 1  0  0  1  2 0.16711176D+03 0.00000000D+00  -5  7  0 0.00000000D+00 0.00000000D+00 0.00000000D+00 0.00000000D+00 0.00000000D+00
  <mgrwgt>
 0.9624079784D-04    7    2    0
 0.542372749230601D+03 0.000000000000000D+00 0.000000000000000D+00 0.542372749230601D+03
 0.542372749230601D+03 0.000000000000000D+00 0.000000000000000D+00 -.542372749230601D+03
 0.232486381429092D+03 0.116211773489550D+03 -.133163162093708D+03 -.120403746493254D+03
 0.190608315542473D+03 -.140634986526544D+03 0.128464592404136D+03 -.708371491922569D+01
 0.312970972370224D+03 -.279359476214689D+03 0.130004339620842D+03 0.548450934466067D+02
 0.348679829119412D+03 0.303782689251683D+03 -.125305769931270D+03 0.726423679658735D+02
 0.000000000000000D+00 -.000000000000000D+00 0.000000000000000D+00 0.000000000000000D+00
 0.111617476005911D+04 0.000000000000000D+00 0.000000000000000D+00 0.111617476005911D+04
 0.561075601312808D+03 0.000000000000000D+00 0.000000000000000D+00 -.561075601312808D+03
 0.262013883471536D+03 0.135577612267945D+03 -.165703568669919D+03 -.120403746493254D+03
 0.164769884977772D+03 -.126717507760351D+03 0.105079061689456D+03 -.708371491922569D+01
 0.277442551279684D+03 -.256237439841492D+03 0.911523966162766D+02 0.548450934466067D+02
 0.393315997120397D+03 0.332841059014316D+03 -.174132530152616D+03 0.726423679658735D+02
 0.579708044522528D+03 -.854637236804173D+02 0.143604640516803D+03 0.555099158746301D+03
0.118075622948D-04 0.000000000000D+00 0.000000000000D+00 0.113486738910D-07 0.000000000000D+00  7 -1 1 23 -11 11 23 21 0 0.49250934D-01 0.14136912D+00 0.26962706D+06 0.26962706D+06 0.26962706D+06 0.10879984D+01  1  2  2  1  7  1       -1 0.103220612833D-03 0.100000000000D+01
-.654462592183D-06 0.000000000000D+00 -.453441482147D-07 0.113486738910D-07 0.000000000000D+00  7 -1 1 23 -11 11 23 21 2 0.49250934D-01 0.14136912D+00 0.26962706D+06 0.26962706D+06 0.26962706D+06 0.10879984D+01  1  2  3  1  7  1       -1 -.677247647835D-05 0.100000000000D+01
0.752604757796D-06 0.000000000000D+00 0.000000000000D+00 0.113486738910D-07 0.000000000000D+00  7 -1 1 23 -11 11 23 21 2 0.49250934D-01 0.14136912D+00 0.26962706D+06 0.26962706D+06 0.26962706D+06 0.10879984D+01  1  2 15  1  7  1       -1 0.778806624022D-05 0.100000000000D+01
0.403433439923D-04 0.000000000000D+00 0.000000000000D+00 0.113486738910D-07 0.000000000000D+00  7 -1 1 23 -11 11 23 21 2 0.10131088D+00 0.14136912D+00 0.37390599D+06 0.37390599D+06 0.37390599D+06 0.10775460D+01  1  2 12  1  7  1       -1 0.959174104195D-04 0.100000000000D+01
-.430672659383D-04 0.000000000000D+00 -.369440791217D-05 0.113486738910D-07 0.000000000000D+00  7 -1 1 23 -11 11 23 21 2 0.10280949D+00 0.14136912D+00 0.26962706D+06 0.26962706D+06 0.26962706D+06 0.10879984D+01  1  2  5  1  7  1       -1 -.102677672209D-03 0.100000000000D+01
0.314644782634D-05 0.000000000000D+00 0.000000000000D+00 0.113486738910D-07 0.000000000000D+00  7 21 1 23 -11 11 23 1 2 0.10131088D+00 0.14136912D+00 0.37390599D+06 0.37390599D+06 0.37390599D+06 0.10775460D+01  1  2 12  3  7  1       -1 0.514756897623D-04 0.100000000000D+01
-.319943870936D-05 0.000000000000D+00 -.294021255918D-06 0.113486738910D-07 0.000000000000D+00  7 21 1 23 -11 11 23 1 2 0.10280949D+00 0.14136912D+00 0.26962706D+06 0.26962706D+06 0.26962706D+06 0.10879984D+01  1  2  5  3  7  1       -1 -.527108327276D-04 0.100000000000D+01
  </mgrwgt>
  </event>
  <event>
  8     66 0.58687835E-06 0.11098394E+03 0.75467711E-02 0.10474256E+00
       -1 -1    0    0    0  501 0.00000000E+00 0.00000000E+00 0.38225981E+02 0.38227321E+02 0.32000000E+00 0.0000E+00 0.9000E+01
        1 -1    0    0  501    0 0.00000000E+00 0.00000000E+00 -.11999957E+04 0.11999958E+04 0.32000000E+00 0.0000E+00 0.9000E+01
       25  2    1    2    0    0 -.19702877E+02 -.67008029E+02 -.81962113E+03 0.87720455E+03 0.30468138E+03 0.0000E+00 0.0000E+00
       23  2    1    2    0    0 0.19702877E+02 0.67008029E+02 -.34214860E+03 0.36101852E+03 0.91599304E+02 0.0000E+00 0.0000E+00
       23  1    3    3    0    0 -.29515073E+02 -.13560966E+03 -.66109737E+03 0.68163487E+03 0.91188000E+02 0.0000E+00 0.9000E+01
      -11  1    4    4    0    0 -.34973428E+02 0.42426684E+02 -.15163646E+03 0.16129718E+03 0.51099893E-03 0.0000E+00 0.9000E+01
       11  1    4    4    0    0 0.54676305E+02 0.24581346E+02 -.19051214E+03 0.19972134E+03 0.51099893E-03 0.0000E+00 0.9000E+01
       23  1    3    3    0    0 0.98121957E+01 0.68601633E+02 -.15852377E+03 0.19556968E+03 0.91188000E+02 0.0000E+00 0.9000E+01
#aMCatNLO 1  0  0  2  1 0.49046965D+02 0.00000000D+00  -5  7  0 0.00000000D+00 0.00000000D+00 0.00000000D+00 0.00000000D+00 0.00000000D+00
  <mgrwgt>
 0.1714224567D-03    9    2    0
 0.214177191320581D+03 0.000000000000000D+00 0.000000000000000D+00 0.214177191320581D+03
 0.214177191320581D+03 0.000000000000000D+00 0.000000000000000D+00 -.214177191320581D+03
 0.177360432100353D+03 -.295150743112659D+02 -.135609664564294D+03 -.622924617910090D+02
 0.549900818830921D+02 -.349734253469373D+02 0.424266921087749D+02 -.862798770625239D+00
 0.606235081704114D+02 0.546763078525804D+02 0.245813550844023D+02 -.902596724524964D+01
 0.135380360487305D+03 0.981219180562283D+01 0.686016173711163D+02 0.721812278068839D+02
 0.000000000000000D+00 0.000000000000000D+00 0.000000000000000D+00 -.000000000000000D+00
 0.224054606142214D+03 0.000000000000000D+00 0.000000000000000D+00 0.224054606142214D+03
 0.286513230030311D+03 0.000000000000000D+00 0.000000000000000D+00 -.286513230030311D+03
 0.187627481920391D+03 -.487304220148489D+02 -.143644755567536D+03 -.622924617910090D+02
 0.571697475414399D+02 -.408782513369959D+02 0.399575297017067D+02 -.862798770625239D+00
 0.541579342523642D+02 0.486334630312938D+02 0.220544787141946D+02 -.902596724524964D+01
 0.132198036283915D+03 -.427488268209315D+01 0.627109654180868D+02 0.721812278068839D+02
 0.794146361744150D+02 0.452500930026441D+02 0.189217817335477D+02 -.624586238880969D+02
0.726883620254D-06 0.000000000000D+00 0.000000000000D+00 0.118041851247D-08 0.000000000000D+00  7 -1 1 23 -11 11 23 21 0 0.58810265D-02 0.18461483D+00 0.39110020D+05 0.39110020D+05 0.39110020D+05 0.11567990D+01  1  2  2  2  7  2        1 0.123090259679D-03 0.100000000000D+01
-.400702540788D-07 0.000000000000D+00 -.279142449463D-08 0.118041851247D-08 0.000000000000D+00  7 -1 1 23 -11 11 23 21 2 0.58810265D-02 0.18461483D+00 0.39110020D+05 0.39110020D+05 0.39110020D+05 0.11567990D+01  1  2  3  2  7  2        1 -.908022714027D-05 0.100000000000D+01
0.478805499856D-07 0.000000000000D+00 0.000000000000D+00 0.118041851247D-08 0.000000000000D+00  7 -1 1 23 -11 11 23 21 2 0.58810265D-02 0.18461483D+00 0.39110020D+05 0.39110020D+05 0.39110020D+05 0.11567990D+01  1  2 15  2  7  2        1 0.108501001420D-04 0.100000000000D+01
0.121282266703D-05 0.000000000000D+00 0.000000000000D+00 0.118041851247D-08 0.000000000000D+00  7 -1 1 23 -11 11 23 21 2 0.58810265D-02 0.25015762D+00 0.50030199D+05 0.50030199D+05 0.50030199D+05 0.11472723D+01  1  2 12  2  7  2        1 0.140903949324D-03 0.100000000000D+01
-.124908590857D-05 0.000000000000D+00 0.000000000000D+00 0.118041851247D-08 0.000000000000D+00  7 -1 1 23 -11 11 23 21 2 0.58810265D-02 0.18461483D+00 0.39110020D+05 0.39110020D+05 0.39110020D+05 0.11567990D+01  1  2  4  2  7  2        1 -.283052454451D-03 0.100000000000D+01
-.166335619455D-05 0.000000000000D+00 -.319115086323D-06 0.118041851247D-08 0.000000000000D+00  7 -1 1 23 -11 11 23 21 2 0.58810265D-02 0.25151274D+00 0.39110020D+05 0.39110020D+05 0.39110020D+05 0.11567990D+01  1  2  5  2  7  2        1 -.194385409969D-03 0.100000000000D+01
0.169501993120D-05 0.000000000000D+00 0.304443559727D-06 0.118041851247D-08 0.000000000000D+00  7 -1 1 23 -11 11 23 21 2 0.58810265D-02 0.18461483D+00 0.39110020D+05 0.39110020D+05 0.39110020D+05 0.11567990D+01  1  2  6  2  7  2        1 0.384104526822D-03 0.100000000000D+01
0.473123221177D-07 0.000000000000D+00 0.000000000000D+00 0.118041851247D-08 0.000000000000D+00  7 -1 21 23 -11 11 23 -1 2 0.58810265D-02 0.25015762D+00 0.50030199D+05 0.50030199D+05 0.50030199D+05 0.11472723D+01  1  2 12  4  7  2        1 0.413070742217D-05 0.100000000000D+01
-.582210563103D-07 0.000000000000D+00 -.126080568598D-07 0.118041851247D-08 0.000000000000D+00  7 -1 21 23 -11 11 23 -1 2 0.58810265D-02 0.25151274D+00 0.39110020D+05 0.39110020D+05 0.39110020D+05 0.11567990D+01  1  2  5  4  7  2        1 -.513899512188D-05 0.100000000000D+01
  </mgrwgt>
  </event>
  <event>
  8     66 0.58687835E-06 0.45382193E+03 0.75467711E-02 0.87433984E-01
       -1 -1    0    0    0  501 0.00000000E+00 0.00000000E+00 0.63894825E+03 0.63894833E+03 0.32000000E+00 0.0000E+00 0.9000E+01
        1 -1    0    0  501    0 0.00000000E+00 0.00000000E+00 -.17998098E+04 0.17998099E+04 0.32000000E+00 0.0000E+00 0.9000E+01
       25  2    1    2    0    0 -.92245593E+03 0.26314469E+03 -.10738376E+04 0.14707829E+04 0.29984179E+03 0.0000E+00 0.0000E+00
       23  2    1    2    0    0 0.92245593E+03 -.26314469E+03 -.87023949E+02 0.96797527E+03 0.96087923E+02 0.0000E+00 0.0000E+00
       23  1    3    3    0    0 -.23210471E+03 -.15987678E+02 -.33402285E+03 0.41715071E+03 0.91188000E+02 0.0000E+00 0.9000E+01
      -13  1    4    4    0    0 0.18524438E+03 -.38869160E+02 0.18635775E+02 0.19019358E+03 0.10565837E+00 0.0000E+00 0.9000E+01
       13  1    4    4    0    0 0.73721154E+03 -.22427553E+03 -.10565972E+03 0.77778169E+03 0.10565837E+00 0.0000E+00 0.9000E+01
       23  1    3    3    0    0 -.69035122E+03 0.27913237E+03 -.73981479E+03 0.10536322E+04 0.91188000E+02 0.0000E+00 0.9000E+01
#aMCatNLO 1  0  0  2  1 0.28159288D+02 0.00000000D+00  -5  7  0 0.00000000D+00 0.00000000D+00 0.00000000D+00 0.00000000D+00 0.00000000D+00
  <mgrwgt>
 0.4942494580D-03    9    2    0
 0.107237376082389D+04 0.000000000000000D+00 0.000000000000000D+00 0.107237376082389D+04
 0.107237376082389D+04 0.000000000000000D+00 0.000000000000000D+00 -.107237376082389D+04
 0.293542907766344D+03 -.232104709148473D+03 -.159876778485282D+02 -.154025924779027D+03
 0.226352116047077D+03 0.185243716195865D+03 -.388689354491247D+02 0.124134007854362D+03
 0.827214720334029D+03 0.737212209128660D+03 -.224275757892099D+03 0.300836727596333D+03
 0.797637777500335D+03 -.690351216176053D+03 0.279132371189752D+03 -.270944810671668D+03
 0.000000000000000D+00 -.000000000000000D+00 -.000000000000000D+00 -.000000000000000D+00
 0.108103708093271D+04 0.000000000000000D+00 0.000000000000000D+00 0.108103708093271D+04
 0.109559520223374D+04 0.000000000000000D+00 0.000000000000000D+00 -.109559520223374D+04
 0.290535922811099D+03 -.228339404579043D+03 -.152644001569240D+02 -.154025924779027D+03
 0.228663831787946D+03 0.188177007967206D+03 -.383054791703416D+02 0.124134007854362D+03
 0.836235928978813D+03 0.747935758764395D+03 -.222215870283190D+03 0.300836727596333D+03
 0.789496687648679D+03 -.680119644098671D+03 0.281097754785462D+03 -.270944810671668D+03
 0.316999119399192D+02 -.276537180538874D+02 -.531200517500580D+01 -.145581213010281D+02
0.286756917191D-03 0.000000000000D+00 0.000000000000D+00 0.647413773063D-06 0.000000000000D+00  7 -1 1 23 -13 13 23 21 0 0.98299740D-01 0.27689383D+00 0.96034769D+06 0.96034769D+06 0.96034769D+06 0.10490356D+01  1  2  2  2  7  2        1 0.141387469381D-03 0.100000000000D+01
-.157736803591D-04 0.000000000000D+00 -.110122206684D-05 0.647413773063D-06 0.000000000000D+00  7 -1 1 23 -13 13 23 21 2 0.98299740D-01 0.27689383D+00 0.96034769D+06 0.96034769D+06 0.96034769D+06 0.10490356D+01  1  2  3  2  7  2        1 -.855875393488D-05 0.100000000000D+01
0.182905486114D-04 0.000000000000D+00 0.000000000000D+00 0.647413773063D-06 0.000000000000D+00  7 -1 1 23 -13 13 23 21 2 0.98299740D-01 0.27689383D+00 0.96034769D+06 0.96034769D+06 0.96034769D+06 0.10490356D+01  1  2 15  2  7  2        1 0.992439946384D-05 0.100000000000D+01
0.346035614993D-03 0.000000000000D+00 0.000000000000D+00 0.647413773063D-06 0.000000000000D+00  7 -1 1 23 -13 13 23 21 2 0.98299740D-01 0.28399138D+00 0.98837393D+06 0.98837393D+06 0.98837393D+06 0.10482022D+01  1  2 12  2  7  2        1 0.174162236168D-03 0.100000000000D+01
-.335554358277D-03 0.000000000000D+00 0.000000000000D+00 0.647413773063D-06 0.000000000000D+00  7 -1 1 23 -13 13 23 21 2 0.98299740D-01 0.27689383D+00 0.96034769D+06 0.96034769D+06 0.96034769D+06 0.10490356D+01  1  2  4  2  7  2        1 -.182070836918D-03 0.100000000000D+01
-.951416179834D-02 0.000000000000D+00 -.114266169449D-02 0.647413773063D-06 0.000000000000D+00  7 -1 1 23 -13 13 23 21 2 0.98299740D-01 0.28393568D+00 0.96034769D+06 0.96034769D+06 0.96034769D+06 0.10490356D+01  1  2  5  2  7  2        1 -.480831114960D-02 0.100000000000D+01
0.954020974961D-02 0.000000000000D+00 0.114230145508D-02 0.647413773063D-06 0.000000000000D+00  7 -1 1 23 -13 13 23 21 2 0.98299740D-01 0.27689383D+00 0.96034769D+06 0.96034769D+06 0.96034769D+06 0.10490356D+01  1  2  6  2  7  2        1 0.517649057639D-02 0.100000000000D+01
0.110252538232D-04 0.000000000000D+00 0.000000000000D+00 0.647413773063D-06 0.000000000000D+00  7 -1 21 23 -13 13 23 -1 2 0.98299740D-01 0.28399138D+00 0.98837393D+06 0.98837393D+06 0.98837393D+06 0.10482022D+01  1  2 12  4  7  2        1 0.301246850201D-05 0.100000000000D+01
-.428976015032D-04 0.000000000000D+00 -.518349876508D-05 0.647413773063D-06 0.000000000000D+00  7 -1 21 23 -13 13 23 -1 2 0.98299740D-01 0.28393568D+00 0.96034769D+06 0.96034769D+06 0.96034769D+06 0.10490356D+01  1  2  5  4  7  2        1 -.117869514312D-04 0.100000000000D+01
  </mgrwgt>
  </event>
  <event>
  8     66 0.58687835E-06 0.29003947E+03 0.75467711E-02 0.86283932E-01
       -1 -1    0    0    0  501 0.00000000E+00 0.00000000E+00 0.40096963E+03 0.40096976E+03 0.32000000E+00 0.0000E+00 0.9000E+01
        1 -1    0    0  501    0 0.00000000E+00 0.00000000E+00 -.75507323E+03 0.75507330E+03 0.32000000E+00 0.0000E+00 0.9000E+01
       25  2    1    2    0    0 0.13979520E+03 -.17499633E+03 0.28660096E+03 0.47115513E+03 0.29946725E+03 0.0000E+00 0.0000E+00
       23  2    1    2    0    0 -.13979520E+03 0.17499633E+03 -.64070456E+03 0.68488792E+03 0.91666404E+02 0.0000E+00 0.0000E+00
       23  1    3    3    0    0 0.16043821E+03 -.47078285E+02 0.23922780E+03 0.30578093E+03 0.91188000E+02 0.0000E+00 0.9000E+01
      -11  1    4    4    0    0 -.91768589E+02 0.69003433E+02 -.41967544E+03 0.43509817E+03 0.51099893E-03 0.0000E+00 0.9000E+01
       11  1    4    4    0    0 -.48026609E+02 0.10599289E+03 -.22102912E+03 0.24978975E+03 0.51099893E-03 0.0000E+00 0.9000E+01
       23  1    3    3    0    0 -.20643015E+02 -.12791804E+03 0.47373163E+02 0.16537420E+03 0.91188000E+02 0.0000E+00 0.9000E+01
#aMCatNLO 1  0  0  1  1 0.10575116D+04 0.00000000D+00  -5  7  0 0.00000000D+00 0.00000000D+00 0.00000000D+00 0.00000000D+00 0.00000000D+00
  <mgrwgt>
 0.2812771578D-03    3    2    0
 0.550237717373285D+03 0.000000000000000D+00 0.000000000000000D+00 0.550237717373285D+03
 0.550237717373285D+03 0.000000000000000D+00 0.000000000000000D+00 -.550237717373285D+03
 0.398198200109479D+03 0.160438212091507D+03 -.470782848973576D+02 0.349699543062945D+03
 0.322027759852394D+03 -.917685887271926D+02 0.690034328022624D+02 -.300863641040380D+03
 0.191281416320481D+03 -.480266087816909D+02 0.105992892848048D+03 -.151814135521702D+03
 0.188968058464216D+03 -.206430145826240D+02 -.127918040752953D+03 0.102978233499137D+03
 0.000000000000000D+00 0.000000000000000D+00 0.000000000000000D+00 -.000000000000000D+00
 0.847051814914827D+03 0.000000000000000D+00 0.000000000000000D+00 0.847051814914827D+03
 0.409397908848529D+04 0.000000000000000D+00 0.000000000000000D+00 -.409397908848529D+04
 0.500767648050151D+03 -.473748745721877D+02 -.343393122864331D+03 0.349699543062945D+03
 0.442960981892257D+03 -.268610314150229D+03 -.183150211878101D+03 -.300863641040380D+03
 0.208393811320395D+03 -.140419153936884D+03 -.257470398315630D+02 -.151814135521702D+03
 0.374107220709276D+03 -.150808595431572D+03 -.313517483104487D+03 0.102978233499137D+03
 0.341480124142804D+04 0.607212938090873D+03 0.865807857678482D+03 -.324692727357046D+04
0.326893572188D-04 0.000000000000D+00 0.000000000000D+00 0.117298501665D-05 0.000000000000D+00  7 -1 1 23 -11 11 23 21 0 0.61687650D-01 0.11616513D+00 0.84122892D+05 0.84122892D+05 0.84122892D+05 0.11279363D+01  1  2  2  1  7  1       -1 0.269247397598D-03 0.100000000000D+01
-.910702104083D-06 0.000000000000D+00 -.125535739026D-06 0.117298501665D-05 0.000000000000D+00  7 -1 1 23 -11 11 23 21 2 0.61687650D-01 0.11616513D+00 0.84122892D+05 0.84122892D+05 0.84122892D+05 0.11279363D+01  1  2  3  1  7  1       -1 -.954312480058D-05 0.100000000000D+01
0.205870426964D-05 0.000000000000D+00 0.000000000000D+00 0.117298501665D-05 0.000000000000D+00  7 -1 1 23 -11 11 23 21 2 0.61687650D-01 0.11616513D+00 0.84122892D+05 0.84122892D+05 0.84122892D+05 0.11279363D+01  1  2 15  1  7  1       -1 0.215728850132D-04 0.100000000000D+01
  </mgrwgt>
  </event>
  <event>
  8     66 0.58687835E-06 0.15677347E+03 0.75467711E-02 0.99233127E-01
       -1 -1    0    0    0  501 0.00000000E+00 0.00000000E+00 0.97603406E+02 0.97603931E+02 0.32000000E+00 0.0000E+00 0.9000E+01
        1 -1    0    0  501    0 0.00000000E+00 0.00000000E+00 -.87873798E+03 0.87873804E+03 0.32000000E+00 0.0000E+00 0.9000E+01
       25  2    1    2    0    0 0.38424764E+02 -.16882105E+03 -.30700415E+03 0.46310931E+03 0.30040252E+03 0.0000E+00 0.0000E+00
       23  2    1    2    0    0 -.38424764E+02 0.16882105E+03 -.47413042E+03 0.51323266E+03 0.92903723E+02 0.0000E+00 0.0000E+00
       23  1    3    3    0    0 -.27222112E+02 -.20655426E+03 -.21630999E+03 0.31386458E+03 0.91188000E+02 0.0000E+00 0.9000E+01
      -11  1    4    4    0    0 -.33378455E+02 0.57194926E+02 -.81505436E+02 0.10501675E+03 0.51099893E-03 0.0000E+00 0.9000E+01
       11  1    4    4    0    0 -.50463086E+01 0.11162612E+03 -.39262498E+03 0.40821591E+03 0.51099893E-03 0.0000E+00 0.9000E+01
       23  1    3    3    0    0 0.65646876E+02 0.37733216E+02 -.90694161E+02 0.14924473E+03 0.91188000E+02 0.0000E+00 0.9000E+01
#aMCatNLO 1  0  0  2  1 0.14633785D+03 0.00000000D+00  -5  7  0 0.00000000D+00 0.00000000D+00 0.00000000D+00 0.00000000D+00 0.00000000D+00
  <mgrwgt>
 0.1352551733D-03    9    2    0
 0.292861920207049D+03 0.000000000000000D+00 0.000000000000000D+00 0.292861920207049D+03
 0.292861920207049D+03 0.000000000000000D+00 0.000000000000000D+00 -.292861920207049D+03
 0.234704365840945D+03 -.272221124786090D+02 -.206554263000938D+03 0.580101803922533D+02
 0.663547218220107D+02 -.333784553801607D+02 0.571949259851867D+02 0.419145154571285D+01
 0.156840775241019D+03 -.504630859694105D+01 0.111626121206710D+03 -.110059859222576D+03
 0.127823977510123D+03 0.656468764557107D+02 0.377332158090413D+02 0.478582272846100D+02
 0.000000000000000D+00 -.000000000000000D+00 0.000000000000000D+00 -.000000000000000D+00
 0.329820361177114D+03 0.000000000000000D+00 0.000000000000000D+00 0.329820361177114D+03
 0.493364706819017D+03 0.000000000000000D+00 0.000000000000000D+00 -.493364706819017D+03
 0.284411594699555D+03 0.253540288286273D+01 -.263064810566947D+03 0.580101803922533D+02
 0.518650076531158D+02 -.266016931857904D+02 0.443256209482369D+02 0.419145154571285D+01
 0.136397717957046D+03 0.117631321238388D+02 0.797044137700891D+02 -.110059859222576D+03
 0.131053419085131D+03 0.804866207353900D+02 0.955202981963565D+01 0.478582272846100D+02
 0.219457328601283D+03 -.681834625563011D+02 0.129482746028985D+03 -.163544345641904D+03
0.197752930862D-05 0.000000000000D+00 0.000000000000D+00 0.171208410318D-06 0.000000000000D+00  7 -1 1 23 -11 11 23 21 0 0.15015953D-01 0.13519050D+00 0.68620783D+05 0.68620783D+05 0.68620783D+05 0.11353950D+01  1  2  2  2  7  2        1 0.138638871622D-03 0.100000000000D+01
-.108201304978D-06 0.000000000000D+00 -.759423324053D-08 0.171208410318D-06 0.000000000000D+00  7 -1 1 23 -11 11 23 21 2 0.15015953D-01 0.13519050D+00 0.68620783D+05 0.68620783D+05 0.68620783D+05 0.11353950D+01  1  2  3  2  7  2        1 -.977886771137D-05 0.100000000000D+01
0.125134949170D-06 0.000000000000D+00 0.000000000000D+00 0.171208410318D-06 0.000000000000D+00  7 -1 1 23 -11 11 23 21 2 0.15015953D-01 0.13519050D+00 0.68620783D+05 0.68620783D+05 0.68620783D+05 0.11353950D+01  1  2 15  2  7  2        1 0.113092731576D-04 0.100000000000D+01
0.855070706190D-06 0.000000000000D+00 0.000000000000D+00 0.171208410318D-06 0.000000000000D+00  7 -1 1 23 -11 11 23 21 2 0.15015953D-01 0.23133707D+00 0.11527251D+06 0.11527251D+06 0.11527251D+06 0.11166917D+01  1  2 12  2  7  2        1 0.266645142338D-04 0.100000000000D+01
-.164685141841D-05 0.000000000000D+00 0.000000000000D+00 0.171208410318D-06 0.000000000000D+00  7 -1 1 23 -11 11 23 21 2 0.15015953D-01 0.13519050D+00 0.68620783D+05 0.68620783D+05 0.68620783D+05 0.11353950D+01  1  2  4  2  7  2        1 -.148836857044D-03 0.100000000000D+01
-.175309502206D-05 0.000000000000D+00 -.624873152884D-06 0.171208410318D-06 0.000000000000D+00  7 -1 1 23 -11 11 23 21 2 0.15015953D-01 0.24036939D+00 0.68620783D+05 0.68620783D+05 0.68620783D+05 0.11353950D+01  1  2  5  2  7  2        1 -.523777730247D-04 0.100000000000D+01
0.188306758263D-05 0.000000000000D+00 0.533980785247D-06 0.171208410318D-06 0.000000000000D+00  7 -1 1 23 -11 11 23 21 2 0.15015953D-01 0.13519050D+00 0.68620783D+05 0.68620783D+05 0.68620783D+05 0.11353950D+01  1  2  6  2  7  2        1 0.170185274438D-03 0.100000000000D+01
0.510853416481D-07 0.000000000000D+00 0.000000000000D+00 0.171208410318D-06 0.000000000000D+00  7 -1 21 23 -11 11 23 -1 2 0.15015953D-01 0.23133707D+00 0.11527251D+06 0.11527251D+06 0.11527251D+06 0.11166917D+01  1  2 12  4  7  2        1 0.128366748692D-05 0.100000000000D+01
-.783845493666D-07 0.000000000000D+00 -.395546282252D-07 0.171208410318D-06 0.000000000000D+00  7 -1 21 23 -11 11 23 -1 2 0.15015953D-01 0.24036939D+00 0.68620783D+05 0.68620783D+05 0.68620783D+05 0.11353950D+01  1  2  5  4  7  2        1 -.183292985943D-05 0.100000000000D+01
  </mgrwgt>
  </event>
  <event>
  8     66 0.58687835E-06 0.20999375E+03 0.75467711E-02 0.99088492E-01
       -1 -1    0    0    0  501 0.00000000E+00 0.00000000E+00 0.51872171E+03 0.51872181E+03 0.32000000E+00 0.0000E+00 0.9000E+01
        1 -1    0    0  501    0 0.00000000E+00 0.00000000E+00 -.10721752E+03 0.10721799E+03 0.32000000E+00 0.0000E+00 0.9000E+01
       25  2    1    2    0    0 0.32318233E+02 0.10497397E+03 0.20773692E+03 0.37722710E+03 0.29509600E+03 0.0000E+00 0.0000E+00
       23  2    1    2    0    0 -.32318233E+02 -.10497397E+03 0.20376728E+03 0.24871271E+03 0.90955508E+02 0.0000E+00 0.0000E+00
       23  1    3    3    0    0 -.80961360E+02 0.12146920E+02 0.15342030E+03 0.19635511E+03 0.91188000E+02 0.0000E+00 0.9000E+01
      -13  1    4    4    0    0 0.85323431E+01 -.71768573E+02 0.54751162E+02 0.90670998E+02 0.10565837E+00 0.0000E+00 0.9000E+01
       13  1    4    4    0    0 -.40850576E+02 -.33205400E+02 0.14901612E+03 0.15804171E+03 0.10565837E+00 0.0000E+00 0.9000E+01
       23  1    3    3    0    0 0.11327959E+03 0.92827054E+02 0.54316615E+02 0.18087198E+03 0.91188000E+02 0.0000E+00 0.9000E+01
#aMCatNLO 1  0  0  1  1 0.21588704D+03 0.00000000D+00  -5  7  0 0.00000000D+00 0.00000000D+00 0.00000000D+00 0.00000000D+00 0.00000000D+00
  <mgrwgt>
 0.2617540533D-03    5    2    0
 0.235830942996337D+03 0.000000000000000D+00 0.000000000000000D+00 0.235830942996337D+03
 0.235830942996337D+03 0.000000000000000D+00 0.000000000000000D+00 -.235830942996337D+03
 0.126729292405568D+03 -.809613456664315D+02 0.121469314252168D+02 0.322920233873271D+02
 0.725609883100166D+02 0.853240645783398D+01 -.717686332029843D+02 -.644657682341312D+01
 0.797262815026351D+02 -.408506445250187D+02 -.332053579547371D+02 0.598741096570608D+02
 0.192645323774454D+03 0.113279583733616D+03 0.928270597325046D+02 -.857195562209748D+02
 0.000000000000000D+00 0.000000000000000D+00 0.000000000000000D+00 0.000000000000000D+00
 0.398666227201929D+03 0.000000000000000D+00 0.000000000000000D+00 0.398666227201929D+03
 0.343002973365678D+03 0.000000000000000D+00 0.000000000000000D+00 -.343002973365678D+03
 0.144828981414694D+03 -.981732587668175D+02 -.444906619671322D+02 0.322920233873271D+02
 0.110095492153027D+03 -.304473101886511D+01 -.109864410309708D+03 -.644657682341312D+01
 0.107659595205346D+03 -.527275407092688D+02 -.722875223209753D+02 0.598741096570608D+02
 0.156137579201704D+03 0.911730173142871D+02 0.200830996127642D+02 -.857195562209748D+02
 0.222947552592835D+03 0.627725131806643D+02 0.206559494985052D+03 0.556632538362508D+02
0.381229269103D-05 0.000000000000D+00 0.000000000000D+00 0.214002321495D-08 0.000000000000D+00  7 -1 1 23 -13 13 23 21 0 0.79803385D-01 0.16495047D-01 0.44097373D+05 0.44097373D+05 0.44097373D+05 0.11521254D+01  1  2  2  1  7  1       -1 0.261501514270D-03 0.100000000000D+01
-.208326736697D-06 0.000000000000D+00 -.146402077333D-07 0.214002321495D-08 0.000000000000D+00  7 -1 1 23 -13 13 23 21 2 0.79803385D-01 0.16495047D-01 0.44097373D+05 0.44097373D+05 0.44097373D+05 0.11521254D+01  1  2  3  1  7  1       -1 -.189684767589D-04 0.100000000000D+01
0.252230166549D-06 0.000000000000D+00 0.000000000000D+00 0.214002321495D-08 0.000000000000D+00  7 -1 1 23 -13 13 23 21 2 0.79803385D-01 0.16495047D-01 0.44097373D+05 0.44097373D+05 0.44097373D+05 0.11521254D+01  1  2 15  1  7  1       -1 0.229659530405D-04 0.100000000000D+01
-.489855354385D-06 0.000000000000D+00 -.113817815041D-05 0.214002321495D-08 0.000000000000D+00  7 -1 1 23 -13 13 23 21 2 0.17770811D+00 0.16495047D-01 0.44097373D+05 0.44097373D+05 0.44097373D+05 0.11521254D+01  1  2  5  1  7  1       -1 -.620067373164D-05 0.100000000000D+01
0.293101684168D-07 0.000000000000D+00 -.988570649253D-07 0.214002321495D-08 0.000000000000D+00  7 21 1 23 -13 13 23 1 2 0.17770811D+00 0.16495047D-01 0.44097373D+05 0.44097373D+05 0.44097373D+05 0.11521254D+01  1  2  5  3  7  1       -1 0.245573645334D-05 0.100000000000D+01
  </mgrwgt>
  </event>
  <event>
  8     66 0.58687835E-06 0.74760275E+02 0.75467711E-02 0.10613868E+00
       -1 -1    0    0    0  501 0.00000000E+00 0.00000000E+00 0.12572247E+02 0.12576319E+02 0.32000000E+00 0.0000E+00 0.9000E+01
        1 -1    0    0  501    0 0.00000000E+00 0.00000000E+00 -.34730331E+04 0.34730331E+04 0.32000000E+00 0.0000E+00 0.9000E+01
       25  2    1    2    0    0 -.10928899E+02 -.47091504E+02 -.28930306E+04 0.29088827E+04 0.29939123E+03 0.0000E+00 0.0000E+00
       23  2    1    2    0    0 0.10928899E+02 0.47091504E+02 -.56743021E+03 0.57672676E+03 0.91102429E+02 0.0000E+00 0.0000E+00
       23  1    3    3    0    0 -.19690166E+01 0.96370413E+02 -.13374150E+04 0.13439812E+04 0.91188000E+02 0.0000E+00 0.9000E+01
      -11  1    4    4    0    0 -.33810141E+02 0.11197015E+02 -.10779569E+03 0.11352713E+03 0.51099893E-03 0.0000E+00 0.9000E+01
       11  1    4    4    0    0 0.44739040E+02 0.35894489E+02 -.45963453E+03 0.46319963E+03 0.51099893E-03 0.0000E+00 0.9000E+01
       23  1    3    3    0    0 -.89598824E+01 -.14346192E+03 -.15556156E+04 0.15649015E+04 0.91188000E+02 0.0000E+00 0.9000E+01
#aMCatNLO 1  0  0  2  1 0.91877510D+01 0.00000000D+00  -5  7  0 0.00000000D+00 0.00000000D+00 0.00000000D+00 0.00000000D+00 0.00000000D+00
  <mgrwgt>
 0.8361394638D-03   11    2    0
 0.208975963342952D+03 0.000000000000000D+00 0.000000000000000D+00 0.208975963342952D+03
 0.208975963342952D+03 0.000000000000000D+00 0.000000000000000D+00 -.208975963342952D+03
 0.135233354139291D+03 -.196901662494533D+01 0.963704131729743D+02 -.261089097084438D+02
 0.542848939727766D+02 -.338101413959497D+02 0.111970152627392D+02 0.409676811844101D+02
 0.573886635272450D+02 0.447390404642582D+02 0.358944886433339D+02 0.186081831847675D+01
 0.171045015046592D+03 -.895988244336315D+01 -.143461917079047D+03 -.167195897944431D+02
 0.000000000000000D+00 -.000000000000000D+00 -.000000000000000D+00 -.000000000000000D+00
 0.210754263241134D+03 0.000000000000000D+00 0.000000000000000D+00 0.210754263241134D+03
 0.221240557650653D+03 0.000000000000000D+00 0.000000000000000D+00 -.221240557650653D+03
 0.137361099530249D+03 -.158131287556624D+01 0.993410519552957D+02 -.261089097084438D+02
 0.544458944400818D+02 -.336554965241516D+02 0.123819252729890D+02 0.409676811844101D+02
 0.583122314382995D+02 0.449035987308729D+02 0.371553564310204D+02 0.186081831847675D+01
 0.167933675297118D+03 -.847776218215933D+01 -.139767846160289D+03 -.167195897944431D+02
 0.139419201860388D+02 -.118902714899581D+01 -.911048749901627D+01 -.104862944095184D+02
0.965432334979D-05 0.000000000000D+00 0.000000000000D+00 0.705384672968D-07 0.000000000000D+00  7 -1 1 23 -11 11 23 21 0 0.19345063D-02 0.53431310D+00 0.39182108D+05 0.39182108D+05 0.39182108D+05 0.11567269D+01  1  2  2  2  7  2        1 0.223268327504D-03 0.100000000000D+01
-.534433361927D-06 0.000000000000D+00 -.370751437049D-07 0.705384672968D-07 0.000000000000D+00  7 -1 1 23 -11 11 23 21 2 0.19345063D-02 0.53431310D+00 0.39182108D+05 0.39182108D+05 0.39182108D+05 0.11567269D+01  1  2  3  2  7  2        1 -.165371427191D-04 0.100000000000D+01
0.640111138926D-06 0.000000000000D+00 0.000000000000D+00 0.705384672968D-07 0.000000000000D+00  7 -1 1 23 -11 11 23 21 2 0.19345063D-02 0.53431310D+00 0.39182108D+05 0.39182108D+05 0.39182108D+05 0.11567269D+01  1  2 15  2  7  2        1 0.198071640257D-04 0.100000000000D+01
0.332097207056D-04 0.000000000000D+00 0.000000000000D+00 0.705384672968D-07 0.000000000000D+00  7 -1 1 23 -11 11 23 21 2 0.19345063D-02 0.56786367D+00 0.41064476D+05 0.41064476D+05 0.41064476D+05 0.11548931D+01  1  2 12  2  7  2        1 0.677902423955D-03 0.100000000000D+01
-.338343927686D-04 0.000000000000D+00 0.000000000000D+00 0.705384672968D-07 0.000000000000D+00  7 -1 1 23 -11 11 23 21 2 0.19345063D-02 0.53431310D+00 0.39182108D+05 0.39182108D+05 0.39182108D+05 0.11567269D+01  1  2  4  2  7  2        1 -.104694845399D-02 0.100000000000D+01
-.938593574008D-04 0.000000000000D+00 -.107553043649D-04 0.705384672968D-07 0.000000000000D+00  7 -1 1 23 -11 11 23 21 2 0.19345063D-02 0.56673655D+00 0.39182108D+05 0.39182108D+05 0.39182108D+05 0.11567269D+01  1  2  5  2  7  2        1 -.195277544556D-02 0.100000000000D+01
0.947719726851D-04 0.000000000000D+00 0.108304427697D-04 0.705384672968D-07 0.000000000000D+00  7 -1 1 23 -11 11 23 21 2 0.19345063D-02 0.53431310D+00 0.39182108D+05 0.39182108D+05 0.39182108D+05 0.11567269D+01  1  2  6  2  7  2        1 0.293255951016D-02 0.100000000000D+01
0.345121915062D-08 0.000000000000D+00 0.000000000000D+00 0.705384672968D-07 0.595330722300D-08  7 -1 1 23 -11 11 23 21 2 0.19509681D-02 0.56567141D+00 0.41064476D+05 0.41064476D+05 0.41064476D+05 0.11548931D+01  1  2 11  2  7  2        1 0.715489814803D-07 0.100000000000D+01
0.462424563322D-06 0.000000000000D+00 0.000000000000D+00 0.705384672968D-07 0.000000000000D+00  7 -1 21 23 -11 11 23 -1 2 0.19345063D-02 0.56786367D+00 0.41064476D+05 0.41064476D+05 0.41064476D+05 0.11548931D+01  1  2 12  4  7  2        1 0.111019119306D-05 0.100000000000D+01
-.938085167715D-06 0.000000000000D+00 -.108983232219D-06 0.705384672968D-07 0.000000000000D+00  7 -1 21 23 -11 11 23 -1 2 0.19345063D-02 0.56673655D+00 0.39182108D+05 0.39182108D+05 0.39182108D+05 0.11567269D+01  1  2  5  4  7  2        1 -.231874924754D-05 0.100000000000D+01
0.361504746472D-10 0.000000000000D+00 0.000000000000D+00 0.705384672968D-07 0.589837498024D-10  7 -1 21 23 -11 11 23 -1 2 0.19509681D-02 0.56567141D+00 0.41064476D+05 0.41064476D+05 0.41064476D+05 0.11548931D+01  1  2 11  4  7  2        1 0.894676370930D-10 0.100000000000D+01
  </mgrwgt>
  </event>
  <event>
  8     66 0.58687835E-06 0.16647737E+03 0.75467711E-02 0.94863490E-01
       -1 -1    0    0    0  501 0.00000000E+00 0.00000000E+00 0.56935331E+03 0.56935340E+03 0.32000000E+00 0.0000E+00 0.9000E+01
        1 -1    0    0  501    0 0.00000000E+00 0.00000000E+00 -.65942786E+03 0.65942794E+03 0.32000000E+00 0.0000E+00 0.9000E+01
       25  2    1    2    0    0 -.23853395E+03 0.16380579E+03 0.44642779E+03 0.61035997E+03 0.29918347E+03 0.0000E+00 0.0000E+00
       23  2    1    2    0    0 0.23853395E+03 -.16380579E+03 -.53650233E+03 0.61842137E+03 0.10430463E+03 0.0000E+00 0.0000E+00
       23  1    3    3    0    0 -.21818491E+03 0.20535995E+03 0.35213045E+03 0.47126263E+03 0.91188000E+02 0.0000E+00 0.9000E+01
      -11  1    4    4    0    0 0.10542249E+03 -.12216372E+03 -.22265222E+03 0.27497616E+03 0.51099893E-03 0.0000E+00 0.9000E+01
       11  1    4    4    0    0 0.13311146E+03 -.41642076E+02 -.31385011E+03 0.34344521E+03 0.51099893E-03 0.0000E+00 0.9000E+01
       23  1    3    3    0    0 -.20349034E+02 -.41554155E+02 0.94297339E+02 0.13909734E+03 0.91188000E+02 0.0000E+00 0.9000E+01
#aMCatNLO 1  0  0  1  2 0.22121301D+03 0.00000000D+00  -5  7  0 0.00000000D+00 0.00000000D+00 0.00000000D+00 0.00000000D+00 0.00000000D+00
  <mgrwgt>
 0.1689115098D-03    9    2    0
 0.612737741924981D+03 0.000000000000000D+00 0.000000000000000D+00 0.612737741924981D+03
 0.612737741924981D+03 0.000000000000000D+00 0.000000000000000D+00 -.612737741924981D+03
 0.498416105520844D+03 -.218184913871742D+03 0.205359946381785D+03 0.387718968686619D+03
 0.259352615332227D+03 0.105422485246394D+03 -.122163715232782D+03 -.203041634559672D+03
 0.321303174926101D+03 0.133111462593109D+03 -.416420757032422D+02 -.289452943110001D+03
 0.146403588070789D+03 -.203490339677616D+02 -.415541554457603D+02 0.104775608983054D+03
 0.000000000000000D+00 -.000000000000000D+00 -.000000000000000D+00 0.000000000000000D+00
 0.740541187078327D+03 0.000000000000000D+00 0.000000000000000D+00 0.740541187078327D+03
 0.726404315266890D+03 0.000000000000000D+00 0.000000000000000D+00 -.726404315266890D+03
 0.494410200113956D+03 -.144361066843403D+03 0.254872670824356D+03 0.387718968686619D+03
 0.267065547546339D+03 0.144565499194275D+03 -.959109887566178D+02 -.203041634559672D+03
 0.342264566191147D+03 0.182452543842823D+03 -.854963392521058D+01 -.289452943110001D+03
 0.141540922357618D+03 0.106173181258826D+01 -.271942244903883D+02 0.104775608983054D+03
 0.221664266136157D+03 -.183718708006284D+03 -.123217823652139D+03 0.141368718114373D+02
0.296738544112D-04 0.000000000000D+00 0.000000000000D+00 0.103005948185D-07 0.000000000000D+00  7 -1 1 23 -11 11 23 21 0 0.87592831D-01 0.10145045D+00 0.12826711D+06 0.12826711D+06 0.12826711D+06 0.11129564D+01  1  2  2  1  7  1       -1 0.147843895008D-03 0.100000000000D+01
-.107053842400D-05 0.000000000000D+00 -.113955414244D-06 0.103005948185D-07 0.000000000000D+00  7 -1 1 23 -11 11 23 21 2 0.87592831D-01 0.10145045D+00 0.12826711D+06 0.12826711D+06 0.12826711D+06 0.11129564D+01  1  2  3  1  7  1       -1 -.660675242397D-05 0.100000000000D+01
0.185963152415D-05 0.000000000000D+00 0.000000000000D+00 0.103005948185D-07 0.000000000000D+00  7 -1 1 23 -11 11 23 21 2 0.87592831D-01 0.10145045D+00 0.12826711D+06 0.12826711D+06 0.12826711D+06 0.11129564D+01  1  2 15  1  7  1       -1 0.114765848702D-04 0.100000000000D+01
0.589317981327D-05 0.000000000000D+00 0.000000000000D+00 0.103005948185D-07 0.000000000000D+00  7 -1 1 23 -11 11 23 21 2 0.11248108D+00 0.10145045D+00 0.23975650D+06 0.23975650D+06 0.23975650D+06 0.10918286D+01  1  2 12  1  7  1       -1 0.195316384502D-04 0.100000000000D+01
-.140999861327D-04 0.000000000000D+00 0.000000000000D+00 0.103005948185D-07 0.000000000000D+00  7 -1 1 23 -11 11 23 21 2 0.87592831D-01 0.10145045D+00 0.12826711D+06 0.12826711D+06 0.12826711D+06 0.11129564D+01  1  2  4  1  7  1       -1 -.870170705431D-04 0.100000000000D+01
-.201712463127D-04 0.000000000000D+00 -.137002337577D-04 0.103005948185D-07 0.000000000000D+00  7 -1 1 23 -11 11 23 21 2 0.12134835D+00 0.10145045D+00 0.12826711D+06 0.12826711D+06 0.12826711D+06 0.11129564D+01  1  2  5  1  7  1       -1 -.596574779294D-04 0.100000000000D+01
0.240452207126D-04 0.000000000000D+00 0.130032708562D-04 0.103005948185D-07 0.000000000000D+00  7 -1 1 23 -11 11 23 21 2 0.87592831D-01 0.10145045D+00 0.12826711D+06 0.12826711D+06 0.12826711D+06 0.11129564D+01  1  2  6  1  7  1       -1 0.148393384737D-03 0.100000000000D+01
0.199494779486D-06 0.000000000000D+00 0.000000000000D+00 0.103005948185D-07 0.000000000000D+00  7 21 1 23 -11 11 23 1 2 0.11248108D+00 0.10145045D+00 0.23975650D+06 0.23975650D+06 0.23975650D+06 0.10918286D+01  1  2 12  3  7  1       -1 0.445024082911D-05 0.100000000000D+01
-.479111950119D-06 0.000000000000D+00 -.562255621586D-06 0.103005948185D-07 0.000000000000D+00  7 21 1 23 -11 11 23 1 2 0.12134835D+00 0.10145045D+00 0.12826711D+06 0.12826711D+06 0.12826711D+06 0.11129564D+01  1  2  5  3  7  1       -1 -.950293323109D-05 0.100000000000D+01
  </mgrwgt>
  </event>
  <event>
  8     66 0.58687835E-06 0.28953295E+03 0.75467711E-02 0.98245977E-01
       -1 -1    0    0    0  501 0.00000000E+00 0.00000000E+00 0.11123529E+04 0.11123529E+04 0.32000000E+00 0.0000E+00 0.9000E+01
        1 -1    0    0  501    0 0.00000000E+00 0.00000000E+00 -.97747113E+02 0.97747637E+02 0.32000000E+00 0.0000E+00 0.9000E+01
       25  2    1    2    0    0 -.17856375E+03 -.14250048E+03 0.43228087E+03 0.57370733E+03 0.30013656E+03 0.0000E+00 0.0000E+00
       23  2    1    2    0    0 0.17856375E+03 0.14250048E+03 0.58232488E+03 0.63639322E+03 0.11705836E+03 0.0000E+00 0.0000E+00
       23  1    3    3    0    0 -.16080900E+03 -.16265001E+03 0.18262041E+03 0.30656162E+03 0.91188000E+02 0.0000E+00 0.9000E+01
      -11  1    4    4    0    0 0.93505260E+02 0.11534807E+03 0.47003686E+03 0.49293312E+03 0.51099893E-03 0.0000E+00 0.9000E+01
       11  1    4    4    0    0 0.85058487E+02 0.27152416E+02 0.11228802E+03 0.14346010E+03 0.51099893E-03 0.0000E+00 0.9000E+01
       23  1    3    3    0    0 -.17754744E+02 0.20149528E+02 0.24966046E+03 0.26714571E+03 0.91188000E+02 0.0000E+00 0.9000E+01
#aMCatNLO 1  0  0  2  2 0.14234638D+03 0.00000000D+00  -5  7  0 0.00000000D+00 0.00000000D+00 0.00000000D+00 0.00000000D+00 0.00000000D+00
  <mgrwgt>
 0.2018909311D-03    3    2    0
 0.329741757175087D+03 0.000000000000000D+00 0.000000000000000D+00 0.329741757175087D+03
 0.329741757175087D+03 0.000000000000000D+00 0.000000000000000D+00 -.329741757175087D+03
 0.281557708680855D+03 -.160809004376765D+03 -.162650011255165D+03 -.136546438707355D+03
 0.181348787455287D+03 0.935052621361143D+02 0.115348066458086D+03 0.104110384826588D+03
 0.904845513271744D+02 0.850584861337561D+02 0.271524171657678D+02 -.146715441440151D+02
 0.106092466886859D+03 -.177547438931052D+02 0.201495276313108D+02 0.471075980247824D+02
 0.000000000000000D+00 0.000000000000000D+00 0.000000000000000D+00 0.000000000000000D+00
 0.633846505866036D+03 0.000000000000000D+00 0.000000000000000D+00 0.633846505866036D+03
 0.354419611455252D+03 0.000000000000000D+00 0.000000000000000D+00 -.354419611455252D+03
 0.337153595895312D+03 -.211764042661280D+03 -.204617585249240D+03 -.136546438707355D+03
 0.154117775238848D+03 0.658773338619352D+02 0.925931601095619D+02 0.104110384826588D+03
 0.746708099535141D+02 0.714568310569750D+02 0.159498259187669D+02 -.146715441440151D+02
 0.108728847116446D+03 -.354467243020725D+02 0.557806380923964D+01 0.471075980247824D+02
 0.313595089117167D+03 0.109876602044442D+03 0.904965354116711D+02 0.279426894410784D+03
0.167300385700D-04 0.000000000000D+00 0.000000000000D+00 0.258880073471D-08 0.000000000000D+00  7 -1 1 23 -11 11 23 21 0 0.17113125D+00 0.15038061D-01 0.83829329D+05 0.83829329D+05 0.83829329D+05 0.11280630D+01  1  2  2  2  7  2        1 0.199252115001D-03 0.100000000000D+01
-.910336421485D-06 0.000000000000D+00 -.642477532293D-07 0.258880073471D-08 0.000000000000D+00  7 -1 1 23 -11 11 23 21 2 0.17113125D+00 0.15038061D-01 0.83829329D+05 0.83829329D+05 0.83829329D+05 0.11280630D+01  1  2  3  2  7  2        1 -.137966816414D-04 0.100000000000D+01
0.108445150735D-05 0.000000000000D+00 0.000000000000D+00 0.258880073471D-08 0.000000000000D+00  7 -1 1 23 -11 11 23 21 2 0.17113125D+00 0.15038061D-01 0.83829329D+05 0.83829329D+05 0.83829329D+05 0.11280630D+01  1  2 15  2  7  2        1 0.164354977449D-04 0.100000000000D+01
  </mgrwgt>
  </event>
  <event>
  8     66 0.58687835E-06 0.16008769E+03 0.75467711E-02 0.95950504E-01
       -1 -1    0    0    0  501 0.00000000E+00 0.00000000E+00 0.24954328E+03 0.24954349E+03 0.32000000E+00 0.0000E+00 0.9000E+01
        1 -1    0    0  501    0 0.00000000E+00 0.00000000E+00 -.17587539E+04 0.17587539E+04 0.32000000E+00 0.0000E+00 0.9000E+01
       25  2    1    2    0    0 0.78395996E+02 -.37235457E+03 -.37691342E+02 0.48552614E+03 0.29920083E+03 0.0000E+00 0.0000E+00
       23  2    1    2    0    0 -.78395996E+02 0.37235457E+03 -.14715193E+04 0.15227713E+04 0.93110360E+02 0.0000E+00 0.0000E+00
       23  1    3    3    0    0 0.11303105E+03 -.16054330E+03 0.71566466E+02 0.22800697E+03 0.91188000E+02 0.0000E+00 0.9000E+01
      -11  1    4    4    0    0 0.53811315E+01 0.12155971E+02 -.14681620E+03 0.14741683E+03 0.51099893E-03 0.0000E+00 0.9000E+01
       11  1    4    4    0    0 -.83777127E+02 0.36019860E+03 -.13247031E+04 0.13753544E+04 0.51099893E-03 0.0000E+00 0.9000E+01
       23  1    3    3    0    0 -.34635054E+02 -.21181127E+03 -.10925781E+03 0.25751917E+03 0.91188000E+02 0.0000E+00 0.9000E+01
#aMCatNLO 1  0  0  2  1 0.59053396D+02 0.00000000D+00  -5  7  0 0.00000000D+00 0.00000000D+00 0.00000000D+00 0.00000000D+00 0.00000000D+00
  <mgrwgt>
 0.3771581584D-03    6    2    0
 0.662484305580912D+03 0.000000000000000D+00 0.000000000000000D+00 0.662484305580912D+03
 0.662484305580912D+03 0.000000000000000D+00 0.000000000000000D+00 -.662484305580912D+03
 0.427115538525073D+03 0.113031050214496D+03 -.160543300966711D+03 0.368187808200765D+03
 0.562128517492253D+02 0.538113146303911D+01 0.121559710399276D+02 -.546183164701578D+02
 0.575760694104763D+03 -.837771273475005D+02 0.360198598156673D+03 -.441292125122766D+03
 0.265879526782764D+03 -.346350543300342D+02 -.211811268229889D+03 0.127722633392159D+03
 0.000000000000000D+00 0.000000000000000D+00 -.000000000000000D+00 0.000000000000000D+00
 0.699745653325673D+03 0.000000000000000D+00 0.000000000000000D+00 0.699745653325673D+03
 0.686959963741162D+03 0.000000000000000D+00 0.000000000000000D+00 -.686959963741162D+03
 0.420455960518725D+03 0.951699101245398D+02 -.154429237811134D+03 0.368187808200765D+03
 0.562172113538733D+02 0.301185747297159D+01 0.129669993805141D+02 -.546183164701578D+02
 0.585064202411622D+03 -.108239554552732D+03 0.368572353925802D+03 -.441292125122766D+03
 0.264546578791225D+03 -.458128900521118D+02 -.207984973088412D+03 0.127722633392159D+03
 0.604216639913893D+02 0.558706770073321D+02 -.191251424067703D+02 0.127856895845113D+02
0.740823523368D-04 0.000000000000D+00 0.000000000000D+00 0.669754652322D-06 0.000000000000D+00  7 -1 1 23 -11 11 23 21 0 0.38391293D-01 0.27057754D+00 0.17338217D+06 0.17338217D+06 0.17338217D+06 0.11026211D+01  1  2  2  2  7  2        1 0.265184938341D-03 0.100000000000D+01
-.303660969713D-05 0.000000000000D+00 -.284495739305D-06 0.669754652322D-06 0.000000000000D+00  7 -1 1 23 -11 11 23 21 2 0.38391293D-01 0.27057754D+00 0.17338217D+06 0.17338217D+06 0.17338217D+06 0.11026211D+01  1  2  3  2  7  2        1 -.132152589203D-04 0.100000000000D+01
0.447899656913D-05 0.000000000000D+00 0.000000000000D+00 0.669754652322D-06 0.000000000000D+00  7 -1 1 23 -11 11 23 21 2 0.38391293D-01 0.27057754D+00 0.17338217D+06 0.17338217D+06 0.17338217D+06 0.11026211D+01  1  2 15  2  7  2        1 0.194924950086D-04 0.100000000000D+01
0.123565240253D-03 0.000000000000D+00 0.000000000000D+00 0.669754652322D-06 0.000000000000D+00  7 -1 1 23 -11 11 23 21 2 0.38391293D-01 0.28784374D+00 0.19856115D+06 0.19856115D+06 0.19856115D+06 0.10980663D+01  1  2 12  2  7  2        1 0.446728644869D-03 0.100000000000D+01
-.789979571663D-04 0.000000000000D+00 0.000000000000D+00 0.669754652322D-06 0.000000000000D+00  7 -1 1 23 -11 11 23 21 2 0.38391293D-01 0.27057754D+00 0.17338217D+06 0.17338217D+06 0.17338217D+06 0.11026211D+01  1  2  4  2  7  2        1 -.343797380058D-03 0.100000000000D+01
0.133853070010D-05 0.000000000000D+00 0.000000000000D+00 0.669754652322D-06 0.000000000000D+00  7 -1 21 23 -11 11 23 -1 2 0.38391293D-01 0.28784374D+00 0.19856115D+06 0.19856115D+06 0.19856115D+06 0.10980663D+01  1  2 12  4  7  2        1 0.276471913231D-05 0.100000000000D+01
  </mgrwgt>
  </event>
  <event>
  8     66 0.58687835E-06 0.17086404E+03 0.75467711E-02 0.97739971E-01
       -1 -1    0    0    0  501 0.00000000E+00 0.00000000E+00 0.14670107E+03 0.14670142E+03 0.32000000E+00 0.0000E+00 0.9000E+01
        1 -1    0    0  501    0 0.00000000E+00 0.00000000E+00 -.11690178E+04 0.11690178E+04 0.32000000E+00 0.0000E+00 0.9000E+01
       25  2    1    2    0    0 -.13731896E+03 -.24420498E+03 -.91129587E+03 0.99966725E+03 0.30063579E+03 0.0000E+00 0.0000E+00
       23  2    1    2    0    0 0.13731896E+03 0.24420498E+03 -.11102084E+03 0.31605199E+03 0.95240031E+02 0.0000E+00 0.0000E+00
       23  1    3    3    0    0 -.34867679E+02 -.43219833E+02 -.57353224E+03 0.58338512E+03 0.91188000E+02 0.0000E+00 0.9000E+01
      -13  1    4    4    0    0 0.51734183E+01 0.66717507E+02 -.57892447E+02 0.88484668E+02 0.10565837E+00 0.0000E+00 0.9000E+01
       13  1    4    4    0    0 0.13214555E+03 0.17748747E+03 -.53128389E+02 0.22756732E+03 0.10565837E+00 0.0000E+00 0.9000E+01
       23  1    3    3    0    0 -.10245129E+03 -.20098515E+03 -.33776362E+03 0.41628213E+03 0.91188000E+02 0.0000E+00 0.9000E+01
#aMCatNLO 1  0  0  2  1 0.11609340D+03 0.00000000D+00  -5  7  0 0.00000000D+00 0.00000000D+00 0.00000000D+00 0.00000000D+00 0.00000000D+00
  <mgrwgt>
 0.1478922195D-03    9    2    0
 0.414121258560489D+03 0.000000000000000D+00 0.000000000000000D+00 0.414121258560489D+03
 0.414121258560489D+03 0.000000000000000D+00 0.000000000000000D+00 -.414121258560489D+03
 0.218824106366879D+03 -.348676789122112D+02 -.432198333840600D+02 -.191010547229184D+03
 0.691057648857270D+02 0.517326411188368D+01 0.667173684531624D+02 0.172521542294011D+02
 0.295928895168144D+03 0.132145700939887D+03 0.177487612157723D+03 0.196493186266329D+03
 0.244383750700228D+03 -.102451286139560D+03 -.200985147226825D+03 -.227347932665459D+02
 0.000000000000000D+00 0.000000000000000D+00 -.000000000000000D+00 -.000000000000000D+00
 0.468106560163974D+03 0.000000000000000D+00 0.000000000000000D+00 0.468106560163974D+03
 0.485643122322347D+03 0.000000000000000D+00 0.000000000000000D+00 -.485643122322347D+03
 0.216176991704655D+03 -.417746366860091D+02 -.136781203180205D+02 -.191010547229184D+03
 0.787223317945399D+02 0.282604607938204D+01 0.767566424563490D+02 0.172521542294011D+02
 0.318829744371064D+03 0.122384548650390D+03 0.219236985698728D+03 0.196493186266329D+03
 0.222610184604510D+03 -.109866226943316D+03 -.169270742593105D+03 -.227347932665459D+02
 0.117410430011551D+03 0.264302688995534D+02 -.113044765243952D+03 -.175365621583731D+02
0.428092123280D-05 0.000000000000D+00 0.000000000000D+00 0.463651886660D-07 0.000000000000D+00  7 -1 1 23 -13 13 23 21 0 0.22569426D-01 0.17984892D+00 0.10185237D+06 0.10185237D+06 0.10185237D+06 0.11210685D+01  1  2  2  2  7  2        1 0.946889227577D-04 0.100000000000D+01
-.218203268613D-06 0.000000000000D+00 -.164398647264D-07 0.463651886660D-07 0.000000000000D+00  7 -1 1 23 -13 13 23 21 2 0.22569426D-01 0.17984892D+00 0.10185237D+06 0.10185237D+06 0.10185237D+06 0.11210685D+01  1  2  3  2  7  2        1 -.606579172624D-05 0.100000000000D+01
0.279525821555D-06 0.000000000000D+00 0.000000000000D+00 0.463651886660D-07 0.000000000000D+00  7 -1 1 23 -13 13 23 21 2 0.22569426D-01 0.17984892D+00 0.10185237D+06 0.10185237D+06 0.10185237D+06 0.11210685D+01  1  2 15  2  7  2        1 0.777048587050D-05 0.100000000000D+01
0.271496405470D-05 0.000000000000D+00 0.000000000000D+00 0.463651886660D-07 0.000000000000D+00  7 -1 1 23 -13 13 23 21 2 0.22569426D-01 0.22089246D+00 0.14694240D+06 0.14694240D+06 0.14694240D+06 0.11082584D+01  1  2 12  2  7  2        1 0.479178210368D-04 0.100000000000D+01
-.277754989793D-05 0.000000000000D+00 0.000000000000D+00 0.463651886660D-07 0.000000000000D+00  7 -1 1 23 -13 13 23 21 2 0.22569426D-01 0.17984892D+00 0.10185237D+06 0.10185237D+06 0.10185237D+06 0.11210685D+01  1  2  4  2  7  2        1 -.772125885060D-04 0.100000000000D+01
-.655774696469D-05 0.000000000000D+00 -.234688117682D-05 0.463651886660D-07 0.000000000000D+00  7 -1 1 23 -13 13 23 21 2 0.22569426D-01 0.22768776D+00 0.10185237D+06 0.10185237D+06 0.10185237D+06 0.11210685D+01  1  2  5  2  7  2        1 -.111932207819D-03 0.100000000000D+01
0.698002784074D-05 0.000000000000D+00 0.228308339280D-05 0.463651886660D-07 0.000000000000D+00  7 -1 1 23 -13 13 23 21 2 0.22569426D-01 0.17984892D+00 0.10185237D+06 0.10185237D+06 0.10185237D+06 0.11210685D+01  1  2  6  2  7  2        1 0.194036484395D-03 0.100000000000D+01
0.793402525496D-07 0.000000000000D+00 0.000000000000D+00 0.463651886660D-07 0.000000000000D+00  7 -1 21 23 -13 13 23 -1 2 0.22569426D-01 0.22089246D+00 0.14694240D+06 0.14694240D+06 0.14694240D+06 0.11082584D+01  1  2 12  4  7  2        1 0.118956449372D-05 0.100000000000D+01
-.176834604421D-06 0.000000000000D+00 -.760714199952D-07 0.463651886660D-07 0.000000000000D+00  7 -1 21 23 -13 13 23 -1 2 0.22569426D-01 0.22768776D+00 0.10185237D+06 0.10185237D+06 0.10185237D+06 0.11210685D+01  1  2  5  4  7  2        1 -.250047102957D-05 0.100000000000D+01
  </mgrwgt>
  </event>
  <event>
  9     66 0.58687835E-06 0.17139981E+03 0.75467711E-02 0.10460504E+00
       21 -1    0    0  502  501 0.00000000E+00 0.00000000E+00 0.58431477E+03 0.58431525E+03 0.75000000E+00 0.0000E+00 0.9000E+01
        1 -1    0    0  501    0 0.00000000E+00 0.00000000E+00 -.11256177E+04 0.11256178E+04 0.32000000E+00 0.0000E+00 0.9000E+01
       25  2    1    2    0    0 -.55744607E+02 -.65129224E+02 -.76754236E+02 0.32111540E+03 0.29979094E+03 0.0000E+00 0.0000E+00
       23  2    1    2    0    0 0.14157540E+02 -.11457187E+02 -.92018395E+03 0.92492265E+03 0.91715368E+02 0.0000E+00 0.0000E+00
       23  1    3    3    0    0 0.67243774E+02 -.30253823E+02 -.10979841E+03 0.16064857E+03 0.91188000E+02 0.0000E+00 0.9000E+01
      -11  1    4    4    0    0 0.46540885E+02 0.14597275E+02 -.37540719E+03 0.37856267E+03 0.51099893E-03 0.0000E+00 0.9000E+01
       11  1    4    4    0    0 -.32383345E+02 -.26054462E+02 -.54477675E+03 0.54635998E+03 0.51099893E-03 0.0000E+00 0.9000E+01
       23  1    3    3    0    0 -.12298838E+03 -.34875400E+02 0.33044176E+02 0.16046683E+03 0.91188000E+02 0.0000E+00 0.9000E+01
        1  1    1    2  502    0 0.41587067E+02 0.76586411E+02 0.45563524E+03 0.46389496E+03 0.32000000E+00 0.0000E+00 0.9000E+01
#aMCatNLO 2  0  0  1  2 0.87149082D+02 0.00000000D+00  -5  7  0 0.00000000D+00 0.00000000D+00 0.00000000D+00 0.00000000D+00 0.00000000D+00
  <mgrwgt>
 0.3122718638D-03    2    2    0
 0.371190690028633D+03 0.000000000000000D+00 0.000000000000000D+00 0.371190690028633D+03
 0.371190690028633D+03 0.000000000000000D+00 0.000000000000000D+00 -.371190690028633D+03
 0.122836371734900D+03 0.740600465119595D+02 -.177010300772071D+02 0.312298882778447D+02
 0.135374054225452D+03 0.539585870999741D+02 0.282576557376437D+02 -.120897106366624D+03
 0.180950698692674D+03 -.221910881544989D+02 -.728448283851176D+01 -.179437028713868D+03
 0.303220255404240D+03 -.105827545457435D+03 -.327214282192479D+01 0.269104246802647D+03
 0.000000000000000D+00 0.000000000000000D+00 0.000000000000000D+00 0.000000000000000D+00
 0.175336618356567D+04 0.000000000000000D+00 0.000000000000000D+00 0.175336618356567D+04
 0.375115845113055D+03 0.000000000000000D+00 0.000000000000000D+00 -.375115845113055D+03
 0.121357225672020D+03 0.672437739233287D+02 -.302538233205504D+02 0.312298882778447D+02
 0.130365811212208D+03 0.465408849991662D+02 0.145972747007317D+02 -.120897106366624D+03
 0.184187847822894D+03 -.323833450035559D+02 -.260544617743105D+02 -.179437028713868D+03
 0.311568262766473D+03 -.122988380830317D+03 -.348754003967676D+02 0.269104246802647D+03
 0.138100288120513D+04 0.415870669113777D+02 0.765864107908967D+02 0.137825033845262D+04
-.209257485792D-04 0.000000000000D+00 0.000000000000D+00 0.951914458837D-06 0.000000000000D+00  7 21 1 23 -11 11 23 1 2 0.89447881D-01 0.17135994D+00 0.51027780D+05 0.51027780D+05 0.51027780D+05 0.11465189D+01  1  2 13  3  7  1       -1 -.447607373211D-03 0.100000000000D+01
0.366601911514D-04 0.000000000000D+00 0.000000000000D+00 0.951914458837D-06 0.418360772999D-09  7 21 1 23 -11 11 23 1 2 0.89894616D-01 0.17317199D+00 0.51027780D+05 0.51027780D+05 0.51027780D+05 0.11465189D+01  1  2  1  3  7  1       -1 0.759879237005D-03 0.100000000000D+01
  </mgrwgt>
  </event>
  <event>
  8     66 0.58687835E-06 0.31480667E+03 0.75467711E-02 0.98086841E-01
       -1 -1    0    0    0  501 0.00000000E+00 0.00000000E+00 0.29477768E+02 0.29479505E+02 0.32000000E+00 0.0000E+00 0.9000E+01
        1 -1    0    0  501    0 0.00000000E+00 0.00000000E+00 -.34331514E+04 0.34331514E+04 0.32000000E+00 0.0000E+00 0.9000E+01
       25  2    1    2    0    0 0.23263744E+03 -.25197760E+02 -.18981293E+04 0.19358928E+04 0.30005132E+03 0.0000E+00 0.0000E+00
       23  2    1    2    0    0 -.23263744E+03 0.25197760E+02 -.15055443E+04 0.15267381E+04 0.97522271E+02 0.0000E+00 0.0000E+00
       23  1    3    3    0    0 0.19828230E+02 0.82793697E+02 -.58813309E+03 0.60121854E+03 0.91188000E+02 0.0000E+00 0.9000E+01
      -13  1    4    4    0    0 -.23513278E+03 0.36381851E+02 -.14759089E+04 0.14949643E+04 0.10565837E+00 0.0000E+00 0.9000E+01
       13  1    4    4    0    0 0.24953398E+01 -.11184091E+02 -.29635346E+02 0.31773818E+02 0.10565837E+00 0.0000E+00 0.9000E+01
       23  1    3    3    0    0 0.21280921E+03 -.10799146E+03 -.13099962E+04 0.13346742E+04 0.91188000E+02 0.0000E+00 0.9000E+01
#aMCatNLO 1  0  0  2  2 0.10676057D+03 0.00000000D+00  -5  7  0 0.00000000D+00 0.00000000D+00 0.00000000D+00 0.00000000D+00 0.00000000D+00
  <mgrwgt>
 0.3236641561D-03    4    2    0
 0.318126817390392D+03 0.000000000000000D+00 0.000000000000000D+00 0.318126817390392D+03
 0.318126817390392D+03 0.000000000000000D+00 0.000000000000000D+00 -.318126817390392D+03
 0.125712177461511D+03 0.198282374175756D+02 0.827936958281966D+02 0.155030690553440D+02
 0.240466140573284D+03 -.235133067581883D+03 0.363818967701748D+02 -.348247452129712D+02
 0.143838516960231D+02 0.249560262700943D+01 -.111841343908956D+02 0.869380785775918D+01
 0.255691465049965D+03 0.212809227537298D+03 -.107991458207476D+03 0.106278682998680D+02
 0.000000000000000D+00 0.000000000000000D+00 -.000000000000000D+00 0.000000000000000D+00
 0.496763823740210D+03 0.000000000000000D+00 0.000000000000000D+00 0.496763823740210D+03
 0.338932570482102D+03 0.000000000000000D+00 0.000000000000000D+00 -.338932570482102D+03
 0.137802326030558D+03 0.878341134308627D+01 0.101768051226678D+03 0.155030690553440D+02
 0.268952122163598D+03 -.256484591071241D+03 0.730625463570286D+02 -.348247452129712D+02
 0.127523911435339D+02 0.135822658695767D+01 -.923018988691599D+01 0.869380785775918D+01
 0.225641598562629D+03 0.192634854206601D+03 -.733330826987444D+02 0.106278682998680D+02
 0.190547956321993D+03 0.537080989345958D+02 -.922673249980458D+02 0.157831253258108D+03
0.501442730332D-04 0.000000000000D+00 0.000000000000D+00 0.272750522312D-07 0.000000000000D+00  7 -1 1 23 -13 13 23 21 0 0.45351760D-02 0.52817727D+00 0.99103241D+05 0.99103241D+05 0.99103241D+05 0.11220432D+01  1  2  2  2  7  2        1 0.352232476952D-03 0.100000000000D+01
-.278542012895D-05 0.000000000000D+00 -.192567211738D-06 0.272750522312D-07 0.000000000000D+00  7 -1 1 23 -13 13 23 21 2 0.45351760D-02 0.52817727D+00 0.99103241D+05 0.99103241D+05 0.99103241D+05 0.11220432D+01  1  2  3  2  7  2        1 -.246330359185D-04 0.100000000000D+01
0.327104894491D-05 0.000000000000D+00 0.000000000000D+00 0.272750522312D-07 0.000000000000D+00  7 -1 1 23 -13 13 23 21 2 0.45351760D-02 0.52817727D+00 0.99103241D+05 0.99103241D+05 0.99103241D+05 0.11220432D+01  1  2 15  2  7  2        1 0.289277245159D-04 0.100000000000D+01
-.371603761392D-05 0.000000000000D+00 0.000000000000D+00 0.272750522312D-07 0.000000000000D+00  7 -1 1 23 -13 13 23 21 2 0.45351760D-02 0.52817727D+00 0.99103241D+05 0.99103241D+05 0.99103241D+05 0.11220432D+01  1  2  4  2  7  2        1 -.328630094494D-04 0.100000000000D+01
  </mgrwgt>
  </event>
  <event>
  8     66 0.58687835E-06 0.31026530E+03 0.75467711E-02 0.90173133E-01
       -1 -1    0    0    0  501 0.00000000E+00 0.00000000E+00 0.13560571E+03 0.13560609E+03 0.32000000E+00 0.0000E+00 0.9000E+01
        1 -1    0    0  501    0 0.00000000E+00 0.00000000E+00 -.76151021E+03 0.76151028E+03 0.32000000E+00 0.0000E+00 0.9000E+01
       25  2    1    2    0    0 0.84597658E+01 -.23829475E+03 -.38722012E+03 0.54427135E+03 0.29905840E+03 0.0000E+00 0.0000E+00
       23  2    1    2    0    0 -.84597658E+01 0.23829475E+03 -.23868438E+03 0.35284502E+03 0.10331224E+03 0.0000E+00 0.0000E+00
       23  1    3    3    0    0 0.10423504E+03 -.42982840E+02 -.17197310E+03 0.22494992E+03 0.91188000E+02 0.0000E+00 0.9000E+01
      -11  1    4    4    0    0 -.16958575E+02 0.15879881E+03 -.21804588E+03 0.27027516E+03 0.51099893E-03 0.0000E+00 0.9000E+01
       11  1    4    4    0    0 0.84988095E+01 0.79495938E+02 -.20638496E+02 0.82569858E+02 0.51099893E-03 0.0000E+00 0.9000E+01
       23  1    3    3    0    0 -.95775271E+02 -.19531191E+03 -.21524702E+03 0.31932143E+03 0.91188000E+02 0.0000E+00 0.9000E+01
#aMCatNLO 1  0  0  1  2 0.63488980D+03 0.00000000D+00  -5  7  0 0.00000000D+00 0.00000000D+00 0.00000000D+00 0.00000000D+00 0.00000000D+00
  <mgrwgt>
 0.2600948065D-03    3    2    0
 0.321349238934969D+03 0.000000000000000D+00 0.000000000000000D+00 0.321349238934969D+03
 0.321349238934969D+03 0.000000000000000D+00 0.000000000000000D+00 -.321349238934969D+03
 0.146518966351137D+03 0.104235037066725D+03 -.429828401516388D+02 -.209782901305743D+02
 0.164917725327447D+03 -.169585751144204D+02 0.158798810209159D+03 -.411485204281154D+02
 0.951566647091882D+02 0.849880928522461D+01 0.794959385982156D+02 0.516038450670004D+02
 0.236105121482166D+03 -.957752712375296D+02 -.195311908655736D+03 0.105229654916893D+02
 0.000000000000000D+00 -.000000000000000D+00 0.000000000000000D+00 -.000000000000000D+00
 0.708594098024018D+03 0.000000000000000D+00 0.000000000000000D+00 0.708594098024018D+03
 0.843978093923306D+03 0.000000000000000D+00 0.000000000000000D+00 -.843978093923306D+03
 0.306391958021649D+03 0.228635434969139D+03 -.181236116202071D+03 -.209782901305743D+02
 0.103999202346776D+03 0.569044540268962D+02 0.767106020524117D+02 -.411485204281154D+02
 0.809957411392535D+02 0.568823394669272D+02 0.257245546854993D+02 0.516038450670004D+02
 0.412021304844497D+03 0.822446902764535D+02 -.393155671993108D+03 0.105229654916893D+02
 0.649163985595149D+03 -.424666918739416D+03 0.471956631457268D+03 -.135383995899288D+03
0.493936987964D-05 0.000000000000D+00 0.000000000000D+00 0.199316289922D-08 0.000000000000D+00  7 -1 1 23 -11 11 23 21 0 0.20862451D-01 0.11715545D+00 0.96264556D+05 0.96264556D+05 0.96264556D+05 0.11230813D+01  1  2  2  1  7  1       -1 0.257040477084D-03 0.100000000000D+01
-.273998369613D-06 0.000000000000D+00 -.189684809038D-07 0.199316289922D-08 0.000000000000D+00  7 -1 1 23 -11 11 23 21 2 0.20862451D-01 0.11715545D+00 0.96264556D+05 0.96264556D+05 0.96264556D+05 0.11230813D+01  1  2  3  1  7  1       -1 -.179845831371D-04 0.100000000000D+01
0.320531630123D-06 0.000000000000D+00 0.000000000000D+00 0.199316289922D-08 0.000000000000D+00  7 -1 1 23 -11 11 23 21 2 0.20862451D-01 0.11715545D+00 0.96264556D+05 0.96264556D+05 0.96264556D+05 0.11230813D+01  1  2 15  1  7  1       -1 0.210389125971D-04 0.100000000000D+01
  </mgrwgt>
  </event>
  <event>
  8     66 0.58687835E-06 0.20297039E+03 0.75467711E-02 0.10401522E+00
       -1 -1    0    0    0  501 0.00000000E+00 0.00000000E+00 0.86873964E+03 0.86873970E+03 0.32000000E+00 0.0000E+00 0.9000E+01
        1 -1    0    0  501    0 0.00000000E+00 0.00000000E+00 -.57222735E+02 0.57223629E+02 0.32000000E+00 0.0000E+00 0.9000E+01
       25  2    1    2    0    0 0.93112343E+02 0.34981541E+01 0.55176429E+03 0.63338322E+03 0.29672940E+03 0.0000E+00 0.0000E+00
       23  2    1    2    0    0 -.93112343E+02 -.34981541E+01 0.25975262E+03 0.29258010E+03 0.97208790E+02 0.0000E+00 0.0000E+00
       23  1    3    3    0    0 -.61140401E+02 0.55212999E+02 0.25136662E+03 0.27979824E+03 0.91188000E+02 0.0000E+00 0.9000E+01
      -13  1    4    4    0    0 -.13932161E+02 -.99263167E+01 -.36214335E+01 0.17486075E+02 0.10565837E+00 0.0000E+00 0.9000E+01
       13  1    4    4    0    0 -.79180183E+02 0.64281626E+01 0.26337405E+03 0.27509403E+03 0.10565837E+00 0.0000E+00 0.9000E+01
       23  1    3    3    0    0 0.15425274E+03 -.51714845E+02 0.30039767E+03 0.35358499E+03 0.91188000E+02 0.0000E+00 0.9000E+01
#aMCatNLO 1  0  0  1  2 0.65582095D+02 0.00000000D+00  -5  7  0 0.00000000D+00 0.00000000D+00 0.00000000D+00 0.00000000D+00 0.00000000D+00
  <mgrwgt>
 0.3516821188D-03    4    2    0
 0.222962102666803D+03 0.000000000000000D+00 0.000000000000000D+00 0.222962102666803D+03
 0.222962102666803D+03 0.000000000000000D+00 0.000000000000000D+00 -.222962102666803D+03
 0.123551534325825D+03 -.611403021965272D+02 0.552129877909157D+02 0.127718329453180D+02
 0.429002692479344D+02 -.139321728374865D+02 -.992632081033704D+01 -.393420362556634D+02
 0.919316146289154D+02 -.791803541159388D+02 0.642815985279704D+01 0.462663165949142D+02
 0.187540787130931D+03 0.154252829149953D+03 -.517148268333757D+02 -.196961132845687D+02
 0.000000000000000D+00 -.000000000000000D+00 -.000000000000000D+00 -.000000000000000D+00
 0.249536931308322D+03 0.000000000000000D+00 0.000000000000000D+00 0.249536931308322D+03
 0.269835730569249D+03 0.000000000000000D+00 0.000000000000000D+00 -.269835730569249D+03
 0.116033890117493D+03 -.436193811728338D+02 0.555233480719081D+02 0.127718329453180D+02
 0.412872055271131D+02 -.777552912618781D+01 -.981726389091910D+01 -.393420362556634D+02
 0.812940294593413D+02 -.665123346134969D+02 0.665255730810653D+01 0.462663165949142D+02
 0.212105861888557D+03 0.183479053537867D+03 -.511971223587585D+02 -.196961132845687D+02
 0.686516748850670D+02 -.655718086253488D+02 -.116151913033705D+01 -.202987992609274D+02
0.126319942908D-04 0.000000000000D+00 0.000000000000D+00 0.220859519621D-09 0.000000000000D+00  7 -1 1 23 -13 13 23 21 0 0.13365233D+00 0.88035710D-02 0.41196979D+05 0.41196979D+05 0.41196979D+05 0.11547675D+01  1  2  2  1  7  1       -1 0.623672506562D-03 0.100000000000D+01
-.694247411460D-06 0.000000000000D+00 -.485101841572D-07 0.220859519621D-09 0.000000000000D+00  7 -1 1 23 -13 13 23 21 2 0.13365233D+00 0.88035710D-02 0.41196979D+05 0.41196979D+05 0.41196979D+05 0.11547675D+01  1  2  3  1  7  1       -1 -.457075612666D-04 0.100000000000D+01
0.813470399027D-06 0.000000000000D+00 0.000000000000D+00 0.220859519621D-09 0.000000000000D+00  7 -1 1 23 -13 13 23 21 2 0.13365233D+00 0.88035710D-02 0.41196979D+05 0.41196979D+05 0.41196979D+05 0.11547675D+01  1  2 15  1  7  1       -1 0.535569128359D-04 0.100000000000D+01
-.425045680091D-05 0.000000000000D+00 0.000000000000D+00 0.220859519621D-09 0.000000000000D+00  7 -1 1 23 -13 13 23 21 2 0.13365233D+00 0.88035710D-02 0.41196979D+05 0.41196979D+05 0.41196979D+05 0.11547675D+01  1  2  4  1  7  1       -1 -.279839739308D-03 0.100000000000D+01
  </mgrwgt>
  </event>
  <event>
  8     66 0.58687835E-06 0.99804397E+02 0.75467711E-02 0.10210533E+00
       -1 -1    0    0    0  501 0.00000000E+00 0.00000000E+00 0.26849554E+03 0.26849573E+03 0.32000000E+00 0.0000E+00 0.9000E+01
        1 -1    0    0  501    0 0.00000000E+00 0.00000000E+00 -.20473281E+03 0.20473306E+03 0.32000000E+00 0.0000E+00 0.9000E+01
       25  2    1    2    0    0 -.10615294E+03 0.92696864E+01 0.17171703E+01 0.31865190E+03 0.30030269E+03 0.0000E+00 0.0000E+00
       23  2    1    2    0    0 0.10615294E+03 -.92696864E+01 0.62045557E+02 0.15457690E+03 0.93220133E+02 0.0000E+00 0.0000E+00
       23  1    3    3    0    0 -.46814264E+02 0.35133079E+02 0.11601566E+03 0.15874758E+03 0.91188000E+02 0.0000E+00 0.9000E+01
      -13  1    4    4    0    0 0.58047070E+01 -.34899145E+02 0.29352653E+02 0.45969929E+02 0.10565837E+00 0.0000E+00 0.9000E+01
       13  1    4    4    0    0 0.10034824E+03 0.25629458E+02 0.32692904E+02 0.10860697E+03 0.10565837E+00 0.0000E+00 0.9000E+01
       23  1    3    3    0    0 -.59338679E+02 -.25863393E+02 -.11429849E+03 0.15990432E+03 0.91188000E+02 0.0000E+00 0.9000E+01
#aMCatNLO 1  0  0  1  2 0.14484586D+03 0.00000000D+00  -5  7  0 0.00000000D+00 0.00000000D+00 0.00000000D+00 0.00000000D+00 0.00000000D+00
  <mgrwgt>
 0.6779861225D-04    7    2    0
 0.234456717444068D+03 0.000000000000000D+00 0.000000000000000D+00 0.234456717444068D+03
 0.234456717444068D+03 0.000000000000000D+00 0.000000000000000D+00 -.234456717444068D+03
 0.144432739650115D+03 -.468142982469787D+02 0.351330824615307D+02 0.954968739552878D+02
 0.424015008891338D+02 0.580464699624844D+01 -.348991731094253D+02 0.233718006832706D+02
 0.105160988647518D+03 0.100348372918199D+03 0.256294799994355D+02 0.182254585937341D+02
 0.176918205701370D+03 -.593387216674692D+02 -.258633893515409D+02 -.137094133232293D+03
 0.000000000000000D+00 0.000000000000000D+00 0.000000000000000D+00 0.000000000000000D+00
 0.761285614636562D+03 0.000000000000000D+00 0.000000000000000D+00 0.761285614636562D+03
 0.255554410438684D+03 0.000000000000000D+00 0.000000000000000D+00 -.255554410438684D+03
 0.165353526871632D+03 -.935559724434701D+02 0.339729979514914D+02 0.954968739552878D+02
 0.428533243348799D+02 -.705890989748469D+01 -.352184345255589D+02 0.233718006832706D+02
 0.788796072352933D+02 0.725796610631869D+02 0.249402866181431D+02 0.182254585937341D+02
 0.203688575241751D+03 -.116766051650704D+03 -.272886818151016D+02 -.137094133232293D+03
 0.526064991391691D+03 0.144801272928472D+03 0.359383177102600D+01 0.505731204197877D+03
0.121733289473D-05 0.000000000000D+00 0.000000000000D+00 0.396303396373D-07 0.000000000000D+00  7 -1 1 23 -13 13 23 21 0 0.41307040D-01 0.31497390D-01 0.32243905D+05 0.32243905D+05 0.32243905D+05 0.11644405D+01  1  2  2  1  7  1       -1 0.121466274689D-03 0.100000000000D+01
-.617795721626D-07 0.000000000000D+00 -.467487884689D-08 0.396303396373D-07 0.000000000000D+00  7 -1 1 23 -13 13 23 21 2 0.41307040D-01 0.31497390D-01 0.32243905D+05 0.32243905D+05 0.32243905D+05 0.11644405D+01  1  2  3  1  7  1       -1 -.835845230850D-05 0.100000000000D+01
0.806086831286D-07 0.000000000000D+00 0.000000000000D+00 0.396303396373D-07 0.000000000000D+00  7 -1 1 23 -13 13 23 21 2 0.41307040D-01 0.31497390D-01 0.32243905D+05 0.32243905D+05 0.32243905D+05 0.11644405D+01  1  2 15  1  7  1       -1 0.109059323332D-04 0.100000000000D+01
0.243711614175D-06 0.000000000000D+00 0.000000000000D+00 0.396303396373D-07 0.000000000000D+00  7 -1 1 23 -13 13 23 21 2 0.13099510D+00 0.31497390D-01 0.73751730D+05 0.73751730D+05 0.73751730D+05 0.11327371D+01  1  2 12  1  7  1       -1 0.304621682495D-05 0.100000000000D+01
-.277372738279D-05 0.000000000000D+00 -.406207210875D-06 0.396303396373D-07 0.000000000000D+00  7 -1 1 23 -13 13 23 21 2 0.13899407D+00 0.31497390D-01 0.32243905D+05 0.32243905D+05 0.32243905D+05 0.11644405D+01  1  2  5  1  7  1       -1 -.322817859613D-04 0.100000000000D+01
0.323386516823D-07 0.000000000000D+00 0.000000000000D+00 0.396303396373D-07 0.000000000000D+00  7 21 1 23 -13 13 23 1 2 0.13099510D+00 0.31497390D-01 0.73751730D+05 0.73751730D+05 0.73751730D+05 0.11327371D+01  1  2 12  3  7  1       -1 0.270329016307D-05 0.100000000000D+01
-.376016406109D-06 0.000000000000D+00 -.572777085011D-07 0.396303396373D-07 0.000000000000D+00  7 21 1 23 -13 13 23 1 2 0.13899407D+00 0.31497390D-01 0.32243905D+05 0.32243905D+05 0.32243905D+05 0.11644405D+01  1  2  5  3  7  1       -1 -.296828634909D-04 0.100000000000D+01
  </mgrwgt>
  </event>
  <event>
  9     66 0.58687835E-06 0.16554383E+03 0.75467711E-02 0.10314337E+00
       -1 -1    0    0    0  501 0.00000000E+00 0.00000000E+00 0.10286873E+04 0.10286874E+04 0.32000000E+00 0.0000E+00 0.9000E+01
       21 -1    0    0  501  502 0.00000000E+00 0.00000000E+00 -.12045308E+03 0.12045541E+03 0.75000000E+00 0.0000E+00 0.9000E+01
       25  2    1    2    0    0 -.19079921E+02 -.96587507E+02 0.76381002E+03 0.82618375E+03 0.29913317E+03 0.0000E+00 0.0000E+00
       23  2    1    2    0    0 -.99473270E+02 0.31910920E+02 0.20404448E+02 0.13960438E+03 0.90331635E+02 0.0000E+00 0.0000E+00
       23  1    3    3    0    0 -.53318435E+02 -.10910551E+02 0.63340315E+03 0.64224349E+03 0.91188000E+02 0.0000E+00 0.9000E+01
      -11  1    4    4    0    0 0.14117064E+02 0.36512099E+01 0.17143558E+02 0.22506097E+02 0.51099893E-03 0.0000E+00 0.9000E+01
       11  1    4    4    0    0 -.11359033E+03 0.28259710E+02 0.32608900E+01 0.11709829E+03 0.51099893E-03 0.0000E+00 0.9000E+01
       23  1    3    3    0    0 0.34238514E+02 -.85676957E+02 0.13040687E+03 0.18394026E+03 0.91188000E+02 0.0000E+00 0.9000E+01
       -1  1    1    2    0  502 0.11855319E+03 0.64676587E+02 0.12401977E+03 0.18335465E+03 0.32000000E+00 0.0000E+00 0.9000E+01
#aMCatNLO 2  0  0  2  1 0.13504784D+03 0.00000000D+00  -5  7  0 0.00000000D+00 0.00000000D+00 0.00000000D+00 0.00000000D+00 0.00000000D+00
  <mgrwgt>
 0.4621041934D-04    2    2    0
 0.273640488126935D+03 0.000000000000000D+00 0.000000000000000D+00 0.273640488126935D+03
 0.273640488126935D+03 0.000000000000000D+00 0.000000000000000D+00 -.273640488126935D+03
 0.212907998601832D+03 -.721078157171153D+01 0.142434387151267D+02 0.191728176352176D+03
 0.186406379547134D+02 0.176759161122365D+02 0.559273817402277D+01 -.193820862362885D+01
 0.180704514725650D+03 -.733824335853809D+02 0.501950943515895D+02 -.157320032374630D+03
 0.135027824971675D+03 0.629172990448559D+02 -.700312712407390D+02 -.324699353539169D+02
 0.000000000000000D+00 0.000000000000000D+00 0.000000000000000D+00 -.000000000000000D+00
 0.331352877540329D+03 0.000000000000000D+00 0.000000000000000D+00 0.331352877540329D+03
 0.373951163430916D+03 0.000000000000000D+00 0.000000000000000D+00 -.373951163430916D+03
 0.219173083720502D+03 -.533184354809525D+02 -.109105505858544D+02 0.191728176352176D+03
 0.147098435130309D+02 0.141170644981911D+02 0.365120986291660D+01 -.193820862362885D+01
 0.196089183614392D+03 -.113590334715580D+03 0.282597098960118D+02 -.157320032374630D+03
 0.133724959513365D+03 0.342385142492353D+02 -.856769566042617D+02 -.324699353539169D+02
 0.141606970609955D+03 0.118553191449106D+03 0.646765874311877D+02 -.425982858905871D+02
-.148901386905D-07 0.000000000000D+00 0.000000000000D+00 0.159271458518D-06 0.000000000000D+00  7 -1 21 23 -11 11 23 -1 2 0.13069528D+00 0.19535535D-01 0.63151506D+05 0.63151506D+05 0.63151506D+05 0.11384805D+01  1  2 13  4  7  2        1 -.297670297191D-05 0.100000000000D+01
0.376852995721D-06 0.000000000000D+00 0.000000000000D+00 0.159271458518D-06 0.310107243723D-11  7 -1 21 23 -11 11 23 -1 2 0.15825969D+00 0.18531416D-01 0.63151506D+05 0.63151506D+05 0.63151506D+05 0.11384805D+01  1  2  1  4  7  2        1 0.491871223160D-04 0.100000000000D+01
  </mgrwgt>
  </event>
  <event>
  8     66 0.58687835E-06 0.25534258E+03 0.75467711E-02 0.92275011E-01
       -1 -1    0    0    0  501 0.00000000E+00 0.00000000E+00 0.56010854E+02 0.56011768E+02 0.32000000E+00 0.0000E+00 0.9000E+01
        1 -1    0    0  501    0 0.00000000E+00 0.00000000E+00 -.14026364E+04 0.14026364E+04 0.32000000E+00 0.0000E+00 0.9000E+01
       25  2    1    2    0    0 0.36229540E+02 0.16345213E+03 -.68768637E+03 0.77271119E+03 0.31006590E+03 0.0000E+00 0.0000E+00
       23  2    1    2    0    0 -.36229540E+02 -.16345213E+03 -.65893915E+03 0.68593698E+03 0.90992121E+02 0.0000E+00 0.0000E+00
       23  1    3    3    0    0 0.20943704E+02 0.21679984E+03 -.38378577E+03 0.45060801E+03 0.91188000E+02 0.0000E+00 0.9000E+01
      -13  1    4    4    0    0 -.77606106E+01 -.60483249E+02 -.41734533E+03 0.42177670E+03 0.10565837E+00 0.0000E+00 0.9000E+01
       13  1    4    4    0    0 -.28468930E+02 -.10296888E+03 -.24159382E+03 0.26416029E+03 0.10565837E+00 0.0000E+00 0.9000E+01
       23  1    3    3    0    0 0.15285836E+02 -.53347709E+02 -.30390060E+03 0.32210318E+03 0.91188000E+02 0.0000E+00 0.9000E+01
#aMCatNLO 1  0  0  2  2 0.51140228D+03 0.00000000D+00  -5  7  0 0.00000000D+00 0.00000000D+00 0.00000000D+00 0.00000000D+00 0.00000000D+00
  <mgrwgt>
 0.2169648075D-03    3    2    0
 0.280291908887167D+03 0.000000000000000D+00 0.000000000000000D+00 0.280291908887167D+03
 0.280291908887167D+03 0.000000000000000D+00 0.000000000000000D+00 -.280291908887167D+03
 0.250565170061852D+03 0.209437716827377D+02 0.216799722794920D+03 0.838265574139364D+02
 0.949296687969995D+02 -.776062369208325D+01 -.604833765945474D+02 -.727542156410201D+02
 0.106996736962658D+03 -.284690036962550D+02 -.102969147726927D+03 0.593061258127141D+01
 0.108092241952826D+03 0.152858557056006D+02 -.533471984734455D+02 -.170029543541877D+02
 0.000000000000000D+00 0.000000000000000D+00 0.000000000000000D+00 0.000000000000000D+00
 0.788166186387184D+03 0.000000000000000D+00 0.000000000000000D+00 0.788166186387184D+03
 0.539356414934000D+03 0.000000000000000D+00 0.000000000000000D+00 -.539356414934000D+03
 0.287396470529866D+03 -.184662605606640D+03 0.182083250991734D+03 0.838265574139364D+02
 0.144664260488222D+03 -.993322825313218D+02 -.759451777019569D+02 -.727542156410201D+02
 0.186079121039542D+03 -.140481201013017D+03 -.121882317352435D+03 0.593061258127141D+01
 0.140666125856939D+03 -.797884078971483D+02 -.694004115842822D+02 -.170029543541877D+02
 0.568716623406615D+03 0.504264497048127D+03 0.851446556469399D+02 0.248809771453183D+03
0.307876114863D-05 0.000000000000D+00 0.000000000000D+00 0.141486819920D-08 0.000000000000D+00  7 -1 1 23 -13 13 23 21 0 0.86171276D-02 0.21579028D+00 0.65199835D+05 0.65199835D+05 0.65199835D+05 0.11372917D+01  1  2  2  2  7  2        1 0.213951450969D-03 0.100000000000D+01
-.169234886076D-06 0.000000000000D+00 -.118232534672D-07 0.141486819920D-08 0.000000000000D+00  7 -1 1 23 -13 13 23 21 2 0.86171276D-02 0.21579028D+00 0.65199835D+05 0.65199835D+05 0.65199835D+05 0.11372917D+01  1  2  3  2  7  2        1 -.152115284751D-04 0.100000000000D+01
0.202759791464D-06 0.000000000000D+00 0.000000000000D+00 0.141486819920D-08 0.000000000000D+00  7 -1 1 23 -13 13 23 21 2 0.86171276D-02 0.21579028D+00 0.65199835D+05 0.65199835D+05 0.65199835D+05 0.11372917D+01  1  2 15  2  7  2        1 0.182248850280D-04 0.100000000000D+01
  </mgrwgt>
  </event>
  <event>
  8     66 0.58687835E-06 0.32214419E+03 0.75467711E-02 0.99063100E-01
       -1 -1    0    0    0  501 0.00000000E+00 0.00000000E+00 0.36578137E+02 0.36579536E+02 0.32000000E+00 0.0000E+00 0.9000E+01
        1 -1    0    0  501    0 0.00000000E+00 0.00000000E+00 -.32942707E+04 0.32942708E+04 0.32000000E+00 0.0000E+00 0.9000E+01
       25  2    1    2    0    0 -.26718635E+03 -.55501865E+02 -.18515746E+04 0.18953143E+04 0.29902944E+03 0.0000E+00 0.0000E+00
       23  2    1    2    0    0 0.26718635E+03 0.55501865E+02 -.14061180E+04 0.14355360E+04 0.95534710E+02 0.0000E+00 0.0000E+00
       23  1    3    3    0    0 -.12360872E+03 -.11401015E+03 -.57151418E+03 0.60267830E+03 0.91188000E+02 0.0000E+00 0.9000E+01
      -11  1    4    4    0    0 0.47197185E+02 0.14267631E+02 -.11444277E+03 0.12461255E+03 0.51099893E-03 0.0000E+00 0.9000E+01
       11  1    4    4    0    0 0.21998917E+03 0.41234234E+02 -.12916752E+04 0.13109235E+04 0.51099893E-03 0.0000E+00 0.9000E+01
       23  1    3    3    0    0 -.14357764E+03 0.58508289E+02 -.12800605E+04 0.12926360E+04 0.91188000E+02 0.0000E+00 0.9000E+01
#aMCatNLO 1  0  0  2  2 0.42816171D+02 0.00000000D+00  -5  7  0 0.00000000D+00 0.00000000D+00 0.00000000D+00 0.00000000D+00 0.00000000D+00
  <mgrwgt>
 0.2512472509D-03    4    2    0
 0.347132024590153D+03 0.000000000000000D+00 0.000000000000000D+00 0.347132024590153D+03
 0.347132024590153D+03 0.000000000000000D+00 0.000000000000000D+00 -.347132024590153D+03
 0.209738199917110D+03 -.123608717374763D+03 -.114010153849406D+03 0.860083191829162D+02
 0.608505898583544D+02 0.471971855027981D+02 0.142676309603066D+02 0.356602674345641D+02
 0.228456370909261D+03 0.219989168181317D+03 0.412342337070364D+02 -.457910172688449D+02
 0.195218888495580D+03 -.143577636309352D+03 0.585082891820629D+02 -.758775693486354D+02
 0.000000000000000D+00 -.000000000000000D+00 0.000000000000000D+00 0.000000000000000D+00
 0.510024677885070D+03 0.000000000000000D+00 0.000000000000000D+00 0.510024677885070D+03
 0.350616514810484D+03 0.000000000000000D+00 0.000000000000000D+00 -.350616514810484D+03
 0.212956525111453D+03 -.117715437627513D+03 -.125621952775133D+03 0.860083191829162D+02
 0.614988765915997D+02 0.489030019940440D+02 0.109065826221925D+02 0.356602674345641D+02
 0.232762852230769D+03 0.226419562851111D+03 0.285641326561655D+02 -.457910172688449D+02
 0.188364806844319D+03 -.138229649004876D+03 0.479709049240190D+02 -.758775693486354D+02
 0.165058131917414D+03 -.193774782127661D+02 0.381803325727557D+02 0.159408163074586D+03
0.395811253672D-04 0.000000000000D+00 0.000000000000D+00 0.197825943331D-07 0.000000000000D+00  7 -1 1 23 -11 11 23 21 0 0.56275145D-02 0.50681099D+00 0.10377688D+06 0.10377688D+06 0.10377688D+06 0.11204032D+01  1  2  2  2  7  2        1 0.259084674956D-03 0.100000000000D+01
-.218403008204D-05 0.000000000000D+00 -.152001943360D-06 0.197825943331D-07 0.000000000000D+00  7 -1 1 23 -11 11 23 21 2 0.56275145D-02 0.50681099D+00 0.10377688D+06 0.10377688D+06 0.10377688D+06 0.11204032D+01  1  2  3  2  7  2        1 -.179457196634D-04 0.100000000000D+01
0.259968580527D-05 0.000000000000D+00 0.000000000000D+00 0.197825943331D-07 0.000000000000D+00  7 -1 1 23 -11 11 23 21 2 0.56275145D-02 0.50681099D+00 0.10377688D+06 0.10377688D+06 0.10377688D+06 0.11204032D+01  1  2 15  2  7  2        1 0.213610760484D-04 0.100000000000D+01
-.136948595258D-05 0.000000000000D+00 0.000000000000D+00 0.197825943331D-07 0.000000000000D+00  7 -1 1 23 -11 11 23 21 2 0.56275145D-02 0.50681099D+00 0.10377688D+06 0.10377688D+06 0.10377688D+06 0.11204032D+01  1  2  4  2  7  2        1 -.112527804402D-04 0.100000000000D+01
  </mgrwgt>
  </event>
  <event>
  9     66 0.58687835E-06 0.55477533E+03 0.75467711E-02 0.89481854E-01
       -1 -1    0    0    0  501 0.00000000E+00 0.00000000E+00 0.17783316E+03 0.17783345E+03 0.32000000E+00 0.0000E+00 0.9000E+01
        1 -1    0    0  502    0 0.00000000E+00 0.00000000E+00 -.47149489E+04 0.47149489E+04 0.32000000E+00 0.0000E+00 0.9000E+01
       25  2    1    2    0    0 0.74883466E+03 -.21844562E+03 -.27867200E+04 0.29093157E+04 0.29972989E+03 0.0000E+00 0.0000E+00
       23  2    1    2    0    0 -.33586238E+03 0.56136808E+02 -.28873060E+03 0.45593401E+03 0.92496401E+02 0.0000E+00 0.0000E+00
       23  1    3    3    0    0 0.64137849E+03 -.16043951E+03 -.20137452E+04 0.21214599E+04 0.91188000E+02 0.0000E+00 0.9000E+01
      -11  1    4    4    0    0 -.29630111E+03 0.16486014E+02 -.24659260E+03 0.38584199E+03 0.51099893E-03 0.0000E+00 0.9000E+01
       11  1    4    4    0    0 -.39561271E+02 0.39650794E+02 -.42138003E+02 0.70092017E+02 0.51099893E-03 0.0000E+00 0.9000E+01
       23  1    3    3    0    0 0.10745617E+03 -.58006116E+02 -.77297481E+03 0.78785585E+03 0.91188000E+02 0.0000E+00 0.9000E+01
       21  1    1    2  502  501 -.41297228E+03 0.16230882E+03 -.14616651E+04 0.15275326E+04 0.75000000E+00 0.0000E+00 0.9000E+01
#aMCatNLO 2  0  0  2  1 0.44372318D+03 0.00000000D+00  -5  7  0 0.00000000D+00 0.00000000D+00 0.00000000D+00 0.00000000D+00 0.00000000D+00
  <mgrwgt>
 0.9086748364D-06    2    2    0
 0.646068760818778D+03 0.000000000000000D+00 0.000000000000000D+00 0.646068760818778D+03
 0.646068760818778D+03 0.000000000000000D+00 0.000000000000000D+00 -.646068760818778D+03
 0.507032976614824D+03 0.455034465502710D+03 -.872014741316167D+02 -.184680064286389D+03
 0.514737234506475D+03 -.437676395430448D+03 0.720501686093274D+02 0.261156211248653D+03
 0.998788277650744D+02 -.671628504157096D+02 0.504989299795668D+02 0.539887935657133D+02
 0.170488482751183D+03 0.498047803434478D+02 -.353476244572776D+02 -.130464940527977D+03
 0.000000000000000D+00 -.000000000000000D+00 0.000000000000000D+00 -.000000000000000D+00
 0.838360760009307D+03 0.000000000000000D+00 0.000000000000000D+00 0.838360760009307D+03
 0.100013558937535D+04 0.000000000000000D+00 0.000000000000000D+00 -.100013558937535D+04
 0.692480454468558D+03 0.641378489496809D+03 -.160439507425534D+03 -.184680064286389D+03
 0.395308361654280D+03 -.296301106073713D+03 0.164860140584216D+02 0.261156211248653D+03
 0.777950477379833D+02 -.395612712570976D+02 0.396507936666623D+02 0.539887935657133D+02
 0.200618769010685D+03 0.107456172011684D+03 -.580061162722481D+02 -.130464940527977D+03
 0.472293716513150D+03 -.412972284177683D+03 0.162308815972699D+03 -.161774829366043D+03
-.300429639231D-05 0.000000000000D+00 0.000000000000D+00 0.145198836682D-05 0.000000000000D+00  7 -1 1 23 -11 11 23 21 2 0.21083728D-01 0.76428914D+00 0.65310411D+06 0.65310411D+06 0.65310411D+06 0.10604066D+01  1  2 13  2  7  2        1 -.509287513869D-07 0.100000000000D+01
0.406695456267D-04 0.000000000000D+00 0.000000000000D+00 0.145198836682D-05 0.490307302338D-10  7 -1 1 23 -11 11 23 21 2 0.27358962D-01 0.72537653D+00 0.65310411D+06 0.65310411D+06 0.65310411D+06 0.10604066D+01  1  2  1  2  7  2        1 0.959603587807D-06 0.100000000000D+01
  </mgrwgt>
  </event>
  <event>
  8     66 0.58687835E-06 0.16790887E+03 0.75467711E-02 0.10031835E+00
       -1 -1    0    0    0  501 0.00000000E+00 0.00000000E+00 0.76544774E+02 0.76545443E+02 0.32000000E+00 0.0000E+00 0.9000E+01
        1 -1    0    0  501    0 0.00000000E+00 0.00000000E+00 -.77571091E+03 0.77571098E+03 0.32000000E+00 0.0000E+00 0.9000E+01
       25  2    1    2    0    0 0.51695136E+02 0.10516760E+03 -.59773466E+03 0.67917726E+03 0.30043704E+03 0.0000E+00 0.0000E+00
       23  2    1    2    0    0 -.51695136E+02 -.10516760E+03 -.10143147E+03 0.17307916E+03 0.77041802E+02 0.0000E+00 0.0000E+00
       23  1    3    3    0    0 -.58375612E+01 0.17017348E+03 -.31223493E+03 0.36714983E+03 0.91188000E+02 0.0000E+00 0.9000E+01
      -13  1    4    4    0    0 -.15262983E+02 -.67893663E+02 -.13537134E+02 0.70892689E+02 0.10565837E+00 0.0000E+00 0.9000E+01
       13  1    4    4    0    0 -.36432153E+02 -.37273939E+02 -.87894341E+02 0.10218647E+03 0.10565837E+00 0.0000E+00 0.9000E+01
       23  1    3    3    0    0 0.57532697E+02 -.65005874E+02 -.28549973E+03 0.31202744E+03 0.91188000E+02 0.0000E+00 0.9000E+01
#aMCatNLO 1  0  0  1  2 0.16580622D+03 0.00000000D+00  -5  7  0 0.00000000D+00 0.00000000D+00 0.00000000D+00 0.00000000D+00 0.00000000D+00
  <mgrwgt>
 0.2137690209D-03    7    2    0
 0.243673818547330D+03 0.000000000000000D+00 0.000000000000000D+00 0.243673818547330D+03
 0.243673818547330D+03 0.000000000000000D+00 0.000000000000000D+00 -.243673818547330D+03
 0.194115456677704D+03 -.583755527617235D+01 0.170173488589218D+03 -.192993758180468D+02
 0.104553888943336D+03 -.152629672361256D+02 -.678937360779880D+02 0.780320326897677D+02
 0.526036722480277D+02 -.364321783750951D+02 -.372738864731911D+02 -.710634223822847D+01
 0.136074619225593D+03 0.575327008873931D+02 -.650058660380394D+02 -.516263146334924D+02
 0.000000000000000D+00 0.000000000000000D+00 -.000000000000000D+00 0.000000000000000D+00
 0.442957500648660D+03 0.000000000000000D+00 0.000000000000000D+00 0.442957500648660D+03
 0.294427901285150D+03 0.000000000000000D+00 0.000000000000000D+00 -.294427901285150D+03
 0.259224547248947D+03 -.347704323557389D+02 0.239375574525160D+03 -.192993758180468D+02
 0.911311086550631D+02 -.277518937213025D+02 -.380225358686855D+02 0.780320326897677D+02
 0.486460315538062D+02 -.428940948375014D+02 -.218181785215566D+02 -.710634223822847D+01
 0.115779257817730D+03 0.414589875521682D+02 -.265605192972033D+02 -.516263146334924D+02
 0.222604456658263D+03 0.639574333623746D+02 -.152974340837715D+03 0.148529599363510D+03
0.212173914156D-05 0.000000000000D+00 0.000000000000D+00 0.145918853379D-08 0.000000000000D+00  7 -1 1 23 -13 13 23 21 0 0.11776176D-01 0.11934020D+00 0.48568269D+05 0.48568269D+05 0.48568269D+05 0.11484069D+01  1  2  2  1  7  1       -1 0.264169994686D-03 0.100000000000D+01
-.116427779287D-06 0.000000000000D+00 -.814803697034D-08 0.145918853379D-08 0.000000000000D+00  7 -1 1 23 -13 13 23 21 2 0.11776176D-01 0.11934020D+00 0.48568269D+05 0.48568269D+05 0.48568269D+05 0.11484069D+01  1  2  3  1  7  1       -1 -.191178773627D-04 0.100000000000D+01
0.137451630906D-06 0.000000000000D+00 0.000000000000D+00 0.145918853379D-08 0.000000000000D+00  7 -1 1 23 -13 13 23 21 2 0.11776176D-01 0.11934020D+00 0.48568269D+05 0.48568269D+05 0.48568269D+05 0.11484069D+01  1  2 15  1  7  1       -1 0.225700725296D-04 0.100000000000D+01
0.174230850872D-06 0.000000000000D+00 0.000000000000D+00 0.145918853379D-08 0.000000000000D+00  7 -1 1 23 -13 13 23 21 2 0.21780090D-01 0.11934020D+00 0.97076025D+05 0.97076025D+05 0.97076025D+05 0.11227812D+01  1  2 12  1  7  1       -1 0.103621257373D-04 0.100000000000D+01
-.101195799694D-05 0.000000000000D+00 -.682972622686D-06 0.145918853379D-08 0.000000000000D+00  7 -1 1 23 -13 13 23 21 2 0.25636588D-01 0.11934020D+00 0.48568269D+05 0.48568269D+05 0.48568269D+05 0.11484069D+01  1  2  5  1  7  1       -1 -.487931317653D-04 0.100000000000D+01
0.116876092889D-07 0.000000000000D+00 0.000000000000D+00 0.145918853379D-08 0.000000000000D+00  7 21 1 23 -13 13 23 1 2 0.21780090D-01 0.11934020D+00 0.97076025D+05 0.97076025D+05 0.97076025D+05 0.11227812D+01  1  2 12  3  7  1       -1 0.824761806519D-05 0.100000000000D+01
-.423674731049D-07 0.000000000000D+00 -.575488203502D-07 0.145918853379D-08 0.000000000000D+00  7 21 1 23 -13 13 23 1 2 0.25636588D-01 0.11934020D+00 0.48568269D+05 0.48568269D+05 0.48568269D+05 0.11484069D+01  1  2  5  3  7  1       -1 -.236697809866D-04 0.100000000000D+01
  </mgrwgt>
  </event>
  <event>
  7     66 0.58687835E-06 0.28056641E+03 0.75467711E-02 0.98642832E-01
       -1 -1    0    0    0  501 0.00000000E+00 0.00000000E+00 0.15153049E+04 0.15153049E+04 0.32000000E+00 0.0000E+00 0.9000E+01
        1 -1    0    0  501    0 0.00000000E+00 0.00000000E+00 -.59040901E+02 0.59041768E+02 0.32000000E+00 0.0000E+00 0.9000E+01
       23  2    1    2    0    0 0.21021483E+03 0.70142236E+02 0.73429056E+03 0.77280240E+03 0.94502509E+02 0.0000E+00 0.0000E+00
       23  1    1    2    0    0 -.90609083E+02 -.12465304E+03 0.47133881E+03 0.50420622E+03 0.91188000E+02 0.0000E+00 0.9000E+01
      -11  1    3    3    0    0 0.11138192E+03 0.44876919E+02 0.24322510E+03 0.27125324E+03 0.51099893E-03 0.0000E+00 0.9000E+01
       11  1    3    3    0    0 0.98832903E+02 0.25265317E+02 0.49106546E+03 0.50154917E+03 0.51099893E-03 0.0000E+00 0.9000E+01
       23  1    1    2    0    0 -.11960574E+03 0.54510799E+02 0.25063458E+03 0.29733803E+03 0.91188000E+02 0.0000E+00 0.9000E+01
#aMCatNLO 1  0  0  1  2 0.13298411D+03 0.00000000D+00  -5  7  0 0.00000000D+00 0.00000000D+00 0.00000000D+00 0.00000000D+00 0.00000000D+00
  <mgrwgt>
 0.4177239670D-03    4    2    0
 0.299108130572119D+03 0.000000000000000D+00 0.000000000000000D+00 0.299108130572119D+03
 0.299108130572119D+03 0.000000000000000D+00 0.000000000000000D+00 -.299108130572119D+03
 0.179536502162376D+03 -.906090831819511D+02 -.124653035134932D+03 0.130276299178619D+02
 0.121773161456690D+03 0.111381922999828D+03 0.448769192734896D+02 -.202195993169500D+02
 0.124522398251197D+03 0.988329028878915D+02 0.252653168187419D+02 0.714111247567973D+02
 0.172384199273976D+03 -.119605742705769D+03 0.545107990427000D+02 -.642191553577092D+02
 0.000000000000000D+00 -.000000000000000D+00 -.000000000000000D+00 -.000000000000000D+00
 0.361601987965270D+03 0.000000000000000D+00 0.000000000000000D+00 0.361601987965270D+03
 0.386514829828283D+03 0.000000000000000D+00 0.000000000000000D+00 -.386514829828283D+03
 0.154130502979203D+03 -.572396857415621D+02 -.109521047472861D+03 0.130276299178619D+02
 0.151415927386552D+03 0.138703039986267D+03 0.572661991785683D+02 -.202195993169500D+02
 0.149891127355728D+03 0.126276473447439D+03 0.377101256245375D+02 0.714111247567973D+02
 0.157381721744496D+03 -.866264852089355D+02 0.694658703303319D+02 -.642191553577092D+02
 0.135297538327574D+03 -.121113342483209D+03 -.549211476605771D+02 -.249128418630128D+02
0.860690723319D-04 0.000000000000D+00 0.000000000000D+00 0.206730479700D-10 0.000000000000D+00  7 -1 1 23 -11 11 23 21 0 0.23312389D+00 0.90832849D-02 0.78717510D+05 0.78717510D+05 0.78717510D+05 0.11303517D+01  1  2  2  1  7  1       -1 0.639328454577D-03 0.100000000000D+01
-.475780596539D-05 0.000000000000D+00 -.330527900262D-06 0.206730479700D-10 0.000000000000D+00  7 -1 1 23 -11 11 23 21 2 0.23312389D+00 0.90832849D-02 0.78717510D+05 0.78717510D+05 0.78717510D+05 0.11303517D+01  1  2  3  1  7  1       -1 -.451555166469D-04 0.100000000000D+01
0.569992951397D-05 0.000000000000D+00 0.000000000000D+00 0.206730479700D-10 0.000000000000D+00  7 -1 1 23 -11 11 23 21 2 0.23312389D+00 0.90832849D-02 0.78717510D+05 0.78717510D+05 0.78717510D+05 0.11303517D+01  1  2 15  1  7  1       -1 0.540970489184D-04 0.100000000000D+01
-.242914556165D-04 0.000000000000D+00 0.000000000000D+00 0.206730479700D-10 0.000000000000D+00  7 -1 1 23 -11 11 23 21 2 0.23312389D+00 0.90832849D-02 0.78717510D+05 0.78717510D+05 0.78717510D+05 0.11303517D+01  1  2  4  1  7  1       -1 -.230546019835D-03 0.100000000000D+01
  </mgrwgt>
  </event>
  <event>
  8     66 0.58687835E-06 0.36671472E+03 0.75467711E-02 0.90717623E-01
       -1 -1    0    0    0  501 0.00000000E+00 0.00000000E+00 0.54677432E+03 0.54677442E+03 0.32000000E+00 0.0000E+00 0.9000E+01
        1 -1    0    0  501    0 0.00000000E+00 0.00000000E+00 -.86482630E+03 0.86482636E+03 0.32000000E+00 0.0000E+00 0.9000E+01
       25  2    1    2    0    0 -.20981939E+03 0.61642260E+03 -.14127301E+03 0.73074933E+03 0.30005921E+03 0.0000E+00 0.0000E+00
       23  2    1    2    0    0 0.20981939E+03 -.61642260E+03 -.17677897E+03 0.68085144E+03 0.91142138E+02 0.0000E+00 0.0000E+00
       23  1    3    3    0    0 0.12165278E+02 0.32558156E+03 -.90924021E+02 0.35033381E+03 0.91188000E+02 0.0000E+00 0.9000E+01
      -13  1    4    4    0    0 0.19244264E+03 -.56596856E+03 -.13441429E+03 0.61271674E+03 0.10565837E+00 0.0000E+00 0.9000E+01
       13  1    4    4    0    0 0.17376744E+02 -.50454034E+02 -.42364685E+02 0.68134708E+02 0.10565837E+00 0.0000E+00 0.9000E+01
       23  1    3    3    0    0 -.22198467E+03 0.29084104E+03 -.50348989E+02 0.38041553E+03 0.91188000E+02 0.0000E+00 0.9000E+01
#aMCatNLO 1  0  0  2  1 0.64758476D+02 0.00000000D+00  -5  7  0 0.00000000D+00 0.00000000D+00 0.00000000D+00 0.00000000D+00 0.00000000D+00
  <mgrwgt>
 0.2523282018D-03    9    2    0
 0.687651745154863D+03 0.000000000000000D+00 0.000000000000000D+00 0.687651745154863D+03
 0.687651745154863D+03 0.000000000000000D+00 0.000000000000000D+00 -.687651745154863D+03
 0.338552844872384D+03 0.121652783292265D+02 0.325581561874057D+03 -.123056896599391D+02
 0.597803822743231D+03 0.192442879014268D+03 -.565969257003696D+03 0.373482660978236D+01
 0.601349752315621D+02 0.173765082311234D+02 -.504533413065117D+02 -.277260267402832D+02
 0.378811847462548D+03 -.221984665574618D+03 0.290841036436151D+03 0.362968897904400D+02
 0.000000000000000D+00 -.000000000000000D+00 0.000000000000000D+00 -.000000000000000D+00
 0.695187871900427D+03 0.000000000000000D+00 0.000000000000000D+00 0.695187871900427D+03
 0.843178761009796D+03 0.000000000000000D+00 0.000000000000000D+00 -.843178761009796D+03
 0.336237510161998D+03 0.276823519618417D+02 0.322215253034045D+03 -.123056896599391D+02
 0.612971672645721D+03 0.220285144948195D+03 -.572009420771581D+03 0.373482660978236D+01
 0.615048742001011D+02 0.201736651350557D+02 -.510601628139392D+02 -.277260267402832D+02
 0.366113219997181D+03 -.204854816227609D+03 0.287124848406747D+03 0.362968897904400D+02
 0.161539355905222D+03 -.632863458174837D+02 0.137294821447280D+02 -.147990889109369D+03
0.530642259970D-04 0.000000000000D+00 0.000000000000D+00 0.502429449382D-05 0.000000000000D+00  7 -1 1 23 -13 13 23 21 0 0.84119138D-01 0.13305021D+00 0.46686608D+06 0.46686608D+06 0.46686608D+06 0.10706213D+01  1  2  2  2  7  2        1 0.178359873859D-03 0.100000000000D+01
-.294786648914D-05 0.000000000000D+00 -.203780599960D-06 0.502429449382D-05 0.000000000000D+00  7 -1 1 23 -13 13 23 21 2 0.84119138D-01 0.13305021D+00 0.46686608D+06 0.46686608D+06 0.46686608D+06 0.10706213D+01  1  2  3  2  7  2        1 -.113572947315D-04 0.100000000000D+01
0.345484043181D-05 0.000000000000D+00 0.000000000000D+00 0.502429449382D-05 0.000000000000D+00  7 -1 1 23 -13 13 23 21 2 0.84119138D-01 0.13305021D+00 0.46686608D+06 0.46686608D+06 0.46686608D+06 0.10706213D+01  1  2 15  2  7  2        1 0.133105217550D-04 0.100000000000D+01
0.345435901540D-03 0.000000000000D+00 0.000000000000D+00 0.502429449382D-05 0.000000000000D+00  7 -1 1 23 -13 13 23 21 2 0.84119138D-01 0.16376144D+00 0.51333035D+06 0.51333035D+06 0.51333035D+06 0.10677037D+01  1  2 12  2  7  2        1 0.917546737148D-03 0.100000000000D+01
-.344636413386D-03 0.000000000000D+00 0.000000000000D+00 0.502429449382D-05 0.000000000000D+00  7 -1 1 23 -13 13 23 21 2 0.84119138D-01 0.13305021D+00 0.46686608D+06 0.46686608D+06 0.46686608D+06 0.10706213D+01  1  2  4  2  7  2        1 -.132778649796D-02 0.100000000000D+01
-.420567379746D-03 0.000000000000D+00 -.341284282208D-04 0.502429449382D-05 0.000000000000D+00  7 -1 1 23 -13 13 23 21 2 0.84119138D-01 0.16389199D+00 0.46686608D+06 0.46686608D+06 0.46686608D+06 0.10706213D+01  1  2  5  2  7  2        1 -.112680164504D-02 0.100000000000D+01
0.419266376639D-03 0.000000000000D+00 0.333999420260D-04 0.502429449382D-05 0.000000000000D+00  7 -1 1 23 -13 13 23 21 2 0.84119138D-01 0.13305021D+00 0.46686608D+06 0.46686608D+06 0.46686608D+06 0.10706213D+01  1  2  6  2  7  2        1 0.161531461078D-02 0.100000000000D+01
0.101742491422D-04 0.000000000000D+00 0.000000000000D+00 0.502429449382D-05 0.000000000000D+00  7 -1 21 23 -13 13 23 -1 2 0.84119138D-01 0.16376144D+00 0.51333035D+06 0.51333035D+06 0.51333035D+06 0.10677037D+01  1  2 12  4  7  2        1 0.324529901309D-04 0.100000000000D+01
-.120012650766D-04 0.000000000000D+00 -.100813213956D-05 0.502429449382D-05 0.000000000000D+00  7 -1 21 23 -13 13 23 -1 2 0.84119138D-01 0.16389199D+00 0.46686608D+06 0.46686608D+06 0.46686608D+06 0.10706213D+01  1  2  5  4  7  2        1 -.387110941335D-04 0.100000000000D+01
  </mgrwgt>
  </event>
  <event>
  8     66 0.58687835E-06 0.17995289E+03 0.75467711E-02 0.97369468E-01
       -1 -1    0    0    0  501 0.00000000E+00 0.00000000E+00 0.57296606E+02 0.57297500E+02 0.32000000E+00 0.0000E+00 0.9000E+01
        1 -1    0    0  501    0 0.00000000E+00 0.00000000E+00 -.14115102E+04 0.14115102E+04 0.32000000E+00 0.0000E+00 0.9000E+01
       25  2    1    2    0    0 -.61787316E+02 -.17722991E+03 -.97232092E+03 0.10346176E+04 0.29966245E+03 0.0000E+00 0.0000E+00
       23  2    1    2    0    0 0.61787316E+02 0.17722991E+03 -.38189264E+03 0.43419006E+03 0.86318640E+02 0.0000E+00 0.0000E+00
       23  1    3    3    0    0 0.23601983E+02 0.25426347E+02 -.45215173E+03 0.46255809E+03 0.91188000E+02 0.0000E+00 0.9000E+01
      -13  1    4    4    0    0 -.26049002E+01 0.43325358E+01 0.40083500E+01 0.64524728E+01 0.10565837E+00 0.0000E+00 0.9000E+01
       13  1    4    4    0    0 0.64392216E+02 0.17289737E+03 -.38590099E+03 0.42773759E+03 0.10565837E+00 0.0000E+00 0.9000E+01
       23  1    3    3    0    0 -.85389299E+02 -.20265625E+03 -.52016920E+03 0.57205955E+03 0.91188000E+02 0.0000E+00 0.9000E+01
#aMCatNLO 1  0  0  1  2 0.22300533D+03 0.00000000D+00  -5  7  0 0.00000000D+00 0.00000000D+00 0.00000000D+00 0.00000000D+00 0.00000000D+00
  <mgrwgt>
 0.2865395211D-03    7    2    0
 0.284386049535993D+03 0.000000000000000D+00 0.000000000000000D+00 0.284386049535993D+03
 0.284386049535993D+03 0.000000000000000D+00 0.000000000000000D+00 -.284386049535993D+03
 0.117971482941832D+03 0.236019832373517D+02 0.254263461166864D+02 -.663209375228750D+02
 0.262063958845253D+02 -.260499948719767D+01 0.433228528169647D+01 0.257142074963659D+02
 0.185789783280038D+03 0.643923158167985D+02 0.172897622866662D+03 0.218605864983215D+02
 0.238804436965591D+03 -.853892995669525D+02 -.202656254265045D+03 0.187461435281876D+02
 0.000000000000000D+00 -.000000000000000D+00 0.000000000000000D+00 0.000000000000000D+00
 0.488778745285648D+03 0.000000000000000D+00 0.000000000000000D+00 0.488778745285648D+03
 0.373286423404247D+03 0.000000000000000D+00 0.000000000000000D+00 -.373286423404247D+03
 0.118826477413009D+03 0.326665550696795D+02 -.184095034248827D+02 -.663209375228750D+02
 0.262784993100305D+02 -.595889687897321D+00 -.538367665271359D+01 0.257142074963659D+02
 0.138286998277062D+03 0.767979009882752D+02 0.112904787561134D+03 0.218605864983215D+02
 0.327536071738112D+03 -.637099142588652D+02 -.307496757500925D+03 0.187461435281876D+02
 0.251137121951681D+03 -.451586521111921D+02 0.218385150017387D+03 0.115492321881402D+03
0.458598066715D-05 0.000000000000D+00 0.000000000000D+00 0.206952694102D-07 0.000000000000D+00  7 -1 1 23 -13 13 23 21 0 0.88149340D-02 0.21715548D+00 0.68955149D+05 0.68955149D+05 0.68955149D+05 0.11352153D+01  1  2  2  1  7  1       -1 0.303523947920D-03 0.100000000000D+01
-.252807681659D-06 0.000000000000D+00 -.176113732783D-07 0.206952694102D-07 0.000000000000D+00  7 -1 1 23 -13 13 23 21 2 0.88149340D-02 0.21715548D+00 0.68955149D+05 0.68955149D+05 0.68955149D+05 0.11352153D+01  1  2  3  1  7  1       -1 -.215629142390D-04 0.100000000000D+01
0.299146278021D-06 0.000000000000D+00 0.000000000000D+00 0.206952694102D-07 0.000000000000D+00  7 -1 1 23 -13 13 23 21 2 0.88149340D-02 0.21715548D+00 0.68955149D+05 0.68955149D+05 0.68955149D+05 0.11352153D+01  1  2 15  1  7  1       -1 0.255153067167D-04 0.100000000000D+01
0.773529551063D-07 0.000000000000D+00 0.000000000000D+00 0.206952694102D-07 0.000000000000D+00  7 -1 1 23 -13 13 23 21 2 0.15725366D-01 0.21715548D+00 0.15624854D+06 0.15624854D+06 0.15624854D+06 0.11061559D+01  1  2 12  1  7  1       -1 0.251750803546D-05 0.100000000000D+01
-.105630765123D-05 0.000000000000D+00 -.146914604757D-05 0.206952694102D-07 0.000000000000D+00  7 -1 1 23 -13 13 23 21 2 0.20274418D-01 0.21715548D+00 0.68955149D+05 0.68955149D+05 0.68955149D+05 0.11352153D+01  1  2  5  1  7  1       -1 -.246823512366D-04 0.100000000000D+01
0.492082238455D-08 0.000000000000D+00 0.000000000000D+00 0.206952694102D-07 0.000000000000D+00  7 21 1 23 -13 13 23 1 2 0.15725366D-01 0.21715548D+00 0.15624854D+06 0.15624854D+06 0.15624854D+06 0.11061559D+01  1  2 12  3  7  1       -1 0.202882281367D-05 0.100000000000D+01
-.281463424478D-08 0.000000000000D+00 -.133172740343D-06 0.206952694102D-07 0.000000000000D+00  7 21 1 23 -13 13 23 1 2 0.20274418D-01 0.21715548D+00 0.68955149D+05 0.68955149D+05 0.68955149D+05 0.11352153D+01  1  2  5  3  7  1       -1 -.800798931615D-06 0.100000000000D+01
  </mgrwgt>
  </event>
  <event>
  8     66 0.58687835E-06 0.25985503E+03 0.75467711E-02 0.98126607E-01
       -1 -1    0    0    0  501 0.00000000E+00 0.00000000E+00 0.80700874E+03 0.80700881E+03 0.32000000E+00 0.0000E+00 0.9000E+01
        1 -1    0    0  501    0 0.00000000E+00 0.00000000E+00 -.19921260E+03 0.19921286E+03 0.32000000E+00 0.0000E+00 0.9000E+01
       25  2    1    2    0    0 0.16422952E+03 0.11022530E+02 0.71272201E+03 0.79087127E+03 0.30068567E+03 0.0000E+00 0.0000E+00
       23  2    1    2    0    0 -.16422952E+03 -.11022530E+02 -.10492587E+03 0.21535040E+03 0.90958932E+02 0.0000E+00 0.0000E+00
       23  1    3    3    0    0 0.52496040E+02 0.11636564E+03 0.41533676E+03 0.44397824E+03 0.91188000E+02 0.0000E+00 0.9000E+01
      -11  1    4    4    0    0 -.17265021E+03 -.17601418E+02 -.10777972E+03 0.20428992E+03 0.51099893E-03 0.0000E+00 0.9000E+01
       11  1    4    4    0    0 0.84206873E+01 0.65788880E+01 0.28538558E+01 0.11060481E+02 0.51099893E-03 0.0000E+00 0.9000E+01
       23  1    3    3    0    0 0.11173348E+03 -.10534311E+03 0.29738524E+03 0.34689303E+03 0.91188000E+02 0.0000E+00 0.9000E+01
#aMCatNLO 1  0  0  2  2 0.20496223D+03 0.00000000D+00  -5  7  0 0.00000000D+00 0.00000000D+00 0.00000000D+00 0.00000000D+00 0.00000000D+00
  <mgrwgt>
 0.1053566740D-03    4    2    0
 0.400956948942333D+03 0.000000000000000D+00 0.000000000000000D+00 0.400956948942333D+03
 0.400956948942333D+03 0.000000000000000D+00 0.000000000000000D+00 -.400956948942333D+03
 0.242295888319139D+03 0.524960395301729D+02 0.116365635393892D+03 0.184648993729679D+03
 0.338027619383145D+03 -.172650206114329D+03 -.176014180032711D+02 -.290077175728788D+03
 0.117153884747288D+02 0.842068726728845D+01 0.657888796622472D+01 -.480214391581485D+01
 0.209875001707652D+03 0.111733479316868D+03 -.105343105356846D+03 0.110230325914924D+03
 0.000000000000000D+00 -.000000000000000D+00 0.000000000000000D+00 0.000000000000000D+00
 0.517666967306847D+03 0.000000000000000D+00 0.000000000000000D+00 0.517666967306847D+03
 0.515005370184946D+03 0.000000000000000D+00 0.000000000000000D+00 -.515005370184946D+03
 0.230784345573355D+03 0.817534829252117D+02 0.645544728267201D+02 0.184648993729679D+03
 0.331113248455983D+03 -.131267477220694D+03 -.908848989018409D+02 -.290077175728788D+03
 0.116861034592652D+02 0.986794246115874D+01 0.401598548997785D+01 -.480214391581485D+01
 0.254109129209045D+03 0.140428378139414D+03 -.156158073967383D+03 0.110230325914924D+03
 0.204979510794144D+03 -.100782326305090D+03 0.178472514552526D+03 0.266159712190156D+01
0.152974041729D-04 0.000000000000D+00 0.000000000000D+00 0.687990713514D-06 0.000000000000D+00  7 -1 1 23 -11 11 23 21 0 0.12415522D+00 0.30648118D-01 0.67524638D+05 0.67524638D+05 0.67524638D+05 0.11359912D+01  1  2  2  2  7  2        1 0.177086346528D-03 0.100000000000D+01
-.655469344282D-06 0.000000000000D+00 -.587460599230D-07 0.687990713514D-06 0.000000000000D+00  7 -1 1 23 -11 11 23 21 2 0.12415522D+00 0.30648118D-01 0.67524638D+05 0.67524638D+05 0.67524638D+05 0.11359912D+01  1  2  3  2  7  2        1 -.979196089265D-05 0.100000000000D+01
0.955582686416D-06 0.000000000000D+00 0.000000000000D+00 0.687990713514D-06 0.000000000000D+00  7 -1 1 23 -11 11 23 21 2 0.12415522D+00 0.30648118D-01 0.67524638D+05 0.67524638D+05 0.67524638D+05 0.11359912D+01  1  2 15  2  7  2        1 0.142753103203D-04 0.100000000000D+01
-.510166452922D-05 0.000000000000D+00 0.000000000000D+00 0.687990713514D-06 0.000000000000D+00  7 -1 1 23 -11 11 23 21 2 0.12415522D+00 0.30648118D-01 0.67524638D+05 0.67524638D+05 0.67524638D+05 0.11359912D+01  1  2  4  2  7  2        1 -.762130220022D-04 0.100000000000D+01
  </mgrwgt>
  </event>
  <event>
  8     66 -.58687835E-06 0.27488878E+03 0.75467711E-02 0.10131286E+00
       -1 -1    0    0    0  501 0.00000000E+00 0.00000000E+00 0.10499431E+04 0.10499431E+04 0.32000000E+00 0.0000E+00 0.9000E+01
        1 -1    0    0  502    0 0.00000000E+00 0.00000000E+00 -.10219487E+03 0.10219537E+03 0.32000000E+00 0.0000E+00 0.9000E+01
       25  2    1    2    0    0 -.15869881E+02 -.16146489E+03 0.71151092E+03 0.78887030E+03 0.29957605E+03 0.0000E+00 0.0000E+00
       23  1    3    3    0    0 0.10741175E+03 -.10941303E+03 0.35478833E+03 0.39711271E+03 0.91188000E+02 0.0000E+00 0.9000E+01
      -13  1    1    2    0    0 -.53164136E+02 0.86109371E+02 0.18090625E+03 0.20728804E+03 0.10565837E+00 0.0000E+00 0.9000E+01
       13  1    1    2    0    0 0.53275289E+02 0.95775110E+02 0.18709861E+02 0.11118093E+03 0.10565837E+00 0.0000E+00 0.9000E+01
       23  1    3    3    0    0 -.12328163E+03 -.52051858E+02 0.35672259E+03 0.39175760E+03 0.91188000E+02 0.0000E+00 0.9000E+01
       21  1    1    2  502  501 0.15758728E+02 -.20419594E+02 0.36621159E+02 0.44799209E+02 0.75000000E+00 0.0000E+00 0.9000E+01
#aMCatNLO 2  0  0  2  1 0.25793358D+02 0.00000000D+00  -5  7  0 0.00000000D+00 0.00000000D+00 0.00000000D+00 0.00000000D+00 0.00000000D+00
  <mgrwgt>
 -.1278195329D-03    3    2    0
 0.314397240950226D+03 0.000000000000000D+00 0.000000000000000D+00 0.314397240950226D+03
 0.314397240950226D+03 0.000000000000000D+00 0.000000000000000D+00 -.314397240950226D+03
 0.191491373890695D+03 0.112128602669007D+03 -.115526341716416D+03 0.493410150246600D+02
 0.987805207002431D+02 -.506369403765237D+02 0.828374951625831D+02 0.182055193363045D+02
 0.166909237765868D+03 0.574751909927848D+02 0.903328746003331D+02 -.128044007428565D+03
 0.171613349543645D+03 -.118966853285268D+03 -.576440280465001D+02 0.604974730676003D+02
 0.000000000000000D+00 0.000000000000000D+00 -.000000000000000D+00 -.000000000000000D+00
 0.327348935617596D+03 0.000000000000000D+00 0.000000000000000D+00 0.327348935617596D+03
 0.327771163853659D+03 0.000000000000000D+00 0.000000000000000D+00 -.327771163853659D+03
 0.185090643733687D+03 0.107411672560068D+03 -.109414312993939D+03 0.493410150246600D+02
 0.102822727448958D+03 -.531621497246860D+02 0.861095707943560D+02 0.182055193363045D+02
 0.168542660102209D+03 0.532734418834236D+02 0.957773502758131D+02 -.128044007428565D+03
 0.172867254314614D+03 -.123281692699362D+03 -.520530140134879D+02 0.604974730676003D+02
 0.257968138717878D+02 0.157587279805561D+02 -.204195940627421D+02 -.422228236062396D+00
-.226124088855D-04 0.000000000000D+00 0.000000000000D+00 0.280122657198D-09 0.000000000000D+00  7 -1 1 23 -13 13 23 21 2 0.15513617D+00 0.16019925D-01 0.83208123D+05 0.83208123D+05 0.83208123D+05 0.11283328D+01  1  2 13  2  7  2        1 -.424793908055D-03 0.100000000000D+01
-.128143468764D-05 0.000000000000D+00 0.000000000000D+00 0.280122657198D-09 0.000000000000D+00  7 -1 1 23 -13 13 23 21 2 0.15513617D+00 0.15080567D-01 0.75563843D+05 0.75563843D+05 0.75563843D+05 0.11318467D+01  1  2  8  2  7  2        1 -.262855607713D-04 0.100000000000D+01
0.189150893086D-04 0.000000000000D+00 0.000000000000D+00 0.280122657198D-09 0.286307488040D-11  7 -1 1 23 -13 13 23 21 2 0.16152706D+00 0.15722069D-01 0.83208123D+05 0.83208123D+05 0.83208123D+05 0.11283328D+01  1  2  1  2  7  2        1 0.323259935948D-03 0.100000000000D+01
  </mgrwgt>
  </event>
  <event>
  8     66 0.58687835E-06 0.95155037E+02 0.75467711E-02 0.10213914E+00
       -1 -1    0    0    0  501 0.00000000E+00 0.00000000E+00 0.10158495E+03 0.10158546E+03 0.32000000E+00 0.0000E+00 0.9000E+01
        1 -1    0    0  501    0 0.00000000E+00 0.00000000E+00 -.55410692E+03 0.55410701E+03 0.32000000E+00 0.0000E+00 0.9000E+01
       25  2    1    2    0    0 -.10929778E+03 -.75666608E+01 -.37935726E+03 0.49567903E+03 0.29963729E+03 0.0000E+00 0.0000E+00
       23  2    1    2    0    0 0.10929778E+03 0.75666608E+01 -.73164705E+02 0.16001345E+03 0.90818336E+02 0.0000E+00 0.0000E+00
       23  1    3    3    0    0 -.88290746E+02 -.46753408E+02 -.36982097E+03 0.39378158E+03 0.91188000E+02 0.0000E+00 0.9000E+01
      -13  1    4    4    0    0 0.11031824E+03 -.16583287E+02 -.76983607E+02 0.13554190E+03 0.10565837E+00 0.0000E+00 0.9000E+01
       13  1    4    4    0    0 -.10204642E+01 0.24149948E+02 0.38189025E+01 0.24471545E+02 0.10565837E+00 0.0000E+00 0.9000E+01
       23  1    3    3    0    0 -.21007031E+02 0.39186747E+02 -.95362939E+01 0.10189744E+03 0.91188000E+02 0.0000E+00 0.9000E+01
#aMCatNLO 1  0  0  2  1 0.14654372D+03 0.00000000D+00  -5  7  0 0.00000000D+00 0.00000000D+00 0.00000000D+00 0.00000000D+00 0.00000000D+00
  <mgrwgt>
 0.1246221474D-03    9    2    0
 0.237253286458117D+03 0.000000000000000D+00 0.000000000000000D+00 0.237253286458117D+03
 0.237253286458117D+03 0.000000000000000D+00 0.000000000000000D+00 -.237253286458117D+03
 0.191456801829170D+03 -.882907503823371D+02 -.467534083045240D+02 -.135496560220133D+03
 0.113880571849021D+03 0.110318392587903D+03 -.165833376230383D+02 0.228829590473285D+02
 0.374576347008333D+02 -.102060738949540D+01 0.241499989672454D+02 0.286148616599771D+02
 0.131711564537209D+03 -.210070348160708D+02 0.391867469603169D+02 0.839987395128277D+02
 0.000000000000000D+00 -.000000000000000D+00 0.000000000000000D+00 -.000000000000000D+00
 0.287459804269665D+03 0.000000000000000D+00 0.000000000000000D+00 0.287459804269665D+03
 0.385444177641721D+03 0.000000000000000D+00 0.000000000000000D+00 -.385444177641721D+03
 0.211946240838657D+03 -.820487014093931D+02 -.107306339175195D+03 -.135496560220133D+03
 0.127775849019354D+03 0.114057658419195D+03 -.528572448561716D+02 0.228829590473285D+02
 0.317519378182378D+02 0.503055570296047D-01 0.137612759853346D+02 0.286148616599771D+02
 0.125146097300073D+03 -.170325528844003D+02 0.631053037001031D+00 0.839987395128277D+02
 0.176283856935065D+03 -.150267096824307D+02 0.145771255009031D+03 -.979843733720560D+02
0.110774821734D-05 0.000000000000D+00 0.000000000000D+00 0.136399392599D-06 0.000000000000D+00  7 -1 1 23 -13 13 23 21 0 0.15628500D-01 0.85247264D-01 0.34678592D+05 0.34678592D+05 0.34678592D+05 0.11615409D+01  1  2  2  2  7  2        1 0.145197722960D-03 0.100000000000D+01
-.571526218619D-07 0.000000000000D+00 -.425404483139D-08 0.136399392599D-06 0.000000000000D+00  7 -1 1 23 -13 13 23 21 2 0.15628500D-01 0.85247264D-01 0.34678592D+05 0.34678592D+05 0.34678592D+05 0.11615409D+01  1  2  3  2  7  2        1 -.101070381148D-04 0.100000000000D+01
0.701675693681D-07 0.000000000000D+00 0.000000000000D+00 0.136399392599D-06 0.000000000000D+00  7 -1 1 23 -13 13 23 21 2 0.15628500D-01 0.85247264D-01 0.34678592D+05 0.34678592D+05 0.34678592D+05 0.11615409D+01  1  2 15  2  7  2        1 0.124086397951D-04 0.100000000000D+01
0.571956073054D-07 0.000000000000D+00 0.000000000000D+00 0.136399392599D-06 0.000000000000D+00  7 -1 1 23 -13 13 23 21 2 0.15628500D-01 0.14290732D+00 0.73376146D+05 0.73376146D+05 0.73376146D+05 0.11329247D+01  1  2 12  2  7  2        1 0.441003963856D-05 0.100000000000D+01
-.609871738175D-06 0.000000000000D+00 0.000000000000D+00 0.136399392599D-06 0.000000000000D+00  7 -1 1 23 -13 13 23 21 2 0.15628500D-01 0.85247264D-01 0.34678592D+05 0.34678592D+05 0.34678592D+05 0.11615409D+01  1  2  4  2  7  2        1 -.107851515855D-03 0.100000000000D+01
-.509530952097D-06 0.000000000000D+00 -.360606193208D-06 0.136399392599D-06 0.000000000000D+00  7 -1 1 23 -13 13 23 21 2 0.15628500D-01 0.15739867D+00 0.34678592D+05 0.34678592D+05 0.34678592D+05 0.11615409D+01  1  2  5  2  7  2        1 -.353340248189D-04 0.100000000000D+01
0.661021155780D-06 0.000000000000D+00 0.302017909686D-06 0.136399392599D-06 0.000000000000D+00  7 -1 1 23 -13 13 23 21 2 0.15628500D-01 0.85247264D-01 0.34678592D+05 0.34678592D+05 0.34678592D+05 0.11615409D+01  1  2  6  2  7  2        1 0.116896929634D-03 0.100000000000D+01
0.331029548455D-08 0.000000000000D+00 0.000000000000D+00 0.136399392599D-06 0.000000000000D+00  7 -1 21 23 -13 13 23 -1 2 0.15628500D-01 0.14290732D+00 0.73376146D+05 0.73376146D+05 0.73376146D+05 0.11329247D+01  1  2 12  4  7  2        1 0.392489877491D-06 0.100000000000D+01
-.142177726124D-07 0.000000000000D+00 -.241303920510D-07 0.136399392599D-06 0.000000000000D+00  7 -1 21 23 -13 13 23 -1 2 0.15628500D-01 0.15739867D+00 0.34678592D+05 0.34678592D+05 0.34678592D+05 0.11615409D+01  1  2  5  4  7  2        1 -.139109572230D-05 0.100000000000D+01
  </mgrwgt>
  </event>
  <event>
  8     66 0.58687835E-06 0.19168763E+03 0.75467711E-02 0.10455691E+00
       -1 -1    0    0    0  501 0.00000000E+00 0.00000000E+00 0.26334517E+02 0.26336462E+02 0.32000000E+00 0.0000E+00 0.9000E+01
        1 -1    0    0  501    0 0.00000000E+00 0.00000000E+00 -.15915335E+04 0.15915335E+04 0.32000000E+00 0.0000E+00 0.9000E+01
       25  2    1    2    0    0 -.44500346E+02 -.34375750E+02 -.12145364E+04 0.12522600E+04 0.29982414E+03 0.0000E+00 0.0000E+00
       23  2    1    2    0    0 0.44500346E+02 0.34375750E+02 -.35066256E+03 0.36560996E+03 0.86858696E+02 0.0000E+00 0.0000E+00
       23  1    3    3    0    0 -.10237136E+03 -.10759938E+03 -.66735280E+03 0.68973367E+03 0.91188000E+02 0.0000E+00 0.9000E+01
      -11  1    4    4    0    0 -.24794162E+01 -.12205892E+02 -.20779145E+03 0.20816440E+03 0.51099893E-03 0.0000E+00 0.9000E+01
       11  1    4    4    0    0 0.46979762E+02 0.46581642E+02 -.14287111E+03 0.15744555E+03 0.51099893E-03 0.0000E+00 0.9000E+01
       23  1    3    3    0    0 0.57871011E+02 0.73223626E+02 -.54718359E+03 0.56252634E+03 0.91188000E+02 0.0000E+00 0.9000E+01
#aMCatNLO 1  0  0  1  1 0.65149675D+02 0.00000000D+00  -5  7  0 0.00000000D+00 0.00000000D+00 0.00000000D+00 0.00000000D+00 0.00000000D+00
  <mgrwgt>
 0.1121790645D-02    4    2    0
 0.204728758850918D+03 0.000000000000000D+00 0.000000000000000D+00 0.204728758850918D+03
 0.204728758850918D+03 0.000000000000000D+00 0.000000000000000D+00 -.204728758850918D+03
 0.174278102936109D+03 -.102371356834527D+03 -.107599376144691D+03 -.292185112765051D+00
 0.282031029966725D+02 -.247941613241579D+01 -.122058919601819D+02 -.253038280846910D+02
 0.759656724715772D+02 0.469797623546824D+02 0.465816419882933D+02 0.373341124553803D+02
 0.131010639297478D+03 0.578710106122601D+02 0.732236261165801D+02 -.117380992579242D+02
 0.000000000000000D+00 -.000000000000000D+00 -.000000000000000D+00 -.000000000000000D+00
 0.213260077760352D+03 0.000000000000000D+00 0.000000000000000D+00 0.213260077760352D+03
 0.385464223792926D+03 0.000000000000000D+00 0.000000000000000D+00 -.385464223792926D+03
 0.152994607596585D+03 -.825091464769581D+02 -.910178772831837D+02 -.292185112765051D+00
 0.270104120645844D+02 0.871497082873242D+00 -.940846092586840D+01 -.253038280846910D+02
 0.874094101158970D+02 0.568950108709909D+02 0.548591538575645D+02 0.373341124553803D+02
 0.147193745366484D+03 0.747552598415936D+02 0.873190442162542D+02 -.117380992579242D+02
 0.184116126409728D+03 -.500126213184996D+02 -.417518598647666D+02 -.172204146032574D+03
0.715380926430D-05 0.000000000000D+00 0.000000000000D+00 0.864928218462D-08 0.000000000000D+00  7 -1 1 23 -11 11 23 21 0 0.40516162D-02 0.24485146D+00 0.36744149D+05 0.36744149D+05 0.36744149D+05 0.11592521D+01  1  2  2  1  7  1       -1 0.115079795653D-02 0.100000000000D+01
-.395340474051D-06 0.000000000000D+00 -.274725112162D-07 0.864928218462D-08 0.000000000000D+00  7 -1 1 23 -11 11 23 21 2 0.40516162D-02 0.24485146D+00 0.36744149D+05 0.36744149D+05 0.36744149D+05 0.11592521D+01  1  2  3  1  7  1       -1 -.854650892579D-04 0.100000000000D+01
0.468805586174D-06 0.000000000000D+00 0.000000000000D+00 0.864928218462D-08 0.000000000000D+00  7 -1 1 23 -11 11 23 21 2 0.40516162D-02 0.24485146D+00 0.36744149D+05 0.36744149D+05 0.36744149D+05 0.11592521D+01  1  2 15  1  7  1       -1 0.101346848848D-03 0.100000000000D+01
-.207645798420D-06 0.000000000000D+00 0.000000000000D+00 0.864928218462D-08 0.000000000000D+00  7 -1 1 23 -11 11 23 21 2 0.40516162D-02 0.24485146D+00 0.36744149D+05 0.36744149D+05 0.36744149D+05 0.11592521D+01  1  2  4  1  7  1       -1 -.448890712205D-04 0.100000000000D+01
  </mgrwgt>
  </event>
  <event>
  7     66 0.58687835E-06 0.24662686E+03 0.75467711E-02 0.91786242E-01
       -1 -1    0    0    0  501 0.00000000E+00 0.00000000E+00 0.43377445E+03 0.43377457E+03 0.32000000E+00 0.0000E+00 0.9000E+01
        1 -1    0    0  501    0 0.00000000E+00 0.00000000E+00 -.18687461E+03 0.18687488E+03 0.32000000E+00 0.0000E+00 0.9000E+01
       23  2    1    2    0    0 0.14946280E+03 0.54025558E+02 -.46370416E+02 0.18987202E+03 0.92969250E+02 0.0000E+00 0.0000E+00
       23  1    1    2    0    0 -.16152860E+03 -.10128997E+03 0.21083951E+03 0.29852923E+03 0.91188000E+02 0.0000E+00 0.9000E+01
      -11  1    3    3    0    0 -.97601731E+01 0.83621654E+01 0.84651900E+01 0.15389809E+02 0.51099893E-03 0.0000E+00 0.9000E+01
       11  1    3    3    0    0 0.15922297E+03 0.45663393E+02 -.54835606E+02 0.17448221E+03 0.51099893E-03 0.0000E+00 0.9000E+01
       23  1    1    2    0    0 0.12065806E+02 0.47264410E+02 0.82430746E+02 0.13224820E+03 0.91188000E+02 0.0000E+00 0.9000E+01
#aMCatNLO 1  0  0  2  2 0.60075555D+03 0.00000000D+00  -5  7  0 0.00000000D+00 0.00000000D+00 0.00000000D+00 0.00000000D+00 0.00000000D+00
  <mgrwgt>
 0.6215569723D-03    3    2    0
 0.284713106056296D+03 0.000000000000000D+00 0.000000000000000D+00 0.284713106056296D+03
 0.284713106056296D+03 0.000000000000000D+00 0.000000000000000D+00 -.284713106056296D+03
 0.233964919523668D+03 -.161528601860166D+03 -.101289967954254D+03 0.100365259909206D+03
 0.131037568489494D+02 -.976017306782342D+01 0.836216537558322D+01 0.255375321319800D+01
 0.213954312278527D+03 0.159222969438596D+03 0.456633927411906D+02 -.135422850025752D+03
 0.108403223461448D+03 0.120658054893939D+02 0.472644098374797D+02 0.325038369033479D+02
 0.000000000000000D+00 0.000000000000000D+00 0.000000000000000D+00 0.000000000000000D+00
 0.714807016137250D+03 0.000000000000000D+00 0.000000000000000D+00 0.714807016137250D+03
 0.713689535937011D+03 0.000000000000000D+00 0.000000000000000D+00 -.713689535937011D+03
 0.530957282254443D+03 -.481097511006086D+03 -.179087642628213D+03 0.100365259909206D+03
 0.269662983862061D+02 -.265006256408420D+02 0.428677429122758D+01 0.255375321319800D+01
 0.136400580147226D+03 0.128518345360262D+02 0.100299703120749D+02 -.135422850025752D+03
 0.133415800548766D+03 -.889612552156529D+02 0.226698069926557D+02 0.325038369033479D+02
 0.600756590737620D+03 0.583707557326555D+03 0.142101091032254D+03 0.111748020023846D+01
0.129491600457D-04 0.000000000000D+00 0.000000000000D+00 0.122882472259D-09 0.000000000000D+00  7 -1 1 23 -11 11 23 21 0 0.66734561D-01 0.28749970D-01 0.60824807D+05 0.60824807D+05 0.60824807D+05 0.11398835D+01  1  2  2  2  7  2        1 0.612270284788D-03 0.100000000000D+01
-.701359591017D-06 0.000000000000D+00 -.497281841676D-07 0.122882472259D-09 0.000000000000D+00  7 -1 1 23 -11 11 23 21 2 0.66734561D-01 0.28749970D-01 0.60824807D+05 0.60824807D+05 0.60824807D+05 0.11398835D+01  1  2  3  2  7  2        1 -.430886864299D-04 0.100000000000D+01
0.852520090420D-06 0.000000000000D+00 0.000000000000D+00 0.122882472259D-09 0.000000000000D+00  7 -1 1 23 -11 11 23 21 2 0.66734561D-01 0.28749970D-01 0.60824807D+05 0.60824807D+05 0.60824807D+05 0.11398835D+01  1  2 15  2  7  2        1 0.523753739477D-04 0.100000000000D+01
  </mgrwgt>
  </event>
  <event>
  8     66 0.58687835E-06 0.12320676E+03 0.75467711E-02 0.10612338E+00
       -1 -1    0    0    0  501 0.00000000E+00 0.00000000E+00 0.33777351E+03 0.33777367E+03 0.32000000E+00 0.0000E+00 0.9000E+01
        1 -1    0    0  501    0 0.00000000E+00 0.00000000E+00 -.17044272E+03 0.17044302E+03 0.32000000E+00 0.0000E+00 0.9000E+01
       25  2    1    2    0    0 0.24802627E+02 0.10965301E+03 0.15266749E+03 0.36317067E+03 0.30975251E+03 0.0000E+00 0.0000E+00
       23  2    1    2    0    0 -.24802627E+02 -.10965301E+03 0.14663303E+02 0.14504602E+03 0.90467567E+02 0.0000E+00 0.0000E+00
       23  1    3    3    0    0 -.27495001E+02 0.95425221E+02 0.20462708E+03 0.24504987E+03 0.91188000E+02 0.0000E+00 0.9000E+01
      -11  1    4    4    0    0 0.16367012E+02 0.88220933E+01 0.49785164E+01 0.19248221E+02 0.51099893E-03 0.0000E+00 0.9000E+01
       11  1    4    4    0    0 -.41169639E+02 -.11847511E+03 0.96847866E+01 0.12579780E+03 0.51099893E-03 0.0000E+00 0.9000E+01
       23  1    3    3    0    0 0.52297629E+02 0.14227793E+02 -.51959584E+02 0.11812079E+03 0.91188000E+02 0.0000E+00 0.9000E+01
#aMCatNLO 1  0  0  2  1 0.19421930D+02 0.00000000D+00  -5  7  0 0.00000000D+00 0.00000000D+00 0.00000000D+00 0.00000000D+00 0.00000000D+00
  <mgrwgt>
 0.1931696220D-03    9    2    0
 0.239939889017248D+03 0.000000000000000D+00 0.000000000000000D+00 0.239939889017248D+03
 0.239939889017248D+03 0.000000000000000D+00 0.000000000000000D+00 -.239939889017248D+03
 0.188168004964939D+03 -.274949978218956D+02 0.954252243384325D+02 0.131263088502516D+03
 0.186488536304301D+02 0.163670113646389D+02 0.882209216601542D+01 -.143922567143466D+01
 0.129849146116759D+03 -.411696406687085D+02 -.118475115574879D+03 -.336081600802555D+02
 0.143213773322367D+03 0.522976271259653D+02 0.142277990704307D+02 -.962157027508255D+02
 0.000000000000000D+00 0.000000000000000D+00 -.000000000000000D+00 -.000000000000000D+00
 0.245487903623543D+03 0.000000000000000D+00 0.000000000000000D+00 0.245487903623543D+03
 0.257757811388691D+03 0.000000000000000D+00 0.000000000000000D+00 -.257757811388691D+03
 0.191838863100015D+03 -.329330641807758D+02 0.100857884827870D+03 0.131263088502516D+03
 0.184478392424699D+02 0.158361412817767D+02 0.935243452189344D+01 -.143922567143466D+01
 0.127745365919731D+03 -.448559320698902D+02 -.114792488639838D+03 -.336081600802555D+02
 0.142240575883691D+03 0.482126491324934D+02 0.183087162716554D+02 -.962157027508255D+02
 0.229730708663277D+02 0.137402058363960D+02 -.137265469815810D+02 -.122699077651478D+02
0.167937759271D-05 0.000000000000D+00 0.000000000000D+00 0.124509659740D-08 0.000000000000D+00  7 -1 1 23 -11 11 23 21 0 0.51965191D-01 0.26221991D-01 0.37040733D+05 0.37040733D+05 0.37040733D+05 0.11589351D+01  1  2  2  2  7  2        1 0.141838659612D-03 0.100000000000D+01
-.877833020044D-07 0.000000000000D+00 -.644925214629D-08 0.124509659740D-08 0.000000000000D+00  7 -1 1 23 -11 11 23 21 2 0.51965191D-01 0.26221991D-01 0.37040733D+05 0.37040733D+05 0.37040733D+05 0.11589351D+01  1  2  3  2  7  2        1 -.995809858479D-05 0.100000000000D+01
0.109334873215D-06 0.000000000000D+00 0.000000000000D+00 0.124509659740D-08 0.000000000000D+00  7 -1 1 23 -11 11 23 21 2 0.51965191D-01 0.26221991D-01 0.37040733D+05 0.37040733D+05 0.37040733D+05 0.11589351D+01  1  2 15  2  7  2        1 0.124028992003D-04 0.100000000000D+01
0.584866616740D-05 0.000000000000D+00 0.000000000000D+00 0.124509659740D-08 0.000000000000D+00  7 -1 1 23 -11 11 23 21 2 0.51965191D-01 0.28456903D-01 0.41152273D+05 0.41152273D+05 0.41152273D+05 0.11548098D+01  1  2 12  2  7  2        1 0.593219994428D-03 0.100000000000D+01
-.579997445331D-05 0.000000000000D+00 0.000000000000D+00 0.124509659740D-08 0.000000000000D+00  7 -1 1 23 -11 11 23 21 2 0.51965191D-01 0.26221991D-01 0.37040733D+05 0.37040733D+05 0.37040733D+05 0.11589351D+01  1  2  4  2  7  2        1 -.657946512338D-03 0.100000000000D+01
-.145319244288D-04 0.000000000000D+00 -.255007524548D-05 0.124509659740D-08 0.000000000000D+00  7 -1 1 23 -11 11 23 21 2 0.51965191D-01 0.28751824D-01 0.37040733D+05 0.37040733D+05 0.37040733D+05 0.11589351D+01  1  2  5  2  7  2        1 -.146513899541D-02 0.100000000000D+01
0.147151136970D-04 0.000000000000D+00 0.253929729629D-05 0.124509659740D-08 0.000000000000D+00  7 -1 1 23 -11 11 23 21 2 0.51965191D-01 0.26221991D-01 0.37040733D+05 0.37040733D+05 0.37040733D+05 0.11589351D+01  1  2  6  2  7  2        1 0.166927592759D-02 0.100000000000D+01
0.806192549141D-07 0.000000000000D+00 0.000000000000D+00 0.124509659740D-08 0.000000000000D+00  7 -1 21 23 -11 11 23 -1 2 0.51965191D-01 0.28456903D-01 0.41152273D+05 0.41152273D+05 0.41152273D+05 0.11548098D+01  1  2 12  4  7  2        1 0.561911829060D-04 0.100000000000D+01
-.212544034031D-06 0.000000000000D+00 -.385625005456D-07 0.124509659740D-08 0.000000000000D+00  7 -1 21 23 -11 11 23 -1 2 0.51965191D-01 0.28751824D-01 0.37040733D+05 0.37040733D+05 0.37040733D+05 0.11589351D+01  1  2  5  4  7  2        1 -.146715435442D-03 0.100000000000D+01
  </mgrwgt>
  </event>
  <event>
  9     66 0.58687835E-06 0.24089384E+03 0.75467711E-02 0.99693521E-01
       21 -1    0    0  502  501 0.00000000E+00 0.00000000E+00 0.60354236E+03 0.60354283E+03 0.75000000E+00 0.0000E+00 0.9000E+01
        3 -1    0    0  501    0 0.00000000E+00 0.00000000E+00 -.40467437E+03 0.40467468E+03 0.50000000E+00 0.0000E+00 0.9000E+01
       25  2    1    2    0    0 -.19892896E+03 -.17688560E+02 -.25285719E+03 0.44076385E+03 0.30074973E+03 0.0000E+00 0.0000E+00
       23  2    1    2    0    0 0.79066252E+02 0.12449149E+03 0.16850302E+03 0.24189418E+03 0.91487289E+02 0.0000E+00 0.0000E+00
       23  1    3    3    0    0 -.11118729E+03 -.99820710E+02 -.22866277E+03 0.28797344E+03 0.91188000E+02 0.0000E+00 0.9000E+01
      -11  1    4    4    0    0 0.64829028E+02 0.13544861E+03 0.12699227E+03 0.19666257E+03 0.51099893E-03 0.0000E+00 0.9000E+01
       11  1    4    4    0    0 0.14237224E+02 -.10957115E+02 0.41510747E+02 0.45231615E+02 0.51099893E-03 0.0000E+00 0.9000E+01
       23  1    3    3    0    0 -.87741666E+02 0.82132150E+02 -.24194419E+02 0.15279042E+03 0.91188000E+02 0.0000E+00 0.9000E+01
        3  1    1    2  502    0 0.11986271E+03 -.10680293E+03 0.28322215E+03 0.32555948E+03 0.50000000E+00 0.0000E+00 0.9000E+01
#aMCatNLO 2  0  0  1  2 0.16054263D+03 0.00000000D+00  -5  7  0 0.00000000D+00 0.00000000D+00 0.00000000D+00 0.00000000D+00 0.00000000D+00
  <mgrwgt>
 0.1167447206D-04    2    2    0
 0.329063987470188D+03 0.000000000000000D+00 0.000000000000000D+00 0.329063987470188D+03
 0.329063987470188D+03 0.000000000000000D+00 0.000000000000000D+00 -.329063987470188D+03
 0.265347568051244D+03 -.638839162326401D+02 -.141970094013444D+03 -.194569828543134D+03
 0.210095737486058D+03 0.102890097535783D+03 0.101534522938975D+03 0.152461757140741D+03
 0.566091942790963D+02 0.238724401306383D+02 -.195425156382272D+02 0.474636446310985D+02
 0.126075475123977D+03 -.628786214337813D+02 0.599780867126958D+02 -.535557322870561D+01
 0.000000000000000D+00 0.000000000000000D+00 -.000000000000000D+00 0.000000000000000D+00
 0.683357663095277D+03 0.000000000000000D+00 0.000000000000000D+00 0.683357663095277D+03
 0.357409168520944D+03 0.000000000000000D+00 0.000000000000000D+00 -.357409168520944D+03
 0.261724010687949D+03 -.111187293114317D+03 -.998207097610098D+02 -.194569828543134D+03
 0.213994661326392D+03 0.648290280793086D+02 0.135448605766345D+03 0.152461757140741D+03
 0.507499209344560D+02 0.142372237890965D+02 -.109571151297007D+02 0.474636446310985D+02
 0.150957687963025D+03 -.877416659439313D+02 0.821321502453060D+02 -.535557322870561D+01
 0.363340550704400D+03 0.119862707189844D+03 -.106802931120941D+03 0.325948494574333D+03
-.159877300566D-06 0.000000000000D+00 0.000000000000D+00 0.360602541882D-06 0.000000000000D+00  7 21 3 23 -11 11 23 3 2 0.92772355D-01 0.57320138D-01 0.10711975D+06 0.10711975D+06 0.10711975D+06 0.11192791D+01  1  2 13  3  7  1       -3 -.383474780216D-05 0.100000000000D+01
0.769734240439D-06 0.000000000000D+00 0.000000000000D+00 0.360602541882D-06 0.107705948654D-10  7 21 3 23 -11 11 23 3 2 0.92852688D-01 0.62257627D-01 0.10711975D+06 0.10711975D+06 0.10711975D+06 0.11192791D+01  1  2  1  3  7  1       -3 0.155092198641D-04 0.100000000000D+01
  </mgrwgt>
  </event>
  <event>
  8     66 0.58687835E-06 0.25748818E+03 0.75467711E-02 0.91105499E-01
       -1 -1    0    0    0  501 0.00000000E+00 0.00000000E+00 0.14532556E+03 0.14532591E+03 0.32000000E+00 0.0000E+00 0.9000E+01
        1 -1    0    0  501    0 0.00000000E+00 0.00000000E+00 -.61528781E+03 0.61528789E+03 0.32000000E+00 0.0000E+00 0.9000E+01
       25  2    1    2    0    0 -.16470428E+03 0.51523290E+02 -.13276281E+03 0.37139873E+03 0.30088022E+03 0.0000E+00 0.0000E+00
       23  2    1    2    0    0 0.16470428E+03 -.51523290E+02 -.33719944E+03 0.38921507E+03 0.89458141E+02 0.0000E+00 0.0000E+00
       23  1    3    3    0    0 0.35038433E+02 0.39697391E+02 -.10662536E+03 0.14995930E+03 0.91188000E+02 0.0000E+00 0.9000E+01
      -11  1    4    4    0    0 0.31816888E+02 0.21123624E+02 -.10749279E+03 0.11407551E+03 0.51099893E-03 0.0000E+00 0.9000E+01
       11  1    4    4    0    0 0.13288739E+03 -.72646913E+02 -.22970665E+03 0.27513956E+03 0.51099893E-03 0.0000E+00 0.9000E+01
       23  1    3    3    0    0 -.19974271E+03 0.11825899E+02 -.26137452E+02 0.22143943E+03 0.91188000E+02 0.0000E+00 0.9000E+01
#aMCatNLO 1  0  0  1  1 0.60258283D+03 0.00000000D+00  -5  7  0 0.00000000D+00 0.00000000D+00 0.00000000D+00 0.00000000D+00 0.00000000D+00
  <mgrwgt>
 0.2572951135D-03    3    2    0
 0.299027106088038D+03 0.000000000000000D+00 0.000000000000000D+00 0.299027106088038D+03
 0.299027106088038D+03 0.000000000000000D+00 0.000000000000000D+00 -.299027106088038D+03
 0.106932151064641D+03 0.350384332545872D+02 0.396973905626138D+02 -.177667938833736D+02
 0.606129889646276D+02 0.318168881164473D+02 0.211236237563065D+02 -.470681695120338D+02
 0.169418577053390D+03 0.132887391108700D+03 -.726469132767002D+02 -.759343237705231D+02
 0.261090495093417D+03 -.199742712479734D+03 0.118258989577799D+02 0.140769287165930D+03
 0.000000000000000D+00 0.000000000000000D+00 -.000000000000000D+00 -.000000000000000D+00
 0.548103083946175D+03 0.000000000000000D+00 0.000000000000000D+00 0.548103083946175D+03
 0.115886619135439D+04 0.000000000000000D+00 0.000000000000000D+00 -.115886619135439D+04
 0.160906385306237D+03 -.347546837874542D+02 0.126696750069838D+03 -.177667938833736D+02
 0.825862368547761D+02 -.549783314570963D+01 0.676376209466415D+02 -.470681695120338D+02
 0.996233106042897D+02 0.627807059060027D+02 0.147433190027265D+02 -.759343237705231D+02
 0.505868702192581D+03 -.399596227765267D+03 0.260949717494713D+03 0.140769287165930D+03
 0.857984640342684D+03 0.377068038792428D+03 -.470027407513919D+03 -.610763107408218D+03
0.395351019927D-05 0.000000000000D+00 0.000000000000D+00 0.444036072651D-07 0.000000000000D+00  7 -1 1 23 -11 11 23 21 0 0.22357812D-01 0.94659696D-01 0.66300161D+05 0.66300161D+05 0.66300161D+05 0.11366699D+01  1  2  2  1  7  1       -1 0.253547536621D-03 0.100000000000D+01
-.213666005506D-06 0.000000000000D+00 -.151825201483D-07 0.444036072651D-07 0.000000000000D+00  7 -1 1 23 -11 11 23 21 2 0.22357812D-01 0.94659696D-01 0.66300161D+05 0.66300161D+05 0.66300161D+05 0.11366699D+01  1  2  3  1  7  1       -1 -.177043789396D-04 0.100000000000D+01
0.258893786414D-06 0.000000000000D+00 0.000000000000D+00 0.444036072651D-07 0.000000000000D+00  7 -1 1 23 -11 11 23 21 2 0.22357812D-01 0.94659696D-01 0.66300161D+05 0.66300161D+05 0.66300161D+05 0.11366699D+01  1  2 15  1  7  1       -1 0.214519557706D-04 0.100000000000D+01
  </mgrwgt>
  </event>
  <event>
  8     66 0.58687835E-06 0.11287123E+04 0.75467711E-02 0.80395769E-01
       -1 -1    0    0    0  501 0.00000000E+00 0.00000000E+00 0.13253252E+04 0.13253252E+04 0.32000000E+00 0.0000E+00 0.9000E+01
        1 -1    0    0  501    0 0.00000000E+00 0.00000000E+00 -.21998022E+04 0.21998022E+04 0.32000000E+00 0.0000E+00 0.9000E+01
       25  2    1    2    0    0 -.21361330E+02 0.16908560E+04 -.52634127E+03 0.17962546E+04 0.30007486E+03 0.0000E+00 0.0000E+00
       23  2    1    2    0    0 0.21361330E+02 -.16908560E+04 -.34813570E+03 0.17288728E+04 0.91391291E+02 0.0000E+00 0.0000E+00
       23  1    3    3    0    0 -.87607667E+02 0.13866435E+04 -.40831861E+03 0.14510322E+04 0.91188000E+02 0.0000E+00 0.9000E+01
      -11  1    4    4    0    0 -.21967582E+01 -.15257130E+04 -.33075757E+03 0.15611552E+04 0.51099893E-03 0.0000E+00 0.9000E+01
       11  1    4    4    0    0 0.23558088E+02 -.16514306E+03 -.17378137E+02 0.16771766E+03 0.51099893E-03 0.0000E+00 0.9000E+01
       23  1    3    3    0    0 0.66246338E+02 0.30421258E+03 -.11802266E+03 0.34522235E+03 0.91188000E+02 0.0000E+00 0.9000E+01
#aMCatNLO 1  0  0  1  2 0.87765844D+03 0.00000000D+00  -5  7  0 0.00000000D+00 0.00000000D+00 0.00000000D+00 0.00000000D+00 0.00000000D+00
  <mgrwgt>
 0.1916828291D-03    9    2    0
 0.170746985443872D+04 0.000000000000000D+00 0.000000000000000D+00 0.170746985443872D+04
 0.170746985443872D+04 0.000000000000000D+00 0.000000000000000D+00 -.170746985443872D+04
 0.139329201497998D+04 -.876076672951458D+02 0.138664345500404D+04 -.499220691530220D+02
 0.152682958734940D+04 -.219675817918731D+01 -.152571297004846D+04 0.583412040065851D+02
 0.168679213461987D+03 0.235580877690907D+02 -.165143061864037D+03 0.250092517478857D+02
 0.326138893086085D+03 0.662463377052424D+02 0.304212576908457D+03 -.334283866014488D+02
 0.000000000000000D+00 -.000000000000000D+00 -.000000000000000D+00 0.000000000000000D+00
 0.236098518847613D+04 0.000000000000000D+00 0.000000000000000D+00 0.236098518847613D+04
 0.208497010431248D+04 0.000000000000000D+00 0.000000000000000D+00 -.208497010431248D+04
 0.160963454892889D+04 0.233567000575498D+03 0.158920180374147D+04 -.499220691530220D+02
 0.136679643318463D+04 0.307287791745050D+03 -.133052734159271D+04 0.583412040065851D+02
 0.156641055489823D+03 0.583523549975840D+02 -.143199023244618D+03 0.250092517478857D+02
 0.392845936078340D+03 0.143144559755112D+03 0.352710725851946D+03 -.334283866014488D+02
 0.920037319106918D+03 -.742351707073244D+03 -.468186164756092D+03 0.276015084163650D+03
0.485313989725D-02 0.000000000000D+00 0.000000000000D+00 0.251072825191D-04 0.000000000000D+00  7 -1 1 23 -11 11 23 21 0 0.20389619D+00 0.33843111D+00 0.29059135D+07 0.29059135D+07 0.29059135D+07 0.10183498D+01  1  2  2  1  7  1       -1 0.141107169295D-03 0.100000000000D+01
-.269618002820D-03 0.000000000000D+00 -.186373350665D-04 0.251072825191D-04 0.000000000000D+00  7 -1 1 23 -11 11 23 21 2 0.20389619D+00 0.33843111D+00 0.29059135D+07 0.29059135D+07 0.29059135D+07 0.10183498D+01  1  2  3  1  7  1       -1 -.812959973362D-05 0.100000000000D+01
0.313465088158D-03 0.000000000000D+00 0.000000000000D+00 0.251072825191D-04 0.000000000000D+00  7 -1 1 23 -11 11 23 21 2 0.20389619D+00 0.33843111D+00 0.29059135D+07 0.29059135D+07 0.29059135D+07 0.10183498D+01  1  2 15  1  7  1       -1 0.945168968887D-05 0.100000000000D+01
0.132235163351D-02 0.000000000000D+00 0.000000000000D+00 0.251072825191D-04 0.000000000000D+00  7 -1 1 23 -11 11 23 21 2 0.29746530D+00 0.33843111D+00 0.48358696D+07 0.48358696D+07 0.48358696D+07 0.10051284D+01  1  2 12  1  7  1       -1 0.580726646773D-05 0.100000000000D+01
-.211738394180D-02 0.000000000000D+00 0.000000000000D+00 0.251072825191D-04 0.000000000000D+00  7 -1 1 23 -11 11 23 21 2 0.20389619D+00 0.33843111D+00 0.29059135D+07 0.29059135D+07 0.29059135D+07 0.10183498D+01  1  2  4  1  7  1       -1 -.638439709114D-04 0.100000000000D+01
-.354158152439D-02 0.000000000000D+00 -.161043602514D-02 0.251072825191D-04 0.000000000000D+00  7 -1 1 23 -11 11 23 21 2 0.31413144D+00 0.33843111D+00 0.29059135D+07 0.29059135D+07 0.29059135D+07 0.10183498D+01  1  2  5  1  7  1       -1 -.118282266826D-04 0.100000000000D+01
0.399789805710D-02 0.000000000000D+00 0.147090372423D-02 0.251072825191D-04 0.000000000000D+00  7 -1 1 23 -11 11 23 21 2 0.20389619D+00 0.33843111D+00 0.29059135D+07 0.29059135D+07 0.29059135D+07 0.10183498D+01  1  2  6  1  7  1       -1 0.120545774541D-03 0.100000000000D+01
0.603601095301D-04 0.000000000000D+00 0.000000000000D+00 0.251072825191D-04 0.000000000000D+00  7 21 1 23 -11 11 23 1 2 0.29746530D+00 0.33843111D+00 0.48358696D+07 0.48358696D+07 0.48358696D+07 0.10051284D+01  1  2 12  3  7  1       -1 0.219768631026D-05 0.100000000000D+01
-.117636802737D-03 0.000000000000D+00 -.811809825207D-04 0.251072825191D-04 0.000000000000D+00  7 21 1 23 -11 11 23 1 2 0.31413144D+00 0.33843111D+00 0.29059135D+07 0.29059135D+07 0.29059135D+07 0.10183498D+01  1  2  5  3  7  1       -1 -.362495988970D-05 0.100000000000D+01
  </mgrwgt>
  </event>
  <event>
  9     66 0.58687835E-06 0.17729362E+03 0.75467711E-02 0.10257311E+00
       -1 -1    0    0    0  501 0.00000000E+00 0.00000000E+00 0.41538709E+03 0.41538721E+03 0.32000000E+00 0.0000E+00 0.9000E+01
        1 -1    0    0  502    0 0.00000000E+00 0.00000000E+00 -.47830257E+03 0.47830267E+03 0.32000000E+00 0.0000E+00 0.9000E+01
       25  2    1    2    0    0 0.44986133E+02 -.44727804E+02 0.29055410E+03 0.42274890E+03 0.30045069E+03 0.0000E+00 0.0000E+00
       23  2    1    2    0    0 0.84199485E+02 0.10316542E+03 -.23763028E+03 0.28784761E+03 0.93034620E+02 0.0000E+00 0.0000E+00
       23  1    3    3    0    0 0.36165695E+02 -.81061608E+02 0.29787754E+03 0.32392163E+03 0.91188000E+02 0.0000E+00 0.9000E+01
      -13  1    4    4    0    0 0.38891654E+02 -.52817310E+01 -.96564941E+02 0.10423654E+03 0.10565837E+00 0.0000E+00 0.9000E+01
       13  1    4    4    0    0 0.45307831E+02 0.10844715E+03 -.14106534E+03 0.18361107E+03 0.10565837E+00 0.0000E+00 0.9000E+01
       23  1    3    3    0    0 0.88204377E+01 0.36333803E+02 -.73234407E+01 0.98827271E+02 0.91188000E+02 0.0000E+00 0.9000E+01
       21  1    1    2  502  501 -.12918562E+03 -.58437618E+02 -.11583930E+03 0.18309338E+03 0.75000000E+00 0.0000E+00 0.9000E+01
#aMCatNLO 2  0  0  2  1 0.14178815D+03 0.00000000D+00  -5  7  0 0.00000000D+00 0.00000000D+00 0.00000000D+00 0.00000000D+00 0.00000000D+00
  <mgrwgt>
 0.9648107862D-04    2    2    0
 0.347146434695821D+03 0.000000000000000D+00 0.000000000000000D+00 0.347146434695821D+03
 0.347146434695821D+03 0.000000000000000D+00 0.000000000000000D+00 -.347146434695821D+03
 0.308915343895720D+03 -.201427245754275D+02 -.106532940996671D+03 0.274514920322174D+03
 0.107253082528993D+03 0.187260777068843D+02 -.144038480319657D+02 -.104618769289066D+03
 0.181117593902741D+03 0.107050418536042D+02 0.927945870708821D+02 -.155171355315262D+03
 0.970068490641863D+02 -.928839498506100D+01 0.281422019577544D+02 -.147247957178457D+02
 0.000000000000000D+00 -.000000000000000D+00 -.000000000000000D+00 -.000000000000000D+00
 0.385520017840708D+03 0.000000000000000D+00 0.000000000000000D+00 0.385520017840708D+03
 0.515356113716800D+03 0.000000000000000D+00 0.000000000000000D+00 -.515356113716800D+03
 0.302576658999646D+03 0.361656949659355D+02 -.810616077778450D+02 0.274514920322174D+03
 0.111738736121262D+03 0.388916451097251D+02 -.528187495852258D+01 -.104618769289066D+03
 0.194658075025402D+03 0.453078394687070D+02 0.108447297545386D+03 -.155171355315262D+03
 0.996494672259908D+02 0.882043769090953D+01 0.363338030549008D+02 -.147247957178457D+02
 0.192253194185207D+03 -.129185617235277D+03 -.584376178639196D+02 -.129836095876092D+03
-.417012715463D-06 0.000000000000D+00 0.000000000000D+00 0.191891641055D-06 0.000000000000D+00  7 -1 1 23 -13 13 23 21 2 0.57544623D-01 0.75265240D-01 0.68743628D+05 0.68743628D+05 0.68743628D+05 0.11353289D+01  1  2 13  2  7  2        1 -.946655928346D-05 0.100000000000D+01
0.549918549645D-05 0.000000000000D+00 0.000000000000D+00 0.191891641055D-06 0.679014154383D-10  7 -1 1 23 -13 13 23 21 2 0.63905609D-01 0.73584895D-01 0.68743628D+05 0.68743628D+05 0.68743628D+05 0.11353289D+01  1  2  1  2  7  2        1 0.105947637907D-03 0.100000000000D+01
  </mgrwgt>
  </event>
  <event>
  8     66 0.58687835E-06 0.27381721E+03 0.75467711E-02 0.84817116E-01
       -1 -1    0    0    0  501 0.00000000E+00 0.00000000E+00 0.62651771E+03 0.62651779E+03 0.32000000E+00 0.0000E+00 0.9000E+01
        1 -1    0    0  501    0 0.00000000E+00 0.00000000E+00 -.40572426E+03 0.40572438E+03 0.32000000E+00 0.0000E+00 0.9000E+01
       25  2    1    2    0    0 -.87258372E+02 -.15419855E+03 0.54737188E+03 0.64959346E+03 0.30160316E+03 0.0000E+00 0.0000E+00
       23  2    1    2    0    0 0.87258372E+02 0.15419855E+03 -.32657843E+03 0.38264872E+03 0.91516993E+02 0.0000E+00 0.0000E+00
       23  1    3    3    0    0 -.10904410E+03 -.19997944E+03 0.39133326E+03 0.46188674E+03 0.91188000E+02 0.0000E+00 0.9000E+01
      -13  1    4    4    0    0 0.84883214E+01 -.11608296E+02 -.13507155E+02 0.19729636E+02 0.10565837E+00 0.0000E+00 0.9000E+01
       13  1    4    4    0    0 0.78770051E+02 0.16580684E+03 -.31307127E+03 0.36291908E+03 0.10565837E+00 0.0000E+00 0.9000E+01
       23  1    3    3    0    0 0.21785727E+02 0.45780892E+02 0.15603862E+03 0.18770672E+03 0.91188000E+02 0.0000E+00 0.9000E+01
#aMCatNLO 1  0  0  2  1 0.12900291D+04 0.00000000D+00  -5  7  0 0.00000000D+00 0.00000000D+00 0.00000000D+00 0.00000000D+00 0.00000000D+00
  <mgrwgt>
 0.3246019928D-03    5    2    0
 0.504176101091425D+03 0.000000000000000D+00 0.000000000000000D+00 0.504176101091425D+03
 0.504176101091425D+03 0.000000000000000D+00 0.000000000000000D+00 -.504176101091425D+03
 0.387141667798080D+03 -.109044099249660D+03 -.199979437669623D+03 0.299467909014723D+03
 0.231541060733510D+02 0.848822771871764D+01 -.116085328688358D+02 -.181467513038654D+02
 0.440069485036625D+03 0.787701445824107D+02 0.165807079394042D+03 -.399955533035467D+03
 0.157986943274795D+03 0.217857269485316D+02 0.457808911444171D+02 0.118634375324609D+03
 0.000000000000000D+00 -.000000000000000D+00 -.000000000000000D+00 -.000000000000000D+00
 0.106938829462673D+04 0.000000000000000D+00 0.000000000000000D+00 0.106938829462673D+04
 0.247815502203833D+04 0.000000000000000D+00 0.000000000000000D+00 -.247815502203833D+04
 0.339132886673972D+03 0.239543167111190D+02 0.128222562995263D+03 0.299467909014723D+03
 0.279119143858131D+02 0.178396496963561D+02 0.114680983823787D+02 -.181467513038654D+02
 0.949027192938242D+03 0.333147303536211D+03 0.793537055642083D+03 -.399955533035467D+03
 0.321288429541625D+03 0.109552625845233D+03 0.262364461722768D+03 0.118634375324609D+03
 0.191018289312541D+04 -.484493895788919D+03 -.119559217874249D+04 -.140876672741161D+04
0.372537798093D-04 0.000000000000D+00 0.000000000000D+00 0.477455494884D-06 0.000000000000D+00  7 -1 1 23 -13 13 23 21 0 0.96387356D-01 0.62419133D-01 0.74975863D+05 0.74975863D+05 0.74975863D+05 0.11321330D+01  1  2  2  2  7  2        1 0.304189555986D-03 0.100000000000D+01
-.113187506732D-05 0.000000000000D+00 -.143064323613D-06 0.477455494884D-06 0.000000000000D+00  7 -1 1 23 -13 13 23 21 2 0.96387356D-01 0.62419133D-01 0.74975863D+05 0.74975863D+05 0.74975863D+05 0.11321330D+01  1  2  3  2  7  2        1 -.118458809404D-04 0.100000000000D+01
0.233679492703D-05 0.000000000000D+00 0.000000000000D+00 0.477455494884D-06 0.000000000000D+00  7 -1 1 23 -13 13 23 21 2 0.96387356D-01 0.62419133D-01 0.74975863D+05 0.74975863D+05 0.74975863D+05 0.11321330D+01  1  2 15  2  7  2        1 0.244562278003D-04 0.100000000000D+01
0.464981915191D-04 0.000000000000D+00 -.198609171768D-04 0.477455494884D-06 0.000000000000D+00  7 -1 1 23 -13 13 23 21 2 0.96387356D-01 0.43629990D+00 0.74975863D+05 0.74975863D+05 0.74975863D+05 0.11321330D+01  1  2  5  2  7  2        1 0.739674263457D-05 0.100000000000D+01
0.918866249911D-05 0.000000000000D+00 -.472078785033D-05 0.477455494884D-06 0.000000000000D+00  7 -1 21 23 -13 13 23 -1 2 0.96387356D-01 0.43629990D+00 0.74975863D+05 0.74975863D+05 0.74975863D+05 0.11321330D+01  1  2  5  4  7  2        1 0.405347278553D-06 0.100000000000D+01
  </mgrwgt>
  </event>
  <event>
  8     66 0.58687835E-06 0.13607622E+03 0.75467711E-02 0.97312842E-01
       -1 -1    0    0    0  501 0.00000000E+00 0.00000000E+00 0.21493836E+03 0.21493860E+03 0.32000000E+00 0.0000E+00 0.9000E+01
        1 -1    0    0  501    0 0.00000000E+00 0.00000000E+00 -.56115306E+03 0.56115315E+03 0.32000000E+00 0.0000E+00 0.9000E+01
       25  2    1    2    0    0 -.27163668E+03 0.31651396E+02 -.21031089E+03 0.45726857E+03 0.30012594E+03 0.0000E+00 0.0000E+00
       23  2    1    2    0    0 0.27163668E+03 -.31651396E+02 -.13590381E+03 0.31882318E+03 0.91597362E+02 0.0000E+00 0.0000E+00
       23  1    3    3    0    0 -.66619198E+02 0.10535049E+03 -.23664142E+02 0.15624368E+03 0.91188000E+02 0.0000E+00 0.9000E+01
      -13  1    4    4    0    0 0.20588261E+03 0.68244758E+01 -.68456027E+02 0.21707248E+03 0.10565837E+00 0.0000E+00 0.9000E+01
       13  1    4    4    0    0 0.65754076E+02 -.38475872E+02 -.67447783E+02 0.10175070E+03 0.10565837E+00 0.0000E+00 0.9000E+01
       23  1    3    3    0    0 -.20501748E+03 -.73699098E+02 -.18664675E+03 0.30102489E+03 0.91188000E+02 0.0000E+00 0.9000E+01
#aMCatNLO 1  0  0  2  1 0.11289994D+03 0.00000000D+00  -5  7  0 0.00000000D+00 0.00000000D+00 0.00000000D+00 0.00000000D+00 0.00000000D+00
  <mgrwgt>
 0.1508529361D-03    9    2    0
 0.347294467459249D+03 0.000000000000000D+00 0.000000000000000D+00 0.347294467459249D+03
 0.347294467459249D+03 0.000000000000000D+00 0.000000000000000D+00 -.347294467459249D+03
 0.162781971958364D+03 -.666191980931855D+02 0.105350494237283D+03 0.514380681989000D+02
 0.208422257772471D+03 0.205882793006419D+03 0.682453556184294D+01 0.317102316802576D+02
 0.800708834955504D+02 0.657538897253636D+02 -.384759317557820D+02 -.246449801230824D+02
 0.243313821692113D+03 -.205017484638597D+03 -.736990980433443D+02 -.585033197560751D+02
 0.000000000000000D+00 -.000000000000000D+00 0.000000000000000D+00 -.000000000000000D+00
 0.368646636260568D+03 0.000000000000000D+00 0.000000000000000D+00 0.368646636260568D+03
 0.541594872396802D+03 0.000000000000000D+00 0.000000000000000D+00 -.541594872396802D+03
 0.144657934042275D+03 -.533472603756137D+02 0.843733458371830D+02 0.514380681989000D+02
 0.228112386323304D+03 0.224727648521010D+03 -.229609666851003D+02 0.317102316802576D+02
 0.921210715767477D+02 0.731872803118860D+02 -.502248821176374D+02 -.246449801230824D+02
 0.238813222726946D+03 -.184204441241838D+03 -.106595447414656D+03 -.585033197560751D+02
 0.206536893988097D+03 -.603632272154442D+02 0.954079503802110D+02 -.172948236136233D+03
0.348187994414D-05 0.000000000000D+00 0.000000000000D+00 0.581963022031D-06 0.000000000000D+00  7 -1 1 23 -13 13 23 21 0 0.33067466D-01 0.86331266D-01 0.11316383D+06 0.11316383D+06 0.11316383D+06 0.11173412D+01  1  2  2  2  7  2        1 0.132876573050D-03 0.100000000000D+01
-.193198784399D-06 0.000000000000D+00 -.133713357855D-07 0.581963022031D-06 0.000000000000D+00  7 -1 1 23 -13 13 23 21 2 0.33067466D-01 0.86331266D-01 0.11316383D+06 0.11316383D+06 0.11316383D+06 0.11173412D+01  1  2  3  2  7  2        1 -.920472089472D-05 0.100000000000D+01
0.228650888453D-06 0.000000000000D+00 0.000000000000D+00 0.581963022031D-06 0.000000000000D+00  7 -1 1 23 -13 13 23 21 2 0.33067466D-01 0.86331266D-01 0.11316383D+06 0.11316383D+06 0.11316383D+06 0.11173412D+01  1  2 15  2  7  2        1 0.108937932353D-04 0.100000000000D+01
0.506945613361D-05 0.000000000000D+00 0.000000000000D+00 0.581963022031D-06 0.000000000000D+00  7 -1 1 23 -13 13 23 21 2 0.33067466D-01 0.13606608D+00 0.15772849D+06 0.15772849D+06 0.15772849D+06 0.11058342D+01  1  2 12  2  7  2        1 0.117867550667D-03 0.100000000000D+01
-.539201601837D-05 0.000000000000D+00 0.000000000000D+00 0.581963022031D-06 0.000000000000D+00  7 -1 1 23 -13 13 23 21 2 0.33067466D-01 0.86331266D-01 0.11316383D+06 0.11316383D+06 0.11316383D+06 0.11173412D+01  1  2  4  2  7  2        1 -.256896039297D-03 0.100000000000D+01
-.635175874775D-05 0.000000000000D+00 -.128174738532D-05 0.581963022031D-06 0.000000000000D+00  7 -1 1 23 -13 13 23 21 2 0.33067466D-01 0.13881211D+00 0.11316383D+06 0.11316383D+06 0.11316383D+06 0.11173412D+01  1  2  5  2  7  2        1 -.147055221018D-03 0.100000000000D+01
0.636156982075D-05 0.000000000000D+00 0.114963700183D-05 0.581963022031D-06 0.000000000000D+00  7 -1 1 23 -13 13 23 21 2 0.33067466D-01 0.86331266D-01 0.11316383D+06 0.11316383D+06 0.11316383D+06 0.11173412D+01  1  2  6  2  7  2        1 0.303089249938D-03 0.100000000000D+01
0.265633369633D-06 0.000000000000D+00 0.000000000000D+00 0.581963022031D-06 0.000000000000D+00  7 -1 21 23 -13 13 23 -1 2 0.33067466D-01 0.13606608D+00 0.15772849D+06 0.15772849D+06 0.15772849D+06 0.11058342D+01  1  2 12  4  7  2        1 0.977304217944D-05 0.100000000000D+01
-.289520400766D-06 0.000000000000D+00 -.694147924540D-07 0.581963022031D-06 0.000000000000D+00  7 -1 21 23 -13 13 23 -1 2 0.33067466D-01 0.13881211D+00 0.11316383D+06 0.11316383D+06 0.11316383D+06 0.11173412D+01  1  2  5  4  7  2        1 -.104912917874D-04 0.100000000000D+01
  </mgrwgt>
  </event>
  <event>
  8     66 0.58687835E-06 0.25332312E+03 0.75467711E-02 0.81238827E-01
       -3 -1    0    0    0  501 0.00000000E+00 0.00000000E+00 0.11321706E+04 0.11321707E+04 0.50000000E+00 0.0000E+00 0.9000E+01
        3 -1    0    0  501    0 0.00000000E+00 0.00000000E+00 -.16900708E+03 0.16900781E+03 0.50000000E+00 0.0000E+00 0.9000E+01
       25  2    1    2    0    0 0.60134759E+02 0.19362346E+03 0.55372417E+02 0.36667386E+03 0.30046194E+03 0.0000E+00 0.0000E+00
       23  2    1    2    0    0 -.60134759E+02 -.19362346E+03 0.90779112E+03 0.93450468E+03 0.90044714E+02 0.0000E+00 0.0000E+00
       23  1    3    3    0    0 -.24610606E+02 0.68241794E+02 -.82322548E+02 0.14267052E+03 0.91188000E+02 0.0000E+00 0.9000E+01
      -11  1    4    4    0    0 0.78239141E+01 0.42219887E+00 0.68692480E+01 0.10420098E+02 0.51099893E-03 0.0000E+00 0.9000E+01
       11  1    4    4    0    0 -.67958673E+02 -.19404566E+03 0.90092187E+03 0.92408459E+03 0.51099893E-03 0.0000E+00 0.9000E+01
       23  1    3    3    0    0 0.84745365E+02 0.12538166E+03 0.13769497E+03 0.22400333E+03 0.91188000E+02 0.0000E+00 0.9000E+01
#aMCatNLO 1  0  0  2  1 0.19741727D+04 0.00000000D+00  -5  7  0 0.00000000D+00 0.00000000D+00 0.00000000D+00 0.00000000D+00 0.00000000D+00
  <mgrwgt>
 0.2943463387D-04    5    2    0
 0.437430448190991D+03 0.000000000000000D+00 0.000000000000000D+00 0.437430448190991D+03
 0.437430448190991D+03 0.000000000000000D+00 0.000000000000000D+00 -.437430448190991D+03
 0.302825167442125D+03 -.246106058282437D+02 0.682417939215691D+02 -.279508866291365D+03
 0.793520352798087D+01 0.782391410081593D+01 0.422198872138480D+00 -.125521762491568D+01
 0.382533877215625D+03 -.679586734868504D+02 -.194045657464925D+03 0.322583429107156D+03
 0.181566648196250D+03 0.847453652142782D+02 0.125381664671218D+03 -.418193451908756D+02
 0.000000000000000D+00 -.000000000000000D+00 -.000000000000000D+00 -.000000000000000D+00
 0.155024869308049D+04 0.000000000000000D+00 0.000000000000000D+00 0.155024869308049D+04
 0.315017734959643D+04 0.000000000000000D+00 0.000000000000000D+00 -.315017734959643D+04
 0.898908275227225D+03 0.885879192836727D+01 0.849421657010268D+03 -.279508866291365D+03
 0.212933006157679D+02 0.863795521532875D+01 0.194220186779217D+02 -.125521762491568D+01
 0.500134884984230D+03 -.433755248113992D+02 0.379728058340430D+03 0.322583429107156D+03
 0.739001297116950D+03 0.110384041504450D+03 0.723791524919631D+03 -.418193451908756D+02
 0.254108828473274D+04 -.845052638367472D+02 -.197236325894825D+04 -.159992865651595D+04
0.317782598910D-04 0.000000000000D+00 0.000000000000D+00 0.711458114683D-06 0.000000000000D+00  7 -3 3 23 -11 11 23 21 0 0.17418016D+00 0.26001154D-01 0.64172603D+05 0.64172603D+05 0.64172603D+05 0.11378826D+01  1  2  2  2  7  2        3 0.283694941061D-04 0.100000000000D+01
-.112495020307D-05 0.000000000000D+00 -.122036885389D-06 0.711458114683D-06 0.000000000000D+00  7 -3 3 23 -11 11 23 21 2 0.17418016D+00 0.26001154D-01 0.64172603D+05 0.64172603D+05 0.64172603D+05 0.11378826D+01  1  2  3  2  7  2        3 -.130031845858D-05 0.100000000000D+01
0.198854499006D-05 0.000000000000D+00 0.000000000000D+00 0.711458114683D-06 0.000000000000D+00  7 -3 3 23 -11 11 23 21 2 0.17418016D+00 0.26001154D-01 0.64172603D+05 0.64172603D+05 0.64172603D+05 0.11378826D+01  1  2 15  2  7  2        3 0.229853885909D-05 0.100000000000D+01
0.175984859203D-03 0.000000000000D+00 -.441781448144D-04 0.711458114683D-06 0.000000000000D+00  7 -3 3 23 -11 11 23 21 2 0.17418016D+00 0.51449359D+00 0.64172603D+05 0.64172603D+05 0.64172603D+05 0.11378826D+01  1  2  5  2  7  2        3 0.244822790302D-07 0.100000000000D+01
0.452534660405D-04 0.000000000000D+00 -.141838217384D-04 0.711458114683D-06 0.000000000000D+00  7 -3 21 23 -11 11 23 -3 2 0.17418016D+00 0.51449359D+00 0.64172603D+05 0.64172603D+05 0.64172603D+05 0.11378826D+01  1  2  5  4  7  2        3 0.424370874452D-07 0.100000000000D+01
  </mgrwgt>
  </event>
  <event>
  8     66 0.58687835E-06 0.20110939E+03 0.75467711E-02 0.97095962E-01
       -1 -1    0    0    0  501 0.00000000E+00 0.00000000E+00 0.13581150E+04 0.13581151E+04 0.32000000E+00 0.0000E+00 0.9000E+01
        1 -1    0    0  501    0 0.00000000E+00 0.00000000E+00 -.46173081E+02 0.46174190E+02 0.32000000E+00 0.0000E+00 0.9000E+01
       25  2    1    2    0    0 -.44233187E+02 0.12642496E+02 0.12504467E+04 0.12870749E+04 0.30137752E+03 0.0000E+00 0.0000E+00
       23  2    1    2    0    0 0.44233187E+02 -.12642496E+02 0.61495232E+02 0.11721435E+03 0.88550175E+02 0.0000E+00 0.0000E+00
       23  1    3    3    0    0 0.84077508E+02 -.49107468E+02 0.47296305E+03 0.49141619E+03 0.91188000E+02 0.0000E+00 0.9000E+01
      -13  1    4    4    0    0 -.27183817E+02 -.70915721E+01 0.15493597E+02 0.32082908E+02 0.10565837E+00 0.0000E+00 0.9000E+01
       13  1    4    4    0    0 0.71417004E+02 -.55509237E+01 0.46001635E+02 0.85131445E+02 0.10565837E+00 0.0000E+00 0.9000E+01
       23  1    3    3    0    0 -.12831069E+03 0.61749963E+02 0.77748368E+03 0.79565873E+03 0.91188000E+02 0.0000E+00 0.9000E+01
#aMCatNLO 1  0  0  1  1 0.32656386D+03 0.00000000D+00  -5  7  0 0.00000000D+00 0.00000000D+00 0.00000000D+00 0.00000000D+00 0.00000000D+00
  <mgrwgt>
 0.4453547070D-03    3    2    0
 0.250417973424647D+03 0.000000000000000D+00 0.000000000000000D+00 0.250417973424647D+03
 0.250417973424647D+03 0.000000000000000D+00 0.000000000000000D+00 -.250417973424647D+03
 0.138948507436608D+03 0.840775066184009D+02 -.491074672915022D+02 0.388698586556211D+02
 0.493713241366822D+02 -.271839492755467D+02 -.709157383461848D+01 -.405988932034114D+02
 0.118197882097340D+03 0.714171386956476D+02 -.555092257384314D+01 -.940187156442931D+02
 0.194318233178663D+03 -.128310696038502D+03 0.617499636999638D+02 0.957477501920834D+02
 0.000000000000000D+00 0.000000000000000D+00 -.000000000000000D+00 -.000000000000000D+00
 0.441297522637114D+03 0.000000000000000D+00 0.000000000000000D+00 0.441297522637114D+03
 0.486241371117988D+03 0.000000000000000D+00 0.000000000000000D+00 -.486241371117988D+03
 0.105199858911231D+03 0.134218121197065D+02 -.325691267684326D+02 0.388698586556211D+02
 0.751440053008883D+02 -.632182558275353D+02 0.134295697705559D+01 -.405988932034114D+02
 0.949383314471052D+02 0.973625417418514D+01 0.888668899048635D+01 -.940187156442931D+02
 0.322614616558680D+03 -.277909278464996D+03 0.967664236681492D+02 0.957477501920834D+02
 0.329642081537197D+03 0.317969467998640D+03 -.744269428672586D+02 -.449438484808733D+02
0.267641557621D-04 0.000000000000D+00 0.000000000000D+00 0.909792266272D-08 0.000000000000D+00  7 -1 1 23 -13 13 23 21 0 0.20894086D+00 0.71036392D-02 0.40444985D+05 0.40444985D+05 0.40444985D+05 0.11554861D+01  1  2  2  1  7  1       -1 0.438824743751D-03 0.100000000000D+01
-.139996742210D-05 0.000000000000D+00 -.102781405290D-06 0.909792266272D-08 0.000000000000D+00  7 -1 1 23 -13 13 23 21 2 0.20894086D+00 0.71036392D-02 0.40444985D+05 0.40444985D+05 0.40444985D+05 0.11554861D+01  1  2  3  1  7  1       -1 -.306467883706D-04 0.100000000000D+01
0.169826085931D-05 0.000000000000D+00 0.000000000000D+00 0.909792266272D-08 0.000000000000D+00  7 -1 1 23 -13 13 23 21 2 0.20894086D+00 0.71036392D-02 0.40444985D+05 0.40444985D+05 0.40444985D+05 0.11554861D+01  1  2 15  1  7  1       -1 0.371767516386D-04 0.100000000000D+01
  </mgrwgt>
  </event>
  <event>
  8     66 0.58687835E-06 0.11357548E+03 0.75467711E-02 0.10240120E+00
       -3 -1    0    0    0  501 0.00000000E+00 0.00000000E+00 0.43762800E+03 0.43762828E+03 0.50000000E+00 0.0000E+00 0.9000E+01
        3 -1    0    0  501    0 0.00000000E+00 0.00000000E+00 -.17272445E+03 0.17272517E+03 0.50000000E+00 0.0000E+00 0.9000E+01
       25  2    1    2    0    0 -.80394979E+02 0.13697999E+03 0.25887046E+03 0.42716423E+03 0.30038057E+03 0.0000E+00 0.0000E+00
       23  2    1    2    0    0 0.80394979E+02 -.13697999E+03 0.60330903E+01 0.18318923E+03 0.91077014E+02 0.0000E+00 0.0000E+00
       23  1    3    3    0    0 0.42721241E+02 0.93102333E+02 0.22613052E+03 0.26446816E+03 0.91188000E+02 0.0000E+00 0.9000E+01
      -11  1    4    4    0    0 0.23275156E+02 -.30024954E+01 -.24983974E+02 0.34277497E+02 0.51099893E-03 0.0000E+00 0.9000E+01
       11  1    4    4    0    0 0.57119823E+02 -.13397750E+03 0.31017064E+02 0.14891173E+03 0.51099893E-03 0.0000E+00 0.9000E+01
       23  1    3    3    0    0 -.12311622E+03 0.43877662E+02 0.32739944E+02 0.16269606E+03 0.91188000E+02 0.0000E+00 0.9000E+01
#aMCatNLO 1  0  0  1  2 0.62430861D+02 0.00000000D+00  -5  7  0 0.00000000D+00 0.00000000D+00 0.00000000D+00 0.00000000D+00 0.00000000D+00
  <mgrwgt>
 0.5275804621D-04    9    2    0
 0.274935194157692D+03 0.000000000000000D+00 0.000000000000000D+00 0.274935194157692D+03
 0.274935194157692D+03 0.000000000000000D+00 0.000000000000000D+00 -.274935194157692D+03
 0.184618562214117D+03 0.427212406831446D+02 0.931023325192871D+02 0.123594552646825D+03
 0.500840424507420D+02 0.232751559627228D+02 -.300249544719946D+01 -.442454906652441D+02
 0.150348625233734D+03 0.571198234323419D+02 -.133977499518944D+03 -.373103806384114D+02
 0.164819158416790D+03 -.123116220078209D+03 0.438776624468563D+02 -.420386813431698D+02
 0.000000000000000D+00 0.000000000000000D+00 -.000000000000000D+00 0.000000000000000D+00
 0.314317170806640D+03 0.000000000000000D+00 0.000000000000000D+00 0.314317170806640D+03
 0.302605814161405D+03 0.000000000000000D+00 0.000000000000000D+00 -.302605814161405D+03
 0.190320683450265D+03 0.283866797012604D+02 0.108744168471441D+03 0.123594552646825D+03
 0.483690820447158D+02 0.195111266346208D+02 0.110480364229996D+01 -.442454906652441D+02
 0.135718427427536D+03 0.461829965765279D+02 -.122043262277081D+03 -.373103806384114D+02
 0.178994966054361D+03 -.136260815077679D+03 0.582210105897845D+02 -.420386813431698D+02
 0.635198259911675D+02 0.421800121652696D+02 -.460267204264437D+02 0.117113566452352D+02
0.291172606784D-05 0.000000000000D+00 0.000000000000D+00 0.274230762842D-06 0.000000000000D+00  7 -3 3 23 -11 11 23 21 0 0.67327462D-01 0.26573069D-01 0.54201702D+05 0.54201702D+05 0.54201702D+05 0.11442257D+01  1  2  2  1  7  1       -3 0.342970886639D-04 0.100000000000D+01
-.156323140833D-06 0.000000000000D+00 -.111817947756D-07 0.274230762842D-06 0.000000000000D+00  7 -3 3 23 -11 11 23 21 2 0.67327462D-01 0.26573069D-01 0.54201702D+05 0.54201702D+05 0.54201702D+05 0.11442257D+01  1  2  3  1  7  1       -3 -.241075697165D-05 0.100000000000D+01
0.192531526373D-06 0.000000000000D+00 0.000000000000D+00 0.274230762842D-06 0.000000000000D+00  7 -3 3 23 -11 11 23 21 2 0.67327462D-01 0.26573069D-01 0.54201702D+05 0.54201702D+05 0.54201702D+05 0.11442257D+01  1  2 15  1  7  1       -3 0.296914914190D-05 0.100000000000D+01
0.259447243138D-05 0.000000000000D+00 0.000000000000D+00 0.274230762842D-06 0.000000000000D+00  7 -3 3 23 -11 11 23 21 2 0.79948924D-01 0.26573069D-01 0.70537866D+05 0.70537866D+05 0.70537866D+05 0.11343771D+01  1  2 12  1  7  1       -3 0.266375906944D-04 0.100000000000D+01
-.241296863007D-05 0.000000000000D+00 0.000000000000D+00 0.274230762842D-06 0.000000000000D+00  7 -3 3 23 -11 11 23 21 2 0.67327462D-01 0.26573069D-01 0.54201702D+05 0.54201702D+05 0.54201702D+05 0.11442257D+01  1  2  4  1  7  1       -3 -.372118991231D-04 0.100000000000D+01
-.622258633742D-05 0.000000000000D+00 -.192633571958D-05 0.274230762842D-06 0.000000000000D+00  7 -3 3 23 -11 11 23 21 2 0.83395509D-01 0.26573069D-01 0.54201702D+05 0.54201702D+05 0.54201702D+05 0.11442257D+01  1  2  5  1  7  1       -3 -.586602156234D-04 0.100000000000D+01
0.652807790836D-05 0.000000000000D+00 0.188304234704D-05 0.274230762842D-06 0.000000000000D+00  7 -3 3 23 -11 11 23 21 2 0.67327462D-01 0.26573069D-01 0.54201702D+05 0.54201702D+05 0.54201702D+05 0.11442257D+01  1  2  6  1  7  1       -3 0.100673574271D-03 0.100000000000D+01
0.659702145426D-07 0.000000000000D+00 0.000000000000D+00 0.274230762842D-06 0.000000000000D+00  7 21 3 23 -11 11 23 3 2 0.79948924D-01 0.26573069D-01 0.70537866D+05 0.70537866D+05 0.70537866D+05 0.11343771D+01  1  2 12  3  7  1       -3 0.105221283180D-04 0.100000000000D+01
-.162601931309D-06 0.000000000000D+00 -.580481542873D-07 0.274230762842D-06 0.000000000000D+00  7 21 3 23 -11 11 23 3 2 0.83395509D-01 0.26573069D-01 0.54201702D+05 0.54201702D+05 0.54201702D+05 0.11442257D+01  1  2  5  3  7  1       -3 -.240586131612D-04 0.100000000000D+01
  </mgrwgt>
  </event>
  <event>
  7     66 0.58687835E-06 0.60635584E+03 0.75467711E-02 0.88214200E-01
       -1 -1    0    0    0  501 0.00000000E+00 0.00000000E+00 0.29398600E+03 0.29398617E+03 0.32000000E+00 0.0000E+00 0.9000E+01
        1 -1    0    0  501    0 0.00000000E+00 0.00000000E+00 -.12631209E+04 0.12631209E+04 0.32000000E+00 0.0000E+00 0.9000E+01
       25  2    1    2    0    0 0.55584071E+03 0.78851370E+02 -.51014916E+03 0.81568542E+03 0.29985680E+03 0.0000E+00 0.0000E+00
       23  1    3    3    0    0 0.27870195E+03 -.76981350E+02 -.20779504E+03 0.36755263E+03 0.91188000E+02 0.0000E+00 0.9000E+01
      -11  1    1    2    0    0 -.45707494E+03 -.78675809E+01 -.32776976E+03 0.56250548E+03 0.51099893E-03 0.0000E+00 0.9000E+01
       11  1    1    2    0    0 -.98765777E+02 -.70983789E+02 -.13121595E+03 0.17891619E+03 0.51099893E-03 0.0000E+00 0.9000E+01
       23  1    3    3    0    0 0.27713876E+03 0.15583272E+03 -.30235412E+03 0.44813279E+03 0.91188000E+02 0.0000E+00 0.9000E+01
#aMCatNLO 1  0  0  1  1 0.51729784D+03 0.00000000D+00  -5  7  0 0.00000000D+00 0.00000000D+00 0.00000000D+00 0.00000000D+00 0.00000000D+00
  <mgrwgt>
 0.2436523963D-03    3    2    0
 0.609376744993185D+03 0.000000000000000D+00 0.000000000000000D+00 0.609376744993185D+03
 0.609376744993185D+03 0.000000000000000D+00 0.000000000000000D+00 -.609376744993185D+03
 0.304358009018500D+03 0.278701952671115D+03 -.769813497391645D+02 0.267887976465866D+02
 0.458032048897927D+03 -.457074936060620D+03 -.786758143108926D+01 0.285300158646796D+02
 0.124246381328341D+03 -.987657771056633D+02 -.709837882787057D+02 -.253729451878561D+02
 0.332117050741601D+03 0.277138760495168D+03 0.155832719448959D+03 -.299458683234102D+02
 0.000000000000000D+00 0.000000000000000D+00 -.000000000000000D+00 -.000000000000000D+00
 0.791824541238322D+03 0.000000000000000D+00 0.000000000000000D+00 0.791824541238322D+03
 0.117728750268562D+04 0.000000000000000D+00 0.000000000000000D+00 -.117728750268562D+04
 0.209237165274634D+03 0.174999851317030D+03 -.642055476406196D+02 0.267887976465866D+02
 0.689723776860212D+03 -.688823007168036D+03 0.206831176823116D+02 0.285300158646796D+02
 0.172897522389334D+03 -.158763317507963D+03 -.635922630099746D+02 -.253729451878561D+02
 0.252134406354316D+03 0.159170160218851D+03 0.170366113384985D+03 -.299458683234102D+02
 0.645119173045449D+03 0.513416313140118D+03 -.632514204167027D+02 -.385462961447299D+03
0.431195039466D-04 0.000000000000D+00 0.000000000000D+00 0.117375179348D-08 0.000000000000D+00  7 -1 1 23 -11 11 23 21 0 0.45228632D-01 0.19432630D+00 0.36766741D+06 0.36766741D+06 0.36766741D+06 0.10780764D+01  1  2  2  1  7  1       -1 0.241384018079D-03 0.100000000000D+01
-.239545606174D-05 0.000000000000D+00 -.165590248781D-06 0.117375179348D-08 0.000000000000D+00  7 -1 1 23 -11 11 23 21 2 0.45228632D-01 0.19432630D+00 0.36766741D+06 0.36766741D+06 0.36766741D+06 0.10780764D+01  1  2  3  1  7  1       -1 -.155855472353D-04 0.100000000000D+01
0.274409960154D-05 0.000000000000D+00 0.000000000000D+00 0.117375179348D-08 0.000000000000D+00  7 -1 1 23 -11 11 23 21 2 0.45228632D-01 0.19432630D+00 0.36766741D+06 0.36766741D+06 0.36766741D+06 0.10780764D+01  1  2 15  1  7  1       -1 0.178539254555D-04 0.100000000000D+01
  </mgrwgt>
  </event>
  <event>
  7     66 0.58687835E-06 0.47304744E+03 0.75467711E-02 0.93783767E-01
       -1 -1    0    0    0  501 0.00000000E+00 0.00000000E+00 0.42690751E+03 0.42690763E+03 0.32000000E+00 0.0000E+00 0.9000E+01
        1 -1    0    0  501    0 0.00000000E+00 0.00000000E+00 -.11958297E+04 0.11958298E+04 0.32000000E+00 0.0000E+00 0.9000E+01
       23  2    1    2    0    0 -.25982210E+03 0.32658992E+03 -.95659718E+03 0.10478654E+04 0.93675715E+02 0.0000E+00 0.0000E+00
       23  1    1    2    0    0 0.55536039E+02 -.27311850E+03 0.18130602E+03 0.34476817E+03 0.91188000E+02 0.0000E+00 0.9000E+01
      -11  1    3    3    0    0 -.13719131E+03 0.11843522E+03 -.33340557E+03 0.37948337E+03 0.51099893E-03 0.0000E+00 0.9000E+01
       11  1    3    3    0    0 -.12263078E+03 0.20815470E+03 -.62319162E+03 0.66838199E+03 0.51099893E-03 0.0000E+00 0.9000E+01
       23  1    1    2    0    0 0.20428606E+03 -.53471423E+02 0.63689390E+01 0.23010389E+03 0.91188000E+02 0.0000E+00 0.9000E+01
#aMCatNLO 1  0  0  2  1 0.12209399D+03 0.00000000D+00  -5  7  0 0.00000000D+00 0.00000000D+00 0.00000000D+00 0.00000000D+00 0.00000000D+00
  <mgrwgt>
 0.3241170162D-03    4    2    0
 0.714499009682593D+03 0.000000000000000D+00 0.000000000000000D+00 0.714499009682593D+03
 0.714499009682593D+03 0.000000000000000D+00 0.000000000000000D+00 -.714499009682593D+03
 0.489068862112287D+03 0.555360400685188D+02 -.273118501066554D+03 0.391401498684502D+03
 0.251532131133203D+03 -.137191312385545D+03 0.118435221581928D+03 -.174413460166301D+03
 0.423669288813922D+03 -.122630783144422D+03 0.208154702619046D+03 -.348035884769167D+03
 0.264727737305774D+03 0.204286055461449D+03 -.534714231344202D+02 0.131047846250966D+03
 0.000000000000000D+00 0.000000000000000D+00 0.000000000000000D+00 0.000000000000000D+00
 0.903138654542222D+03 0.000000000000000D+00 0.000000000000000D+00 0.903138654542222D+03
 0.737134491010913D+03 0.000000000000000D+00 0.000000000000000D+00 -.737134491010913D+03
 0.507710287638439D+03 0.321170204257466D+02 -.308590098117883D+03 0.391401498684502D+03
 0.250462160051216D+03 -.148985513908267D+03 0.100571144846962D+03 -.174413460166301D+03
 0.416143856748900D+03 -.142361934781284D+03 0.178268931527963D+03 -.348035884769167D+03
 0.259888102863392D+03 0.191960367600799D+03 -.721405151733930D+02 0.131047846250966D+03
 0.206068738251187D+03 0.672700606630058D+02 0.101890536916351D+03 0.166004163531309D+03
0.116505262840D-03 0.000000000000D+00 0.000000000000D+00 0.264812995105D-09 0.000000000000D+00  7 -1 1 23 -11 11 23 21 0 0.65678092D-01 0.18397382D+00 0.22377388D+06 0.22377388D+06 0.22377388D+06 0.10940985D+01  1  2  2  2  7  2        1 0.372289292401D-03 0.100000000000D+01
-.513418768474D-05 0.000000000000D+00 -.447410885847D-06 0.264812995105D-09 0.000000000000D+00  7 -1 1 23 -11 11 23 21 2 0.65678092D-01 0.18397382D+00 0.22377388D+06 0.22377388D+06 0.22377388D+06 0.10940985D+01  1  2  3  2  7  2        1 -.196390110876D-04 0.100000000000D+01
0.728702897882D-05 0.000000000000D+00 0.000000000000D+00 0.264812995105D-09 0.000000000000D+00  7 -1 1 23 -11 11 23 21 2 0.65678092D-01 0.18397382D+00 0.22377388D+06 0.22377388D+06 0.22377388D+06 0.10940985D+01  1  2 15  2  7  2        1 0.278739406696D-04 0.100000000000D+01
-.147464238490D-04 0.000000000000D+00 0.000000000000D+00 0.264812995105D-09 0.000000000000D+00  7 -1 1 23 -11 11 23 21 2 0.65678092D-01 0.18397382D+00 0.22377388D+06 0.22377388D+06 0.22377388D+06 0.10940985D+01  1  2  4  2  7  2        1 -.564072058243D-04 0.100000000000D+01
  </mgrwgt>
  </event>
  <event>
  8     66 0.58687835E-06 0.12284938E+03 0.75467711E-02 0.97660674E-01
       -1 -1    0    0    0  501 0.00000000E+00 0.00000000E+00 0.38468256E+03 0.38468269E+03 0.32000000E+00 0.0000E+00 0.9000E+01
        1 -1    0    0  501    0 0.00000000E+00 0.00000000E+00 -.41641700E+03 0.41641712E+03 0.32000000E+00 0.0000E+00 0.9000E+01
       25  2    1    2    0    0 0.47268901E+02 -.26911867E+03 0.18104103E+03 0.44374497E+03 0.29912294E+03 0.0000E+00 0.0000E+00
       23  2    1    2    0    0 -.47268901E+02 0.26911867E+03 -.21277548E+03 0.35735485E+03 0.88146892E+02 0.0000E+00 0.0000E+00
       23  1    3    3    0    0 0.11018891E+03 -.24008015E+03 0.17356857E+03 0.32897017E+03 0.91188000E+02 0.0000E+00 0.9000E+01
      -11  1    4    4    0    0 -.11498626E+02 0.59075817E+02 -.98881975E+02 0.11575757E+03 0.51099893E-03 0.0000E+00 0.9000E+01
       11  1    4    4    0    0 -.35770275E+02 0.21004285E+03 -.11389350E+03 0.24159727E+03 0.51099893E-03 0.0000E+00 0.9000E+01
       23  1    3    3    0    0 -.62920014E+02 -.29038522E+02 0.74724625E+01 0.11477479E+03 0.91188000E+02 0.0000E+00 0.9000E+01
#aMCatNLO 1  0  0  2  1 0.10020995D+03 0.00000000D+00  -5  7  0 0.00000000D+00 0.00000000D+00 0.00000000D+00 0.00000000D+00 0.00000000D+00
  <mgrwgt>
 0.1397504588D-03    7    2    0
 0.400235503888617D+03 0.000000000000000D+00 0.000000000000000D+00 0.400235503888617D+03
 0.400235503888617D+03 0.000000000000000D+00 0.000000000000000D+00 -.400235503888617D+03
 0.336109669968284D+03 0.110188914475283D+03 -.240080149232363D+03 0.186746844614611D+03
 0.111928357262211D+03 -.114986260259009D+02 0.590758170297098D+02 -.943704752621592D+02
 0.237271784136894D+03 -.357702746948057D+02 0.210042854175312D+03 -.104404915620155D+03
 0.115161196409845D+03 -.629200137545765D+02 -.290385219726587D+02 0.120285462677028D+02
 0.000000000000000D+00 -.000000000000000D+00 0.000000000000000D+00 -.000000000000000D+00
 0.404799054289599D+03 0.000000000000000D+00 0.000000000000000D+00 0.404799054289599D+03
 0.214742905288914D+04 0.000000000000000D+00 0.000000000000000D+00 -.214742905288914D+04
 0.370102429487360D+03 0.140279895088592D+03 -.272227338871147D+03 0.186746844614611D+03
 0.106418993870866D+03 -.219506705972471D+01 0.491365173357346D+02 -.943704752621592D+02
 0.216866496171512D+03 -.164199036107432D+02 0.189370212867469D+03 -.104404915620155D+03
 0.113331280404543D+03 -.531841812824220D+02 -.394396337475057D+02 0.120285462677028D+02
 0.174550890724446D+04 -.684807431357018D+02 0.731602424154489D+02 -.174262999859954D+04
0.820563578317D-05 0.000000000000D+00 0.000000000000D+00 0.508823166936D-07 0.000000000000D+00  7 -1 1 23 -11 11 23 21 0 0.59181951D-01 0.64064174D-01 0.11130167D+06 0.11130167D+06 0.11130167D+06 0.11179259D+01  1  2  2  2  7  2        1 0.168952296874D-03 0.100000000000D+01
-.437498250188D-06 0.000000000000D+00 -.315118020009D-07 0.508823166936D-07 0.000000000000D+00  7 -1 1 23 -11 11 23 21 2 0.59181951D-01 0.64064174D-01 0.11130167D+06 0.11130167D+06 0.11130167D+06 0.11179259D+01  1  2  3  2  7  2        1 -.112578179915D-04 0.100000000000D+01
0.527549753046D-06 0.000000000000D+00 0.000000000000D+00 0.508823166936D-07 0.000000000000D+00  7 -1 1 23 -11 11 23 21 2 0.59181951D-01 0.64064174D-01 0.11130167D+06 0.11130167D+06 0.11130167D+06 0.11179259D+01  1  2 15  2  7  2        1 0.135750465258D-04 0.100000000000D+01
0.377391317485D-03 0.000000000000D+00 0.000000000000D+00 0.508823166936D-07 0.000000000000D+00  7 -1 1 23 -11 11 23 21 2 0.59181951D-01 0.34168554D+00 0.14888041D+06 0.14888041D+06 0.14888041D+06 0.11078088D+01  1  2 12  2  7  2        1 0.380429043350D-03 0.100000000000D+01
-.400344339919D-03 0.000000000000D+00 -.358311725759D-05 0.508823166936D-07 0.000000000000D+00  7 -1 1 23 -11 11 23 21 2 0.59181951D-01 0.34416951D+00 0.11130167D+06 0.11130167D+06 0.11130167D+06 0.11179259D+01  1  2  5  2  7  2        1 -.409035987883D-03 0.100000000000D+01
0.772375883024D-04 0.000000000000D+00 0.000000000000D+00 0.508823166936D-07 0.000000000000D+00  7 -1 21 23 -11 11 23 -1 2 0.59181951D-01 0.34168554D+00 0.14888041D+06 0.14888041D+06 0.14888041D+06 0.11078088D+01  1  2 12  4  7  2        1 0.341308976008D-04 0.100000000000D+01
-.824633397462D-04 0.000000000000D+00 -.736699255506D-06 0.508823166936D-07 0.000000000000D+00  7 -1 21 23 -11 11 23 -1 2 0.59181951D-01 0.34416951D+00 0.11130167D+06 0.11130167D+06 0.11130167D+06 0.11179259D+01  1  2  5  4  7  2        1 -.370430196943D-04 0.100000000000D+01
  </mgrwgt>
  </event>
  <event>
  8     66 0.58687835E-06 0.26075707E+03 0.75467711E-02 0.98887035E-01
       -1 -1    0    0    0  501 0.00000000E+00 0.00000000E+00 0.58587728E+03 0.58587737E+03 0.32000000E+00 0.0000E+00 0.9000E+01
        1 -1    0    0  501    0 0.00000000E+00 0.00000000E+00 -.13951863E+03 0.13951900E+03 0.32000000E+00 0.0000E+00 0.9000E+01
       25  2    1    2    0    0 -.48104390E+02 0.17960092E+03 0.34618883E+03 0.49534368E+03 0.30157609E+03 0.0000E+00 0.0000E+00
       23  2    1    2    0    0 0.48104390E+02 -.17960092E+03 0.10016982E+03 0.23005268E+03 0.91212506E+02 0.0000E+00 0.0000E+00
       23  1    3    3    0    0 0.40880159E+02 0.15745878E+03 0.87220200E+02 0.20588120E+03 0.91188000E+02 0.0000E+00 0.9000E+01
      -11  1    4    4    0    0 -.18849164E+02 -.62325987E+01 0.22304732E+01 0.19977770E+02 0.51099893E-03 0.0000E+00 0.9000E+01
       11  1    4    4    0    0 0.66953555E+02 -.17336832E+03 0.97939345E+02 0.21007491E+03 0.51099893E-03 0.0000E+00 0.9000E+01
       23  1    3    3    0    0 -.88984550E+02 0.22142137E+02 0.25896863E+03 0.28946248E+03 0.91188000E+02 0.0000E+00 0.9000E+01
#aMCatNLO 1  0  0  2  1 0.15394040D+03 0.00000000D+00  -5  7  0 0.00000000D+00 0.00000000D+00 0.00000000D+00 0.00000000D+00 0.00000000D+00
  <mgrwgt>
 0.2901581934D-03    3    2    0
 0.285903761574978D+03 0.000000000000000D+00 0.000000000000000D+00 0.285903761574978D+03
 0.285903761574978D+03 0.000000000000000D+00 0.000000000000000D+00 -.285903761574978D+03
 0.193096421176006D+03 0.408801590464847D+02 0.157458782051784D+03 -.500651683117554D+02
 0.236027164755219D+02 -.188491644766889D+02 -.623259872721679D+01 -.127652628903638D+02
 0.190049097256266D+03 0.669535549876936D+02 -.173368320762327D+03 -.397404856347071D+02
 0.165059288242162D+03 -.889845495574893D+02 0.221421374377604D+02 0.102570916836826D+03
 0.000000000000000D+00 0.000000000000000D+00 0.000000000000000D+00 0.000000000000000D+00
 0.114437433501827D+04 0.000000000000000D+00 0.000000000000000D+00 0.114437433501827D+04
 0.303067326561311D+03 0.000000000000000D+00 0.000000000000000D+00 -.303067326561311D+03
 0.156696997965103D+03 0.225048946137287D+02 0.115003071557311D+03 -.500651683117554D+02
 0.279985891915686D+02 -.215598719537949D+02 -.124956384948547D+02 -.127652628903638D+02
 0.232490117288385D+03 0.447568257881233D+02 -.224653455312079D+03 -.397404856347071D+02
 0.174981071678272D+03 -.106847468610369D+03 -.191298084801083D+02 0.102570916836826D+03
 0.855274885456250D+03 0.611456201623114D+02 0.141275830729731D+03 0.841307008456956D+03
0.755013346307D-05 0.000000000000D+00 0.000000000000D+00 0.525031565971D-07 0.000000000000D+00  7 -1 1 23 -11 11 23 21 0 0.90135001D-01 0.21464440D-01 0.67994251D+05 0.67994251D+05 0.67994251D+05 0.11357345D+01  1  2  2  2  7  2        1 0.286044915049D-03 0.100000000000D+01
-.415129085255D-06 0.000000000000D+00 -.289945004940D-07 0.525031565971D-07 0.000000000000D+00  7 -1 1 23 -11 11 23 21 2 0.90135001D-01 0.21464440D-01 0.67994251D+05 0.67994251D+05 0.67994251D+05 0.11357345D+01  1  2  3  2  7  2        1 -.202869336514D-04 0.100000000000D+01
0.499298605308D-06 0.000000000000D+00 0.000000000000D+00 0.525031565971D-07 0.000000000000D+00  7 -1 1 23 -11 11 23 21 2 0.90135001D-01 0.21464440D-01 0.67994251D+05 0.67994251D+05 0.67994251D+05 0.11357345D+01  1  2 15  2  7  2        1 0.244002119772D-04 0.100000000000D+01
  </mgrwgt>
  </event>
  <event>
  8     66 0.58687835E-06 0.37360116E+03 0.75467711E-02 0.89314869E-01
       -1 -1    0    0    0  501 0.00000000E+00 0.00000000E+00 0.20146108E+03 0.20146133E+03 0.32000000E+00 0.0000E+00 0.9000E+01
        1 -1    0    0  501    0 0.00000000E+00 0.00000000E+00 -.83339211E+03 0.83339217E+03 0.32000000E+00 0.0000E+00 0.9000E+01
       25  2    1    2    0    0 -.21049264E+03 -.25720007E+03 -.48315144E+03 0.65953859E+03 0.30182247E+03 0.0000E+00 0.0000E+00
       23  2    1    2    0    0 0.21049264E+03 0.25720007E+03 -.14877959E+03 0.37531491E+03 0.90922415E+02 0.0000E+00 0.0000E+00
       23  1    3    3    0    0 -.79998348E+02 -.12838655E+02 -.27617136E+03 0.30191131E+03 0.91188000E+02 0.0000E+00 0.9000E+01
      -13  1    4    4    0    0 0.15913154E+03 0.21255095E+03 -.15419355E+03 0.30704465E+03 0.10565837E+00 0.0000E+00 0.9000E+01
       13  1    4    4    0    0 0.51361103E+02 0.44649123E+02 0.54139557E+01 0.68270266E+02 0.10565837E+00 0.0000E+00 0.9000E+01
       23  1    3    3    0    0 -.13049429E+03 -.24436142E+03 -.20698007E+03 0.35762727E+03 0.91188000E+02 0.0000E+00 0.9000E+01
#aMCatNLO 1  0  0  2  1 0.65164680D+03 0.00000000D+00  -5  7  0 0.00000000D+00 0.00000000D+00 0.00000000D+00 0.00000000D+00 0.00000000D+00
  <mgrwgt>
 0.2197526196D-03    5    2    0
 0.409751428946291D+03 0.000000000000000D+00 0.000000000000000D+00 0.409751428946291D+03
 0.409751428946291D+03 0.000000000000000D+00 0.000000000000000D+00 -.409751428946291D+03
 0.168288275356982D+03 -.799983482846498D+02 -.128386570773258D+02 -.115935867766649D+03
 0.268829735963757D+03 0.159131684998054D+03 0.212551178508401D+03 0.420538973546270D+02
 0.903850081576120D+02 0.513609574610151D+02 0.446488968021739D+02 0.594809025039821D+02
 0.291999838414231D+03 -.130494294174419D+03 -.244361418233249D+03 0.144010679080402D+02
 0.000000000000000D+00 0.000000000000000D+00 -.000000000000000D+00 -.000000000000000D+00
 0.721763726857838D+03 0.000000000000000D+00 0.000000000000000D+00 0.721763726857838D+03
 0.105897012109557D+04 0.000000000000000D+00 0.000000000000000D+00 -.105897012109557D+04
 0.276119588245639D+03 -.233094935827452D+03 0.123450850840030D+02 -.115935867766649D+03
 0.246035261404592D+03 -.182370804943834D+02 0.241727591446971D+03 0.420538973546270D+02
 0.809407323187674D+02 -.766001937892498D+01 0.543575982611874D+02 0.594809025039821D+02
 0.443913723579904D+03 -.384013334441704D+03 -.202658606658211D+03 0.144010679080402D+02
 0.733724542404504D+03 0.643005370142464D+03 -.105771668133950D+03 -.337206394237731D+03
0.920192541514D-05 0.000000000000D+00 0.000000000000D+00 0.108387843772D-06 0.000000000000D+00  7 -1 1 23 -13 13 23 21 0 0.30994036D-01 0.12821419D+00 0.13957783D+06 0.13957783D+06 0.13957783D+06 0.11100284D+01  1  2  2  2  7  2        1 0.215574547220D-03 0.100000000000D+01
-.505915669326D-06 0.000000000000D+00 -.353378165167D-07 0.108387843772D-06 0.000000000000D+00  7 -1 1 23 -13 13 23 21 2 0.30994036D-01 0.12821419D+00 0.13957783D+06 0.13957783D+06 0.13957783D+06 0.11100284D+01  1  2  3  2  7  2        1 -.146037736787D-04 0.100000000000D+01
0.595486712913D-06 0.000000000000D+00 0.000000000000D+00 0.108387843772D-06 0.000000000000D+00  7 -1 1 23 -13 13 23 21 2 0.30994036D-01 0.12821419D+00 0.13957783D+06 0.13957783D+06 0.13957783D+06 0.11100284D+01  1  2 15  2  7  2        1 0.171893335418D-04 0.100000000000D+01
0.114814833196D-05 0.000000000000D+00 -.284725779604D-05 0.108387843772D-06 0.000000000000D+00  7 -1 1 23 -13 13 23 21 2 0.30994036D-01 0.42841919D+00 0.13957783D+06 0.13957783D+06 0.13957783D+06 0.11100284D+01  1  2  5  2  7  2        1 0.149459695982D-05 0.100000000000D+01
0.269104518992D-06 0.000000000000D+00 -.398674484268D-06 0.108387843772D-06 0.000000000000D+00  7 -1 21 23 -13 13 23 -1 2 0.30994036D-01 0.42841919D+00 0.13957783D+06 0.13957783D+06 0.13957783D+06 0.11100284D+01  1  2  5  4  7  2        1 0.979155129511D-07 0.100000000000D+01
  </mgrwgt>
  </event>
  <event>
  8     66 0.58687835E-06 0.17704472E+03 0.75467711E-02 0.10736179E+00
       -1 -1    0    0    0  501 0.00000000E+00 0.00000000E+00 0.53513282E+03 0.53513292E+03 0.32000000E+00 0.0000E+00 0.9000E+01
        1 -1    0    0  501    0 0.00000000E+00 0.00000000E+00 -.17511002E+03 0.17511031E+03 0.32000000E+00 0.0000E+00 0.9000E+01
       25  2    1    2    0    0 -.45217897E+02 -.28991028E+02 -.26601407E+02 0.30530853E+03 0.29936688E+03 0.0000E+00 0.0000E+00
       23  2    1    2    0    0 0.45217897E+02 0.28991028E+02 0.38662421E+03 0.40493470E+03 0.10774362E+03 0.0000E+00 0.0000E+00
       23  1    3    3    0    0 -.10358116E+03 0.35829406E+02 0.57423336E+02 0.15370587E+03 0.91188000E+02 0.0000E+00 0.9000E+01
      -13  1    4    4    0    0 0.27279850E+01 0.41063564E+02 0.47089259E+02 0.62538529E+02 0.10565837E+00 0.0000E+00 0.9000E+01
       13  1    4    4    0    0 0.42489912E+02 -.12072536E+02 0.33953495E+03 0.34239617E+03 0.10565837E+00 0.0000E+00 0.9000E+01
       23  1    3    3    0    0 0.58363263E+02 -.64820435E+02 -.84024742E+02 0.15160266E+03 0.91188000E+02 0.0000E+00 0.9000E+01
#aMCatNLO 1  0  0  1  1 0.14780635D+02 0.00000000D+00  -5  7  0 0.00000000D+00 0.00000000D+00 0.00000000D+00 0.00000000D+00 0.00000000D+00
  <mgrwgt>
 0.3730987720D-04    4    2    0
 0.306116409075876D+03 0.000000000000000D+00 0.000000000000000D+00 0.306116409075876D+03
 0.306116409075876D+03 0.000000000000000D+00 0.000000000000000D+00 -.306116409075876D+03
 0.144544436039726D+03 -.103581167057931D+03 0.358294017856202D+02 -.237705373234203D+02
 0.448591371386793D+02 0.272796517074712D+01 0.410635218058095D+02 0.178518225332271D+02
 0.197546295699411D+03 0.424899502050339D+02 -.120724817482141D+02 0.192544535784768D+03
 0.225282949273936D+03 0.583632516821499D+02 -.648204418432156D+02 -.186625820994575D+03
 0.000000000000000D+00 -.000000000000000D+00 0.000000000000000D+00 -.000000000000000D+00
 0.309241631175408D+03 0.000000000000000D+00 0.000000000000000D+00 0.309241631175408D+03
 0.324195172098776D+03 0.000000000000000D+00 0.000000000000000D+00 -.324195172098776D+03
 0.143078970379248D+03 -.102644610661118D+03 0.324867031009468D+02 -.237705373234203D+02
 0.439353740568064D+02 0.301709695072775D+01 0.400315706879405D+02 0.178518225332271D+02
 0.198161256295611D+03 0.437784490921803D+02 -.166713116210593D+02 0.192544535784768D+03
 0.227235609800950D+03 0.598367379900090D+02 -.700795172816258D+02 -.186625820994575D+03
 0.210255927415684D+02 -.398767337179912D+01 0.142325551137979D+02 -.149535409233681D+02
0.240076595789D-05 0.000000000000D+00 0.000000000000D+00 0.212960563632D-08 0.000000000000D+00  7 -1 1 23 -13 13 23 21 0 0.82328157D-01 0.26940033D-01 0.31344834D+05 0.31344834D+05 0.31344834D+05 0.11655730D+01  1  2  2  1  7  1       -1 0.825154360961D-04 0.100000000000D+01
-.847545233671D-07 0.000000000000D+00 -.921957341451D-08 0.212960563632D-08 0.000000000000D+00  7 -1 1 23 -13 13 23 21 2 0.82328157D-01 0.26940033D-01 0.31344834D+05 0.31344834D+05 0.31344834D+05 0.11655730D+01  1  2  3  1  7  1       -1 -.395755758269D-05 0.100000000000D+01
0.151016284720D-06 0.000000000000D+00 0.000000000000D+00 0.212960563632D-08 0.000000000000D+00  7 -1 1 23 -13 13 23 21 2 0.82328157D-01 0.26940033D-01 0.31344834D+05 0.31344834D+05 0.31344834D+05 0.11655730D+01  1  2 15  1  7  1       -1 0.705160761880D-05 0.100000000000D+01
-.103437795863D-05 0.000000000000D+00 0.000000000000D+00 0.212960563632D-08 0.000000000000D+00  7 -1 1 23 -13 13 23 21 2 0.82328157D-01 0.26940033D-01 0.31344834D+05 0.31344834D+05 0.31344834D+05 0.11655730D+01  1  2  4  1  7  1       -1 -.482996089285D-04 0.100000000000D+01
  </mgrwgt>
  </event>
  <event>
  8     66 0.58687835E-06 0.29440701E+03 0.75467711E-02 0.91629742E-01
       -1 -1    0    0    0  501 0.00000000E+00 0.00000000E+00 0.25665575E+03 0.25665595E+03 0.32000000E+00 0.0000E+00 0.9000E+01
        1 -1    0    0  501    0 0.00000000E+00 0.00000000E+00 -.15737584E+04 0.15737584E+04 0.32000000E+00 0.0000E+00 0.9000E+01
       25  2    1    2    0    0 0.39180442E+03 0.43850244E+03 -.81910889E+03 0.10546862E+04 0.30923876E+03 0.0000E+00 0.0000E+00
       23  2    1    2    0    0 -.39180442E+03 -.43850244E+03 -.49799377E+03 0.77572816E+03 0.89226001E+02 0.0000E+00 0.0000E+00
       23  1    3    3    0    0 0.28815959E+03 0.17951100E+03 -.57024256E+03 0.66988953E+03 0.91188000E+02 0.0000E+00 0.9000E+01
      -13  1    4    4    0    0 -.29856108E+03 -.32770968E+03 -.32255707E+03 0.54824760E+03 0.10565837E+00 0.0000E+00 0.9000E+01
       13  1    4    4    0    0 -.93243341E+02 -.11079275E+03 -.17543670E+03 0.22748056E+03 0.10565837E+00 0.0000E+00 0.9000E+01
       23  1    3    3    0    0 0.10364484E+03 0.25899143E+03 -.24886633E+03 0.38479672E+03 0.91188000E+02 0.0000E+00 0.9000E+01
#aMCatNLO 1  0  0  2  1 0.78794993D+02 0.00000000D+00  -5  7  0 0.00000000D+00 0.00000000D+00 0.00000000D+00 0.00000000D+00 0.00000000D+00
  <mgrwgt>
 0.3004141404D-03    9    2    0
 0.635542575457456D+03 0.000000000000000D+00 0.000000000000000D+00 0.635542575457456D+03
 0.635542575457456D+03 0.000000000000000D+00 0.000000000000000D+00 -.635542575457456D+03
 0.373780972007490D+03 0.288159587803036D+03 0.179511004545270D+03 -.127030763577948D+03
 0.455264605975518D+03 -.298561370809396D+03 -.327709987859720D+03 0.103600835766130D+03
 0.145792737725605D+03 -.932430535760231D+02 -.110792449474398D+03 -.169200612531059D+02
 0.296246835206300D+03 0.103644836582383D+03 0.258991432788848D+03 0.403499890649237D+02
 0.000000000000000D+00 0.000000000000000D+00 0.000000000000000D+00 -.000000000000000D+00
 0.670711336634470D+03 0.000000000000000D+00 0.000000000000000D+00 0.670711336634470D+03
 0.682483231635595D+03 0.000000000000000D+00 0.000000000000000D+00 -.682483231635595D+03
 0.357549169190395D+03 0.279777662747916D+03 0.158473346581873D+03 -.127030763577948D+03
 0.481860927423915D+03 -.309301959150698D+03 -.354667616610165D+03 0.103600835766130D+03
 0.154592296576891D+03 -.966858281908898D+02 -.119433413729786D+03 -.169200612531059D+02
 0.279522679912775D+03 0.970458238343982D+02 0.242428677553592D+03 0.403499890649237D+02
 0.796694951660884D+02 0.291643007592728D+02 0.731990062044871D+02 -.117718950011255D+02
0.292817802020D-04 0.000000000000D+00 0.000000000000D+00 0.465714149612D-08 0.000000000000D+00  7 -1 1 23 -13 13 23 21 0 0.39485518D-01 0.24211670D+00 0.38016268D+06 0.38016268D+06 0.38016268D+06 0.10770237D+01  1  2  2  2  7  2        1 0.127714151434D-03 0.100000000000D+01
-.162494945121D-05 0.000000000000D+00 -.112449746046D-06 0.465714149612D-08 0.000000000000D+00  7 -1 1 23 -13 13 23 21 2 0.39485518D-01 0.24211670D+00 0.38016268D+06 0.38016268D+06 0.38016268D+06 0.10770237D+01  1  2  3  2  7  2        1 -.822113821648D-05 0.100000000000D+01
0.190056886479D-05 0.000000000000D+00 0.000000000000D+00 0.465714149612D-08 0.000000000000D+00  7 -1 1 23 -13 13 23 21 2 0.39485518D-01 0.24211670D+00 0.38016268D+06 0.38016268D+06 0.38016268D+06 0.10770237D+01  1  2 15  2  7  2        1 0.961558485142D-05 0.100000000000D+01
0.452253614961D-04 0.000000000000D+00 0.000000000000D+00 0.465714149612D-08 0.000000000000D+00  7 -1 1 23 -13 13 23 21 2 0.39485518D-01 0.26626881D+00 0.43156224D+06 0.43156224D+06 0.43156224D+06 0.10730579D+01  1  2 12  2  7  2        1 0.177264991268D-03 0.100000000000D+01
-.387525434445D-04 0.000000000000D+00 0.000000000000D+00 0.465714149612D-08 0.000000000000D+00  7 -1 1 23 -13 13 23 21 2 0.39485518D-01 0.24211670D+00 0.38016268D+06 0.38016268D+06 0.38016268D+06 0.10770237D+01  1  2  4  2  7  2        1 -.196061493273D-03 0.100000000000D+01
-.157629725454D-03 0.000000000000D+00 -.316409039886D-04 0.465714149612D-08 0.000000000000D+00  7 -1 1 23 -13 13 23 21 2 0.39485518D-01 0.26792236D+00 0.38016268D+06 0.38016268D+06 0.38016268D+06 0.10770237D+01  1  2  5  2  7  2        1 -.615982860130D-03 0.100000000000D+01
0.160173653828D-03 0.000000000000D+00 0.314793224302D-04 0.465714149612D-08 0.000000000000D+00  7 -1 1 23 -13 13 23 21 2 0.39485518D-01 0.24211670D+00 0.38016268D+06 0.38016268D+06 0.38016268D+06 0.10770237D+01  1  2  6  2  7  2        1 0.810369667670D-03 0.100000000000D+01
0.703173367535D-06 0.000000000000D+00 0.000000000000D+00 0.465714149612D-08 0.000000000000D+00  7 -1 21 23 -13 13 23 -1 2 0.39485518D-01 0.26626881D+00 0.43156224D+06 0.43156224D+06 0.43156224D+06 0.10730579D+01  1  2 12  4  7  2        1 0.170977892682D-05 0.100000000000D+01
-.248161206564D-05 0.000000000000D+00 -.519582264457D-06 0.465714149612D-08 0.000000000000D+00  7 -1 21 23 -13 13 23 -1 2 0.39485518D-01 0.26792236D+00 0.38016268D+06 0.38016268D+06 0.38016268D+06 0.10770237D+01  1  2  5  4  7  2        1 -.599454209589D-05 0.100000000000D+01
  </mgrwgt>
  </event>
  <event>
  8     66 0.58687835E-06 0.17624295E+03 0.75467711E-02 0.10633246E+00
       -1 -1    0    0    0  501 0.00000000E+00 0.00000000E+00 0.19492804E+03 0.19492830E+03 0.32000000E+00 0.0000E+00 0.9000E+01
        1 -1    0    0  501    0 0.00000000E+00 0.00000000E+00 -.20411785E+03 0.20411810E+03 0.32000000E+00 0.0000E+00 0.9000E+01
       25  2    1    2    0    0 0.11723376E+02 -.19159173E+02 0.20666563E+02 0.30067888E+03 0.29912568E+03 0.0000E+00 0.0000E+00
       23  2    1    2    0    0 -.11723376E+02 0.19159173E+02 -.29856379E+02 0.98367518E+02 0.90995900E+02 0.0000E+00 0.0000E+00
       23  1    3    3    0    0 -.58379305E+02 0.55544087E+02 0.85751825E+02 0.14886879E+03 0.91188000E+02 0.0000E+00 0.9000E+01
      -13  1    4    4    0    0 -.51663105E+02 0.12504146E+02 -.18977525E+02 0.56441011E+02 0.10565837E+00 0.0000E+00 0.9000E+01
       13  1    4    4    0    0 0.39939729E+02 0.66550267E+01 -.10878854E+02 0.41926507E+02 0.10565837E+00 0.0000E+00 0.9000E+01
       23  1    3    3    0    0 0.70102681E+02 -.74703260E+02 -.65085262E+02 0.15181010E+03 0.91188000E+02 0.0000E+00 0.9000E+01
#aMCatNLO 1  0  0  1  1 0.45261243D+02 0.00000000D+00  -5  7  0 0.00000000D+00 0.00000000D+00 0.00000000D+00 0.00000000D+00 0.00000000D+00
  <mgrwgt>
 0.4309323574D-04    4    2    0
 0.199470285046726D+03 0.000000000000000D+00 0.000000000000000D+00 0.199470285046726D+03
 0.199470285046726D+03 0.000000000000000D+00 0.000000000000000D+00 -.199470285046726D+03
 0.150883407545393D+03 -.583788989246320D+02 0.555435482981312D+02 0.892040903283579D+02
 0.560193157127580D+02 -.516634583377867D+02 0.125045349316229D+02 -.176829695370790D+02
 0.416869824055852D+02 0.399396755287494D+02 0.665530277861590D+01 -.991633831949777D+01
 0.150350864429717D+03 0.701026817336692D+02 -.747033860083700D+02 -.616047824717811D+02
 0.000000000000000D+00 -.000000000000000D+00 -.000000000000000D+00 -.000000000000000D+00
 0.220378714290846D+03 0.000000000000000D+00 0.000000000000000D+00 0.220378714290846D+03
 0.226841491145980D+03 0.000000000000000D+00 0.000000000000000D+00 -.226841491145980D+03
 0.147489870868416D+03 -.423267497264644D+02 0.607378563258980D+02 0.892040903283579D+02
 0.512387651521419D+02 -.458930933577007D+02 0.143717648439033D+02 -.176829695370790D+02
 0.464980849819243D+02 0.446839336817585D+02 0.819049522579218D+01 -.991633831949777D+01
 0.156273165146440D+03 0.865987121311152D+02 -.693654426549951D+02 -.616047824717811D+02
 0.457203192879035D+02 -.430628027287086D+02 -.139346737405984D+02 -.646277685513316D+01
0.902430427637D-06 0.000000000000D+00 0.000000000000D+00 0.267080609119D-07 0.000000000000D+00  7 -1 1 23 -13 13 23 21 0 0.29988968D-01 0.31402786D-01 0.31061577D+05 0.31061577D+05 0.31061577D+05 0.11659373D+01  1  2  2  1  7  1       -1 0.154548930701D-03 0.100000000000D+01
-.492007439244D-07 0.000000000000D+00 -.346557045751D-08 0.267080609119D-07 0.000000000000D+00  7 -1 1 23 -13 13 23 21 2 0.29988968D-01 0.31402786D-01 0.31061577D+05 0.31061577D+05 0.31061577D+05 0.11659373D+01  1  2  3  1  7  1       -1 -.114544524507D-04 0.100000000000D+01
0.565236957921D-07 0.000000000000D+00 0.000000000000D+00 0.267080609119D-07 0.000000000000D+00  7 -1 1 23 -13 13 23 21 2 0.29988968D-01 0.31402786D-01 0.31061577D+05 0.31061577D+05 0.31061577D+05 0.11659373D+01  1  2 15  1  7  1       -1 0.131593129320D-04 0.100000000000D+01
-.486062824440D-06 0.000000000000D+00 0.000000000000D+00 0.267080609119D-07 0.000000000000D+00  7 -1 1 23 -13 13 23 21 2 0.29988968D-01 0.31402786D-01 0.31061577D+05 0.31061577D+05 0.31061577D+05 0.11659373D+01  1  2  4  1  7  1       -1 -.113160555441D-03 0.100000000000D+01
  </mgrwgt>
  </event>
  <event>
  8     66 0.58687835E-06 0.42137359E+03 0.75467711E-02 0.95725804E-01
       -1 -1    0    0    0  501 0.00000000E+00 0.00000000E+00 0.16103830E+04 0.16103830E+04 0.32000000E+00 0.0000E+00 0.9000E+01
        1 -1    0    0  501    0 0.00000000E+00 0.00000000E+00 -.14080957E+03 0.14080993E+03 0.32000000E+00 0.0000E+00 0.9000E+01
       25  2    1    2    0    0 0.30895101E+01 0.37910142E+03 0.45485699E+03 0.66408429E+03 0.30064203E+03 0.0000E+00 0.0000E+00
       23  2    1    2    0    0 -.30895101E+01 -.37910142E+03 0.10147164E+04 0.10871086E+04 0.91806168E+02 0.0000E+00 0.0000E+00
       23  1    3    3    0    0 0.71533870E+02 0.28945367E+03 0.19873225E+03 0.36974353E+03 0.91188000E+02 0.0000E+00 0.9000E+01
      -11  1    4    4    0    0 0.31764912E+02 -.10783147E+03 0.37216446E+03 0.38877117E+03 0.51099893E-03 0.0000E+00 0.9000E+01
       11  1    4    4    0    0 -.34854423E+02 -.27126996E+03 0.64255193E+03 0.69833746E+03 0.51099893E-03 0.0000E+00 0.9000E+01
       23  1    3    3    0    0 -.68444360E+02 0.89647755E+02 0.25612474E+03 0.29434076E+03 0.91188000E+02 0.0000E+00 0.9000E+01
#aMCatNLO 1  0  0  2  1 0.62682588D+02 0.00000000D+00  -5  7  0 0.00000000D+00 0.00000000D+00 0.00000000D+00 0.00000000D+00 0.00000000D+00
  <mgrwgt>
 0.1130399484D-03    4    2    0
 0.476190800767133D+03 0.000000000000000D+00 0.000000000000000D+00 0.476190800767133D+03
 0.476190800767133D+03 0.000000000000000D+00 0.000000000000000D+00 -.476190800767133D+03
 0.373212407199482D+03 0.715338696733598D+02 0.289453668702197D+03 -.205113940793953D+03
 0.140584751377763D+03 0.317649124085575D+02 -.107831466128696D+03 0.844241527772710D+02
 0.292578517034933D+03 -.348544225241903D+02 -.271269957598827D+03 0.103922894326500D+03
 0.146005925922088D+03 -.684443595577271D+02 0.896477550253264D+02 0.167668936901826D+02
 0.000000000000000D+00 -.000000000000000D+00 -.000000000000000D+00 0.000000000000000D+00
 0.698340312665628D+03 0.000000000000000D+00 0.000000000000000D+00 0.698340312665628D+03
 0.481663370331670D+03 0.000000000000000D+00 0.000000000000000D+00 -.481663370331670D+03
 0.393318655015229D+03 0.819143082692526D+02 0.312414196911301D+03 -.205113940793953D+03
 0.135283259608163D+03 0.355007439876936D+02 -.995681672743342D+02 0.844241527772710D+02
 0.275997788343070D+03 -.271547066013896D+02 -.254238929187608D+03 0.103922894326500D+03
 0.149842449183213D+03 -.644379519340070D+02 0.985095419731334D+02 0.167668936901826D+02
 0.225561530847623D+03 -.258223937215496D+02 -.571166424224919D+02 0.216676942333958D+03
0.670941881308D-04 0.000000000000D+00 0.000000000000D+00 0.422662590710D-06 0.000000000000D+00  7 -1 1 23 -11 11 23 21 0 0.24775125D+00 0.21663041D-01 0.17755570D+06 0.17755570D+06 0.17755570D+06 0.11018179D+01  1  2  2  2  7  2        1 0.115692549437D-03 0.100000000000D+01
-.365966916777D-05 0.000000000000D+00 -.257659348728D-06 0.422662590710D-06 0.000000000000D+00  7 -1 1 23 -11 11 23 21 2 0.24775125D+00 0.21663041D-01 0.17755570D+06 0.17755570D+06 0.17755570D+06 0.11018179D+01  1  2  3  2  7  2        1 -.766093871138D-05 0.100000000000D+01
0.432921471989D-05 0.000000000000D+00 0.000000000000D+00 0.422662590710D-06 0.000000000000D+00  7 -1 1 23 -11 11 23 21 2 0.24775125D+00 0.21663041D-01 0.17755570D+06 0.17755570D+06 0.17755570D+06 0.11018179D+01  1  2 15  2  7  2        1 0.906252645173D-05 0.100000000000D+01
-.193670645981D-05 0.000000000000D+00 0.000000000000D+00 0.422662590710D-06 0.000000000000D+00  7 -1 1 23 -11 11 23 21 2 0.24775125D+00 0.21663041D-01 0.17755570D+06 0.17755570D+06 0.17755570D+06 0.11018179D+01  1  2  4  2  7  2        1 -.405418872866D-05 0.100000000000D+01
  </mgrwgt>
  </event>
  <event>
  8     66 0.58687835E-06 0.18166172E+03 0.75467711E-02 0.10549309E+00
       -1 -1    0    0    0  501 0.00000000E+00 0.00000000E+00 0.45115539E+03 0.45115550E+03 0.32000000E+00 0.0000E+00 0.9000E+01
        1 -1    0    0  501    0 0.00000000E+00 0.00000000E+00 -.96943887E+02 0.96944415E+02 0.32000000E+00 0.0000E+00 0.9000E+01
       25  2    1    2    0    0 -.16298018E+02 0.85408246E+01 0.17975452E+03 0.34991027E+03 0.29964469E+03 0.0000E+00 0.0000E+00
       23  2    1    2    0    0 0.16298018E+02 -.85408246E+01 0.17445698E+03 0.19818965E+03 0.92224322E+02 0.0000E+00 0.0000E+00
       23  1    3    3    0    0 0.10349875E+03 0.81283411E+01 0.38443628E+02 0.14342672E+03 0.91188000E+02 0.0000E+00 0.9000E+01
      -13  1    4    4    0    0 0.96763604E+01 -.40659984E+02 0.33777523E+02 0.53738241E+02 0.10565837E+00 0.0000E+00 0.9000E+01
       13  1    4    4    0    0 0.66216580E+01 0.32119160E+02 0.14067946E+03 0.14445140E+03 0.10565837E+00 0.0000E+00 0.9000E+01
       23  1    3    3    0    0 -.11979677E+03 0.41248352E+00 0.14131089E+03 0.20648354E+03 0.91188000E+02 0.0000E+00 0.9000E+01
#aMCatNLO 1  0  0  1  1 0.58696706D+02 0.00000000D+00  -5  7  0 0.00000000D+00 0.00000000D+00 0.00000000D+00 0.00000000D+00 0.00000000D+00
  <mgrwgt>
 0.3629971367D-03    4    2    0
 0.209133766832789D+03 0.000000000000000D+00 0.000000000000000D+00 0.209133766832789D+03
 0.209133766832789D+03 0.000000000000000D+00 0.000000000000000D+00 -.209133766832789D+03
 0.155390964620510D+03 0.103498718174391D+03 0.812834475463107D+01 -.710847795909959D+02
 0.418141980943880D+02 0.967637012700379D+01 -.406600770815225D+02 -.124625646100792D+01
 0.701549719281738D+02 0.662166510914566D+01 0.321192436836519D+02 0.620179637090364D+02
 0.150907399022506D+03 -.119796753410540D+03 0.412488643239488D+00 0.103130723429673D+02
 0.000000000000000D+00 -.000000000000000D+00 0.000000000000000D+00 -.000000000000000D+00
 0.218234224843585D+03 0.000000000000000D+00 0.000000000000000D+00 0.218234224843585D+03
 0.333335600807824D+03 0.000000000000000D+00 0.000000000000000D+00 -.333335600807824D+03
 0.164616825978415D+03 0.116761733031028D+03 -.985392618696124D+01 -.710847795909959D+02
 0.476219730055196D+02 0.133831338398458D+02 -.456857842922348D+02 -.124625646100792D+01
 0.677665141129535D+02 0.123379469377516D+02 0.243689900850855D+02 0.620179637090364D+02
 0.142360681080444D+03 -.107641990252734D+03 -.160671916328618D+02 0.103130723429673D+02
 0.129203831474078D+03 -.348408235558919D+02 0.472379120269724D+02 -.115101375964239D+03
0.379312554996D-05 0.000000000000D+00 0.000000000000D+00 0.634726441516D-07 0.000000000000D+00  7 -1 1 23 -13 13 23 21 0 0.69408570D-01 0.14914493D-01 0.33000980D+05 0.33000980D+05 0.33000980D+05 0.11635136D+01  1  2  2  1  7  1       -1 0.388859418132D-03 0.100000000000D+01
-.205647800779D-06 0.000000000000D+00 -.145666008647D-07 0.634726441516D-07 0.000000000000D+00  7 -1 1 23 -13 13 23 21 2 0.69408570D-01 0.14914493D-01 0.33000980D+05 0.33000980D+05 0.33000980D+05 0.11635136D+01  1  2  3  1  7  1       -1 -.285405554670D-04 0.100000000000D+01
0.236474693153D-06 0.000000000000D+00 0.000000000000D+00 0.634726441516D-07 0.000000000000D+00  7 -1 1 23 -13 13 23 21 2 0.69408570D-01 0.14914493D-01 0.33000980D+05 0.33000980D+05 0.33000980D+05 0.11635136D+01  1  2 15  1  7  1       -1 0.328188245675D-04 0.100000000000D+01
-.217176499397D-06 0.000000000000D+00 0.000000000000D+00 0.634726441516D-07 0.000000000000D+00  7 -1 1 23 -13 13 23 21 2 0.69408570D-01 0.14914493D-01 0.33000980D+05 0.33000980D+05 0.33000980D+05 0.11635136D+01  1  2  4  1  7  1       -1 -.301405505125D-04 0.100000000000D+01
  </mgrwgt>
  </event>
  <event>
  9     66 0.58687835E-06 0.30093567E+03 0.75467711E-02 0.96568446E-01
       21 -1    0    0  502  501 0.00000000E+00 0.00000000E+00 0.67466733E+03 0.67466774E+03 0.75000000E+00 0.0000E+00 0.9000E+01
        3 -1    0    0  501    0 0.00000000E+00 0.00000000E+00 -.52220258E+03 0.52220282E+03 0.50000000E+00 0.0000E+00 0.9000E+01
       25  2    1    2    0    0 -.29361602E+03 0.19096439E+03 -.21322763E+03 0.50792201E+03 0.29973485E+03 0.0000E+00 0.0000E+00
       23  2    1    2    0    0 0.21101535E+03 0.16422791E+02 0.40213534E+03 0.46276134E+03 0.87395883E+02 0.0000E+00 0.0000E+00
       23  1    3    3    0    0 -.17768694E+03 0.14358723E+03 -.20146419E+01 0.24598628E+03 0.91188000E+02 0.0000E+00 0.9000E+01
      -11  1    4    4    0    0 0.16078637E+03 -.16041589E+02 0.34041297E+03 0.37681637E+03 0.51099893E-03 0.0000E+00 0.9000E+01
       11  1    4    4    0    0 0.50228975E+02 0.32464380E+02 0.61722368E+02 0.85944962E+02 0.51099893E-03 0.0000E+00 0.9000E+01
       23  1    3    3    0    0 -.11592908E+03 0.47377162E+02 -.21121299E+03 0.26193573E+03 0.91188000E+02 0.0000E+00 0.9000E+01
        3  1    1    2  502    0 0.82600677E+02 -.20738718E+03 -.36442958E+02 0.22618721E+03 0.50000000E+00 0.0000E+00 0.9000E+01
#aMCatNLO 2  0  0  1  1 0.22323153D+03 0.00000000D+00  -5  7  0 0.00000000D+00 0.00000000D+00 0.00000000D+00 0.00000000D+00 0.00000000D+00
  <mgrwgt>
 0.3614540394D-05    1    2    0
 0.462792537562389D+03 0.000000000000000D+00 0.000000000000000D+00 0.462792537562389D+03
 0.462792537562389D+03 0.000000000000000D+00 0.000000000000000D+00 -.462792537562389D+03
 0.210353605412645D+03 -.157383972859628D+03 0.926121629376394D+02 -.508592206883951D+02
 0.343642783271555D+03 0.189831479891579D+03 -.889657268165210D+02 0.272285642641698D+03
 0.747438201518272D+02 0.568326837281485D+02 0.158843148492951D+02 0.458734482343915D+02
 0.296844866288751D+03 -.892801907600989D+02 -.195307509704135D+02 -.267299870187695D+03
 0.000000000000000D+00 0.000000000000000D+00 -.000000000000000D+00 -.000000000000000D+00
 0.553959906126252D+03 0.000000000000000D+00 0.000000000000000D+00 0.553959906126252D+03
 0.635990236759256D+03 0.000000000000000D+00 0.000000000000000D+00 -.635990236759256D+03
 0.251180916359207D+03 -.177686939583683D+03 0.143587229834011D+03 -.508592206883951D+02
 0.316621321274823D+03 0.160786371646524D+03 -.160415893775412D+02 0.272285642641698D+03
 0.753741276402707D+02 0.502289746772946D+02 0.324643799800047D+02 0.458734482343915D+02
 0.308947600696450D+03 -.115929084220258D+03 0.473771618143930D+02 -.267299870187695D+03
 0.237826176914757D+03 0.826006774801211D+02 -.207387182250867D+03 -.820303306330038D+02
0.441765362046D-06 0.000000000000D+00 0.000000000000D+00 0.190675219034D-06 0.738969155159D-12  7 21 3 23 -11 11 23 3 2 0.10379498D+00 0.80338873D-01 0.17872545D+06 0.17872545D+06 0.17872545D+06 0.11015965D+01  1  2  1  3  7  1       -3 0.361454039375D-05 0.100000000000D+01
  </mgrwgt>
  </event>
  <event>
  9     66 0.58687835E-06 0.19596982E+03 0.75467711E-02 0.10437281E+00
       -1 -1    0    0    0  501 0.00000000E+00 0.00000000E+00 0.29550584E+03 0.29550601E+03 0.32000000E+00 0.0000E+00 0.9000E+01
       21 -1    0    0  501  502 0.00000000E+00 0.00000000E+00 -.34342114E+03 0.34342196E+03 0.75000000E+00 0.0000E+00 0.9000E+01
       25  2    1    2    0    0 0.10995381E+03 -.53637004E+02 -.11794792E+02 0.32401993E+03 0.29980499E+03 0.0000E+00 0.0000E+00
       23  2    1    2    0    0 -.58370130E+02 0.98788014E+02 -.13185530E+03 0.19715940E+03 0.91213289E+02 0.0000E+00 0.0000E+00
       23  1    3    3    0    0 0.12857180E+03 0.10725859E+02 -.94286782E+02 0.18398641E+03 0.91188000E+02 0.0000E+00 0.9000E+01
      -13  1    4    4    0    0 -.24059068E+02 0.72782146E+02 -.22894905E+02 0.80001671E+02 0.10565837E+00 0.0000E+00 0.9000E+01
       13  1    4    4    0    0 -.34311062E+02 0.26005868E+02 -.10896039E+03 0.11715773E+03 0.10565837E+00 0.0000E+00 0.9000E+01
       23  1    3    3    0    0 -.18617983E+02 -.64362864E+02 0.82491990E+02 0.14003352E+03 0.91188000E+02 0.0000E+00 0.9000E+01
       -1  1    1    2    0  502 -.51583683E+02 -.45151009E+02 0.95734790E+02 0.11774864E+03 0.32000000E+00 0.0000E+00 0.9000E+01
#aMCatNLO 2  0  0  2  1 0.68552826D+02 0.00000000D+00  -5  7  0 0.00000000D+00 0.00000000D+00 0.00000000D+00 0.00000000D+00 0.00000000D+00
  <mgrwgt>
 0.8156647140D-05    1    2    0
 0.248139605314626D+03 0.000000000000000D+00 0.000000000000000D+00 0.248139605314626D+03
 0.248139605314626D+03 0.000000000000000D+00 0.000000000000000D+00 -.248139605314626D+03
 0.151586279368772D+03 0.112229249126484D+03 -.357871360610319D+01 -.453314151367286D+02
 0.732676615018038D+02 -.318140762345566D+02 0.659942668424517D+02 -.878361663552852D+00
 0.926972687998245D+02 -.437939780727998D+02 0.177054574602910D+02 -.797583093077321D+02
 0.178728000958852D+03 -.366211948191277D+02 -.801210106966395D+02 0.125968086108014D+03
 0.000000000000000D+00 -.000000000000000D+00 -.000000000000000D+00 0.000000000000000D+00
 0.392144687628176D+03 0.000000000000000D+00 0.000000000000000D+00 0.392144687628176D+03
 0.258790038263307D+03 0.000000000000000D+00 0.000000000000000D+00 -.258790038263307D+03
 0.164365261650788D+03 0.128571795780661D+03 0.107258577731386D+02 -.453314151367286D+02
 0.766606778442285D+02 -.240590550922664D+02 0.727822085154874D+02 -.878361663552852D+00
 0.906363053094104D+02 -.343110761110343D+02 0.260058069018362D+02 -.797583093077321D+02
 0.169329316886905D+03 -.186179816147650D+02 -.643628639532316D+02 0.125968086108014D+03
 0.149943164200151D+03 -.515836829625957D+02 -.451510092372305D+02 0.133354649364870D+03
0.330602101340D-07 0.000000000000D+00 0.000000000000D+00 0.372741752348D-06 0.498202247554D-11  7 -1 21 23 -13 13 23 -1 2 0.45462484D-01 0.52834064D-01 0.52764082D+05 0.52764082D+05 0.52764082D+05 0.11452456D+01  1  2  1  4  7  2        1 0.815664713956D-05 0.100000000000D+01
  </mgrwgt>
  </event>
  <event>
  8     66 0.58687835E-06 0.21504431E+03 0.75467711E-02 0.98697183E-01
       -1 -1    0    0    0  501 0.00000000E+00 0.00000000E+00 0.11212249E+03 0.11212294E+03 0.32000000E+00 0.0000E+00 0.9000E+01
        1 -1    0    0  501    0 0.00000000E+00 0.00000000E+00 -.34861083E+04 0.34861084E+04 0.32000000E+00 0.0000E+00 0.9000E+01
       25  2    1    2    0    0 0.28017500E+03 0.11658245E+03 -.32161302E+04 0.32442871E+04 0.29969257E+03 0.0000E+00 0.0000E+00
       23  2    1    2    0    0 -.28017500E+03 -.11658245E+03 -.15785562E+03 0.35394420E+03 0.90931836E+02 0.0000E+00 0.0000E+00
       23  1    3    3    0    0 0.86056336E+02 -.19647497E+02 -.18757255E+04 0.18800141E+04 0.91188000E+02 0.0000E+00 0.9000E+01
      -11  1    4    4    0    0 -.17078148E+03 -.68849445E+02 -.14406217E+03 0.23379578E+03 0.51099893E-03 0.0000E+00 0.9000E+01
       11  1    4    4    0    0 -.10939352E+03 -.47733008E+02 -.13793455E+02 0.12014841E+03 0.51099893E-03 0.0000E+00 0.9000E+01
       23  1    3    3    0    0 0.19411866E+03 0.13622995E+03 -.13404047E+04 0.13642730E+04 0.91188000E+02 0.0000E+00 0.9000E+01
#aMCatNLO 1  0  0  2  1 0.22119331D+02 0.00000000D+00  -5  7  0 0.00000000D+00 0.00000000D+00 0.00000000D+00 0.00000000D+00 0.00000000D+00
  <mgrwgt>
 0.1882701295D-03    9    2    0
 0.625197553212156D+03 0.000000000000000D+00 0.000000000000000D+00 0.625197553212156D+03
 0.625197553212156D+03 0.000000000000000D+00 0.000000000000000D+00 -.625197553212156D+03
 0.348733263662520D+03 0.860563355674246D+02 -.196474972235157D+02 -.324819828216000D+03
 0.284060282645800D+03 -.170781480620755D+03 -.688494453556454D+02 0.216295362705756D+03
 0.308528761943917D+03 -.109393516412830D+03 -.477330083482527D+02 0.284507672001139D+03
 0.309072798172075D+03 0.194118661466160D+03 0.136229950927414D+03 -.175983206490895D+03
 0.000000000000000D+00 -.000000000000000D+00 0.000000000000000D+00 -.000000000000000D+00
 0.627425241791338D+03 0.000000000000000D+00 0.000000000000000D+00 0.627425241791338D+03
 0.682724204577237D+03 0.000000000000000D+00 0.000000000000000D+00 -.682724204577237D+03
 0.349239855329334D+03 0.864833356261801D+02 -.258057563956605D+02 -.324819828216000D+03
 0.285110770766281D+03 -.170433277994270D+03 -.738712760892660D+02 0.216295362705756D+03
 0.309285542575585D+03 -.109015555231874D+03 -.531840214373885D+02 0.284507672001139D+03
 0.306954566525996D+03 0.194495529448270D+03 0.130794704116729D+03 -.175983206490895D+03
 0.595587111713774D+02 -.153003184830606D+01 0.220663498055859D+02 -.552989627858991D+02
0.105335509125D-03 0.000000000000D+00 0.000000000000D+00 0.277895704834D-05 0.000000000000D+00  7 -1 1 23 -11 11 23 21 0 0.17249649D-01 0.53632440D+00 0.11712929D+06 0.11712929D+06 0.11712929D+06 0.11161304D+01  1  2  2  2  7  2        1 0.861576047200D-04 0.100000000000D+01
-.326869428154D-05 0.000000000000D+00 -.404516090515D-06 0.277895704834D-05 0.000000000000D+00  7 -1 1 23 -11 11 23 21 2 0.17249649D-01 0.53632440D+00 0.11712929D+06 0.11712929D+06 0.11712929D+06 0.11161304D+01  1  2  3  2  7  2        1 -.333060411354D-05 0.100000000000D+01
0.644078887162D-05 0.000000000000D+00 0.000000000000D+00 0.277895704834D-05 0.000000000000D+00  7 -1 1 23 -11 11 23 21 2 0.17249649D-01 0.53632440D+00 0.11712929D+06 0.11712929D+06 0.11712929D+06 0.11161304D+01  1  2 15  2  7  2        1 0.656277891494D-05 0.100000000000D+01
0.101465591103D-02 0.000000000000D+00 0.000000000000D+00 0.277895704834D-05 0.000000000000D+00  7 -1 1 23 -11 11 23 21 2 0.17249649D-01 0.58657782D+00 0.12565828D+06 0.12565828D+06 0.12565828D+06 0.11136720D+01  1  2 12  2  7  2        1 0.543253129383D-03 0.100000000000D+01
-.103314915452D-02 0.000000000000D+00 0.000000000000D+00 0.277895704834D-05 0.000000000000D+00  7 -1 1 23 -11 11 23 21 2 0.17249649D-01 0.53632440D+00 0.11712929D+06 0.11712929D+06 0.11712929D+06 0.11161304D+01  1  2  4  2  7  2        1 -.105271724045D-02 0.100000000000D+01
-.124741539931D-02 0.000000000000D+00 -.788942477343D-04 0.277895704834D-05 0.000000000000D+00  7 -1 1 23 -11 11 23 21 2 0.17249649D-01 0.58609226D+00 0.11712929D+06 0.11712929D+06 0.11712929D+06 0.11161304D+01  1  2  5  2  7  2        1 -.678732686444D-03 0.100000000000D+01
0.126331930546D-02 0.000000000000D+00 0.796700896661D-04 0.277895704834D-05 0.000000000000D+00  7 -1 1 23 -11 11 23 21 2 0.17249649D-01 0.53632440D+00 0.11712929D+06 0.11712929D+06 0.11712929D+06 0.11161304D+01  1  2  6  2  7  2        1 0.128724686774D-02 0.100000000000D+01
0.152782564181D-04 0.000000000000D+00 0.000000000000D+00 0.277895704834D-05 0.000000000000D+00  7 -1 21 23 -11 11 23 -1 2 0.17249649D-01 0.58657782D+00 0.12565828D+06 0.12565828D+06 0.12565828D+06 0.11136720D+01  1  2 12  4  7  2        1 0.810924501050D-06 0.100000000000D+01
-.180737676285D-04 0.000000000000D+00 -.115480098621D-05 0.277895704834D-05 0.000000000000D+00  7 -1 21 23 -11 11 23 -1 2 0.17249649D-01 0.58609226D+00 0.11712929D+06 0.11712929D+06 0.11712929D+06 0.11161304D+01  1  2  5  4  7  2        1 -.980644782570D-06 0.100000000000D+01
  </mgrwgt>
  </event>
  <event>
  8     66 0.58687835E-06 0.33615847E+03 0.75467711E-02 0.90412048E-01
       -1 -1    0    0    0  501 0.00000000E+00 0.00000000E+00 0.19595721E+03 0.19595748E+03 0.32000000E+00 0.0000E+00 0.9000E+01
        1 -1    0    0  501    0 0.00000000E+00 0.00000000E+00 -.34358425E+04 0.34358425E+04 0.32000000E+00 0.0000E+00 0.9000E+01
       25  2    1    2    0    0 0.28952147E+02 0.64023785E+03 -.26934347E+04 0.27846974E+04 0.29867429E+03 0.0000E+00 0.0000E+00
       23  2    1    2    0    0 -.28952147E+02 -.64023785E+03 -.54645058E+03 0.84710260E+03 0.90729527E+02 0.0000E+00 0.0000E+00
       23  1    3    3    0    0 0.12243585E+03 0.42761410E+03 -.16019464E+04 0.16650501E+04 0.91188000E+02 0.0000E+00 0.9000E+01
      -13  1    4    4    0    0 -.14953378E+02 -.91224071E+02 -.12167010E+03 0.15280399E+03 0.10565837E+00 0.0000E+00 0.9000E+01
       13  1    4    4    0    0 -.13998769E+02 -.54901378E+03 -.42478049E+03 0.69429861E+03 0.10565837E+00 0.0000E+00 0.9000E+01
       23  1    3    3    0    0 -.93483707E+02 0.21262375E+03 -.10914883E+04 0.11196473E+04 0.91188000E+02 0.0000E+00 0.9000E+01
#aMCatNLO 1  0  0  2  1 0.12439792D+03 0.00000000D+00  -5  7  0 0.00000000D+00 0.00000000D+00 0.00000000D+00 0.00000000D+00 0.00000000D+00
  <mgrwgt>
 0.1122771025D-03    9    2    0
 0.820535572405930D+03 0.000000000000000D+00 0.000000000000000D+00 0.820535572405930D+03
 0.820535572405930D+03 0.000000000000000D+00 0.000000000000000D+00 -.820535572405930D+03
 0.522223797245484D+03 0.122435853951335D+03 0.427614099052989D+03 -.257988540489302D+03
 0.979573772643862D+02 -.149533793646666D+02 -.912234503395102D+02 0.324087382390700D+02
 0.697906965572713D+03 -.139987678720270D+02 -.549014395893717D+03 0.430652249726429D+03
 0.322983004729277D+03 -.934837067146410D+02 0.212623747180238D+03 -.205072447476196D+03
 0.000000000000000D+00 0.000000000000000D+00 0.000000000000000D+00 -.000000000000000D+00
 0.829581873844929D+03 0.000000000000000D+00 0.000000000000000D+00 0.829581873844929D+03
 0.140097798365947D+04 0.000000000000000D+00 0.000000000000000D+00 -.140097798365947D+04
 0.490891441796108D+03 0.120555211562556D+03 0.389316722253192D+03 -.257988540489302D+03
 0.105200682783687D+03 -.153305009838319D+02 -.989031500180357D+02 0.324087382390700D+02
 0.741528038704505D+03 -.166707861978955D+02 -.603427341838319D+03 0.430652249726429D+03
 0.308159088330893D+03 -.946552936455358D+02 0.188765566372491D+03 -.205072447476196D+03
 0.584780605889206D+03 0.610136926470743D+01 0.124248203230673D+03 -.571396109814542D+03
0.308604596722D-03 0.000000000000D+00 0.000000000000D+00 0.864779173119D-06 0.000000000000D+00  7 -1 1 23 -13 13 23 21 0 0.30147285D-01 0.52859117D+00 0.45239610D+06 0.45239610D+06 0.45239610D+06 0.10715949D+01  1  2  2  2  7  2        1 0.100634553956D-03 0.100000000000D+01
-.163208527718D-04 0.000000000000D+00 -.118512290887D-05 0.864779173119D-06 0.000000000000D+00  7 -1 1 23 -13 13 23 21 2 0.30147285D-01 0.52859117D+00 0.45239610D+06 0.45239610D+06 0.45239610D+06 0.10715949D+01  1  2  3  2  7  2        1 -.611151471298D-05 0.100000000000D+01
0.200219319473D-04 0.000000000000D+00 0.000000000000D+00 0.864779173119D-06 0.000000000000D+00  7 -1 1 23 -13 13 23 21 2 0.30147285D-01 0.52859117D+00 0.45239610D+06 0.45239610D+06 0.45239610D+06 0.10715949D+01  1  2 15  2  7  2        1 0.749742267694D-05 0.100000000000D+01
0.142667355561D-02 0.000000000000D+00 0.000000000000D+00 0.864779173119D-06 0.000000000000D+00  7 -1 1 23 -13 13 23 21 2 0.30147285D-01 0.90359737D+00 0.54448715D+06 0.54448715D+06 0.54448715D+06 0.10659040D+01  1  2 12  2  7  2        1 0.258066834785D-06 0.100000000000D+01
-.132054279713D-02 0.000000000000D+00 0.000000000000D+00 0.864779173119D-06 0.000000000000D+00  7 -1 1 23 -13 13 23 21 2 0.30147285D-01 0.52859117D+00 0.45239610D+06 0.45239610D+06 0.45239610D+06 0.10715949D+01  1  2  4  2  7  2        1 -.494491117996D-03 0.100000000000D+01
-.143410002576D-02 0.000000000000D+00 -.549836296673D-04 0.864779173119D-06 0.000000000000D+00  7 -1 1 23 -13 13 23 21 2 0.30147285D-01 0.90287413D+00 0.45239610D+06 0.45239610D+06 0.45239610D+06 0.10715949D+01  1  2  5  2  7  2        1 -.276660147307D-06 0.100000000000D+01
0.134798292475D-02 0.000000000000D+00 0.504293938243D-04 0.864779173119D-06 0.000000000000D+00  7 -1 1 23 -13 13 23 21 2 0.30147285D-01 0.52859117D+00 0.45239610D+06 0.45239610D+06 0.45239610D+06 0.10715949D+01  1  2  6  2  7  2        1 0.504766361946D-03 0.100000000000D+01
0.851017626744D-04 0.000000000000D+00 0.000000000000D+00 0.864779173119D-06 0.000000000000D+00  7 -1 21 23 -13 13 23 -1 2 0.30147285D-01 0.90359737D+00 0.54448715D+06 0.54448715D+06 0.54448715D+06 0.10659040D+01  1  2 12  4  7  2        1 0.216521795044D-09 0.100000000000D+01
-.827691853024D-04 0.000000000000D+00 -.327577531912D-05 0.864779173119D-06 0.000000000000D+00  7 -1 21 23 -13 13 23 -1 2 0.30147285D-01 0.90287413D+00 0.45239610D+06 0.45239610D+06 0.45239610D+06 0.10715949D+01  1  2  5  4  7  2        1 -.226539787490D-09 0.100000000000D+01
  </mgrwgt>
  </event>
  <event>
  8     66 0.58687835E-06 0.20130489E+03 0.75467711E-02 0.96065934E-01
       -1 -1    0    0    0  501 0.00000000E+00 0.00000000E+00 0.16812258E+03 0.16812288E+03 0.32000000E+00 0.0000E+00 0.9000E+01
        1 -1    0    0  501    0 0.00000000E+00 0.00000000E+00 -.73108253E+03 0.73108260E+03 0.32000000E+00 0.0000E+00 0.9000E+01
       25  2    1    2    0    0 0.13257827E+03 0.23551159E+03 -.25709482E+03 0.48061383E+03 0.30306633E+03 0.0000E+00 0.0000E+00
       23  2    1    2    0    0 -.13257827E+03 -.23551159E+03 -.30586512E+03 0.41859165E+03 0.92858952E+02 0.0000E+00 0.0000E+00
       23  1    3    3    0    0 -.61106586E+02 0.65296868E+02 -.48399621E+02 0.13658503E+03 0.91188000E+02 0.0000E+00 0.9000E+01
      -13  1    4    4    0    0 0.26516683E+01 -.75171322E+02 -.67321717E+02 0.10094545E+03 0.10565837E+00 0.0000E+00 0.9000E+01
       13  1    4    4    0    0 -.13522994E+03 -.16034027E+03 -.23854341E+03 0.31764620E+03 0.10565837E+00 0.0000E+00 0.9000E+01
       23  1    3    3    0    0 0.19368486E+03 0.17021473E+03 -.20869520E+03 0.34402880E+03 0.91188000E+02 0.0000E+00 0.9000E+01
#aMCatNLO 1  0  0  1  2 0.17343414D+03 0.00000000D+00  -5  7  0 0.00000000D+00 0.00000000D+00 0.00000000D+00 0.00000000D+00 0.00000000D+00
  <mgrwgt>
 0.1197528747D-03    9    2    0
 0.350587576151222D+03 0.000000000000000D+00 0.000000000000000D+00 0.350587576151222D+03
 0.350587576151222D+03 0.000000000000000D+00 0.000000000000000D+00 -.350587576151222D+03
 0.136301118521217D+03 -.611065745362926D+02 0.652968732202405D+02 0.475925252769290D+02
 0.754036198510268D+02 0.265184495175286D+01 -.751712133125551D+02 -.528793854998015D+01
 0.215836158069867D+03 -.135230122252957D+03 -.160340387445998D+03 -.508824264307273D+02
 0.273634255860334D+03 0.193684851837497D+03 0.170214727538312D+03 0.857783970377847D+01
 0.000000000000000D+00 0.000000000000000D+00 0.000000000000000D+00 0.000000000000000D+00
 0.472196322292999D+03 0.000000000000000D+00 0.000000000000000D+00 0.472196322292999D+03
 0.428872989569015D+03 0.000000000000000D+00 0.000000000000000D+00 -.428872989569015D+03
 0.142344107705659D+03 -.878292959044362D+02 0.443571862635129D+02 0.475925252769290D+02
 0.886279133016288D+02 -.130791582862457D+02 -.874978876351651D+02 -.528793854998015D+01
 0.273130978736591D+03 -.182123201068594D+03 -.197085387227613D+03 -.508824264307273D+02
 0.218203026380593D+03 0.146516519439482D+03 0.133254041495956D+03 0.857783970377847D+01
 0.178763285737543D+03 0.136515135819794D+03 0.106972047103308D+03 0.433233327239841D+02
0.245348090482D-05 0.000000000000D+00 0.000000000000D+00 0.511130748751D-08 0.000000000000D+00  7 -1 1 23 -13 13 23 21 0 0.25865041D-01 0.11247426D+00 0.11771509D+06 0.11771509D+06 0.11771509D+06 0.11159554D+01  1  2  2  1  7  1       -1 0.955871253849D-04 0.100000000000D+01
-.136227178614D-06 0.000000000000D+00 -.942201269086D-08 0.511130748751D-08 0.000000000000D+00  7 -1 1 23 -13 13 23 21 2 0.25865041D-01 0.11247426D+00 0.11771509D+06 0.11771509D+06 0.11771509D+06 0.11159554D+01  1  2  3  1  7  1       -1 -.660958424300D-05 0.100000000000D+01
0.158148833164D-06 0.000000000000D+00 0.000000000000D+00 0.511130748751D-08 0.000000000000D+00  7 -1 1 23 -13 13 23 21 2 0.25865041D-01 0.11247426D+00 0.11771509D+06 0.11771509D+06 0.11771509D+06 0.11159554D+01  1  2 15  1  7  1       -1 0.767319742189D-05 0.100000000000D+01
0.727600437020D-06 0.000000000000D+00 0.000000000000D+00 0.511130748751D-08 0.000000000000D+00  7 -1 1 23 -13 13 23 21 2 0.36901165D-01 0.11247426D+00 0.19467521D+06 0.19467521D+06 0.19467521D+06 0.10987266D+01  1  2 12  1  7  1       -1 0.186462517415D-04 0.100000000000D+01
-.110953205830D-05 0.000000000000D+00 0.000000000000D+00 0.511130748751D-08 0.000000000000D+00  7 -1 1 23 -13 13 23 21 2 0.25865041D-01 0.11247426D+00 0.11771509D+06 0.11771509D+06 0.11771509D+06 0.11159554D+01  1  2  4  1  7  1       -1 -.538332048294D-04 0.100000000000D+01
-.168260968945D-05 0.000000000000D+00 -.927228776050D-06 0.511130748751D-08 0.000000000000D+00  7 -1 1 23 -13 13 23 21 2 0.42139355D-01 0.11247426D+00 0.11771509D+06 0.11771509D+06 0.11771509D+06 0.11159554D+01  1  2  5  1  7  1       -1 -.357388780405D-04 0.100000000000D+01
0.199343247884D-05 0.000000000000D+00 0.826775945738D-06 0.511130748751D-08 0.000000000000D+00  7 -1 1 23 -13 13 23 21 2 0.25865041D-01 0.11247426D+00 0.11771509D+06 0.11771509D+06 0.11771509D+06 0.11159554D+01  1  2  6  1  7  1       -1 0.967190250559D-04 0.100000000000D+01
0.317775496571D-07 0.000000000000D+00 0.000000000000D+00 0.511130748751D-08 0.000000000000D+00  7 21 1 23 -13 13 23 1 2 0.36901165D-01 0.11247426D+00 0.19467521D+06 0.19467521D+06 0.19467521D+06 0.10987266D+01  1  2 12  3  7  1       -1 0.819110613630D-05 0.100000000000D+01
-.523985921286D-07 0.000000000000D+00 -.512957850225D-07 0.511130748751D-08 0.000000000000D+00  7 21 1 23 -13 13 23 1 2 0.42139355D-01 0.11247426D+00 0.11771509D+06 0.11771509D+06 0.11771509D+06 0.11159554D+01  1  2  5  3  7  1       -1 -.108821639143D-04 0.100000000000D+01
  </mgrwgt>
  </event>
  <event>
  8     66 0.58687835E-06 0.24653954E+03 0.75467711E-02 0.97643268E-01
       -1 -1    0    0    0  501 0.00000000E+00 0.00000000E+00 0.10765742E+04 0.10765743E+04 0.32000000E+00 0.0000E+00 0.9000E+01
        1 -1    0    0  501    0 0.00000000E+00 0.00000000E+00 -.14067921E+03 0.14067957E+03 0.32000000E+00 0.0000E+00 0.9000E+01
       25  2    1    2    0    0 0.11818901E+03 -.93250785E+02 0.82763103E+02 0.34619181E+03 0.30055730E+03 0.0000E+00 0.0000E+00
       23  2    1    2    0    0 -.11818901E+03 0.93250785E+02 0.85313193E+03 0.87106205E+03 0.90833077E+02 0.0000E+00 0.0000E+00
       23  1    3    3    0    0 0.17274674E+03 -.10209579E+03 0.92678315E+02 0.23910146E+03 0.91188000E+02 0.0000E+00 0.9000E+01
      -11  1    4    4    0    0 -.22803948E+02 -.10499806E+02 0.53401970E+02 0.59008782E+02 0.51099893E-03 0.0000E+00 0.9000E+01
       11  1    4    4    0    0 -.95385063E+02 0.10375059E+03 0.79972996E+03 0.81205327E+03 0.51099893E-03 0.0000E+00 0.9000E+01
       23  1    3    3    0    0 -.54557733E+02 0.88450082E+01 -.99152120E+01 0.10709035E+03 0.91188000E+02 0.0000E+00 0.9000E+01
#aMCatNLO 1  0  0  1  2 0.28853470D+03 0.00000000D+00  -5  7  0 0.00000000D+00 0.00000000D+00 0.00000000D+00 0.00000000D+00 0.00000000D+00
  <mgrwgt>
 0.2592601012D-03    3    2    0
 0.389168167602503D+03 0.000000000000000D+00 0.000000000000000D+00 0.389168167602503D+03
 0.389168167602503D+03 0.000000000000000D+00 0.000000000000000D+00 -.389168167602503D+03
 0.262495783113347D+03 0.172746744355870D+03 -.102095793432822D+03 -.142561551920774D+03
 0.280727348313026D+02 -.228039484572383D+02 -.104998056465287D+02 0.125623428170613D+02
 0.308364988077079D+03 -.953850628310960D+02 0.103750590843640D+03 0.274274443869787D+03
 0.179402829183277D+03 -.545577330675361D+02 0.884500823571041D+01 -.144275234766074D+03
 0.000000000000000D+00 -.000000000000000D+00 0.000000000000000D+00 -.000000000000000D+00
 0.499053001660079D+03 0.000000000000000D+00 0.000000000000000D+00 0.499053001660079D+03
 0.662808292177598D+03 0.000000000000000D+00 0.000000000000000D+00 -.662808292177598D+03
 0.353914564821516D+03 0.261400606861983D+03 -.168185000802481D+03 -.142561551920774D+03
 0.254883933837091D+02 -.151006369986388D+02 -.162424290814112D+02 0.125623428170613D+02
 0.277534840871917D+03 -.111193086106813D+02 0.409326069746385D+02 0.274274443869787D+03
 0.173158414591686D+03 -.385138763494357D+01 -.289552870195707D+02 -.144275234766074D+03
 0.331765080168849D+03 -.231329273617720D+03 0.172450109928825D+03 -.163755290517520D+03
0.304841296043D-04 0.000000000000D+00 0.000000000000D+00 0.714781509733D-06 0.000000000000D+00  7 -1 1 23 -11 11 23 21 0 0.16562684D+00 0.21642987D-01 0.60781743D+05 0.60781743D+05 0.60781743D+05 0.11399100D+01  1  2  2  1  7  1       -1 0.252487403393D-03 0.100000000000D+01
-.126447730409D-05 0.000000000000D+00 -.117067084336D-06 0.714781509733D-06 0.000000000000D+00  7 -1 1 23 -11 11 23 21 2 0.16562684D+00 0.21642987D-01 0.60781743D+05 0.60781743D+05 0.60781743D+05 0.11399100D+01  1  2  3  1  7  1       -1 -.136087455891D-04 0.100000000000D+01
0.189377282663D-05 0.000000000000D+00 0.000000000000D+00 0.714781509733D-06 0.000000000000D+00  7 -1 1 23 -11 11 23 21 2 0.16562684D+00 0.21642987D-01 0.60781743D+05 0.60781743D+05 0.60781743D+05 0.11399100D+01  1  2 15  1  7  1       -1 0.203814433978D-04 0.100000000000D+01
  </mgrwgt>
  </event>
  <event>
  8     66 0.58687835E-06 0.15073058E+03 0.75467711E-02 0.10005790E+00
       -1 -1    0    0    0  501 0.00000000E+00 0.00000000E+00 0.12040748E+03 0.12040790E+03 0.32000000E+00 0.0000E+00 0.9000E+01
        1 -1    0    0  501    0 0.00000000E+00 0.00000000E+00 -.15745364E+04 0.15745364E+04 0.32000000E+00 0.0000E+00 0.9000E+01
       25  2    1    2    0    0 0.24436133E+03 0.93764246E+02 -.13344608E+04 0.13927775E+04 0.30089737E+03 0.0000E+00 0.0000E+00
       23  2    1    2    0    0 -.24436133E+03 -.93764246E+02 -.11966807E+03 0.30216682E+03 0.92087716E+02 0.0000E+00 0.0000E+00
       23  1    3    3    0    0 0.70620540E+02 0.55343608E+01 -.90607340E+03 0.91340141E+03 0.91188000E+02 0.0000E+00 0.9000E+01
      -11  1    4    4    0    0 -.45920762E+02 -.60499142E+02 -.26604315E+02 0.80477650E+02 0.51099893E-03 0.0000E+00 0.9000E+01
       11  1    4    4    0    0 -.19844057E+03 -.33265105E+02 -.93063754E+02 0.22168917E+03 0.51099893E-03 0.0000E+00 0.9000E+01
       23  1    3    3    0    0 0.17374079E+03 0.88229886E+02 -.42838742E+03 0.47937607E+03 0.91188000E+02 0.0000E+00 0.9000E+01
#aMCatNLO 1  0  0  2  1 0.28387348D+02 0.00000000D+00  -5  7  0 0.00000000D+00 0.00000000D+00 0.00000000D+00 0.00000000D+00 0.00000000D+00
  <mgrwgt>
 0.2262072487D-03    9    2    0
 0.435415136205328D+03 0.000000000000000D+00 0.000000000000000D+00 0.435415136205328D+03
 0.435415136205328D+03 0.000000000000000D+00 0.000000000000000D+00 -.435415136205328D+03
 0.264824302076743D+03 0.706205395027015D+02 0.553436076589328D+01 -.238324925003019D+03
 0.112213636131045D+03 -.459207622203408D+02 -.604991418273366D+02 0.826016801827258D+02
 0.276086072505965D+03 -.198440571672655D+03 -.332651046162978D+02 0.189045739864366D+03
 0.217706261696903D+03 0.173740794390295D+03 0.882298856777411D+02 -.333224950440730D+02
 0.000000000000000D+00 -.000000000000000D+00 -.000000000000000D+00 -.000000000000000D+00
 0.444121024292511D+03 0.000000000000000D+00 0.000000000000000D+00 0.444121024292511D+03
 0.459418657507735D+03 0.000000000000000D+00 0.000000000000000D+00 -.459418657507735D+03
 0.266961167617516D+03 0.777482304651785D+02 0.104621438312690D+02 -.238324925003019D+03
 0.109920406074231D+03 -.429434285109498D+02 -.584407396448701D+02 0.826016801827258D+02
 0.270295119496048D+03 -.191117249569592D+03 -.282020704819968D+02 0.189045739864366D+03
 0.224116142128214D+03 0.179662681568925D+03 0.923240271756740D+02 -.333224950440730D+02
 0.322468464842373D+02 -.233502339535618D+02 -.161433608800761D+02 -.152976332152240D+02
0.575714768001D-05 0.000000000000D+00 0.000000000000D+00 0.185688312464D-06 0.000000000000D+00  7 -1 1 23 -11 11 23 21 0 0.18524263D-01 0.24223640D+00 0.92346887D+05 0.92346887D+05 0.92346887D+05 0.11245706D+01  1  2  2  2  7  2        1 0.932816400313D-04 0.100000000000D+01
-.269541593944D-06 0.000000000000D+00 -.221089629830D-07 0.185688312464D-06 0.000000000000D+00  7 -1 1 23 -11 11 23 21 2 0.18524263D-01 0.24223640D+00 0.92346887D+05 0.92346887D+05 0.92346887D+05 0.11245706D+01  1  2  3  2  7  2        1 -.552316574430D-05 0.100000000000D+01
0.361375547826D-06 0.000000000000D+00 0.000000000000D+00 0.185688312464D-06 0.000000000000D+00  7 -1 1 23 -11 11 23 21 2 0.18524263D-01 0.24223640D+00 0.92346887D+05 0.92346887D+05 0.92346887D+05 0.11245706D+01  1  2 15  2  7  2        1 0.740493152607D-05 0.100000000000D+01
0.176664886525D-04 0.000000000000D+00 0.000000000000D+00 0.185688312464D-06 0.000000000000D+00  7 -1 1 23 -11 11 23 21 2 0.18524263D-01 0.25791825D+00 0.10112736D+06 0.10112736D+06 0.10112736D+06 0.11213227D+01  1  2 12  2  7  2        1 0.307658987204D-03 0.100000000000D+01
-.172538507906D-04 0.000000000000D+00 0.000000000000D+00 0.185688312464D-06 0.000000000000D+00  7 -1 1 23 -11 11 23 21 2 0.18524263D-01 0.24223640D+00 0.92346887D+05 0.92346887D+05 0.92346887D+05 0.11245706D+01  1  2  4  2  7  2        1 -.353547948759D-03 0.100000000000D+01
-.580914752835D-04 0.000000000000D+00 -.974325916920D-05 0.185688312464D-06 0.000000000000D+00  7 -1 1 23 -11 11 23 21 2 0.18524263D-01 0.25805426D+00 0.92346887D+05 0.92346887D+05 0.92346887D+05 0.11245706D+01  1  2  5  2  7  2        1 -.101920339565D-02 0.100000000000D+01
0.586099561894D-04 0.000000000000D+00 0.972379879412D-05 0.185688312464D-06 0.000000000000D+00  7 -1 1 23 -11 11 23 21 2 0.18524263D-01 0.24223640D+00 0.92346887D+05 0.92346887D+05 0.92346887D+05 0.11245706D+01  1  2  6  2  7  2        1 0.120097420797D-02 0.100000000000D+01
0.221743275156D-06 0.000000000000D+00 0.000000000000D+00 0.185688312464D-06 0.000000000000D+00  7 -1 21 23 -11 11 23 -1 2 0.18524263D-01 0.25791825D+00 0.10112736D+06 0.10112736D+06 0.10112736D+06 0.11213227D+01  1  2 12  4  7  2        1 0.268317903655D-05 0.100000000000D+01
-.614652671148D-06 0.000000000000D+00 -.105353821695D-06 0.185688312464D-06 0.000000000000D+00  7 -1 21 23 -11 11 23 -1 2 0.18524263D-01 0.25805426D+00 0.92346887D+05 0.92346887D+05 0.92346887D+05 0.11245706D+01  1  2  5  4  7  2        1 -.752118694709D-05 0.100000000000D+01
  </mgrwgt>
  </event>
  <event>
  8     66 0.58687835E-06 0.33084961E+03 0.75467711E-02 0.95953606E-01
       -1 -1    0    0    0  501 0.00000000E+00 0.00000000E+00 0.85634124E+02 0.85634722E+02 0.32000000E+00 0.0000E+00 0.9000E+01
        1 -1    0    0  501    0 0.00000000E+00 0.00000000E+00 -.13515085E+04 0.13515085E+04 0.32000000E+00 0.0000E+00 0.9000E+01
       25  2    1    2    0    0 -.26485540E+02 -.26251261E+03 -.77398050E+03 0.87108152E+03 0.30020469E+03 0.0000E+00 0.0000E+00
       23  2    1    2    0    0 0.26485540E+02 0.26251261E+03 -.49189387E+03 0.56606173E+03 0.94084793E+02 0.0000E+00 0.0000E+00
       23  1    3    3    0    0 0.37584010E+01 -.28117501E+03 -.50915924E+03 0.58875453E+03 0.91188000E+02 0.0000E+00 0.9000E+01
      -11  1    4    4    0    0 -.13121497E+02 0.37171493E+02 -.14688791E+03 0.15208534E+03 0.51099893E-03 0.0000E+00 0.9000E+01
       11  1    4    4    0    0 0.39607037E+02 0.22534111E+03 -.34500596E+03 0.41397638E+03 0.51099893E-03 0.0000E+00 0.9000E+01
       23  1    3    3    0    0 -.30243941E+02 0.18662406E+02 -.26482125E+03 0.28232699E+03 0.91188000E+02 0.0000E+00 0.9000E+01
#aMCatNLO 1  0  0  1  1 0.20023583D+03 0.00000000D+00  -5  7  0 0.00000000D+00 0.00000000D+00 0.00000000D+00 0.00000000D+00 0.00000000D+00
  <mgrwgt>
 0.1834603405D-03    7    2    0
 0.340199504291385D+03 0.000000000000000D+00 0.000000000000000D+00 0.340199504291385D+03
 0.340199504291385D+03 0.000000000000000D+00 0.000000000000000D+00 -.340199504291385D+03
 0.296286393921087D+03 0.375840095232371D+01 -.281175013353276D+03 0.199213997205947D+02
 0.479524277702479D+02 -.131214967717149D+02 0.371714926418605D+02 -.273046110814059D+02
 0.232524099861423D+03 0.396070366755614D+02 0.225341114413124D+03 0.414743513173801D+02
 0.103636087030013D+03 -.302439408561702D+02 0.186624062982921D+02 -.340911399565689D+02
 0.000000000000000D+00 0.000000000000000D+00 0.000000000000000D+00 0.000000000000000D+00
 0.469500157853869D+03 0.000000000000000D+00 0.000000000000000D+00 0.469500157853869D+03
 0.441882454254190D+03 0.000000000000000D+00 0.000000000000000D+00 -.441882454254190D+03
 0.344897979706857D+03 -.788593670795818D+02 -.322527057963905D+03 0.199213997205947D+02
 0.485427145893543D+02 -.255550706633601D+02 0.309482102356074D+02 -.273046110814059D+02
 0.202278722878954D+03 -.164180946693062D+02 0.197299280484681D+03 0.414743513173801D+02
 0.113531736953680D+03 -.582264083707162D+02 0.465655413668332D+01 -.340911399565689D+02
 0.202131457979213D+03 0.179058940782964D+03 0.896230131069325D+02 0.276177035996787D+02
0.448168075440D-05 0.000000000000D+00 0.000000000000D+00 0.105445251104D-06 0.000000000000D+00  7 -1 1 23 -11 11 23 21 0 0.13174530D-01 0.20792443D+00 0.10946146D+06 0.10946146D+06 0.10946146D+06 0.11185144D+01  1  2  2  1  7  1       -1 0.174141134919D-03 0.100000000000D+01
-.248747154002D-06 0.000000000000D+00 -.172108341505D-07 0.105445251104D-06 0.000000000000D+00  7 -1 1 23 -11 11 23 21 2 0.13174530D-01 0.20792443D+00 0.10946146D+06 0.10946146D+06 0.10946146D+06 0.11185144D+01  1  2  3  1  7  1       -1 -.120920995457D-04 0.100000000000D+01
0.295847710080D-06 0.000000000000D+00 0.000000000000D+00 0.105445251104D-06 0.000000000000D+00  7 -1 1 23 -11 11 23 21 2 0.13174530D-01 0.20792443D+00 0.10946146D+06 0.10946146D+06 0.10946146D+06 0.11185144D+01  1  2 15  1  7  1       -1 0.143817523260D-04 0.100000000000D+01
-.153192152624D-05 0.000000000000D+00 0.000000000000D+00 0.105445251104D-06 0.000000000000D+00  7 -1 1 23 -11 11 23 21 2 0.13174530D-01 0.20792443D+00 0.10946146D+06 0.10946146D+06 0.10946146D+06 0.11185144D+01  1  2  4  1  7  1       -1 -.744697870647D-04 0.100000000000D+01
-.185694998983D-05 0.000000000000D+00 -.155024549567D-05 0.105445251104D-06 0.000000000000D+00  7 -1 1 23 -11 11 23 21 2 0.24055714D-01 0.20792443D+00 0.10946146D+06 0.10946146D+06 0.10946146D+06 0.11185144D+01  1  2  5  1  7  1       -1 -.346010982084D-04 0.100000000000D+01
0.255674373307D-05 0.000000000000D+00 0.130624362558D-05 0.105445251104D-06 0.000000000000D+00  7 -1 1 23 -11 11 23 21 2 0.13174530D-01 0.20792443D+00 0.10946146D+06 0.10946146D+06 0.10946146D+06 0.11185144D+01  1  2  6  1  7  1       -1 0.124288456112D-03 0.100000000000D+01
-.380949887516D-07 0.000000000000D+00 -.102062419283D-06 0.105445251104D-06 0.000000000000D+00  7 21 1 23 -11 11 23 1 2 0.24055714D-01 0.20792443D+00 0.10946146D+06 0.10946146D+06 0.10946146D+06 0.11185144D+01  1  2  5  3  7  1       -1 -.818801803884D-05 0.100000000000D+01
  </mgrwgt>
  </event>
  <event>
  8     66 0.58687835E-06 0.16026141E+03 0.75467711E-02 0.10088102E+00
       -1 -1    0    0    0  501 0.00000000E+00 0.00000000E+00 0.84978854E+02 0.84979457E+02 0.32000000E+00 0.0000E+00 0.9000E+01
        1 -1    0    0  501    0 0.00000000E+00 0.00000000E+00 -.18149920E+04 0.18149920E+04 0.32000000E+00 0.0000E+00 0.9000E+01
       25  2    1    2    0    0 -.63180464E+02 -.20495638E+03 -.38074170E+03 0.53004436E+03 0.29997314E+03 0.0000E+00 0.0000E+00
       23  2    1    2    0    0 0.63180464E+02 0.20495638E+03 -.13492715E+04 0.13699271E+04 0.10083663E+03 0.0000E+00 0.0000E+00
       23  1    3    3    0    0 -.49728481E+02 -.24239602E+03 -.23282966E+03 0.35178638E+03 0.91188000E+02 0.0000E+00 0.9000E+01
      -13  1    4    4    0    0 -.18086752E+02 0.41768521E+02 -.14619496E+03 0.15311667E+03 0.10565837E+00 0.0000E+00 0.9000E+01
       13  1    4    4    0    0 0.81267216E+02 0.16318786E+03 -.12030765E+04 0.12168105E+04 0.10565837E+00 0.0000E+00 0.9000E+01
       23  1    3    3    0    0 -.13451983E+02 0.37439641E+02 -.14791204E+03 0.17825798E+03 0.91188000E+02 0.0000E+00 0.9000E+01
#aMCatNLO 1  0  0  2  1 0.52048894D+01 0.00000000D+00  -5  7  0 0.00000000D+00 0.00000000D+00 0.00000000D+00 0.00000000D+00 0.00000000D+00
  <mgrwgt>
 0.4877347284D-03   11    2    0
 0.392729602721803D+03 0.000000000000000D+00 0.000000000000000D+00 0.392729602721803D+03
 0.392729602721803D+03 0.000000000000000D+00 0.000000000000000D+00 -.392729602721803D+03
 0.338127965605696D+03 -.497284824091820D+02 -.242396029213271D+03 0.211628242065102D+03
 0.483766728683863D+02 -.180868427117148D+02 0.417683801965047D+02 -.163881363887659D+02
 0.293544516049160D+03 0.812673089515250D+02 0.163188009416418D+03 -.230073207873102D+03
 0.105410050920364D+03 -.134519838306282D+02 0.374396396003482D+02 0.348331021967664D+02
 0.000000000000000D+00 0.000000000000000D+00 -.000000000000000D+00 -.000000000000000D+00
 0.393221823420453D+03 0.000000000000000D+00 0.000000000000000D+00 0.393221823420453D+03
 0.406743072488953D+03 0.000000000000000D+00 0.000000000000000D+00 -.406743072488953D+03
 0.336611210173300D+03 -.501183153615637D+02 -.240194706636277D+03 0.211628242065102D+03
 0.486711746425004D+02 -.181429124498826D+02 0.420849967876900D+02 -.163881363887659D+02
 0.294521861634313D+03 0.809275515157068D+02 0.165106563785921D+03 -.230073207873102D+03
 0.105672204049905D+03 -.135739373522322D+02 0.381282910825040D+02 0.348331021967664D+02
 0.144884454093862D+02 0.907613647971692D+00 -.512514501983759D+01 -.135212490685000D+02
0.601375082578D-05 0.000000000000D+00 0.000000000000D+00 0.357339780141D-07 0.000000000000D+00  7 -1 1 23 -13 13 23 21 0 0.13073718D-01 0.27922959D+00 0.87326305D+05 0.87326305D+05 0.87326305D+05 0.11265840D+01  1  2  2  2  7  2        1 0.117567352477D-03 0.100000000000D+01
-.301237228653D-06 0.000000000000D+00 -.230943866280D-07 0.357339780141D-07 0.000000000000D+00  7 -1 1 23 -13 13 23 21 2 0.13073718D-01 0.27922959D+00 0.87326305D+05 0.87326305D+05 0.87326305D+05 0.11265840D+01  1  2  3  2  7  2        1 -.747441339282D-05 0.100000000000D+01
0.377341535694D-06 0.000000000000D+00 0.000000000000D+00 0.357339780141D-07 0.000000000000D+00  7 -1 1 23 -13 13 23 21 2 0.13073718D-01 0.27922959D+00 0.87326305D+05 0.87326305D+05 0.87326305D+05 0.11265840D+01  1  2 15  2  7  2        1 0.936274258221D-05 0.100000000000D+01
0.283103197886D-04 0.000000000000D+00 0.000000000000D+00 0.357339780141D-07 0.000000000000D+00  7 -1 1 23 -13 13 23 21 2 0.13073718D-01 0.28936472D+00 0.88934562D+05 0.88934562D+05 0.88934562D+05 0.11259255D+01  1  2 12  2  7  2        1 0.635184300278D-03 0.100000000000D+01
-.160022685011D-03 0.000000000000D+00 0.000000000000D+00 0.357339780141D-07 0.000000000000D+00  7 -1 1 23 -13 13 23 21 2 0.13073718D-01 0.27922959D+00 0.87326305D+05 0.87326305D+05 0.87326305D+05 0.11265840D+01  1  2  4  2  7  2        1 -.397054409693D-02 0.100000000000D+01
-.322952626077D-03 0.000000000000D+00 -.169852653950D-04 0.357339780141D-07 0.000000000000D+00  7 -1 1 23 -13 13 23 21 2 0.13073718D-01 0.28932349D+00 0.87326305D+05 0.87326305D+05 0.87326305D+05 0.11265840D+01  1  2  5  2  7  2        1 -.726141912330D-02 0.100000000000D+01
0.323362587556D-03 0.000000000000D+00 0.169745615017D-04 0.357339780141D-07 0.000000000000D+00  7 -1 1 23 -13 13 23 21 2 0.13073718D-01 0.27922959D+00 0.87326305D+05 0.87326305D+05 0.87326305D+05 0.11265840D+01  1  2  6  2  7  2        1 0.802339626471D-02 0.100000000000D+01
0.131466196732D-03 0.000000000000D+00 0.000000000000D+00 0.357339780141D-07 0.892265929780D-08  7 -1 1 23 -13 13 23 21 2 0.13090104D-01 0.28919312D+00 0.88934562D+05 0.88934562D+05 0.88934562D+05 0.11259255D+01  1  2 11  2  7  2        1 0.294883813197D-02 0.100000000000D+01
0.763895928476D-06 0.000000000000D+00 0.000000000000D+00 0.357339780141D-07 0.000000000000D+00  7 -1 21 23 -13 13 23 -1 2 0.13073718D-01 0.28936472D+00 0.88934562D+05 0.88934562D+05 0.88934562D+05 0.11259255D+01  1  2 12  4  7  2        1 0.101068382035D-04 0.100000000000D+01
-.212893440815D-05 0.000000000000D+00 -.107305057509D-06 0.357339780141D-07 0.000000000000D+00  7 -1 21 23 -13 13 23 -1 2 0.13073718D-01 0.28932349D+00 0.87326305D+05 0.87326305D+05 0.87326305D+05 0.11265840D+01  1  2  5  4  7  2        1 -.282600266509D-04 0.100000000000D+01
0.829120629748D-06 0.000000000000D+00 0.000000000000D+00 0.357339780141D-07 0.558954036055D-10  7 -1 21 23 -13 13 23 -1 2 0.13090104D-01 0.28919312D+00 0.88934562D+05 0.88934562D+05 0.88934562D+05 0.11259255D+01  1  2 11  4  7  2        1 0.109767584756D-04 0.100000000000D+01
  </mgrwgt>
  </event>
  <event>
  8     66 0.58687835E-06 0.24508091E+03 0.75467711E-02 0.10033279E+00
       -1 -1    0    0    0  501 0.00000000E+00 0.00000000E+00 0.65109237E+02 0.65110024E+02 0.32000000E+00 0.0000E+00 0.9000E+01
        1 -1    0    0  501    0 0.00000000E+00 0.00000000E+00 -.13049700E+04 0.13049700E+04 0.32000000E+00 0.0000E+00 0.9000E+01
       25  2    1    2    0    0 -.12801482E+03 0.11864517E+03 -.10075452E+04 0.10655258E+04 0.29955526E+03 0.0000E+00 0.0000E+00
       23  2    1    2    0    0 0.12801482E+03 -.11864517E+03 -.23231547E+03 0.30455421E+03 0.91204800E+02 0.0000E+00 0.0000E+00
       23  1    3    3    0    0 -.32953927E+02 0.14806661E+03 -.78942910E+03 0.80902610E+03 0.91188000E+02 0.0000E+00 0.9000E+01
      -13  1    4    4    0    0 0.40943803E+02 -.62092554E+02 -.36350382E+02 0.82784308E+02 0.10565837E+00 0.0000E+00 0.9000E+01
       13  1    4    4    0    0 0.87071021E+02 -.56552619E+02 -.19596509E+03 0.22176990E+03 0.10565837E+00 0.0000E+00 0.9000E+01
       23  1    3    3    0    0 -.95060897E+02 -.29421433E+02 -.21811615E+03 0.25649971E+03 0.91188000E+02 0.0000E+00 0.9000E+01
#aMCatNLO 1  0  0  2  2 0.11817373D+03 0.00000000D+00  -5  7  0 0.00000000D+00 0.00000000D+00 0.00000000D+00 0.00000000D+00 0.00000000D+00
  <mgrwgt>
 0.1175354286D-03    4    2    0
 0.291489561172271D+03 0.000000000000000D+00 0.000000000000000D+00 0.291489561172271D+03
 0.291489561172271D+03 0.000000000000000D+00 0.000000000000000D+00 -.291489561172271D+03
 0.222389384355359D+03 -.329539271485186D+02 0.148066605417750D+03 -.134655508522711D+03
 0.117245579540173D+03 0.409437420649171D+02 -.620925613603705D+02 0.906347048935519D+02
 0.104417260706623D+03 0.870710824031768D+02 -.565526117517346D+02 0.111082422854259D+02
 0.138926897742386D+03 -.950608973195754D+02 -.294214323056446D+02 0.329125613437334D+02
 0.000000000000000D+00 -.000000000000000D+00 -.000000000000000D+00 0.000000000000000D+00
 0.364551211493758D+03 0.000000000000000D+00 0.000000000000000D+00 0.364551211493758D+03
 0.349422790431552D+03 0.000000000000000D+00 0.000000000000000D+00 -.349422790431552D+03
 0.251853284244552D+03 -.141738545791634D+02 0.191785873597682D+03 -.134655508522711D+03
 0.111341130058901D+03 0.499958060796006D+02 -.410197133839662D+02 0.906347048935519D+02
 0.102974170732448D+03 0.952838105918629D+02 -.374337044714744D+02 0.111082422854259D+02
 0.128667264099034D+03 -.844641330230307D+02 -.475258300225342D+01 0.329125613437334D+02
 0.119138152790375D+03 -.466416290692694D+02 -.108579872739988D+03 0.151284210622067D+02
0.316925373443D-05 0.000000000000D+00 0.000000000000D+00 0.516935168916D-06 0.000000000000D+00  7 -1 1 23 -13 13 23 21 0 0.10016869D-01 0.20076467D+00 0.60064654D+05 0.60064654D+05 0.60064654D+05 0.11403547D+01  1  2  2  2  7  2        1 0.203867065903D-03 0.100000000000D+01
-.169631766681D-06 0.000000000000D+00 -.121707688239D-07 0.516935168916D-06 0.000000000000D+00  7 -1 1 23 -13 13 23 21 2 0.10016869D-01 0.20076467D+00 0.60064654D+05 0.60064654D+05 0.60064654D+05 0.11403547D+01  1  2  3  2  7  2        1 -.141898292680D-04 0.100000000000D+01
0.207904951896D-06 0.000000000000D+00 0.000000000000D+00 0.516935168916D-06 0.000000000000D+00  7 -1 1 23 -13 13 23 21 2 0.10016869D-01 0.20076467D+00 0.60064654D+05 0.60064654D+05 0.60064654D+05 0.11403547D+01  1  2 15  2  7  2        1 0.173914109904D-04 0.100000000000D+01
-.107032141304D-05 0.000000000000D+00 0.000000000000D+00 0.516935168916D-06 0.000000000000D+00  7 -1 1 23 -13 13 23 21 2 0.10016869D-01 0.20076467D+00 0.60064654D+05 0.60064654D+05 0.60064654D+05 0.11403547D+01  1  2  4  2  7  2        1 -.895332189838D-04 0.100000000000D+01
  </mgrwgt>
  </event>
  <event>
  8     66 0.58687835E-06 0.16438128E+03 0.75467711E-02 0.10113255E+00
       -1 -1    0    0    0  501 0.00000000E+00 0.00000000E+00 0.18602697E+03 0.18602724E+03 0.32000000E+00 0.0000E+00 0.9000E+01
        1 -1    0    0  501    0 0.00000000E+00 0.00000000E+00 -.43132468E+03 0.43132480E+03 0.32000000E+00 0.0000E+00 0.9000E+01
       25  2    1    2    0    0 0.16785977E+03 -.36578091E+02 -.65772189E+02 0.35200782E+03 0.30011442E+03 0.0000E+00 0.0000E+00
       23  2    1    2    0    0 -.16785977E+03 0.36578091E+02 -.17952552E+03 0.26534423E+03 0.93076783E+02 0.0000E+00 0.0000E+00
       23  1    3    3    0    0 0.19124099E+03 -.63131178E+02 -.10730966E+03 0.24574230E+03 0.91188000E+02 0.0000E+00 0.9000E+01
      -13  1    4    4    0    0 -.84732923E+02 0.51566710E+00 -.28831212E+02 0.89505218E+02 0.10565837E+00 0.0000E+00 0.9000E+01
       13  1    4    4    0    0 -.83126844E+02 0.36062424E+02 -.15069431E+03 0.17583901E+03 0.10565837E+00 0.0000E+00 0.9000E+01
       23  1    3    3    0    0 -.23381223E+02 0.26553087E+02 0.41537468E+02 0.10626552E+03 0.91188000E+02 0.0000E+00 0.9000E+01
#aMCatNLO 1  0  0  2  1 0.86594617D+02 0.00000000D+00  -5  7  0 0.00000000D+00 0.00000000D+00 0.00000000D+00 0.00000000D+00 0.00000000D+00
  <mgrwgt>
 0.1560606967D-03    9    2    0
 0.283263383211339D+03 0.000000000000000D+00 0.000000000000000D+00 0.283263383211339D+03
 0.283263383211339D+03 0.000000000000000D+00 0.000000000000000D+00 -.283263383211339D+03
 0.221325282382348D+03 0.191240993541507D+03 -.631311791426656D+02 -.105340346942664D+02
 0.850515286850586D+02 -.847329235676531D+02 0.515625081760410D+00 0.733677900162385D+01
 0.126365841132392D+03 -.831268494975473D+02 0.360624673023002D+02 -.880780968787337D+02
 0.133784114222880D+03 -.233812204763065D+02 0.265530867586050D+02 0.912753525713762D+02
 0.000000000000000D+00 -.000000000000000D+00 -.000000000000000D+00 -.000000000000000D+00
 0.303334378424798D+03 0.000000000000000D+00 0.000000000000000D+00 0.303334378424798D+03
 0.398265941349229D+03 0.000000000000000D+00 0.000000000000000D+00 -.398265941349229D+03
 0.243278057536639D+03 0.220946004883316D+03 -.440551810115689D+02 -.105340346942664D+02
 0.751839998315413D+02 -.744880592221314D+02 0.709468377524922D+01 0.733677900162385D+01
 0.120120681879528D+03 -.673674170256481D+02 0.461828776573695D+02 -.880780968787337D+02
 0.134523886758457D+03 -.622660377975316D+01 0.375694581135134D+02 0.912753525713762D+02
 0.128493693767862D+03 -.728639248557831D+02 -.467918385345632D+02 -.949315629244313D+02
0.191817314542D-05 0.000000000000D+00 0.000000000000D+00 0.191018685808D-06 0.000000000000D+00  7 -1 1 23 -13 13 23 21 0 0.28619564D-01 0.66357673D-01 0.61066369D+05 0.61066369D+05 0.61066369D+05 0.11397351D+01  1  2  2  2  7  2        1 0.134512183318D-03 0.100000000000D+01
-.104150369300D-06 0.000000000000D+00 -.736628994501D-08 0.191018685808D-06 0.000000000000D+00  7 -1 1 23 -13 13 23 21 2 0.28619564D-01 0.66357673D-01 0.61066369D+05 0.61066369D+05 0.61066369D+05 0.11397351D+01  1  2  3  2  7  2        1 -.948729668652D-05 0.100000000000D+01
0.123936905318D-06 0.000000000000D+00 0.000000000000D+00 0.191018685808D-06 0.000000000000D+00  7 -1 1 23 -13 13 23 21 2 0.28619564D-01 0.66357673D-01 0.61066369D+05 0.61066369D+05 0.61066369D+05 0.11397351D+01  1  2 15  2  7  2        1 0.112896977617D-04 0.100000000000D+01
0.226885240139D-05 0.000000000000D+00 0.000000000000D+00 0.191018685808D-06 0.000000000000D+00  7 -1 1 23 -13 13 23 21 2 0.28619564D-01 0.94912565D-01 0.85546810D+05 0.85546810D+05 0.85546810D+05 0.11273283D+01  1  2 12  2  7  2        1 0.122806610544D-03 0.100000000000D+01
-.255438789430D-05 0.000000000000D+00 0.000000000000D+00 0.191018685808D-06 0.000000000000D+00  7 -1 1 23 -13 13 23 21 2 0.28619564D-01 0.66357673D-01 0.61066369D+05 0.61066369D+05 0.61066369D+05 0.11397351D+01  1  2  4  2  7  2        1 -.232685068413D-03 0.100000000000D+01
-.319952411470D-05 0.000000000000D+00 -.822116541441D-06 0.191018685808D-06 0.000000000000D+00  7 -1 1 23 -13 13 23 21 2 0.28619564D-01 0.97590427D-01 0.61066369D+05 0.61066369D+05 0.61066369D+05 0.11397351D+01  1  2  5  2  7  2        1 -.170739800912D-03 0.100000000000D+01
0.332386979625D-05 0.000000000000D+00 0.764534225246D-06 0.191018685808D-06 0.000000000000D+00  7 -1 1 23 -13 13 23 21 2 0.28619564D-01 0.66357673D-01 0.61066369D+05 0.61066369D+05 0.61066369D+05 0.11397351D+01  1  2  6  2  7  2        1 0.302778944678D-03 0.100000000000D+01
0.996032587880D-07 0.000000000000D+00 0.000000000000D+00 0.191018685808D-06 0.000000000000D+00  7 -1 21 23 -13 13 23 -1 2 0.28619564D-01 0.94912565D-01 0.85546810D+05 0.85546810D+05 0.85546810D+05 0.11273283D+01  1  2 12  4  7  2        1 0.131647921619D-04 0.100000000000D+01
-.121604109538D-06 0.000000000000D+00 -.381057373681D-07 0.191018685808D-06 0.000000000000D+00  7 -1 21 23 -13 13 23 -1 2 0.28619564D-01 0.97590427D-01 0.61066369D+05 0.61066369D+05 0.61066369D+05 0.11397351D+01  1  2  5  4  7  2        1 -.155793657152D-04 0.100000000000D+01
  </mgrwgt>
  </event>
  <event>
  8     66 0.58687835E-06 0.71892513E+02 0.75467711E-02 0.10172543E+00
       -1 -1    0    0    0  501 0.00000000E+00 0.00000000E+00 0.11561714E+03 0.11561758E+03 0.32000000E+00 0.0000E+00 0.9000E+01
        1 -1    0    0  501    0 0.00000000E+00 0.00000000E+00 -.98007673E+03 0.98007678E+03 0.32000000E+00 0.0000E+00 0.9000E+01
       25  2    1    2    0    0 0.11342220E+03 0.13099443E+03 -.19225057E+03 0.39536375E+03 0.29887803E+03 0.0000E+00 0.0000E+00
       23  2    1    2    0    0 -.11342220E+03 -.13099443E+03 -.67220902E+03 0.70033062E+03 0.92595238E+02 0.0000E+00 0.0000E+00
       23  1    3    3    0    0 0.78738616E+02 0.16934815E+02 0.31740344E+02 0.12573487E+03 0.91188000E+02 0.0000E+00 0.9000E+01
      -13  1    4    4    0    0 -.48606018E+02 -.10965635E+03 -.32380085E+03 0.34530286E+03 0.10565837E+00 0.0000E+00 0.9000E+01
       13  1    4    4    0    0 -.64816177E+02 -.21338076E+02 -.34840817E+03 0.35502776E+03 0.10565837E+00 0.0000E+00 0.9000E+01
       23  1    3    3    0    0 0.34683579E+02 0.11405961E+03 -.22399092E+03 0.26962887E+03 0.91188000E+02 0.0000E+00 0.9000E+01
#aMCatNLO 1  0  0  2  1 0.87502239D+02 0.00000000D+00  -5  7  0 0.00000000D+00 0.00000000D+00 0.00000000D+00 0.00000000D+00 0.00000000D+00
  <mgrwgt>
 0.1493815702D-03    9    2    0
 0.336621358747210D+03 0.000000000000000D+00 0.000000000000000D+00 0.336621358747210D+03
 0.336621358747210D+03 0.000000000000000D+00 0.000000000000000D+00 -.336621358747210D+03
 0.245387337479166D+03 0.787386164329759D+02 0.169348154516900D+02 0.213103581290770D+03
 0.146208275172321D+03 -.486059977474572D+02 -.109656465789079D+03 -.836048815709212D+02
 0.130439024563471D+03 -.648161978930245D+02 -.213379635837166D+02 -.111166051157095D+03
 0.151208080279463D+03 0.346835792075058D+02 0.114059613921106D+03 -.183326485627537D+02
 0.000000000000000D+00 -.000000000000000D+00 0.000000000000000D+00 -.000000000000000D+00
 0.358051351659096D+03 0.000000000000000D+00 0.000000000000000D+00 0.358051351659096D+03
 0.442371669064094D+03 0.000000000000000D+00 0.000000000000000D+00 -.442371669064094D+03
 0.252683185383578D+03 0.100358419162826D+03 -.697080883243032D+01 0.213103581290770D+03
 0.153771093615435D+03 -.355847598333164D+02 -.124054414983121D+03 -.836048815709212D+02
 0.127942409915063D+03 -.536006061523724D+02 -.337393589908044D+02 -.111166051157095D+03
 0.144508605347496D+03 0.475197863583189D+02 0.998662584490505D+02 -.183326485627537D+02
 0.121517726461617D+03 -.586928395354562D+02 0.648983243573055D+02 -.843203174049983D+02
0.292962438340D-05 0.000000000000D+00 0.000000000000D+00 0.562768959558D-07 0.000000000000D+00  7 -1 1 23 -13 13 23 21 0 0.17787290D-01 0.15078107D+00 0.52886122D+05 0.52886122D+05 0.52886122D+05 0.11451578D+01  1  2  2  2  7  2        1 0.131680449711D-03 0.100000000000D+01
-.134029591950D-06 0.000000000000D+00 -.112505290201D-07 0.562768959558D-07 0.000000000000D+00  7 -1 1 23 -13 13 23 21 2 0.17787290D-01 0.15078107D+00 0.52886122D+05 0.52886122D+05 0.52886122D+05 0.11451578D+01  1  2  3  2  7  2        1 -.790024822439D-05 0.100000000000D+01
0.187997232439D-06 0.000000000000D+00 0.000000000000D+00 0.562768959558D-07 0.000000000000D+00  7 -1 1 23 -13 13 23 21 2 0.17787290D-01 0.15078107D+00 0.52886122D+05 0.52886122D+05 0.52886122D+05 0.11451578D+01  1  2 15  2  7  2        1 0.110813200291D-04 0.100000000000D+01
0.328475396473D-05 0.000000000000D+00 0.000000000000D+00 0.562768959558D-07 0.000000000000D+00  7 -1 1 23 -13 13 23 21 2 0.17787290D-01 0.20182599D+00 0.78124122D+05 0.78124122D+05 0.78124122D+05 0.11306279D+01  1  2 12  2  7  2        1 0.109038263799D-03 0.100000000000D+01
-.393491836550D-05 0.000000000000D+00 0.000000000000D+00 0.562768959558D-07 0.000000000000D+00  7 -1 1 23 -13 13 23 21 2 0.17787290D-01 0.15078107D+00 0.52886122D+05 0.52886122D+05 0.52886122D+05 0.11451578D+01  1  2  4  2  7  2        1 -.231940061728D-03 0.100000000000D+01
-.491227154087D-05 0.000000000000D+00 -.135839086665D-05 0.562768959558D-07 0.000000000000D+00  7 -1 1 23 -13 13 23 21 2 0.17787290D-01 0.20426925D+00 0.52886122D+05 0.52886122D+05 0.52886122D+05 0.11451578D+01  1  2  5  2  7  2        1 -.164657122664D-03 0.100000000000D+01
0.514597925090D-05 0.000000000000D+00 0.129810101851D-05 0.562768959558D-07 0.000000000000D+00  7 -1 1 23 -13 13 23 21 2 0.17787290D-01 0.15078107D+00 0.52886122D+05 0.52886122D+05 0.52886122D+05 0.11451578D+01  1  2  6  2  7  2        1 0.303324906450D-03 0.100000000000D+01
0.124384316380D-06 0.000000000000D+00 0.000000000000D+00 0.562768959558D-07 0.000000000000D+00  7 -1 21 23 -13 13 23 -1 2 0.17787290D-01 0.20182599D+00 0.78124122D+05 0.78124122D+05 0.78124122D+05 0.11306279D+01  1  2 12  4  7  2        1 0.407828352877D-05 0.100000000000D+01
-.160506326028D-06 0.000000000000D+00 -.529645644482D-07 0.562768959558D-07 0.000000000000D+00  7 -1 21 23 -13 13 23 -1 2 0.17787290D-01 0.20426925D+00 0.52886122D+05 0.52886122D+05 0.52886122D+05 0.11451578D+01  1  2  5  4  7  2        1 -.532422066949D-05 0.100000000000D+01
  </mgrwgt>
  </event>
  <event>
  8     66 0.58687835E-06 0.19006912E+03 0.75467711E-02 0.10003437E+00
       -1 -1    0    0    0  501 0.00000000E+00 0.00000000E+00 0.29348583E+03 0.29348600E+03 0.32000000E+00 0.0000E+00 0.9000E+01
        1 -1    0    0  501    0 0.00000000E+00 0.00000000E+00 -.42018371E+03 0.42018383E+03 0.32000000E+00 0.0000E+00 0.9000E+01
       25  2    1    2    0    0 0.21699541E+03 0.12382709E+03 0.60003102E+02 0.38993789E+03 0.29331046E+03 0.0000E+00 0.0000E+00
       23  2    1    2    0    0 -.21699541E+03 -.12382709E+03 -.18670098E+03 0.32373195E+03 0.86746530E+02 0.0000E+00 0.0000E+00
       23  1    3    3    0    0 0.75820289E+02 -.37731870E+02 0.91814582E+02 0.15465309E+03 0.91188000E+02 0.0000E+00 0.9000E+01
      -11  1    4    4    0    0 -.19762444E+03 -.75637154E+02 -.16031936E+03 0.26547824E+03 0.51099893E-03 0.0000E+00 0.9000E+01
       11  1    4    4    0    0 -.19370967E+02 -.48189934E+02 -.26381622E+02 0.58253704E+02 0.51099893E-03 0.0000E+00 0.9000E+01
       23  1    3    3    0    0 0.14117512E+03 0.16155896E+03 -.31811480E+02 0.23528479E+03 0.91188000E+02 0.0000E+00 0.9000E+01
#aMCatNLO 1  0  0  1  2 0.16256367D+02 0.00000000D+00  -5  7  0 0.00000000D+00 0.00000000D+00 0.00000000D+00 0.00000000D+00 0.00000000D+00
  <mgrwgt>
 0.3197053542D-03    9    2    0
 0.351166725742998D+03 0.000000000000000D+00 0.000000000000000D+00 0.351166725742998D+03
 0.351166725742998D+03 0.000000000000000D+00 0.000000000000000D+00 -.351166725742998D+03
 0.173712300289533D+03 0.758202889101086D+02 -.377318702152610D+02 0.121195303900470D+03
 0.240842422934693D+03 -.197624444755060D+03 -.756371544848040D+02 -.115015965768887D+03
 0.544348493322937D+02 -.193709669070261D+02 -.481899336222983D+02 -.162987349323468D+02
 0.233343878929477D+03 0.141175122751977D+03 0.161558958322363D+03 0.101193968007644D+02
 0.000000000000000D+00 -.000000000000000D+00 -.000000000000000D+00 0.000000000000000D+00
 0.398862860169909D+03 0.000000000000000D+00 0.000000000000000D+00 0.398862860169909D+03
 0.352648690812535D+03 0.000000000000000D+00 0.000000000000000D+00 -.352648690812535D+03
 0.174528770451565D+03 0.788883517038919D+02 -.351193201706840D+02 0.121195303900470D+03
 0.236289222081745D+03 -.193420834179500D+03 -.720576504998088D+02 -.115015965768887D+03
 0.533849091492185D+02 -.184210565798844D+02 -.473810556969356D+02 -.162987349323468D+02
 0.238318661363643D+03 0.145330549588953D+03 0.165097432368649D+03 0.101193968007644D+02
 0.489899879362714D+02 -.123770105334602D+02 -.105394060012204D+02 0.462141693573743D+02
0.871672359758D-05 0.000000000000D+00 0.000000000000D+00 0.216546195342D-09 0.000000000000D+00  7 -1 1 23 -11 11 23 21 0 0.45151689D-01 0.64643670D-01 0.96446158D+05 0.96446158D+05 0.96446158D+05 0.11230139D+01  1  2  2  1  7  1       -1 0.290145129648D-03 0.100000000000D+01
-.475370358442D-06 0.000000000000D+00 -.334745137807D-07 0.216546195342D-09 0.000000000000D+00  7 -1 1 23 -11 11 23 21 2 0.45151689D-01 0.64643670D-01 0.96446158D+05 0.96446158D+05 0.96446158D+05 0.11230139D+01  1  2  3  1  7  1       -1 -.199555819007D-04 0.100000000000D+01
0.561812805417D-06 0.000000000000D+00 0.000000000000D+00 0.216546195342D-09 0.000000000000D+00  7 -1 1 23 -11 11 23 21 2 0.45151689D-01 0.64643670D-01 0.96446158D+05 0.96446158D+05 0.96446158D+05 0.11230139D+01  1  2 15  1  7  1       -1 0.235843511323D-04 0.100000000000D+01
0.146515170737D-03 0.000000000000D+00 0.000000000000D+00 0.216546195342D-09 0.000000000000D+00  7 -1 1 23 -11 11 23 21 2 0.51371690D-01 0.64643670D-01 0.10150273D+06 0.10150273D+06 0.10150273D+06 0.11211909D+01  1  2 12  1  7  1       -1 0.486502563884D-02 0.100000000000D+01
-.147115061447D-03 0.000000000000D+00 0.000000000000D+00 0.216546195342D-09 0.000000000000D+00  7 -1 1 23 -11 11 23 21 2 0.45151689D-01 0.64643670D-01 0.96446158D+05 0.96446158D+05 0.96446158D+05 0.11230139D+01  1  2  4  1  7  1       -1 -.617574614276D-02 0.100000000000D+01
-.173422494482D-03 0.000000000000D+00 -.922469955189D-05 0.216546195342D-09 0.000000000000D+00  7 -1 1 23 -11 11 23 21 2 0.51399573D-01 0.64643670D-01 0.96446158D+05 0.96446158D+05 0.96446158D+05 0.11230139D+01  1  2  5  1  7  1       -1 -.577666950428D-02 0.100000000000D+01
0.173238016193D-03 0.000000000000D+00 0.914776570127D-05 0.216546195342D-09 0.000000000000D+00  7 -1 1 23 -11 11 23 21 2 0.45151689D-01 0.64643670D-01 0.96446158D+05 0.96446158D+05 0.96446158D+05 0.11230139D+01  1  2  6  1  7  1       -1 0.727236218892D-02 0.100000000000D+01
0.295432484682D-05 0.000000000000D+00 0.000000000000D+00 0.216546195342D-09 0.000000000000D+00  7 21 1 23 -11 11 23 1 2 0.51371690D-01 0.64643670D-01 0.10150273D+06 0.10150273D+06 0.10150273D+06 0.11211909D+01  1  2 12  3  7  1       -1 0.901322802463D-03 0.100000000000D+01
-.345996089109D-05 0.000000000000D+00 -.186655764313D-06 0.216546195342D-09 0.000000000000D+00  7 21 1 23 -11 11 23 1 2 0.51399573D-01 0.64643670D-01 0.96446158D+05 0.96446158D+05 0.96446158D+05 0.11230139D+01  1  2  5  3  7  1       -1 -.106036352781D-02 0.100000000000D+01
  </mgrwgt>
  </event>
  <event>
  8     66 0.58687835E-06 0.28975906E+03 0.75467711E-02 0.10023379E+00
       -1 -1    0    0    0  501 0.00000000E+00 0.00000000E+00 0.61787094E+03 0.61787102E+03 0.32000000E+00 0.0000E+00 0.9000E+01
        1 -1    0    0  501    0 0.00000000E+00 0.00000000E+00 -.18424273E+03 0.18424301E+03 0.32000000E+00 0.0000E+00 0.9000E+01
       25  2    1    2    0    0 -.13292290E+03 0.21050681E+03 0.15704537E+03 0.42036996E+03 0.30011004E+03 0.0000E+00 0.0000E+00
       23  2    1    2    0    0 0.13292290E+03 -.21050681E+03 0.27658284E+03 0.38174408E+03 0.85140210E+02 0.0000E+00 0.0000E+00
       23  1    3    3    0    0 -.12841993E+03 0.11675559E+03 0.20247955E+03 0.28184528E+03 0.91188000E+02 0.0000E+00 0.9000E+01
      -13  1    4    4    0    0 0.12327687E+03 -.16436117E+03 0.26084793E+03 0.33204433E+03 0.10565837E+00 0.0000E+00 0.9000E+01
       13  1    4    4    0    0 0.96460328E+01 -.46145645E+02 0.15734908E+02 0.49699749E+02 0.10565837E+00 0.0000E+00 0.9000E+01
       23  1    3    3    0    0 -.45029728E+01 0.93751224E+02 -.45434182E+02 0.13852467E+03 0.91188000E+02 0.0000E+00 0.9000E+01
#aMCatNLO 1  0  0  2  1 0.47439226D+02 0.00000000D+00  -5  7  0 0.00000000D+00 0.00000000D+00 0.00000000D+00 0.00000000D+00 0.00000000D+00
  <mgrwgt>
 0.2347673656D-03    4    2    0
 0.337399429716852D+03 0.000000000000000D+00 0.000000000000000D+00 0.337399429716852D+03
 0.337399429716852D+03 0.000000000000000D+00 0.000000000000000D+00 -.337399429716852D+03
 0.204907303445015D+03 -.128419930478740D+03 0.116755587834532D+03 0.595668181654517D+02
 0.227070001980402D+03 0.123277045370016D+03 -.164361349166210D+03 0.966897242962352D+02
 0.489650806687222D+02 0.964585810543419D+01 -.461454629682944D+02 -.132337747353535D+02
 0.193856473339566D+03 -.450297299670983D+01 0.937512242999732D+02 -.143022767726333D+03
 0.000000000000000D+00 0.000000000000000D+00 0.000000000000000D+00 0.000000000000000D+00
 0.387002589655709D+03 0.000000000000000D+00 0.000000000000000D+00 0.387002589655709D+03
 0.349768251669707D+03 0.000000000000000D+00 0.000000000000000D+00 -.349768251669707D+03
 0.207852540617978D+03 -.140114887225828D+03 0.108199075082394D+03 0.595668181654517D+02
 0.227458886435031D+03 0.110398622803528D+03 -.173783734327660D+03 0.966897242962352D+02
 0.504542054189257D+02 0.682895557156268D+01 -.482064250542466D+02 -.132337747353535D+02
 0.190698690954560D+03 -.153987906930721D+02 0.857793946403978D+02 -.143022767726333D+03
 0.603065178989212D+02 0.382860995438097D+02 0.280116896591152D+02 0.372343379860018D+02
0.157526990711D-04 0.000000000000D+00 0.000000000000D+00 0.366328774965D-07 0.000000000000D+00  7 -1 1 23 -13 13 23 21 0 0.95057096D-01 0.28345063D-01 0.83960313D+05 0.83960313D+05 0.83960313D+05 0.11280064D+01  1  2  2  2  7  2        1 0.370606932254D-03 0.100000000000D+01
-.850495547114D-06 0.000000000000D+00 -.604945122138D-07 0.366328774965D-07 0.000000000000D+00  7 -1 1 23 -13 13 23 21 2 0.95057096D-01 0.28345063D-01 0.83960313D+05 0.83960313D+05 0.83960313D+05 0.11280064D+01  1  2  3  2  7  2        1 -.254597269420D-04 0.100000000000D+01
0.102245557205D-05 0.000000000000D+00 0.000000000000D+00 0.366328774965D-07 0.000000000000D+00  7 -1 1 23 -13 13 23 21 2 0.95057096D-01 0.28345063D-01 0.83960313D+05 0.83960313D+05 0.83960313D+05 0.11280064D+01  1  2 15  2  7  2        1 0.306073791487D-04 0.100000000000D+01
-.470975207730D-05 0.000000000000D+00 0.000000000000D+00 0.366328774965D-07 0.000000000000D+00  7 -1 1 23 -13 13 23 21 2 0.95057096D-01 0.28345063D-01 0.83960313D+05 0.83960313D+05 0.83960313D+05 0.11280064D+01  1  2  4  2  7  2        1 -.140987218874D-03 0.100000000000D+01
  </mgrwgt>
  </event>
  <event>
  8     66 0.58687835E-06 0.34304655E+03 0.75467711E-02 0.90729046E-01
       -1 -1    0    0    0  501 0.00000000E+00 0.00000000E+00 0.54726600E+03 0.54726609E+03 0.32000000E+00 0.0000E+00 0.9000E+01
        1 -1    0    0  501    0 0.00000000E+00 0.00000000E+00 -.27494892E+03 0.27494910E+03 0.32000000E+00 0.0000E+00 0.9000E+01
       25  2    1    2    0    0 -.42928414E+02 0.31407466E+03 0.21665612E+03 0.48709097E+03 0.29971986E+03 0.0000E+00 0.0000E+00
       23  2    1    2    0    0 0.42928414E+02 -.31407466E+03 0.55660963E+02 0.33512423E+03 0.93404299E+02 0.0000E+00 0.0000E+00
       23  1    3    3    0    0 0.54669255E+00 0.13786076E+03 0.23034412E+03 0.28351288E+03 0.91188000E+02 0.0000E+00 0.9000E+01
      -13  1    4    4    0    0 0.20175575E+02 -.21891134E+03 0.80602905E+02 0.23414967E+03 0.10565837E+00 0.0000E+00 0.9000E+01
       13  1    4    4    0    0 0.22752839E+02 -.95163320E+02 -.24941943E+02 0.10097456E+03 0.10565837E+00 0.0000E+00 0.9000E+01
       23  1    3    3    0    0 -.43475106E+02 0.17621390E+03 -.13688004E+02 0.20357809E+03 0.91188000E+02 0.0000E+00 0.9000E+01
#aMCatNLO 1  0  0  2  1 0.56324468D+03 0.00000000D+00  -5  7  0 0.00000000D+00 0.00000000D+00 0.00000000D+00 0.00000000D+00 0.00000000D+00
  <mgrwgt>
 0.1805610426D-03    5    2    0
 0.387905024535240D+03 0.000000000000000D+00 0.000000000000000D+00 0.387905024535240D+03
 0.387905024535240D+03 0.000000000000000D+00 0.000000000000000D+00 -.387905024535240D+03
 0.219618139963015D+03 0.546692506499792D+00 0.137860759626419D+03 0.144606321228860D+03
 0.219863061604444D+03 0.201755718827457D+02 -.218911499143073D+03 0.323538254551600D+01
 0.115769095058938D+03 0.227528419275290D+02 -.951631623648165D+02 -.618770077146098D+02
 0.220559752444083D+03 -.434751063167745D+02 0.176213901881470D+03 -.859646960597666D+02
 0.000000000000000D+00 0.000000000000000D+00 0.000000000000000D+00 -.000000000000000D+00
 0.593931966555596D+03 0.000000000000000D+00 0.000000000000000D+00 0.593931966555596D+03
 0.117156515625751D+04 0.000000000000000D+00 0.000000000000000D+00 -.117156515625751D+04
 0.202228889230884D+03 -.988432045038723D+02 0.435924887981688D+02 0.144606321228860D+03
 0.370440291452233D+03 -.118903727969839D+03 -.350823952012792D+03 0.323538254551600D+01
 0.178621741567803D+03 -.466075491816380D+02 -.160949367306250D+03 -.618770077146098D+02
 0.207419567081678D+03 -.144309810715470D+03 0.805752755314421D+02 -.859646960597666D+02
 0.806786633480513D+03 0.408664292370819D+03 0.387605554989431D+03 -.577633189701918D+03
0.973434774020D-05 0.000000000000D+00 0.000000000000D+00 0.258784371238D-06 0.000000000000D+00  7 -1 1 23 -13 13 23 21 0 0.84194790D-01 0.42299855D-01 0.11768094D+06 0.11768094D+06 0.11768094D+06 0.11159656D+01  1  2  2  2  7  2        1 0.174450398937D-03 0.100000000000D+01
-.530866398380D-06 0.000000000000D+00 -.373824584350D-07 0.258784371238D-06 0.000000000000D+00  7 -1 1 23 -13 13 23 21 2 0.84194790D-01 0.42299855D-01 0.11768094D+06 0.11768094D+06 0.11768094D+06 0.11159656D+01  1  2  3  2  7  2        1 -.118481878786D-04 0.100000000000D+01
0.640174115742D-06 0.000000000000D+00 0.000000000000D+00 0.258784371238D-06 0.000000000000D+00  7 -1 1 23 -13 13 23 21 2 0.84194790D-01 0.42299855D-01 0.11768094D+06 0.11768094D+06 0.11768094D+06 0.11159656D+01  1  2 15  2  7  2        1 0.142877816744D-04 0.100000000000D+01
0.104671109358D-05 0.000000000000D+00 -.364686588661D-05 0.258784371238D-06 0.000000000000D+00  7 -1 1 23 -13 13 23 21 2 0.84194790D-01 0.17242523D+00 0.11768094D+06 0.11768094D+06 0.11768094D+06 0.11159656D+01  1  2  5  2  7  2        1 0.297028933606D-05 0.100000000000D+01
0.207089676859D-06 0.000000000000D+00 -.613026656861D-06 0.258784371238D-06 0.000000000000D+00  7 -1 21 23 -13 13 23 -1 2 0.84194790D-01 0.17242523D+00 0.11768094D+06 0.11768094D+06 0.11768094D+06 0.11159656D+01  1  2  5  4  7  2        1 0.700760519239D-06 0.100000000000D+01
  </mgrwgt>
  </event>
  <event>
  8     66 0.58687835E-06 0.20446063E+03 0.75467711E-02 0.10278358E+00
       -1 -1    0    0    0  501 0.00000000E+00 0.00000000E+00 0.12136491E+02 0.12140709E+02 0.32000000E+00 0.0000E+00 0.9000E+01
        1 -1    0    0  501    0 0.00000000E+00 0.00000000E+00 -.50462500E+04 0.50462501E+04 0.32000000E+00 0.0000E+00 0.9000E+01
       25  2    1    2    0    0 0.11747735E+02 0.10703605E+03 -.42200478E+04 0.42320106E+04 0.29919268E+03 0.0000E+00 0.0000E+00
       23  2    1    2    0    0 -.11747735E+02 -.10703605E+03 -.81406578E+03 0.82638011E+03 0.92769942E+02 0.0000E+00 0.0000E+00
       23  1    3    3    0    0 0.27190092E+02 0.16224395E+03 -.33573964E+04 0.33626609E+04 0.91188000E+02 0.0000E+00 0.9000E+01
      -13  1    4    4    0    0 -.21419445E+02 -.39845191E+02 -.10845402E+03 0.11751050E+03 0.10565837E+00 0.0000E+00 0.9000E+01
       13  1    4    4    0    0 0.96717096E+01 -.67190860E+02 -.70561177E+03 0.70886961E+03 0.10565837E+00 0.0000E+00 0.9000E+01
       23  1    3    3    0    0 -.15442357E+02 -.55207900E+02 -.86265137E+03 0.86934976E+03 0.91188000E+02 0.0000E+00 0.9000E+01
#aMCatNLO 1  0  0  1  1 0.96134811D+02 0.00000000D+00  -5  7  0 0.00000000D+00 0.00000000D+00 0.00000000D+00 0.00000000D+00 0.00000000D+00
  <mgrwgt>
 0.7617728111D-05    4    2    0
 0.247496387501839D+03 0.000000000000000D+00 0.000000000000000D+00 0.247496387501839D+03
 0.247496387501839D+03 0.000000000000000D+00 0.000000000000000D+00 -.247496387501839D+03
 0.218463894357508D+03 0.271900923425626D+02 0.162243951779690D+03 -.111125248180424D+03
 0.978684854418925D+02 -.214194841327309D+02 -.398451605969302D+02 0.867859972529120D+02
 0.678994389288427D+02 0.967174826109661D+01 -.671908949272190D+02 -.147469702143496D+01
 0.110760956275434D+03 -.154423564709283D+02 -.552078962555410D+02 0.258139479489466D+02
 0.000000000000000D+00 -.000000000000000D+00 0.000000000000000D+00 -.000000000000000D+00
 0.294333509402304D+03 0.000000000000000D+00 0.000000000000000D+00 0.294333509402304D+03
 0.306855098641192D+03 0.000000000000000D+00 0.000000000000000D+00 -.306855098641192D+03
 0.205674779060514D+03 0.578046651663138D+02 0.135265159222324D+03 -.111125248180424D+03
 0.101692469402754D+03 -.701505990130178D+01 -.525389184189086D+02 0.867859972529120D+02
 0.792050867909601D+02 0.202898373380945D+02 -.765479819659026D+02 -.147469702143496D+01
 0.117669421357854D+03 0.104587926304567D+01 -.697379925617916D+02 0.258139479489466D+02
 0.969468514314140D+02 -.721253218661522D+02 0.635597337242785D+02 -.125215892388872D+02
0.162681977328D-04 0.000000000000D+00 0.000000000000D+00 0.516280640616D-07 0.000000000000D+00  7 -1 1 23 -13 13 23 21 0 0.18674777D-02 0.77634649D+00 0.41804149D+05 0.41804149D+05 0.41804149D+05 0.11541977D+01  1  2  2  1  7  1       -1 0.954262644223D-05 0.100000000000D+01
-.863692065026D-06 0.000000000000D+00 -.624741628088D-07 0.516280640616D-07 0.000000000000D+00  7 -1 1 23 -13 13 23 21 2 0.18674777D-02 0.77634649D+00 0.41804149D+05 0.41804149D+05 0.41804149D+05 0.11541977D+01  1  2  3  1  7  1       -1 -.674913089666D-06 0.100000000000D+01
0.107198801188D-05 0.000000000000D+00 0.000000000000D+00 0.516280640616D-07 0.000000000000D+00  7 -1 1 23 -13 13 23 21 2 0.18674777D-02 0.77634649D+00 0.41804149D+05 0.41804149D+05 0.41804149D+05 0.11541977D+01  1  2 15  1  7  1       -1 0.837681357139D-06 0.100000000000D+01
-.267160483855D-05 0.000000000000D+00 0.000000000000D+00 0.516280640616D-07 0.000000000000D+00  7 -1 1 23 -13 13 23 21 2 0.18674777D-02 0.77634649D+00 0.41804149D+05 0.41804149D+05 0.41804149D+05 0.11541977D+01  1  2  4  1  7  1       -1 -.208766659897D-05 0.100000000000D+01
  </mgrwgt>
  </event>
  <event>
  8     66 0.58687835E-06 0.24374447E+03 0.75467711E-02 0.10041164E+00
       -1 -1    0    0    0  501 0.00000000E+00 0.00000000E+00 0.20834484E+03 0.20834509E+03 0.32000000E+00 0.0000E+00 0.9000E+01
        1 -1    0    0  501    0 0.00000000E+00 0.00000000E+00 -.33158287E+03 0.33158302E+03 0.32000000E+00 0.0000E+00 0.9000E+01
       25  2    1    2    0    0 -.46093749E+02 -.14594577E+03 -.13132986E+03 0.36072866E+03 0.29908666E+03 0.0000E+00 0.0000E+00
       23  2    1    2    0    0 0.46093749E+02 0.14594577E+03 0.80918381E+01 0.17919945E+03 0.92855602E+02 0.0000E+00 0.0000E+00
       23  1    3    3    0    0 0.70695233E+02 -.12102325E+03 -.12775888E+03 0.21043295E+03 0.91188000E+02 0.0000E+00 0.9000E+01
      -13  1    4    4    0    0 -.14769303E+02 0.75485482E+02 0.31624316E+02 0.83164288E+02 0.10565837E+00 0.0000E+00 0.9000E+01
       13  1    4    4    0    0 0.60863052E+02 0.70460289E+02 -.23532478E+02 0.96035161E+02 0.10565837E+00 0.0000E+00 0.9000E+01
       23  1    3    3    0    0 -.11678898E+03 -.24922521E+02 -.35709878E+01 0.15029571E+03 0.91188000E+02 0.0000E+00 0.9000E+01
#aMCatNLO 1  0  0  1  2 0.11781621D+03 0.00000000D+00  -5  7  0 0.00000000D+00 0.00000000D+00 0.00000000D+00 0.00000000D+00 0.00000000D+00
  <mgrwgt>
 0.1352104236D-03    4    2    0
 0.262837759969770D+03 0.000000000000000D+00 0.000000000000000D+00 0.262837759969770D+03
 0.262837759969770D+03 0.000000000000000D+00 0.000000000000000D+00 -.262837759969770D+03
 0.186186930026124D+03 0.706952315985463D+02 -.121023251667159D+03 -.818894276063051D+02
 0.928330366811857D+02 -.147693969705521D+02 0.754854899863416D+02 0.519786342077064D+02
 0.931220592426492D+02 0.608631473139957D+02 0.704602849242679D+02 -.165634085178928D+01
 0.153533493989581D+03 -.116788981941990D+03 -.249225232434504D+02 0.315671342503880D+02
 0.000000000000000D+00 0.000000000000000D+00 0.000000000000000D+00 -.000000000000000D+00
 0.299882457312527D+03 0.000000000000000D+00 0.000000000000000D+00 0.299882457312527D+03
 0.383043787693667D+03 0.000000000000000D+00 0.000000000000000D+00 -.383043787693667D+03
 0.193099091465254D+03 0.360869330101200D+02 -.144789028220171D+03 -.818894276063051D+02
 0.882876936451158D+02 -.312959230234743D+02 0.641366013847323D+02 0.519786342077064D+02
 0.752479244012240D+02 0.455000747589792D+02 0.599103485101058D+02 -.165634085178928D+01
 0.182081738195385D+03 -.147412499572853D+03 -.459519210170155D+02 0.315671342503880D+02
 0.144209797299216D+03 0.971214148272285D+02 0.666939993423485D+02 -.831613303811396D+02
0.199700026596D-05 0.000000000000D+00 0.000000000000D+00 0.445640968956D-07 0.000000000000D+00  7 -1 1 23 -13 13 23 21 0 0.32053083D-01 0.51012780D-01 0.59411367D+05 0.59411367D+05 0.59411367D+05 0.11407650D+01  1  2  2  1  7  1       -1 0.164352168274D-03 0.100000000000D+01
-.110177238578D-06 0.000000000000D+00 -.766900684353D-08 0.445640968956D-07 0.000000000000D+00  7 -1 1 23 -13 13 23 21 2 0.32053083D-01 0.51012780D-01 0.59411367D+05 0.59411367D+05 0.59411367D+05 0.11407650D+01  1  2  3  1  7  1       -1 -.117999874549D-04 0.100000000000D+01
0.130251964222D-06 0.000000000000D+00 0.000000000000D+00 0.445640968956D-07 0.000000000000D+00  7 -1 1 23 -13 13 23 21 2 0.32053083D-01 0.51012780D-01 0.59411367D+05 0.59411367D+05 0.59411367D+05 0.11407650D+01  1  2 15  1  7  1       -1 0.139499915195D-04 0.100000000000D+01
-.292173061620D-06 0.000000000000D+00 0.000000000000D+00 0.445640968956D-07 0.000000000000D+00  7 -1 1 23 -13 13 23 21 2 0.32053083D-01 0.51012780D-01 0.59411367D+05 0.59411367D+05 0.59411367D+05 0.11407650D+01  1  2  4  1  7  1       -1 -.312917486977D-04 0.100000000000D+01
  </mgrwgt>
  </event>
  <event>
  8     66 0.58687835E-06 0.35812186E+03 0.75467711E-02 0.85276020E-01
       -3 -1    0    0    0  501 0.00000000E+00 0.00000000E+00 0.51366615E+03 0.51366639E+03 0.50000000E+00 0.0000E+00 0.9000E+01
        3 -1    0    0  501    0 0.00000000E+00 0.00000000E+00 -.29854686E+03 0.29854728E+03 0.50000000E+00 0.0000E+00 0.9000E+01
       25  2    1    2    0    0 0.42760808E+02 -.29062709E+03 0.27599103E+03 0.49896648E+03 0.29411547E+03 0.0000E+00 0.0000E+00
       23  2    1    2    0    0 -.42760808E+02 0.29062709E+03 -.60871741E+02 0.31324719E+03 0.90143478E+02 0.0000E+00 0.0000E+00
       23  1    3    3    0    0 -.88341385E+02 -.18392677E+03 0.14211245E+03 0.26484799E+03 0.91188000E+02 0.0000E+00 0.9000E+01
      -13  1    4    4    0    0 -.15068349E+02 0.25557252E+03 -.27507519E+02 0.25748988E+03 0.10565837E+00 0.0000E+00 0.9000E+01
       13  1    4    4    0    0 -.27692458E+02 0.35054569E+02 -.33364222E+02 0.55757309E+02 0.10565837E+00 0.0000E+00 0.9000E+01
       23  1    3    3    0    0 0.13110219E+03 -.10670032E+03 0.13387858E+03 0.23411849E+03 0.91188000E+02 0.0000E+00 0.9000E+01
#aMCatNLO 1  0  0  2  2 0.11488559D+04 0.00000000D+00  -5  7  0 0.00000000D+00 0.00000000D+00 0.00000000D+00 0.00000000D+00 0.00000000D+00
  <mgrwgt>
 0.9799579703D-04    3    2    0
 0.391603989858191D+03 0.000000000000000D+00 0.000000000000000D+00 0.391603989858191D+03
 0.391603989858191D+03 0.000000000000000D+00 0.000000000000000D+00 -.391603989858191D+03
 0.235623269530184D+03 -.883413838524374D+02 -.183926765463351D+03 0.746312176325684D+02
 0.274581505453273D+03 -.150683318606164D+02 0.255572818954336D+03 -.992495981032593D+02
 0.669859280784130D+02 -.276924757600335D+02 0.350542664575185D+02 -.499143240957099D+02
 0.206017276654511D+03 0.131102191473087D+03 -.106700319948503D+03 0.745327045664008D+02
 0.000000000000000D+00 0.000000000000000D+00 0.000000000000000D+00 0.000000000000000D+00
 0.195925021807155D+04 0.000000000000000D+00 0.000000000000000D+00 0.195925021807155D+04
 0.956255570798979D+03 0.000000000000000D+00 0.000000000000000D+00 -.956255570798979D+03
 0.623076812277205D+03 -.521156508882568D+03 -.320523848188458D+03 0.746312176325684D+02
 0.395711942607233D+03 -.352919868940427D+03 0.148946382652964D+03 -.992495981032593D+02
 0.142181702077079D+03 -.133120338078919D+03 0.178107982915974D+01 -.499143240957099D+02
 0.229455607860746D+03 -.883915001566981D+02 -.175972848146555D+03 0.745327045664008D+02
 0.152507972404826D+04 0.109558821605861D+04 0.345769233852888D+03 0.100299464727257D+04
0.332883984867D-04 0.000000000000D+00 0.000000000000D+00 0.456866906005D-08 0.000000000000D+00  7 -3 3 23 -13 13 23 21 0 0.79025612D-01 0.45930337D-01 0.12825127D+06 0.12825127D+06 0.12825127D+06 0.11129607D+01  1  2  2  2  7  2        3 0.967065886517D-04 0.100000000000D+01
-.183139320812D-05 0.000000000000D+00 -.127836215226D-06 0.456866906005D-08 0.000000000000D+00  7 -3 3 23 -13 13 23 21 2 0.79025612D-01 0.45930337D-01 0.12825127D+06 0.12825127D+06 0.12825127D+06 0.11129607D+01  1  2  3  2  7  2        3 -.659028892701D-05 0.100000000000D+01
0.218965480921D-05 0.000000000000D+00 0.000000000000D+00 0.456866906005D-08 0.000000000000D+00  7 -3 3 23 -13 13 23 21 2 0.79025612D-01 0.45930337D-01 0.12825127D+06 0.12825127D+06 0.12825127D+06 0.11129607D+01  1  2 15  2  7  2        3 0.787949730244D-05 0.100000000000D+01
  </mgrwgt>
  </event>
  <event>
  8     66 0.58687835E-06 0.18657755E+03 0.75467711E-02 0.93162405E-01
       -1 -1    0    0    0  501 0.00000000E+00 0.00000000E+00 0.40530225E+03 0.40530238E+03 0.32000000E+00 0.0000E+00 0.9000E+01
        1 -1    0    0  501    0 0.00000000E+00 0.00000000E+00 -.93751653E+03 0.93751658E+03 0.32000000E+00 0.0000E+00 0.9000E+01
       25  2    1    2    0    0 -.39046307E+02 0.46834019E+03 -.64431632E+03 0.85135581E+03 0.29798667E+03 0.0000E+00 0.0000E+00
       23  2    1    2    0    0 0.39046307E+02 -.46834019E+03 0.11210204E+03 0.49146315E+03 0.90011182E+02 0.0000E+00 0.0000E+00
       23  1    3    3    0    0 0.87447702E+02 0.30489213E+03 -.36396283E+03 0.49131508E+03 0.91188000E+02 0.0000E+00 0.9000E+01
      -11  1    4    4    0    0 0.42592360E+02 -.10371347E+03 0.87713499E+01 0.11246123E+03 0.51099893E-03 0.0000E+00 0.9000E+01
       11  1    4    4    0    0 -.35460530E+01 -.36462672E+03 0.10333069E+03 0.37900192E+03 0.51099893E-03 0.0000E+00 0.9000E+01
       23  1    3    3    0    0 -.12649401E+03 0.16344806E+03 -.28035348E+03 0.36004073E+03 0.91188000E+02 0.0000E+00 0.9000E+01
#aMCatNLO 1  0  0  2  1 0.10189732D+03 0.00000000D+00  -5  7  0 0.00000000D+00 0.00000000D+00 0.00000000D+00 0.00000000D+00 0.00000000D+00
  <mgrwgt>
 0.1432830935D-03    9    2    0
 0.616423297376522D+03 0.000000000000000D+00 0.000000000000000D+00 0.616423297376522D+03
 0.616423297376522D+03 0.000000000000000D+00 0.000000000000000D+00 -.616423297376522D+03
 0.378020256580597D+03 0.874477018055679D+02 0.304892127726540D+03 -.184330553464606D+03
 0.126279549389137D+03 0.425923596557212D+02 -.103713466061072D+03 0.581027748948374D+02
 0.457417031557278D+03 -.354605301271484D+01 -.364626723161448D+03 0.276161400313743D+03
 0.271129757226031D+03 -.126494008448574D+03 0.163448061495981D+03 -.149933621743974D+03
 0.000000000000000D+00 -.000000000000000D+00 0.000000000000000D+00 -.000000000000000D+00
 0.633014328186218D+03 0.000000000000000D+00 0.000000000000000D+00 0.633014328186218D+03
 0.797678119453704D+03 0.000000000000000D+00 0.000000000000000D+00 -.797678119453704D+03
 0.365626604123655D+03 0.108188466290750D+03 0.282285432001162D+03 -.184330553464606D+03
 0.135406532974099D+03 0.498909440916264D+02 -.111668663550845D+03 0.581027748948374D+02
 0.480985559125400D+03 0.226265675604452D+02 -.393153948860188D+03 0.276161400313743D+03
 0.255031743098231D+03 -.111819043305764D+03 0.147452871347562D+03 -.149933621743974D+03
 0.193642008318538D+03 -.688869346370579D+02 0.750843090623079D+02 -.164663791267486D+03
0.201005802146D-04 0.000000000000D+00 0.000000000000D+00 0.778897331728D-07 0.000000000000D+00  7 -1 1 23 -11 11 23 21 0 0.62354207D-01 0.14423333D+00 0.26661540D+06 0.26661540D+06 0.26661540D+06 0.10883630D+01  1  2  2  2  7  2        1 0.109631868868D-03 0.100000000000D+01
-.107408875189D-05 0.000000000000D+00 -.771915206285D-07 0.778897331728D-07 0.000000000000D+00  7 -1 1 23 -11 11 23 21 2 0.62354207D-01 0.14423333D+00 0.26661540D+06 0.26661540D+06 0.26661540D+06 0.10883630D+01  1  2  3  2  7  2        1 -.693930436127D-05 0.100000000000D+01
0.131016819287D-05 0.000000000000D+00 0.000000000000D+00 0.778897331728D-07 0.000000000000D+00  7 -1 1 23 -11 11 23 21 2 0.62354207D-01 0.14423333D+00 0.26661540D+06 0.26661540D+06 0.26661540D+06 0.10883630D+01  1  2 15  2  7  2        1 0.846452943368D-05 0.100000000000D+01
0.568913265387D-04 0.000000000000D+00 0.000000000000D+00 0.778897331728D-07 0.000000000000D+00  7 -1 1 23 -11 11 23 21 2 0.62354207D-01 0.18817810D+00 0.32494178D+06 0.32494178D+06 0.32494178D+06 0.10819951D+01  1  2 12  2  7  2        1 0.220976684279D-03 0.100000000000D+01
-.574448696895D-04 0.000000000000D+00 0.000000000000D+00 0.778897331728D-07 0.000000000000D+00  7 -1 1 23 -11 11 23 21 2 0.62354207D-01 0.14423333D+00 0.26661540D+06 0.26661540D+06 0.26661540D+06 0.10883630D+01  1  2  4  2  7  2        1 -.371130815834D-03 0.100000000000D+01
-.716390449939D-04 0.000000000000D+00 -.103199179903D-04 0.778897331728D-07 0.000000000000D+00  7 -1 1 23 -11 11 23 21 2 0.62354207D-01 0.18879524D+00 0.26661540D+06 0.26661540D+06 0.26661540D+06 0.10883630D+01  1  2  5  2  7  2        1 -.282295336486D-03 0.100000000000D+01
0.721498027131D-04 0.000000000000D+00 0.995687018834D-05 0.778897331728D-07 0.000000000000D+00  7 -1 1 23 -11 11 23 21 2 0.62354207D-01 0.14423333D+00 0.26661540D+06 0.26661540D+06 0.26661540D+06 0.10883630D+01  1  2  6  2  7  2        1 0.466134143709D-03 0.100000000000D+01
0.201489518734D-05 0.000000000000D+00 0.000000000000D+00 0.778897331728D-07 0.000000000000D+00  7 -1 21 23 -11 11 23 -1 2 0.62354207D-01 0.18817810D+00 0.32494178D+06 0.32494178D+06 0.32494178D+06 0.10819951D+01  1  2 12  4  7  2        1 0.798347370083D-05 0.100000000000D+01
-.236495241096D-05 0.000000000000D+00 -.368778689480D-06 0.778897331728D-07 0.000000000000D+00  7 -1 21 23 -11 11 23 -1 2 0.62354207D-01 0.18879524D+00 0.26661540D+06 0.26661540D+06 0.26661540D+06 0.10883630D+01  1  2  5  4  7  2        1 -.954214979497D-05 0.100000000000D+01
  </mgrwgt>
  </event>
  <event>
  8     66 0.58687835E-06 0.28141624E+03 0.75467711E-02 0.88708066E-01
       -1 -1    0    0    0  501 0.00000000E+00 0.00000000E+00 0.20180198E+03 0.20180223E+03 0.32000000E+00 0.0000E+00 0.9000E+01
        1 -1    0    0  501    0 0.00000000E+00 0.00000000E+00 -.85215218E+03 0.85215224E+03 0.32000000E+00 0.0000E+00 0.9000E+01
       25  2    1    2    0    0 -.11994798E+03 -.16806539E+03 0.48335963E+00 0.36486878E+03 0.30082470E+03 0.0000E+00 0.0000E+00
       23  2    1    2    0    0 0.11994798E+03 0.16806539E+03 -.65083356E+03 0.68908569E+03 0.92850852E+02 0.0000E+00 0.0000E+00
       23  1    3    3    0    0 -.12439621E+03 -.61333381E+01 -.65400162E+02 0.16764387E+03 0.91188000E+02 0.0000E+00 0.9000E+01
      -11  1    4    4    0    0 0.53056052E+02 0.14388705E+02 -.11158935E+03 0.12439518E+03 0.51099893E-03 0.0000E+00 0.9000E+01
       11  1    4    4    0    0 0.66891933E+02 0.15367668E+03 -.53924421E+03 0.56469051E+03 0.51099893E-03 0.0000E+00 0.9000E+01
       23  1    3    3    0    0 0.44482252E+01 -.16193205E+03 0.65883521E+02 0.19722491E+03 0.91188000E+02 0.0000E+00 0.9000E+01
#aMCatNLO 1  0  0  2  2 0.77315336D+03 0.00000000D+00  -5  7  0 0.00000000D+00 0.00000000D+00 0.00000000D+00 0.00000000D+00 0.00000000D+00
  <mgrwgt>
 0.2671086190D-03    3    2    0
 0.414688031048720D+03 0.000000000000000D+00 0.000000000000000D+00 0.414688031048720D+03
 0.414688031048720D+03 0.000000000000000D+00 0.000000000000000D+00 -.414688031048720D+03
 0.161755331030323D+03 -.124396210108430D+03 -.613333810172894D+01 0.483477077752250D+02
 0.705767979238271D+02 0.530560523283557D+02 0.143887054372111D+02 -.442617766515611D+02
 0.294752309875218D+03 0.668919326027637D+02 0.153676680665719D+03 -.242462102913033D+03
 0.302291623268072D+03 0.444822517731022D+01 -.161932048001201D+03 0.238376171789369D+03
 0.000000000000000D+00 -.000000000000000D+00 0.000000000000000D+00 0.000000000000000D+00
 0.165933110167481D+04 0.000000000000000D+00 0.000000000000000D+00 0.165933110167481D+04
 0.703729048907175D+03 0.000000000000000D+00 0.000000000000000D+00 -.703729048907175D+03
 0.110155642594617D+03 -.206116746975767D+02 -.325064958196924D+02 0.483477077752250D+02
 0.141119352813775D+03 0.133857449784544D+03 -.614410314075235D+01 -.442617766515611D+02
 0.428115511106733D+03 0.342800256433599D+03 0.835643685444217D+02 -.242462102913033D+03
 0.454466082593561D+03 0.293291834077650D+03 -.235331403918709D+03 0.238376171789369D+03
 0.122920356147330D+04 -.749337865598216D+03 0.190417634334732D+03 0.955602052767630D+03
0.114497604408D-04 0.000000000000D+00 0.000000000000D+00 0.220910481235D-06 0.000000000000D+00  7 -1 1 23 -11 11 23 21 0 0.31046483D-01 0.13110036D+00 0.79195103D+05 0.79195103D+05 0.79195103D+05 0.11301310D+01  1  2  2  2  7  2        1 0.261216618599D-03 0.100000000000D+01
-.519851739136D-06 0.000000000000D+00 -.439700948840D-07 0.220910481235D-06 0.000000000000D+00  7 -1 1 23 -11 11 23 21 2 0.31046483D-01 0.13110036D+00 0.79195103D+05 0.79195103D+05 0.79195103D+05 0.11301310D+01  1  2  3  2  7  2        1 -.151475191385D-04 0.100000000000D+01
0.722060867156D-06 0.000000000000D+00 0.000000000000D+00 0.220910481235D-06 0.000000000000D+00  7 -1 1 23 -11 11 23 21 2 0.31046483D-01 0.13110036D+00 0.79195103D+05 0.79195103D+05 0.79195103D+05 0.11301310D+01  1  2 15  2  7  2        1 0.210395195033D-04 0.100000000000D+01
  </mgrwgt>
  </event>
  <event>
  8     66 0.58687835E-06 0.15669367E+03 0.75467711E-02 0.98029275E-01
       -1 -1    0    0    0  501 0.00000000E+00 0.00000000E+00 0.21467812E+03 0.21467836E+03 0.32000000E+00 0.0000E+00 0.9000E+01
        1 -1    0    0  501    0 0.00000000E+00 0.00000000E+00 -.39528767E+03 0.39528780E+03 0.32000000E+00 0.0000E+00 0.9000E+01
       25  2    1    2    0    0 0.16957913E+03 -.11070628E+03 -.98318041E+02 0.37496289E+03 0.29986292E+03 0.0000E+00 0.0000E+00
       23  2    1    2    0    0 -.16957913E+03 0.11070628E+03 -.82291508E+02 0.23500328E+03 0.86265198E+02 0.0000E+00 0.0000E+00
       23  1    3    3    0    0 0.97177958E+02 -.54483035E+02 0.72125236E+02 0.16102564E+03 0.91188000E+02 0.0000E+00 0.9000E+01
      -13  1    4    4    0    0 -.17375581E+03 0.10360869E+03 -.59652898E+02 0.21091306E+03 0.10565837E+00 0.0000E+00 0.9000E+01
       13  1    4    4    0    0 0.41766772E+01 0.70975967E+01 -.22638610E+02 0.24090213E+02 0.10565837E+00 0.0000E+00 0.9000E+01
       23  1    3    3    0    0 0.72401172E+02 -.56223250E+02 -.17044328E+03 0.21393725E+03 0.91188000E+02 0.0000E+00 0.9000E+01
#aMCatNLO 1  0  0  1  2 0.20685880D+03 0.00000000D+00  -5  7  0 0.00000000D+00 0.00000000D+00 0.00000000D+00 0.00000000D+00 0.00000000D+00
  <mgrwgt>
 0.2492421111D-03    7    2    0
 0.291306931522596D+03 0.000000000000000D+00 0.000000000000000D+00 0.291306931522596D+03
 0.291306931522596D+03 0.000000000000000D+00 0.000000000000000D+00 -.291306931522596D+03
 0.190944134995937D+03 0.971779579971528D+02 -.544830350768312D+02 0.125429082407817D+03
 0.202322872464120D+03 -.173756074110042D+03 0.103608833290727D+03 0.292935080387650D+01
 0.182029726470680D+02 0.417694360386702D+01 0.709745196950998D+01 -.162335310656837D+02
 0.171143882938068D+03 0.724011725090226D+02 -.562232501834060D+02 -.112124902146009D+03
 0.000000000000000D+00 -.000000000000000D+00 0.000000000000000D+00 0.000000000000000D+00
 0.567927226401929D+03 0.000000000000000D+00 0.000000000000000D+00 0.567927226401929D+03
 0.350458515835936D+03 0.000000000000000D+00 0.000000000000000D+00 -.350458515835936D+03
 0.237698423523731D+03 0.170981197831169D+03 -.567297494813672D+02 0.125429082407817D+03
 0.151913750227681D+03 -.112763972642555D+03 0.101752114896818D+03 0.292935080387650D+01
 0.207219567328456D+02 0.108789983612601D+02 0.689342836570493D+01 -.162335310656837D+02
 0.207912970192575D+03 0.137666796013471D+03 -.582100629138260D+02 -.112124902146009D+03
 0.300138641561033D+03 -.206763019563345D+03 0.629426913267050D+01 0.217468710565993D+03
0.477395985845D-05 0.000000000000D+00 0.000000000000D+00 0.291188676582D-07 0.000000000000D+00  7 -1 1 23 -13 13 23 21 0 0.33027432D-01 0.60813516D-01 0.58516935D+05 0.58516935D+05 0.58516935D+05 0.11413348D+01  1  2  2  1  7  1       -1 0.296471374263D-03 0.100000000000D+01
-.254082839448D-06 0.000000000000D+00 -.183332628690D-07 0.291188676582D-07 0.000000000000D+00  7 -1 1 23 -13 13 23 21 2 0.33027432D-01 0.60813516D-01 0.58516935D+05 0.58516935D+05 0.58516935D+05 0.11413348D+01  1  2  3  1  7  1       -1 -.205544299614D-04 0.100000000000D+01
0.311381237316D-06 0.000000000000D+00 0.000000000000D+00 0.291188676582D-07 0.000000000000D+00  7 -1 1 23 -13 13 23 21 2 0.33027432D-01 0.60813516D-01 0.58516935D+05 0.58516935D+05 0.58516935D+05 0.11413348D+01  1  2 15  1  7  1       -1 0.251896737599D-04 0.100000000000D+01
0.121028643191D-06 0.000000000000D+00 0.000000000000D+00 0.291188676582D-07 0.000000000000D+00  7 -1 1 23 -13 13 23 21 2 0.64946654D-01 0.60813516D-01 0.14010892D+06 0.14010892D+06 0.14010892D+06 0.11098974D+01  1  2 12  1  7  1       -1 0.274997151458D-05 0.100000000000D+01
-.218823463289D-05 0.000000000000D+00 -.149494457095D-05 0.291188676582D-07 0.000000000000D+00  7 -1 1 23 -13 13 23 21 2 0.74555874D-01 0.60813516D-01 0.58516935D+05 0.58516935D+05 0.58516935D+05 0.11413348D+01  1  2  5  1  7  1       -1 -.411209590253D-04 0.100000000000D+01
0.886384417245D-08 0.000000000000D+00 0.000000000000D+00 0.291188676582D-07 0.000000000000D+00  7 21 1 23 -13 13 23 1 2 0.64946654D-01 0.60813516D-01 0.14010892D+06 0.14010892D+06 0.14010892D+06 0.11098974D+01  1  2 12  3  7  1       -1 0.168395810156D-05 0.100000000000D+01
-.990013608747D-07 0.000000000000D+00 -.132215375674D-06 0.291188676582D-07 0.000000000000D+00  7 21 1 23 -13 13 23 1 2 0.74555874D-01 0.60813516D-01 0.58516935D+05 0.58516935D+05 0.58516935D+05 0.11413348D+01  1  2  5  3  7  1       -1 -.151774775540D-04 0.100000000000D+01
  </mgrwgt>
  </event>
  <event>
  8     66 0.58687835E-06 0.94262966E+02 0.75467711E-02 0.98677078E-01
       -1 -1    0    0    0  501 0.00000000E+00 0.00000000E+00 0.64637188E+03 0.64637196E+03 0.32000000E+00 0.0000E+00 0.9000E+01
        1 -1    0    0  501    0 0.00000000E+00 0.00000000E+00 -.14932066E+03 0.14932101E+03 0.32000000E+00 0.0000E+00 0.9000E+01
       25  2    1    2    0    0 0.12077285E+03 0.16154849E+03 0.43432443E+03 0.56518260E+03 0.30018272E+03 0.0000E+00 0.0000E+00
       23  2    1    2    0    0 -.12077285E+03 -.16154849E+03 0.62726787E+02 0.23051037E+03 0.92284256E+02 0.0000E+00 0.0000E+00
       23  1    3    3    0    0 0.17310468E+03 0.11881972E+03 0.19654905E+03 0.30171201E+03 0.91188000E+02 0.0000E+00 0.9000E+01
      -11  1    4    4    0    0 -.39818086E+02 -.85894685E+01 -.11313917E+02 0.42276041E+02 0.51099893E-03 0.0000E+00 0.9000E+01
       11  1    4    4    0    0 -.80954767E+02 -.15295902E+03 0.74040705E+02 0.18823433E+03 0.51099893E-03 0.0000E+00 0.9000E+01
       23  1    3    3    0    0 -.52331832E+02 0.42728767E+02 0.23777538E+03 0.26347059E+03 0.91188000E+02 0.0000E+00 0.9000E+01
#aMCatNLO 1  0  0  1  2 0.13138742D+03 0.00000000D+00  -5  7  0 0.00000000D+00 0.00000000D+00 0.00000000D+00 0.00000000D+00 0.00000000D+00
  <mgrwgt>
 0.2465301340D-03    9    2    0
 0.310671603897310D+03 0.000000000000000D+00 0.000000000000000D+00 0.310671603897310D+03
 0.310671603897310D+03 0.000000000000000D+00 0.000000000000000D+00 -.310671603897310D+03
 0.229140961584862D+03 0.173104684120923D+03 0.118819718758033D+03 0.103427124920209D+02
 0.631894646925894D+02 -.398180855414022D+02 -.858946845384315D+01 -.483078621306514D+02
 0.181823353766892D+03 -.809547669254331D+02 -.152959017242647D+03 -.557637582238928D+02
 0.147189427750278D+03 -.523318316540876D+02 0.427287669384578D+02 0.937289078625234D+02
 0.000000000000000D+00 0.000000000000000D+00 0.000000000000000D+00 0.000000000000000D+00
 0.395148007548669D+03 0.000000000000000D+00 0.000000000000000D+00 0.395148007548669D+03
 0.373150796173629D+03 0.000000000000000D+00 0.000000000000000D+00 -.373150796173629D+03
 0.196295474137094D+03 0.128681207760575D+03 0.116408061964341D+03 0.103427124920209D+02
 0.730926399678755D+02 -.540484719079317D+02 -.936200610216493D+01 -.483078621306514D+02
 0.204690542700156D+03 -.121314006287507D+03 -.155150035185643D+03 -.557637582238928D+02
 0.161004042554428D+03 -.845129618839451D+02 0.409817212836339D+02 0.937289078625234D+02
 0.133216104362744D+03 0.131194232318808D+03 0.712225803983366D+01 0.219972113750395D+02
0.627745799647D-05 0.000000000000D+00 0.000000000000D+00 0.280290109136D-06 0.000000000000D+00  7 -1 1 23 -11 11 23 21 0 0.99441860D-01 0.22972442D-01 0.77337082D+05 0.77337082D+05 0.77337082D+05 0.11309978D+01  1  2  2  1  7  1       -1 0.176080995930D-03 0.100000000000D+01
-.343544678738D-06 0.000000000000D+00 -.241070915991D-07 0.280290109136D-06 0.000000000000D+00  7 -1 1 23 -11 11 23 21 2 0.99441860D-01 0.22972442D-01 0.77337082D+05 0.77337082D+05 0.77337082D+05 0.11309978D+01  1  2  3  1  7  1       -1 -.123263769036D-04 0.100000000000D+01
0.411962164539D-06 0.000000000000D+00 0.000000000000D+00 0.280290109136D-06 0.000000000000D+00  7 -1 1 23 -11 11 23 21 2 0.99441860D-01 0.22972442D-01 0.77337082D+05 0.77337082D+05 0.77337082D+05 0.11309978D+01  1  2 15  1  7  1       -1 0.147811950655D-04 0.100000000000D+01
0.221148733538D-05 0.000000000000D+00 0.000000000000D+00 0.280290109136D-06 0.000000000000D+00  7 -1 1 23 -11 11 23 21 2 0.13418459D+00 0.22972442D-01 0.12606792D+06 0.12606792D+06 0.12606792D+06 0.11135586D+01  1  2 12  1  7  1       -1 0.372344545041D-04 0.100000000000D+01
-.294093655841D-05 0.000000000000D+00 0.000000000000D+00 0.280290109136D-06 0.000000000000D+00  7 -1 1 23 -11 11 23 21 2 0.99441860D-01 0.22972442D-01 0.77337082D+05 0.77337082D+05 0.77337082D+05 0.11309978D+01  1  2  4  1  7  1       -1 -.105520750901D-03 0.100000000000D+01
-.541672760744D-05 0.000000000000D+00 -.257025857773D-05 0.280290109136D-06 0.000000000000D+00  7 -1 1 23 -11 11 23 21 2 0.14520320D+00 0.22972442D-01 0.77337082D+05 0.77337082D+05 0.77337082D+05 0.11309978D+01  1  2  5  1  7  1       -1 -.771873543900D-04 0.100000000000D+01
0.611973877980D-05 0.000000000000D+00 0.239648011675D-05 0.280290109136D-06 0.000000000000D+00  7 -1 1 23 -11 11 23 21 2 0.99441860D-01 0.22972442D-01 0.77337082D+05 0.77337082D+05 0.77337082D+05 0.11309978D+01  1  2  6  1  7  1       -1 0.219576117518D-03 0.100000000000D+01
0.854121427715D-07 0.000000000000D+00 0.000000000000D+00 0.280290109136D-06 0.000000000000D+00  7 21 1 23 -11 11 23 1 2 0.13418459D+00 0.22972442D-01 0.12606792D+06 0.12606792D+06 0.12606792D+06 0.11135586D+01  1  2 12  3  7  1       -1 0.941075028320D-05 0.100000000000D+01
-.166355154016D-06 0.000000000000D+00 -.117519510654D-06 0.280290109136D-06 0.000000000000D+00  7 21 1 23 -11 11 23 1 2 0.14520320D+00 0.22972442D-01 0.77337082D+05 0.77337082D+05 0.77337082D+05 0.11309978D+01  1  2  5  3  7  1       -1 -.155188970982D-04 0.100000000000D+01
  </mgrwgt>
  </event>
  <event>
  8     66 0.58687835E-06 0.51116510E+03 0.75467711E-02 0.88987857E-01
       -1 -1    0    0    0  501 0.00000000E+00 0.00000000E+00 0.16364245E+03 0.16364277E+03 0.32000000E+00 0.0000E+00 0.9000E+01
        1 -1    0    0  501    0 0.00000000E+00 0.00000000E+00 -.17659411E+04 0.17659411E+04 0.32000000E+00 0.0000E+00 0.9000E+01
       25  2    1    2    0    0 0.44526743E+03 -.20451727E+03 -.91786815E+03 0.10829568E+04 0.30037171E+03 0.0000E+00 0.0000E+00
       23  2    1    2    0    0 -.44526743E+03 0.20451727E+03 -.68443052E+03 0.84662708E+03 0.90784784E+02 0.0000E+00 0.0000E+00
       23  1    3    3    0    0 0.21398121E+03 -.45569343E+02 -.61960490E+03 0.66339280E+03 0.91188000E+02 0.0000E+00 0.9000E+01
      -11  1    4    4    0    0 -.34205766E+03 0.16411003E+03 -.58768122E+03 0.69950323E+03 0.51099893E-03 0.0000E+00 0.9000E+01
       11  1    4    4    0    0 -.10320977E+03 0.40407243E+02 -.96749299E+02 0.14712385E+03 0.51099893E-03 0.0000E+00 0.9000E+01
       23  1    3    3    0    0 0.23128623E+03 -.15894793E+03 -.29826325E+03 0.41956404E+03 0.91188000E+02 0.0000E+00 0.9000E+01
#aMCatNLO 1  0  0  1  2 0.53782064D+03 0.00000000D+00  -5  7  0 0.00000000D+00 0.00000000D+00 0.00000000D+00 0.00000000D+00 0.00000000D+00
  <mgrwgt>
 0.2641921638D-03    3    2    0
 0.537571637943061D+03 0.000000000000000D+00 0.000000000000000D+00 0.537571637943061D+03
 0.537571637943061D+03 0.000000000000000D+00 0.000000000000000D+00 -.537571637943061D+03
 0.267201565405167D+03 0.213981205842659D+03 -.455693425563795D+02 -.123356814874870D+03
 0.379586002814863D+03 -.342057663783017D+03 0.164110031112257D+03 -.122468717885086D+02
 0.119859885436079D+03 -.103209768505914D+03 0.404072434442429D+02 0.456222588101818D+02
 0.308495822230012D+03 0.231286226446272D+03 -.158947932000120D+03 0.899814278531967D+02
 0.000000000000000D+00 -.000000000000000D+00 0.000000000000000D+00 -.000000000000000D+00
 0.765203092597992D+03 0.000000000000000D+00 0.000000000000000D+00 0.765203092597992D+03
 0.104167725913179D+04 0.000000000000000D+00 0.000000000000000D+00 -.104167725913179D+04
 0.407998115412224D+03 0.371701840716130D+03 -.690510584140038D+02 -.123356814874870D+03
 0.243097836400170D+03 -.196604262016664D+03 0.142454681743784D+03 -.122468717885086D+02
 0.799773758568126D+02 -.565295632008189D+02 0.334574152367343D+02 0.456222588101818D+02
 0.471084773234038D+03 0.413389313791898D+03 -.186059748772076D+03 0.899814278531967D+02
 0.604722250826535D+03 -.531957329290545D+03 0.791987102055621D+02 -.276474166533796D+03
0.368680040188D-04 0.000000000000D+00 0.000000000000D+00 0.166035530617D-05 0.000000000000D+00  7 -1 1 23 -11 11 23 21 0 0.25175788D-01 0.27168328D+00 0.26128976D+06 0.26128976D+06 0.26128976D+06 0.10890190D+01  1  2  2  1  7  1       -1 0.261652227394D-03 0.100000000000D+01
-.204190426486D-05 0.000000000000D+00 -.141582843001D-06 0.166035530617D-05 0.000000000000D+00  7 -1 1 23 -11 11 23 21 2 0.25175788D-01 0.27168328D+00 0.26128976D+06 0.26128976D+06 0.26128976D+06 0.10890190D+01  1  2  3  1  7  1       -1 -.171862474947D-04 0.100000000000D+01
0.234367502805D-05 0.000000000000D+00 0.000000000000D+00 0.166035530617D-05 0.000000000000D+00  7 -1 1 23 -11 11 23 21 2 0.25175788D-01 0.27168328D+00 0.26128976D+06 0.26128976D+06 0.26128976D+06 0.10890190D+01  1  2 15  1  7  1       -1 0.197261839217D-04 0.100000000000D+01
  </mgrwgt>
  </event>
  <event>
  8     66 0.58687835E-06 0.15400302E+03 0.75467711E-02 0.10116849E+00
       -1 -1    0    0    0  501 0.00000000E+00 0.00000000E+00 0.12729889E+03 0.12729929E+03 0.32000000E+00 0.0000E+00 0.9000E+01
        1 -1    0    0  501    0 0.00000000E+00 0.00000000E+00 -.14758522E+04 0.14758522E+04 0.32000000E+00 0.0000E+00 0.9000E+01
       25  2    1    2    0    0 0.12392755E+03 0.14823085E+03 -.13434689E+04 0.13901765E+04 0.30058573E+03 0.0000E+00 0.0000E+00
       23  2    1    2    0    0 -.12392755E+03 -.14823085E+03 -.50844389E+01 0.21297499E+03 0.89454301E+02 0.0000E+00 0.0000E+00
       23  1    3    3    0    0 0.25475049E+02 0.18177522E+03 -.60246980E+03 0.63637750E+03 0.91188000E+02 0.0000E+00 0.9000E+01
      -11  1    4    4    0    0 -.10474607E+03 -.73037602E+02 0.24317182E+02 0.12999060E+03 0.51099893E-03 0.0000E+00 0.9000E+01
       11  1    4    4    0    0 -.19181480E+02 -.75193249E+02 -.29401621E+02 0.82984391E+02 0.51099893E-03 0.0000E+00 0.9000E+01
       23  1    3    3    0    0 0.98452500E+02 -.33544372E+02 -.74099906E+03 0.75379903E+03 0.91188000E+02 0.0000E+00 0.9000E+01
#aMCatNLO 1  0  0  2  1 0.30031537D+02 0.00000000D+00  -5  7  0 0.00000000D+00 0.00000000D+00 0.00000000D+00 0.00000000D+00 0.00000000D+00
  <mgrwgt>
 0.3023940437D-03    9    2    0
 0.433445149907737D+03 0.000000000000000D+00 0.000000000000000D+00 0.433445149907737D+03
 0.433445149907737D+03 0.000000000000000D+00 0.000000000000000D+00 -.433445149907737D+03
 0.239646143942529D+03 0.254750492687989D+02 0.181775223843588D+03 -.124192644000719D+03
 0.278221639917985D+03 -.104746068993229D+03 -.730376024782927D+02 0.247186266959436D+03
 0.107726317833960D+03 -.191814802106081D+02 -.751932491025608D+02 0.747195132505129D+02
 0.241296198121000D+03 0.984524999350384D+02 -.335443722627341D+02 -.197713136209230D+03
 0.000000000000000D+00 0.000000000000000D+00 0.000000000000000D+00 -.000000000000000D+00
 0.443826115392149D+03 0.000000000000000D+00 0.000000000000000D+00 0.443826115392149D+03
 0.455983047917026D+03 0.000000000000000D+00 0.000000000000000D+00 -.455983047917026D+03
 0.234006815961015D+03 0.210626672417801D+02 0.174861344490386D+03 -.124192644000719D+03
 0.282473568921822D+03 -.109969305564208D+03 -.812220314927892D+02 0.247186266959436D+03
 0.110344263568032D+03 -.212129479632759D+02 -.783764102309172D+02 0.747195132505129D+02
 0.240585684169039D+03 0.939634602022441D+02 -.405783686243859D+02 -.197713136209230D+03
 0.323988306892665D+02 0.161561260834594D+02 0.253154658577065D+02 -.121569325248770D+02
0.719804699119D-05 0.000000000000D+00 0.000000000000D+00 0.314936985886D-06 0.000000000000D+00  7 -1 1 23 -11 11 23 21 0 0.19584478D-01 0.22705422D+00 0.75233717D+05 0.75233717D+05 0.75233717D+05 0.11320072D+01  1  2  2  2  7  2        1 0.124717528229D-03 0.100000000000D+01
-.298085661647D-06 0.000000000000D+00 -.276423957355D-07 0.314936985886D-06 0.000000000000D+00  7 -1 1 23 -11 11 23 21 2 0.19584478D-01 0.22705422D+00 0.75233717D+05 0.75233717D+05 0.75233717D+05 0.11320072D+01  1  2  3  2  7  2        1 -.661838835275D-05 0.100000000000D+01
0.454054659783D-06 0.000000000000D+00 0.000000000000D+00 0.314936985886D-06 0.000000000000D+00  7 -1 1 23 -11 11 23 21 2 0.19584478D-01 0.22705422D+00 0.75233717D+05 0.75233717D+05 0.75233717D+05 0.11320072D+01  1  2 15  2  7  2        1 0.100813640455D-04 0.100000000000D+01
0.198125478488D-04 0.000000000000D+00 0.000000000000D+00 0.314936985886D-06 0.000000000000D+00  7 -1 1 23 -11 11 23 21 2 0.19584478D-01 0.24147404D+00 0.85074878D+05 0.85074878D+05 0.85074878D+05 0.11275286D+01  1  2 12  2  7  2        1 0.377198281360D-03 0.100000000000D+01
-.187518173896D-04 0.000000000000D+00 0.000000000000D+00 0.314936985886D-06 0.000000000000D+00  7 -1 1 23 -11 11 23 21 2 0.19584478D-01 0.22705422D+00 0.75233717D+05 0.75233717D+05 0.75233717D+05 0.11320072D+01  1  2  4  2  7  2        1 -.416346123858D-03 0.100000000000D+01
-.681791140376D-04 0.000000000000D+00 -.124343256282D-04 0.314936985886D-06 0.000000000000D+00  7 -1 1 23 -11 11 23 21 2 0.19584478D-01 0.24186991D+00 0.75233717D+05 0.75233717D+05 0.75233717D+05 0.11320072D+01  1  2  5  2  7  2        1 -.130824207680D-02 0.100000000000D+01
0.688523021732D-04 0.000000000000D+00 0.124095252764D-04 0.314936985886D-06 0.000000000000D+00  7 -1 1 23 -11 11 23 21 2 0.19584478D-01 0.22705422D+00 0.75233717D+05 0.75233717D+05 0.75233717D+05 0.11320072D+01  1  2  6  2  7  2        1 0.152872591135D-02 0.100000000000D+01
0.241724641523D-06 0.000000000000D+00 0.000000000000D+00 0.314936985886D-06 0.000000000000D+00  7 -1 21 23 -11 11 23 -1 2 0.19584478D-01 0.24147404D+00 0.85074878D+05 0.85074878D+05 0.85074878D+05 0.11275286D+01  1  2 12  4  7  2        1 0.354223373938D-05 0.100000000000D+01
-.719554620329D-06 0.000000000000D+00 -.134366057393D-06 0.314936985886D-06 0.000000000000D+00  7 -1 21 23 -11 11 23 -1 2 0.19584478D-01 0.24186991D+00 0.75233717D+05 0.75233717D+05 0.75233717D+05 0.11320072D+01  1  2  5  4  7  2        1 -.106646859948D-04 0.100000000000D+01
  </mgrwgt>
  </event>
  <event>
  8     66 0.58687835E-06 0.70974675E+03 0.75467711E-02 0.85870095E-01
       -1 -1    0    0    0  501 0.00000000E+00 0.00000000E+00 0.61198555E+03 0.61198563E+03 0.32000000E+00 0.0000E+00 0.9000E+01
        1 -1    0    0  501    0 0.00000000E+00 0.00000000E+00 -.85512687E+03 0.85512693E+03 0.32000000E+00 0.0000E+00 0.9000E+01
       25  2    1    2    0    0 0.44320794E+03 -.51569339E+03 -.24393408E+03 0.78057870E+03 0.29567941E+03 0.0000E+00 0.0000E+00
       23  2    1    2    0    0 -.44320794E+03 0.51569339E+03 0.79275905E+00 0.68653386E+03 0.94631668E+02 0.0000E+00 0.0000E+00
       23  1    3    3    0    0 0.66088549E+02 -.21790959E+03 -.13314580E+03 0.27909737E+03 0.91188000E+02 0.0000E+00 0.9000E+01
      -13  1    4    4    0    0 -.44373255E+03 0.51838716E+03 0.39123753E+01 0.68237757E+03 0.10565837E+00 0.0000E+00 0.9000E+01
       13  1    4    4    0    0 0.52461125E+00 -.26937649E+01 -.31196162E+01 0.41562911E+01 0.10565837E+00 0.0000E+00 0.9000E+01
       23  1    3    3    0    0 0.37711939E+03 -.29778380E+03 -.11078828E+03 0.50148133E+03 0.91188000E+02 0.0000E+00 0.9000E+01
#aMCatNLO 1  0  0  1  1 0.74524794D+03 0.00000000D+00  -5  7  0 0.00000000D+00 0.00000000D+00 0.00000000D+00 0.00000000D+00 0.00000000D+00
  <mgrwgt>
 0.7122630624D-03    5    2    0
 0.723412322820436D+03 0.000000000000000D+00 0.000000000000000D+00 0.723412322820436D+03
 0.723412322820436D+03 0.000000000000000D+00 0.000000000000000D+00 -.723412322820436D+03
 0.260635602560205D+03 0.660885492291079D+02 -.217909593673488D+03 -.881100370205818D+02
 0.692604458289015D+03 -.443733106574371D+03 0.518387809337136D+03 0.118642087398711D+03
 0.368945650090801D+01 0.525165056146957D+00 -.269441445739222D+01 -.246503989170375D+01
 0.489895128290744D+03 0.377119392289116D+03 -.297783801206256D+03 -.280670104864250D+02
 0.000000000000000D+00 -.000000000000000D+00 0.000000000000000D+00 0.000000000000000D+00
 0.127085909958241D+04 0.000000000000000D+00 0.000000000000000D+00 0.127085909958241D+04
 0.111748840583684D+04 0.000000000000000D+00 0.000000000000000D+00 -.111748840583684D+04
 0.392910685767661D+03 0.184980991263771D+03 -.322617745782401D+03 -.881100370205818D+02
 0.431081872036073D+03 -.239313290749029D+03 0.338356002409700D+03 0.118642087398711D+03
 0.527041777913350D+01 0.215513580573721D+01 -.412992391670180D+01 -.246503989170375D+01
 0.798218530884834D+03 0.611451651981731D+03 -.504159391378471D+03 -.280670104864250D+02
 0.760865998951549D+03 -.559274488302210D+03 0.492551058667874D+03 0.153370693745568D+03
0.264091052053D-03 0.000000000000D+00 0.000000000000D+00 0.101166069304D-07 0.000000000000D+00  7 -1 1 23 -13 13 23 21 0 0.94151634D-01 0.13155799D+00 0.50374045D+06 0.50374045D+06 0.50374045D+06 0.10682817D+01  1  2  2  1  7  1       -1 0.707784167324D-03 0.100000000000D+01
-.146652370377D-04 0.000000000000D+00 -.101417917665D-05 0.101166069304D-07 0.000000000000D+00  7 -1 1 23 -13 13 23 21 2 0.94151634D-01 0.13155799D+00 0.50374045D+06 0.50374045D+06 0.50374045D+06 0.10682817D+01  1  2  3  1  7  1       -1 -.448546869452D-04 0.100000000000D+01
0.172225288930D-04 0.000000000000D+00 0.000000000000D+00 0.101166069304D-07 0.000000000000D+00  7 -1 1 23 -13 13 23 21 2 0.94151634D-01 0.13155799D+00 0.50374045D+06 0.50374045D+06 0.50374045D+06 0.10682817D+01  1  2 15  1  7  1       -1 0.526763488321D-04 0.100000000000D+01
-.284434748691D-04 0.000000000000D+00 -.771730709455D-04 0.101166069304D-07 0.000000000000D+00  7 -1 1 23 -13 13 23 21 2 0.22400297D+00 0.13155799D+00 0.50374045D+06 0.50374045D+06 0.50374045D+06 0.10682817D+01  1  2  5  1  7  1       -1 -.674219731319D-05 0.100000000000D+01
0.216593364575D-05 0.000000000000D+00 -.730971130722D-05 0.101166069304D-07 0.000000000000D+00  7 21 1 23 -13 13 23 1 2 0.22400297D+00 0.13155799D+00 0.50374045D+06 0.50374045D+06 0.50374045D+06 0.10682817D+01  1  2  5  3  7  1       -1 0.339943047680D-05 0.100000000000D+01
  </mgrwgt>
  </event>
  <event>
  8     66 0.58687835E-06 0.69121790E+03 0.75467711E-02 0.89585708E-01
       -1 -1    0    0    0  501 0.00000000E+00 0.00000000E+00 0.15228990E+04 0.15228990E+04 0.32000000E+00 0.0000E+00 0.9000E+01
        1 -1    0    0  501    0 0.00000000E+00 0.00000000E+00 -.37187910E+03 0.37187924E+03 0.32000000E+00 0.0000E+00 0.9000E+01
       25  2    1    2    0    0 0.48378130E+03 -.44979807E+03 0.23631009E+03 0.76272884E+03 0.29924934E+03 0.0000E+00 0.0000E+00
       23  2    1    2    0    0 -.48378130E+03 0.44979807E+03 0.91470981E+03 0.11320494E+04 0.92082698E+02 0.0000E+00 0.0000E+00
       23  1    3    3    0    0 0.17444385E+03 -.31688495E+03 0.85541160E+02 0.38272610E+03 0.91188000E+02 0.0000E+00 0.9000E+01
      -11  1    4    4    0    0 -.40460197E+03 0.37664858E+03 0.81777847E+03 0.98708082E+03 0.51099893E-03 0.0000E+00 0.9000E+01
       11  1    4    4    0    0 -.79179335E+02 0.73149492E+02 0.96931334E+02 0.14496861E+03 0.51099893E-03 0.0000E+00 0.9000E+01
       23  1    3    3    0    0 0.30933745E+03 -.13291312E+03 0.15076893E+03 0.38000273E+03 0.91188000E+02 0.0000E+00 0.9000E+01
#aMCatNLO 1  0  0  2  1 0.20341329D+03 0.00000000D+00  -5  7  0 0.00000000D+00 0.00000000D+00 0.00000000D+00 0.00000000D+00 0.00000000D+00
  <mgrwgt>
 0.1396352286D-03    4    2    0
 0.752551972587602D+03 0.000000000000000D+00 0.000000000000000D+00 0.752551972587602D+03
 0.752551972587602D+03 0.000000000000000D+00 0.000000000000000D+00 -.752551972587602D+03
 0.416397505486650D+03 0.174443852324836D+03 -.316884951029578D+03 -.184999733590503D+03
 0.617246396246834D+03 -.404601969302498D+03 0.376648577991658D+03 0.274638323642397D+03
 0.108373567705854D+03 -.791793353930205D+02 0.731494922033975D+02 0.111631005728683D+02
 0.363086475735865D+03 0.309337452370683D+03 -.132913119165477D+03 -.100801690624762D+03
 0.000000000000000D+00 -.000000000000000D+00 -.000000000000000D+00 0.000000000000000D+00
 0.105361370972160D+04 0.000000000000000D+00 0.000000000000000D+00 0.105361370972160D+04
 0.794551825549919D+03 0.000000000000000D+00 0.000000000000000D+00 -.794551825549919D+03
 0.384891340364056D+03 0.188354235579432D+03 -.264809125699946D+03 -.184999733590503D+03
 0.657925704720221D+03 -.382464967481154D+03 0.459522113470215D+03 0.274638323642397D+03
 0.116148422008772D+03 -.752816311604112D+02 0.877411940342486D+02 0.111631005728683D+02
 0.359821828897752D+03 0.321887148560086D+03 -.859312513953437D+02 -.100801690624762D+03
 0.329378239280718D+03 -.524947854979530D+02 -.196522930409173D+03 0.259061884171679D+03
0.264342810931D-03 0.000000000000D+00 0.000000000000D+00 0.168714665349D-05 0.000000000000D+00  7 -1 1 23 -11 11 23 21 0 0.23429217D+00 0.57212183D-01 0.47778219D+06 0.47778219D+06 0.47778219D+06 0.10699083D+01  1  2  2  2  7  2        1 0.153688960624D-03 0.100000000000D+01
-.145566590330D-04 0.000000000000D+00 -.101514599703D-05 0.168714665349D-05 0.000000000000D+00  7 -1 1 23 -11 11 23 21 2 0.23429217D+00 0.57212183D-01 0.47778219D+06 0.47778219D+06 0.47778219D+06 0.10699083D+01  1  2  3  2  7  2        1 -.968790802947D-05 0.100000000000D+01
0.166920306433D-04 0.000000000000D+00 0.000000000000D+00 0.168714665349D-05 0.000000000000D+00  7 -1 1 23 -11 11 23 21 2 0.23429217D+00 0.57212183D-01 0.47778219D+06 0.47778219D+06 0.47778219D+06 0.10699083D+01  1  2 15  2  7  2        1 0.111090640601D-04 0.100000000000D+01
-.232519413391D-04 0.000000000000D+00 0.000000000000D+00 0.168714665349D-05 0.000000000000D+00  7 -1 1 23 -11 11 23 21 2 0.23429217D+00 0.57212183D-01 0.47778219D+06 0.47778219D+06 0.47778219D+06 0.10699083D+01  1  2  4  2  7  2        1 -.154748880694D-04 0.100000000000D+01
  </mgrwgt>
  </event>
  <event>
  8     66 0.58687835E-06 0.10762214E+03 0.75467711E-02 0.10410174E+00
       -1 -1    0    0    0  501 0.00000000E+00 0.00000000E+00 0.77024707E+02 0.77025372E+02 0.32000000E+00 0.0000E+00 0.9000E+01
        1 -1    0    0  501    0 0.00000000E+00 0.00000000E+00 -.20379229E+04 0.20379229E+04 0.32000000E+00 0.0000E+00 0.9000E+01
       25  2    1    2    0    0 0.13045606E+03 0.38381723E+02 -.29970210E+03 0.44573575E+03 0.30061116E+03 0.0000E+00 0.0000E+00
       23  2    1    2    0    0 -.13045606E+03 -.38381723E+02 -.16611961E+04 0.16692125E+04 0.90587749E+02 0.0000E+00 0.0000E+00
       23  1    3    3    0    0 0.62126751E+02 -.74068180E+02 -.36748456E+02 0.13788230E+03 0.91188000E+02 0.0000E+00 0.9000E+01
      -11  1    4    4    0    0 -.32291941E+02 0.56233674E+01 -.12407252E+03 0.12832919E+03 0.51099893E-03 0.0000E+00 0.9000E+01
       11  1    4    4    0    0 -.98164115E+02 -.44005091E+02 -.15371235E+04 0.15408833E+04 0.51099893E-03 0.0000E+00 0.9000E+01
       23  1    3    3    0    0 0.68329305E+02 0.11244990E+03 -.26295365E+03 0.30785345E+03 0.91188000E+02 0.0000E+00 0.9000E+01
#aMCatNLO 1  0  0  2  1 0.44038838D+02 0.00000000D+00  -5  7  0 0.00000000D+00 0.00000000D+00 0.00000000D+00 0.00000000D+00 0.00000000D+00
  <mgrwgt>
 0.3688939215D-03    9    2    0
 0.396195837159737D+03 0.000000000000000D+00 0.000000000000000D+00 0.396195837159737D+03
 0.396195837159737D+03 0.000000000000000D+00 0.000000000000000D+00 -.396195837159737D+03
 0.277077559319473D+03 0.621267507032359D+02 -.740681795169790D+02 0.243127320892849D+03
 0.354824889095020D+02 -.322919405055782D+02 0.562336737160788D+01 -.135873226575756D+02
 0.308869713690137D+03 -.981641153726038D+02 -.440050907672491D+02 -.289530410276204D+03
 0.170961912400363D+03 0.683293051749461D+02 0.112449902912620D+03 0.599904120409305D+02
 0.000000000000000D+00 -.000000000000000D+00 -.000000000000000D+00 -.000000000000000D+00
 0.415087507053948D+03 0.000000000000000D+00 0.000000000000000D+00 0.415087507053948D+03
 0.423330671773905D+03 0.000000000000000D+00 0.000000000000000D+00 -.423330671773905D+03
 0.277639749472824D+03 0.741722045055732D+02 -.644683570256091D+02 0.243127320892849D+03
 0.343285359039693D+02 -.307760233691267D+02 0.683150246227056D+01 -.135873226575756D+02
 0.303555630737221D+03 -.848655557698019D+02 -.334065850012788D+02 -.289530410276204D+03
 0.178090590322200D+03 0.759088339358003D+02 0.118490533001485D+03 0.599904120409305D+02
 0.448036723916386D+02 -.344394593024450D+02 -.274470934368678D+02 -.824316471995790D+01
0.948359060186D-05 0.000000000000D+00 0.000000000000D+00 0.928289216268D-06 0.000000000000D+00  7 -1 1 23 -11 11 23 21 0 0.11850008D-01 0.31352665D+00 0.46945914D+05 0.46945914D+05 0.46945914D+05 0.11497108D+01  1  2  2  2  7  2        1 0.157526867155D-03 0.100000000000D+01
-.293529098140D-06 0.000000000000D+00 -.364194849979D-07 0.928289216268D-06 0.000000000000D+00  7 -1 1 23 -11 11 23 21 2 0.11850008D-01 0.31352665D+00 0.46945914D+05 0.46945914D+05 0.46945914D+05 0.11497108D+01  1  2  3  2  7  2        1 -.644481201040D-05 0.100000000000D+01
0.588620645976D-06 0.000000000000D+00 0.000000000000D+00 0.928289216268D-06 0.000000000000D+00  7 -1 1 23 -11 11 23 21 2 0.11850008D-01 0.31352665D+00 0.46945914D+05 0.46945914D+05 0.46945914D+05 0.11497108D+01  1  2 15  2  7  2        1 0.129239296301D-04 0.100000000000D+01
0.154908699169D-04 0.000000000000D+00 0.000000000000D+00 0.928289216268D-06 0.000000000000D+00  7 -1 1 23 -11 11 23 21 2 0.11850008D-01 0.34204100D+00 0.54876239D+05 0.54876239D+05 0.54876239D+05 0.11437574D+01  1  2 12  2  7  2        1 0.253256168173D-03 0.100000000000D+01
-.137305989657D-04 0.000000000000D+00 0.000000000000D+00 0.928289216268D-06 0.000000000000D+00  7 -1 1 23 -11 11 23 21 2 0.11850008D-01 0.31352665D+00 0.46945914D+05 0.46945914D+05 0.46945914D+05 0.11497108D+01  1  2  4  2  7  2        1 -.301473106704D-03 0.100000000000D+01
-.442998465484D-04 0.000000000000D+00 -.106197492321D-04 0.928289216268D-06 0.000000000000D+00  7 -1 1 23 -11 11 23 21 2 0.11850008D-01 0.34230746D+00 0.46945914D+05 0.46945914D+05 0.46945914D+05 0.11497108D+01  1  2  5  2  7  2        1 -.734045872362D-03 0.100000000000D+01
0.450993083673D-04 0.000000000000D+00 0.105789241871D-04 0.928289216268D-06 0.000000000000D+00  7 -1 1 23 -11 11 23 21 2 0.11850008D-01 0.31352665D+00 0.46945914D+05 0.46945914D+05 0.46945914D+05 0.11497108D+01  1  2  6  2  7  2        1 0.990213801863D-03 0.100000000000D+01
0.222942532329D-06 0.000000000000D+00 0.000000000000D+00 0.928289216268D-06 0.000000000000D+00  7 -1 21 23 -11 11 23 -1 2 0.11850008D-01 0.34204100D+00 0.54876239D+05 0.54876239D+05 0.54876239D+05 0.11437574D+01  1  2 12  4  7  2        1 0.168492018833D-05 0.100000000000D+01
-.615116819527D-06 0.000000000000D+00 -.154039407634D-06 0.928289216268D-06 0.000000000000D+00  7 -1 21 23 -11 11 23 -1 2 0.11850008D-01 0.34230746D+00 0.46945914D+05 0.46945914D+05 0.46945914D+05 0.11497108D+01  1  2  5  4  7  2        1 -.474797443577D-05 0.100000000000D+01
  </mgrwgt>
  </event>
  <event>
  8     66 0.58687835E-06 0.90526513E+02 0.75467711E-02 0.10504151E+00
       -1 -1    0    0    0  501 0.00000000E+00 0.00000000E+00 0.28156024E+03 0.28156042E+03 0.32000000E+00 0.0000E+00 0.9000E+01
        1 -1    0    0  501    0 0.00000000E+00 0.00000000E+00 -.22394977E+03 0.22394999E+03 0.32000000E+00 0.0000E+00 0.9000E+01
       25  2    1    2    0    0 0.18661232E+02 -.11889299E+03 -.39948447E+02 0.32448902E+03 0.29868623E+03 0.0000E+00 0.0000E+00
       23  2    1    2    0    0 -.18661232E+02 0.11889299E+03 0.97558918E+02 0.18102139E+03 0.93633411E+02 0.0000E+00 0.0000E+00
       23  1    3    3    0    0 0.66550416E+02 -.98091437E+02 0.76213257E+02 0.16785291E+03 0.91188000E+02 0.0000E+00 0.9000E+01
      -13  1    4    4    0    0 -.10524029E+02 0.13113220E+03 0.68182087E+02 0.14817293E+03 0.10565837E+00 0.0000E+00 0.9000E+01
       13  1    4    4    0    0 -.81372032E+01 -.12239203E+02 0.29376832E+02 0.32848464E+02 0.10565837E+00 0.0000E+00 0.9000E+01
       23  1    3    3    0    0 -.47889184E+02 -.20801556E+02 -.11616170E+03 0.15663611E+03 0.91188000E+02 0.0000E+00 0.9000E+01
#aMCatNLO 1  0  0  1  2 0.35192105D+02 0.00000000D+00  -5  7  0 0.00000000D+00 0.00000000D+00 0.00000000D+00 0.00000000D+00 0.00000000D+00
  <mgrwgt>
 0.1857001492D-03    7    2    0
 0.251108448467571D+03 0.000000000000000D+00 0.000000000000000D+00 0.251108448467571D+03
 0.251108448467571D+03 0.000000000000000D+00 0.000000000000000D+00 -.251108448467571D+03
 0.160211090085776D+03 0.665504187695203D+02 -.980914531850079D+02 0.574582510709075D+02
 0.141323460597688D+03 -.105240410387781D+02 0.131132373452031D+03 0.516320221215229D+02
 0.296938318999448D+02 -.813719633828883D+01 -.122393479027518D+02 0.258013187951647D+02
 0.170988514351734D+03 -.478891813924534D+02 -.208015723642711D+02 -.134891591987595D+03
 0.000000000000000D+00 0.000000000000000D+00 -.000000000000000D+00 0.000000000000000D+00
 0.522318813446446D+03 0.000000000000000D+00 0.000000000000000D+00 0.522318813446446D+03
 0.252868427006752D+03 0.000000000000000D+00 0.000000000000000D+00 -.252868427006752D+03
 0.152329020106948D+03 0.596477670983669D+02 -.896078807181295D+02 0.574582510709075D+02
 0.149263065313616D+03 -.169418335181481D+02 0.139020038971016D+03 0.516320221215229D+02
 0.294612535420079D+02 -.944367488637448D+01 -.106336453456568D+02 0.258013187951647D+02
 0.172395065399568D+03 -.554730311554659D+02 -.114807863667235D+02 -.134891591987595D+03
 0.271738836091058D+03 0.222107724616216D+02 -.272977265405062D+02 0.269450386439694D+03
0.227855636837D-05 0.000000000000D+00 0.000000000000D+00 0.195107442381D-07 0.000000000000D+00  7 -1 1 23 -13 13 23 21 0 0.43316991D-01 0.34453842D-01 0.40176664D+05 0.40176664D+05 0.40176664D+05 0.11557461D+01  1  2  2  1  7  1       -1 0.186837377899D-03 0.100000000000D+01
-.118769498212D-06 0.000000000000D+00 -.875025641219D-08 0.195107442381D-07 0.000000000000D+00  7 -1 1 23 -13 13 23 21 2 0.43316991D-01 0.34453842D-01 0.40176664D+05 0.40176664D+05 0.40176664D+05 0.11557461D+01  1  2  3  1  7  1       -1 -.130086973690D-04 0.100000000000D+01
0.146835445965D-06 0.000000000000D+00 0.000000000000D+00 0.195107442381D-07 0.000000000000D+00  7 -1 1 23 -13 13 23 21 2 0.43316991D-01 0.34453842D-01 0.40176664D+05 0.40176664D+05 0.40176664D+05 0.11557461D+01  1  2 15  1  7  1       -1 0.160827309062D-04 0.100000000000D+01
0.411157415401D-04 0.000000000000D+00 0.000000000000D+00 0.195107442381D-07 0.000000000000D+00  7 -1 1 23 -13 13 23 21 2 0.90086040D-01 0.34453842D-01 0.47937047D+05 0.47937047D+05 0.47937047D+05 0.11489084D+01  1  2 12  1  7  1       -1 0.112449227410D-02 0.100000000000D+01
-.408719023250D-04 0.000000000000D+00 -.717645310365D-06 0.195107442381D-07 0.000000000000D+00  7 -1 1 23 -13 13 23 21 2 0.90307170D-01 0.34453842D-01 0.40176664D+05 0.40176664D+05 0.40176664D+05 0.11557461D+01  1  2  5  1  7  1       -1 -.112937654455D-02 0.100000000000D+01
0.325549100623D-05 0.000000000000D+00 0.000000000000D+00 0.195107442381D-07 0.000000000000D+00  7 21 1 23 -13 13 23 1 2 0.90086040D-01 0.34453842D-01 0.47937047D+05 0.47937047D+05 0.47937047D+05 0.11489084D+01  1  2 12  3  7  1       -1 0.680888893009D-03 0.100000000000D+01
-.320283214205D-05 0.000000000000D+00 -.570140386696D-07 0.195107442381D-07 0.000000000000D+00  7 21 1 23 -13 13 23 1 2 0.90307170D-01 0.34453842D-01 0.40176664D+05 0.40176664D+05 0.40176664D+05 0.11557461D+01  1  2  5  3  7  1       -1 -.680215884834D-03 0.100000000000D+01
  </mgrwgt>
  </event>
  <event>
  8     66 0.58687835E-06 0.20277899E+03 0.75467711E-02 0.95292826E-01
       -1 -1    0    0    0  501 0.00000000E+00 0.00000000E+00 0.11548454E+04 0.11548454E+04 0.32000000E+00 0.0000E+00 0.9000E+01
        1 -1    0    0  501    0 0.00000000E+00 0.00000000E+00 -.19495854E+03 0.19495880E+03 0.32000000E+00 0.0000E+00 0.9000E+01
       25  2    1    2    0    0 0.39587569E+03 -.47283111E+02 0.71852276E+03 0.87493792E+03 0.30047988E+03 0.0000E+00 0.0000E+00
       23  2    1    2    0    0 -.39587569E+03 0.47283111E+02 0.24136410E+03 0.47486633E+03 0.91039246E+02 0.0000E+00 0.0000E+00
       23  1    3    3    0    0 0.28747942E+03 0.60001749E+02 0.35056941E+03 0.46632476E+03 0.91188000E+02 0.0000E+00 0.9000E+01
      -13  1    4    4    0    0 -.37407405E+03 0.59773046E+02 0.24237139E+03 0.44972004E+03 0.10565837E+00 0.0000E+00 0.9000E+01
       13  1    4    4    0    0 -.21801644E+02 -.12489935E+02 -.10072884E+01 0.25146291E+02 0.10565837E+00 0.0000E+00 0.9000E+01
       23  1    3    3    0    0 0.10839627E+03 -.10728486E+03 0.36795335E+03 0.40861316E+03 0.91188000E+02 0.0000E+00 0.9000E+01
#aMCatNLO 1  0  0  2  1 0.51855443D+02 0.00000000D+00  -5  7  0 0.00000000D+00 0.00000000D+00 0.00000000D+00 0.00000000D+00 0.00000000D+00
  <mgrwgt>
 0.1672404768D-03    9    2    0
 0.474496765771174D+03 0.000000000000000D+00 0.000000000000000D+00 0.474496765771174D+03
 0.474496765771174D+03 0.000000000000000D+00 0.000000000000000D+00 -.474496765771174D+03
 0.308685116190472D+03 0.287479415230857D+03 0.600017493124153D+02 0.269559921260503D+02
 0.394507808851402D+03 -.374074520319726D+03 0.597731432570849D+02 -.110144613293021D+03
 0.367852830484793D+02 -.218011693579197D+02 -.124900320531789D+02 -.268675485092073D+02
 0.209015323451994D+03 0.108396274446789D+03 -.107284860516321D+03 0.110056169676178D+03
 0.000000000000000D+00 0.000000000000000D+00 0.000000000000000D+00 -.000000000000000D+00
 0.494164979192362D+03 0.000000000000000D+00 0.000000000000000D+00 0.494164979192362D+03
 0.510659990061530D+03 0.000000000000000D+00 0.000000000000000D+00 -.510659990061530D+03
 0.293720260591208D+03 0.272930203694180D+03 0.523337227580917D+02 0.269559921260503D+02
 0.411656161323174D+03 -.393544881288248D+03 0.495114706879206D+02 -.110144613293021D+03
 0.382122309707378D+02 -.236124989679241D+02 -.134446764690040D+02 -.268675485092073D+02
 0.206820579968610D+03 0.983530630868007D+02 -.112578041607608D+03 0.110056169676178D+03
 0.544157364001623D+02 0.458741134751913D+02 0.241775246306000D+02 -.164950108691673D+02
0.253316645210D-04 0.000000000000D+00 0.000000000000D+00 0.101331723076D-05 0.000000000000D+00  7 -1 1 23 -13 13 23 21 0 0.17766855D+00 0.29993645D-01 0.19764474D+06 0.19764474D+06 0.19764474D+06 0.10982207D+01  1  2  2  2  7  2        1 0.104919601953D-03 0.100000000000D+01
-.140005381764D-05 0.000000000000D+00 -.972802617410D-07 0.101331723076D-05 0.000000000000D+00  7 -1 1 23 -13 13 23 21 2 0.17766855D+00 0.29993645D-01 0.19764474D+06 0.19764474D+06 0.19764474D+06 0.10982207D+01  1  2  3  2  7  2        1 -.699385962410D-05 0.100000000000D+01
0.163941192317D-05 0.000000000000D+00 0.000000000000D+00 0.101331723076D-05 0.000000000000D+00  7 -1 1 23 -13 13 23 21 2 0.17766855D+00 0.29993645D-01 0.19764474D+06 0.19764474D+06 0.19764474D+06 0.10982207D+01  1  2 15  2  7  2        1 0.818955436733D-05 0.100000000000D+01
0.528096052097D-04 0.000000000000D+00 0.000000000000D+00 0.101331723076D-05 0.000000000000D+00  7 -1 1 23 -13 13 23 21 2 0.17766855D+00 0.32864009D-01 0.22243578D+06 0.22243578D+06 0.22243578D+06 0.10942966D+01  1  2 12  2  7  2        1 0.231165288597D-03 0.100000000000D+01
-.487499322349D-04 0.000000000000D+00 0.000000000000D+00 0.101331723076D-05 0.000000000000D+00  7 -1 1 23 -13 13 23 21 2 0.17766855D+00 0.29993645D-01 0.19764474D+06 0.19764474D+06 0.19764474D+06 0.10982207D+01  1  2  4  2  7  2        1 -.243526483367D-03 0.100000000000D+01
-.156837099648D-03 0.000000000000D+00 -.317331175050D-04 0.101331723076D-05 0.000000000000D+00  7 -1 1 23 -13 13 23 21 2 0.17766855D+00 0.33567363D-01 0.19764474D+06 0.19764474D+06 0.19764474D+06 0.10982207D+01  1  2  5  2  7  2        1 -.676032465260D-03 0.100000000000D+01
0.159597004432D-03 0.000000000000D+00 0.315331170402D-04 0.101331723076D-05 0.000000000000D+00  7 -1 1 23 -13 13 23 21 2 0.17766855D+00 0.29993645D-01 0.19764474D+06 0.19764474D+06 0.19764474D+06 0.10982207D+01  1  2  6  2  7  2        1 0.797254385054D-03 0.100000000000D+01
0.793208543613D-06 0.000000000000D+00 0.000000000000D+00 0.101331723076D-05 0.000000000000D+00  7 -1 21 23 -13 13 23 -1 2 0.17766855D+00 0.32864009D-01 0.22243578D+06 0.22243578D+06 0.22243578D+06 0.10942966D+01  1  2 12  4  7  2        1 0.207569937181D-04 0.100000000000D+01
-.268886544677D-05 0.000000000000D+00 -.570433961797D-06 0.101331723076D-05 0.000000000000D+00  7 -1 21 23 -13 13 23 -1 2 0.17766855D+00 0.33567363D-01 0.19764474D+06 0.19764474D+06 0.19764474D+06 0.10982207D+01  1  2  5  4  7  2        1 -.684925386692D-04 0.100000000000D+01
  </mgrwgt>
  </event>
  <event>
  9     66 -.58687835E-06 0.50711436E+03 0.75467711E-02 0.94111784E-01
       -1 -1    0    0    0  501 0.00000000E+00 0.00000000E+00 0.55674931E+03 0.55674940E+03 0.32000000E+00 0.0000E+00 0.9000E+01
        1 -1    0    0  502    0 0.00000000E+00 0.00000000E+00 -.51526436E+03 0.51526446E+03 0.32000000E+00 0.0000E+00 0.9000E+01
       25  2    1    2    0    0 -.34395283E+03 0.32498413E+03 0.99714727E+02 0.56887098E+03 0.29958794E+03 0.0000E+00 0.0000E+00
       23  2    1    2    0    0 0.31349036E+03 -.33421339E+03 -.60620243E+02 0.47121455E+03 0.91616270E+02 0.0000E+00 0.0000E+00
       23  1    3    3    0    0 -.97397883E+01 0.33781422E+02 -.22105729E+02 0.10019961E+03 0.91188000E+02 0.0000E+00 0.9000E+01
      -13  1    4    4    0    0 0.23606500E+03 -.29463852E+03 -.69224372E+02 0.38383664E+03 0.10565837E+00 0.0000E+00 0.9000E+01
       13  1    4    4    0    0 0.77425358E+02 -.39574871E+02 0.86041291E+01 0.87377908E+02 0.10565837E+00 0.0000E+00 0.9000E+01
       23  1    3    3    0    0 -.33421304E+03 0.29120271E+03 0.12182046E+03 0.46867137E+03 0.91188000E+02 0.0000E+00 0.9000E+01
       21  1    1    2  502  501 0.30462473E+02 0.92292608E+01 0.23904581E+01 0.31928331E+02 0.75000000E+00 0.0000E+00 0.9000E+01
#aMCatNLO 2  0  0  2  1 0.31829884D+02 0.00000000D+00  -5  7  0 0.00000000D+00 0.00000000D+00 0.00000000D+00 0.00000000D+00 0.00000000D+00
  <mgrwgt>
 -.7445624928D-04    3    2    0
 0.519431513548418D+03 0.000000000000000D+00 0.000000000000000D+00 0.519431513548418D+03
 0.519431513548418D+03 0.000000000000000D+00 0.000000000000000D+00 -.519431513548418D+03
 0.101163923287492D+03 -.677497307646597D+01 0.346796760404877D+02 -.258903039854228D+02
 0.391198321553387D+03 0.247467832699643D+03 -.291184190166846D+03 -.837112057134931D+02
 0.890752914726119D+02 0.800077558648093D+02 -.387920751145427D+02 0.532366985410559D+01
 0.457425490783344D+03 -.320700615487987D+03 0.295296589240901D+03 0.104277839844810D+03
 0.000000000000000D+00 0.000000000000000D+00 0.000000000000000D+00 0.000000000000000D+00
 0.536196936871806D+03 0.000000000000000D+00 0.000000000000000D+00 0.536196936871806D+03
 0.535005761161308D+03 0.000000000000000D+00 0.000000000000000D+00 -.535005761161308D+03
 0.101101963893048D+03 -.973978826036215D+01 0.337814215689181D+02 -.258903039854228D+02
 0.386712305887908D+03 0.236065211762908D+03 -.294638859213224D+03 -.837112057134931D+02
 0.871156614424434D+02 0.774251473006601D+02 -.395745318773323D+02 0.532366985410559D+01
 0.464420601841545D+03 -.334213043761124D+03 0.291202708723816D+03 0.104277839844810D+03
 0.318521649681681D+02 0.304624729579183D+02 0.922926079782170D+01 0.119117571049811D+01
-.252733658300D-04 0.000000000000D+00 0.000000000000D+00 0.840465767909D-06 0.000000000000D+00  7 -1 1 23 -13 13 23 21 2 0.82974910D-01 0.80474867D-01 0.27385280D+06 0.27385280D+06 0.27385280D+06 0.10874942D+01  1  2 13  2  7  2        1 -.226417544251D-03 0.100000000000D+01
-.870982856827D-05 0.000000000000D+00 0.000000000000D+00 0.840465767909D-06 0.000000000000D+00  7 -1 1 23 -13 13 23 21 2 0.82974910D-01 0.76963195D-01 0.25716497D+06 0.25716497D+06 0.25716497D+06 0.10895371D+01  1  2  8  2  7  2        1 -.835683867008D-04 0.100000000000D+01
0.275004935043D-04 0.000000000000D+00 0.000000000000D+00 0.840465767909D-06 0.524048606182D-08  7 -1 1 23 -13 13 23 21 2 0.85653048D-01 0.79270802D-01 0.27385280D+06 0.27385280D+06 0.27385280D+06 0.10874942D+01  1  2  1  2  7  2        1 0.235529681674D-03 0.100000000000D+01
  </mgrwgt>
  </event>
  <event>
  8     66 0.58687835E-06 0.35676647E+03 0.75467711E-02 0.92376772E-01
       -1 -1    0    0    0  501 0.00000000E+00 0.00000000E+00 0.16571986E+03 0.16572017E+03 0.32000000E+00 0.0000E+00 0.9000E+01
        1 -1    0    0  501    0 0.00000000E+00 0.00000000E+00 -.16100779E+04 0.16100780E+04 0.32000000E+00 0.0000E+00 0.9000E+01
       25  2    1    2    0    0 0.12107454E+02 0.29272439E+03 -.14052817E+04 0.14664142E+04 0.29953227E+03 0.0000E+00 0.0000E+00
       23  2    1    2    0    0 -.12107454E+02 -.29272439E+03 -.39076356E+02 0.30938400E+03 0.91418464E+02 0.0000E+00 0.0000E+00
       23  1    3    3    0    0 0.93593446E+02 0.50419205E+02 -.35504660E+03 0.38167417E+03 0.91188000E+02 0.0000E+00 0.9000E+01
      -13  1    4    4    0    0 -.32309588E+02 -.57426737E+02 -.31662088E+02 0.73104300E+02 0.10565837E+00 0.0000E+00 0.9000E+01
       13  1    4    4    0    0 0.20202134E+02 -.23529765E+03 -.74142679E+01 0.23627970E+03 0.10565837E+00 0.0000E+00 0.9000E+01
       23  1    3    3    0    0 -.81485992E+02 0.24230519E+03 -.10502351E+04 0.10847400E+04 0.91188000E+02 0.0000E+00 0.9000E+01
#aMCatNLO 1  0  0  2  2 0.41399380D+03 0.00000000D+00  -5  7  0 0.00000000D+00 0.00000000D+00 0.00000000D+00 0.00000000D+00 0.00000000D+00
  <mgrwgt>
 0.2179157956D-03    6    2    0
 0.516548352241897D+03 0.000000000000000D+00 0.000000000000000D+00 0.516548352241897D+03
 0.516548352241897D+03 0.000000000000000D+00 0.000000000000000D+00 -.516548352241897D+03
 0.159677066660715D+03 0.935934456734835D+02 0.504192048274362D+02 -.766791039651887D+02
 0.813928193504648D+02 -.323096582880533D+02 -.574264997325992D+02 0.477815252120358D+02
 0.395777687019286D+03 0.202022042315709D+02 -.235297892599690D+03 0.317595261653360D+03
 0.396249131453328D+03 -.814859916170011D+02 0.242305187504854D+03 -.288697682900207D+03
 0.000000000000000D+00 0.000000000000000D+00 0.000000000000000D+00 -.000000000000000D+00
 0.737536791094636D+03 0.000000000000000D+00 0.000000000000000D+00 0.737536791094636D+03
 0.793133309951616D+03 0.000000000000000D+00 0.000000000000000D+00 -.793133309951616D+03
 0.142940413909474D+03 0.787436732387816D+02 -.603817228734231D+01 -.766791039651887D+02
 0.113233962284288D+03 -.418602084133430D+02 -.937367538087522D+02 0.477815252120358D+02
 0.515503328962434D+03 -.245153569810034D+02 -.405309670768881D+03 0.317595261653360D+03
 0.341282162490768D+03 -.117677462968573D+03 0.104708766049965D+03 -.288697682900207D+03
 0.417710233399287D+03 0.105309355124138D+03 0.400375830815011D+03 -.555965188569804D+02
0.175268127357D-04 0.000000000000D+00 0.000000000000D+00 0.131655321851D-05 0.000000000000D+00  7 -1 1 23 -13 13 23 21 0 0.25495390D-01 0.24770433D+00 0.12728232D+06 0.12728232D+06 0.12728232D+06 0.11132247D+01  1  2  2  2  7  2        1 0.158805936962D-03 0.100000000000D+01
-.811560423414D-06 0.000000000000D+00 -.673075758208D-07 0.131655321851D-05 0.000000000000D+00  7 -1 1 23 -13 13 23 21 2 0.25495390D-01 0.24770433D+00 0.12728232D+06 0.12728232D+06 0.12728232D+06 0.11132247D+01  1  2  3  2  7  2        1 -.911276764395D-05 0.100000000000D+01
0.110531286152D-05 0.000000000000D+00 0.000000000000D+00 0.131655321851D-05 0.000000000000D+00  7 -1 1 23 -13 13 23 21 2 0.25495390D-01 0.24770433D+00 0.12728232D+06 0.12728232D+06 0.12728232D+06 0.11132247D+01  1  2 15  2  7  2        1 0.124112253263D-04 0.100000000000D+01
-.278403865118D-05 0.000000000000D+00 -.479431976272D-05 0.131655321851D-05 0.000000000000D+00  7 -1 1 23 -13 13 23 21 2 0.25495390D-01 0.44326985D+00 0.12728232D+06 0.12728232D+06 0.12728232D+06 0.11132247D+01  1  2  5  2  7  2        1 -.432488705213D-05 0.100000000000D+01
0.535291986912D-05 0.000000000000D+00 0.408318505410D-05 0.131655321851D-05 0.000000000000D+00  7 -1 1 23 -13 13 23 21 2 0.25495390D-01 0.24770433D+00 0.12728232D+06 0.12728232D+06 0.12728232D+06 0.11132247D+01  1  2  6  2  7  2        1 0.601063255139D-04 0.100000000000D+01
0.746658953862D-07 0.000000000000D+00 -.306405399262D-06 0.131655321851D-05 0.000000000000D+00  7 -1 21 23 -13 13 23 -1 2 0.25495390D-01 0.44326985D+00 0.12728232D+06 0.12728232D+06 0.12728232D+06 0.11132247D+01  1  2  5  4  7  2        1 0.299624840083D-07 0.100000000000D+01
  </mgrwgt>
  </event>
  <event>
  8     66 0.58687835E-06 0.20947434E+03 0.75467711E-02 0.98103136E-01
       -1 -1    0    0    0  501 0.00000000E+00 0.00000000E+00 0.28816692E+03 0.28816710E+03 0.32000000E+00 0.0000E+00 0.9000E+01
        1 -1    0    0  501    0 0.00000000E+00 0.00000000E+00 -.19539183E+03 0.19539209E+03 0.32000000E+00 0.0000E+00 0.9000E+01
       25  2    1    2    0    0 0.56327581E+02 0.58407130E+02 0.15700005E+03 0.34765429E+03 0.29938320E+03 0.0000E+00 0.0000E+00
       23  2    1    2    0    0 -.56327581E+02 -.58407130E+02 -.64224952E+02 0.13590490E+03 0.88097151E+02 0.0000E+00 0.0000E+00
       23  1    3    3    0    0 0.47314774E+02 -.88304387E+02 0.87313849E+02 0.16116858E+03 0.91188000E+02 0.0000E+00 0.9000E+01
      -13  1    4    4    0    0 -.24898087E+01 0.17370760E+02 0.69034574E+01 0.18857660E+02 0.10565837E+00 0.0000E+00 0.9000E+01
       13  1    4    4    0    0 -.53837773E+02 -.75777891E+02 -.71128410E+02 0.11704724E+03 0.10565837E+00 0.0000E+00 0.9000E+01
       23  1    3    3    0    0 0.90128072E+01 0.14671152E+03 0.69686199E+02 0.18648570E+03 0.91188000E+02 0.0000E+00 0.9000E+01
#aMCatNLO 1  0  0  1  1 0.25030904D+03 0.00000000D+00  -5  7  0 0.00000000D+00 0.00000000D+00 0.00000000D+00 0.00000000D+00 0.00000000D+00
  <mgrwgt>
 0.1879364036D-03    3    2    0
 0.237287941237634D+03 0.000000000000000D+00 0.000000000000000D+00 0.237287941237634D+03
 0.237287941237634D+03 0.000000000000000D+00 0.000000000000000D+00 -.237287941237634D+03
 0.147150331968986D+03 0.473147775370932D+02 -.883043833123179D+02 0.574596951700008D+02
 0.178648820079519D+02 -.248973730166533D+01 0.173708842917923D+02 0.334777482037030D+01
 0.133167942348230D+03 -.538378514638595D+02 -.757780223763656D+02 -.953565831169711D+02
 0.176392726150101D+03 0.901281122843159D+01 0.146711521396891D+03 0.345491131266000D+02
 0.000000000000000D+00 -.000000000000000D+00 0.000000000000000D+00 -.000000000000000D+00
 0.332313982084868D+03 0.000000000000000D+00 0.000000000000000D+00 0.332313982084868D+03
 0.512850353878570D+03 0.000000000000000D+00 0.000000000000000D+00 -.512850353878570D+03
 0.218564874167047D+03 0.101925346942170D+03 -.160514672093694D+03 0.574596951700008D+02
 0.120978205242240D+02 0.198445523597943D+01 0.114547633150940D+02 0.334777482037030D+01
 0.165305663185345D+03 -.926816095853302D+01 -.134711489969674D+03 -.953565831169711D+02
 0.140573236982220D+03 0.563438804272494D+02 0.841267468301527D+02 0.345491131266000D+02
 0.308622741104602D+03 -.150985521646865D+03 0.199644651918121D+03 -.180536371793702D+03
0.197765581052D-05 0.000000000000D+00 0.000000000000D+00 0.234804458525D-07 0.000000000000D+00  7 -1 1 23 -13 13 23 21 0 0.44333406D-01 0.30060315D-01 0.43879499D+05 0.43879499D+05 0.43879499D+05 0.11523171D+01  1  2  2  1  7  1       -1 0.185562371646D-03 0.100000000000D+01
-.107793395243D-06 0.000000000000D+00 -.759471904115D-08 0.234804458525D-07 0.000000000000D+00  7 -1 1 23 -13 13 23 21 2 0.44333406D-01 0.30060315D-01 0.43879499D+05 0.43879499D+05 0.43879499D+05 0.11523171D+01  1  2  3  1  7  1       -1 -.134299797048D-04 0.100000000000D+01
0.126848149273D-06 0.000000000000D+00 0.000000000000D+00 0.234804458525D-07 0.000000000000D+00  7 -1 1 23 -13 13 23 21 2 0.44333406D-01 0.30060315D-01 0.43879499D+05 0.43879499D+05 0.43879499D+05 0.11523171D+01  1  2 15  1  7  1       -1 0.158040116139D-04 0.100000000000D+01
  </mgrwgt>
  </event>
  <event>
  8     66 0.58687835E-06 0.21011187E+03 0.75467711E-02 0.99983993E-01
       -1 -1    0    0    0  501 0.00000000E+00 0.00000000E+00 0.10780095E+04 0.10780096E+04 0.32000000E+00 0.0000E+00 0.9000E+01
        1 -1    0    0  501    0 0.00000000E+00 0.00000000E+00 -.19191118E+03 0.19191145E+03 0.32000000E+00 0.0000E+00 0.9000E+01
       25  2    1    2    0    0 -.21999869E+02 -.27942721E+03 0.89070267E+02 0.42037416E+03 0.30036206E+03 0.0000E+00 0.0000E+00
       23  2    1    2    0    0 0.21999869E+02 0.27942721E+03 0.79702808E+03 0.84954686E+03 0.88952478E+02 0.0000E+00 0.0000E+00
       23  1    3    3    0    0 0.85160168E+01 -.60302395E+02 -.72666940E+02 0.13154709E+03 0.91188000E+02 0.0000E+00 0.9000E+01
      -13  1    4    4    0    0 0.76902804E+01 0.10846147E+02 0.70755916E+01 0.15061689E+02 0.10565837E+00 0.0000E+00 0.9000E+01
       13  1    4    4    0    0 0.14309589E+02 0.26858106E+03 0.78995249E+03 0.83448517E+03 0.10565837E+00 0.0000E+00 0.9000E+01
       23  1    3    3    0    0 -.30515886E+02 -.21912481E+03 0.16173721E+03 0.28882707E+03 0.91188000E+02 0.0000E+00 0.9000E+01
#aMCatNLO 1  0  0  1  2 0.88760647D+01 0.00000000D+00  -5  7  0 0.00000000D+00 0.00000000D+00 0.00000000D+00 0.00000000D+00 0.00000000D+00
  <mgrwgt>
 0.1714100652D-03    8    2    0
 0.454843138138412D+03 0.000000000000000D+00 0.000000000000000D+00 0.454843138138412D+03
 0.454843138138412D+03 0.000000000000000D+00 0.000000000000000D+00 -.454843138138412D+03
 0.254422294735544D+03 0.851601678502004D+01 -.603023952142442D+02 -.229579074185872D+03
 0.141334397338011D+02 0.769027104437813D+01 0.108457834378192D+02 -.479404125899136D+01
 0.395471672433020D+03 0.143095979600621D+02 0.268581426385194D+03 0.289926019018793D+03
 0.245658869374458D+03 -.305158857894603D+02 -.219124814608769D+03 -.555529035739291D+02
 0.000000000000000D+00 0.000000000000000D+00 0.000000000000000D+00 -.000000000000000D+00
 0.458107947830687D+03 0.000000000000000D+00 0.000000000000000D+00 0.458107947830687D+03
 0.460937921360313D+03 0.000000000000000D+00 0.000000000000000D+00 -.460937921360313D+03
 0.254815079150219D+03 0.684969936975466D+01 -.621450201772755D+02 -.229579074185872D+03
 0.140052927165421D+02 0.759819598797032D+01 0.107439662234906D+02 -.479404125899136D+01
 0.393453131082968D+03 0.117280923462805D+02 0.265726780179986D+03 0.289926019018793D+03
 0.247456075425503D+03 -.321294476809960D+02 -.220909102160170D+03 -.555529035739291D+02
 0.931629081576802D+01 0.595345997699056D+01 0.658337593396847D+01 -.282997352962533D+01
0.227310665774D-04 0.000000000000D+00 0.000000000000D+00 0.359557001043D-06 0.000000000000D+00  7 -1 1 23 -13 13 23 21 0 0.16584764D+00 0.29524821D-01 0.99605793D+05 0.99605793D+05 0.99605793D+05 0.11218628D+01  1  2  2  1  7  1       -1 0.123131538291D-03 0.100000000000D+01
-.105775862512D-05 0.000000000000D+00 -.872932808846D-07 0.359557001043D-06 0.000000000000D+00  7 -1 1 23 -13 13 23 21 2 0.16584764D+00 0.29524821D-01 0.99605793D+05 0.99605793D+05 0.99605793D+05 0.11218628D+01  1  2  3  1  7  1       -1 -.721133369357D-05 0.100000000000D+01
0.147637946954D-05 0.000000000000D+00 0.000000000000D+00 0.359557001043D-06 0.000000000000D+00  7 -1 1 23 -13 13 23 21 2 0.16584764D+00 0.29524821D-01 0.99605793D+05 0.99605793D+05 0.99605793D+05 0.11218628D+01  1  2 15  1  7  1       -1 0.100653067348D-04 0.100000000000D+01
0.100929714900D-04 0.000000000000D+00 0.000000000000D+00 0.359557001043D-06 0.000000000000D+00  7 -1 1 23 -13 13 23 21 2 0.16813794D+00 0.29524821D-01 0.10231154D+06 0.10231154D+06 0.10231154D+06 0.11209085D+01  1  2 12  1  7  1       -1 0.657634157058D-04 0.100000000000D+01
-.558944213902D-05 0.000000000000D+00 0.000000000000D+00 0.359557001043D-06 0.000000000000D+00  7 -1 1 23 -13 13 23 21 2 0.16584764D+00 0.29524821D-01 0.99605793D+05 0.99605793D+05 0.99605793D+05 0.11218628D+01  1  2  4  1  7  1       -1 -.381063613834D-04 0.100000000000D+01
0.297428538860D-07 0.000000000000D+00 0.000000000000D+00 0.359557001043D-06 0.305844668689D-07  7 -1 1 23 -13 13 23 21 2 0.16703808D+00 0.29920446D-01 0.10231154D+06 0.10231154D+06 0.10231154D+06 0.11209085D+01  1  2 11  1  7  1       -1 0.194402404152D-06 0.100000000000D+01
0.419587457950D-06 0.000000000000D+00 0.000000000000D+00 0.359557001043D-06 0.000000000000D+00  7 21 1 23 -13 13 23 1 2 0.16813794D+00 0.29524821D-01 0.10231154D+06 0.10231154D+06 0.10231154D+06 0.11209085D+01  1  2 12  3  7  1       -1 0.175672143113D-04 0.100000000000D+01
0.140090481495D-09 0.000000000000D+00 0.000000000000D+00 0.359557001043D-06 0.407053923684D-10  7 21 1 23 -13 13 23 1 2 0.16703808D+00 0.29920446D-01 0.10231154D+06 0.10231154D+06 0.10231154D+06 0.11209085D+01  1  2 11  3  7  1       -1 0.588287402415D-08 0.100000000000D+01
  </mgrwgt>
  </event>
  <event>
  8     66 0.58687835E-06 0.15545265E+03 0.75467711E-02 0.96181564E-01
       -1 -1    0    0    0  501 0.00000000E+00 0.00000000E+00 0.13110433E+03 0.13110472E+03 0.32000000E+00 0.0000E+00 0.9000E+01
        1 -1    0    0  501    0 0.00000000E+00 0.00000000E+00 -.90579149E+03 0.90579154E+03 0.32000000E+00 0.0000E+00 0.9000E+01
       25  2    1    2    0    0 -.23827235E+03 -.63497583E+02 -.61280470E+03 0.72544860E+03 0.29990067E+03 0.0000E+00 0.0000E+00
       23  2    1    2    0    0 0.23827235E+03 0.63497583E+02 -.16188246E+03 0.31144766E+03 0.99940286E+02 0.0000E+00 0.0000E+00
       23  1    3    3    0    0 -.26680230E+03 -.51825518E+02 -.40244474E+03 0.49411170E+03 0.91188000E+02 0.0000E+00 0.9000E+01
      -13  1    4    4    0    0 0.66744698E+02 -.26526409E+02 -.52679977E+02 0.89071298E+02 0.10565837E+00 0.0000E+00 0.9000E+01
       13  1    4    4    0    0 0.17152765E+03 0.90023991E+02 -.10920248E+03 0.22237636E+03 0.10565837E+00 0.0000E+00 0.9000E+01
       23  1    3    3    0    0 0.28529955E+02 -.11672065E+02 -.21035997E+03 0.23133690E+03 0.91188000E+02 0.0000E+00 0.9000E+01
#aMCatNLO 1  0  0  2  1 0.20027603D+03 0.00000000D+00  -5  7  0 0.00000000D+00 0.00000000D+00 0.00000000D+00 0.00000000D+00 0.00000000D+00
  <mgrwgt>
 0.1039110240D-03    9    2    0
 0.344606171511878D+03 0.000000000000000D+00 0.000000000000000D+00 0.344606171511878D+03
 0.344606171511878D+03 0.000000000000000D+00 0.000000000000000D+00 -.344606171511878D+03
 0.291018880124894D+03 -.266802306739177D+03 -.518255196328889D+02 -.500737643739957D+02
 0.747912961936353D+02 0.667445808963322D+02 -.265265180213966D+02 0.208624722637938D+02
 0.211812170002179D+03 0.171527773469463D+03 0.900241030149269D+02 0.856637564317496D+02
 0.111589996703047D+03 0.285299523733816D+02 -.116720653606414D+02 -.564524643215477D+02
 0.000000000000000D+00 0.000000000000000D+00 0.000000000000000D+00 -.000000000000000D+00
 0.405488739780831D+03 0.000000000000000D+00 0.000000000000000D+00 0.405488739780831D+03
 0.573916571089158D+03 0.000000000000000D+00 0.000000000000000D+00 -.573916571089158D+03
 0.356849348979024D+03 -.315587865446621D+03 -.130088907394196D+03 -.500737643739957D+02
 0.741666018985619D+02 0.555278026135547D+02 -.445208403462054D+02 0.208624722637938D+02
 0.172006887923130D+03 0.142625557953586D+03 0.436582242587856D+02 0.856637564317496D+02
 0.114698653401827D+03 0.114900394272123D+02 -.390080506328871D+02 -.564524643215477D+02
 0.261683818667445D+03 0.105944465452268D+03 0.169959574114503D+03 -.168427831308327D+03
0.242750457647D-05 0.000000000000D+00 0.000000000000D+00 0.782970125436D-08 0.000000000000D+00  7 -1 1 23 -13 13 23 21 0 0.20169931D-01 0.13935257D+00 0.10512996D+06 0.10512996D+06 0.10512996D+06 0.11199435D+01  1  2  2  2  7  2        1 0.100988926192D-03 0.100000000000D+01
-.134252707276D-06 0.000000000000D+00 -.932225675026D-08 0.782970125436D-08 0.000000000000D+00  7 -1 1 23 -13 13 23 21 2 0.20169931D-01 0.13935257D+00 0.10512996D+06 0.10512996D+06 0.10512996D+06 0.11199435D+01  1  2  3  2  7  2        1 -.700533586923D-05 0.100000000000D+01
0.160571540270D-06 0.000000000000D+00 0.000000000000D+00 0.782970125436D-08 0.000000000000D+00  7 -1 1 23 -13 13 23 21 2 0.20169931D-01 0.13935257D+00 0.10512996D+06 0.10512996D+06 0.10512996D+06 0.11199435D+01  1  2 15  2  7  2        1 0.837865837835D-05 0.100000000000D+01
0.576685471378D-06 0.000000000000D+00 0.000000000000D+00 0.782970125436D-08 0.000000000000D+00  7 -1 1 23 -13 13 23 21 2 0.20169931D-01 0.23759086D+00 0.19086803D+06 0.19086803D+06 0.19086803D+06 0.10993876D+01  1  2 12  2  7  2        1 0.100874308092D-04 0.100000000000D+01
-.152282444130D-05 0.000000000000D+00 0.000000000000D+00 0.782970125436D-08 0.000000000000D+00  7 -1 1 23 -13 13 23 21 2 0.20169931D-01 0.13935257D+00 0.10512996D+06 0.10512996D+06 0.10512996D+06 0.11199435D+01  1  2  4  2  7  2        1 -.794613151394D-04 0.100000000000D+01
-.165188614745D-05 0.000000000000D+00 -.755079462958D-06 0.782970125436D-08 0.000000000000D+00  7 -1 1 23 -13 13 23 21 2 0.20169931D-01 0.25145552D+00 0.10512996D+06 0.10512996D+06 0.10512996D+06 0.11199435D+01  1  2  5  2  7  2        1 -.266488116737D-04 0.100000000000D+01
0.187598923050D-05 0.000000000000D+00 0.640266991366D-06 0.782970125436D-08 0.000000000000D+00  7 -1 1 23 -13 13 23 21 2 0.20169931D-01 0.13935257D+00 0.10512996D+06 0.10512996D+06 0.10512996D+06 0.11199435D+01  1  2  6  2  7  2        1 0.978895317152D-04 0.100000000000D+01
0.342612398947D-07 0.000000000000D+00 0.000000000000D+00 0.782970125436D-08 0.000000000000D+00  7 -1 21 23 -13 13 23 -1 2 0.20169931D-01 0.23759086D+00 0.19086803D+06 0.19086803D+06 0.19086803D+06 0.10993876D+01  1  2 12  4  7  2        1 0.454641442920D-06 0.100000000000D+01
-.665870886277D-07 0.000000000000D+00 -.488545362940D-07 0.782970125436D-08 0.000000000000D+00  7 -1 21 23 -13 13 23 -1 2 0.20169931D-01 0.25145552D+00 0.10512996D+06 0.10512996D+06 0.10512996D+06 0.11199435D+01  1  2  5  4  7  2        1 -.772701821892D-06 0.100000000000D+01
  </mgrwgt>
  </event>
  <event>
  8     66 0.58687835E-06 0.14662276E+03 0.75467711E-02 0.10358849E+00
       -3 -1    0    0    0  501 0.00000000E+00 0.00000000E+00 0.17399405E+03 0.17399477E+03 0.50000000E+00 0.0000E+00 0.9000E+01
        3 -1    0    0  501    0 0.00000000E+00 0.00000000E+00 -.50764890E+03 0.50764914E+03 0.50000000E+00 0.0000E+00 0.9000E+01
       25  2    1    2    0    0 -.62595522E+02 -.15439861E+03 -.59806165E+02 0.34831301E+03 0.29998008E+03 0.0000E+00 0.0000E+00
       23  2    1    2    0    0 0.62595522E+02 0.15439861E+03 -.27384868E+03 0.33333090E+03 0.91428979E+02 0.0000E+00 0.0000E+00
       23  1    3    3    0    0 0.25795254E+02 -.12690660E+03 -.12608834E+03 0.20244555E+03 0.91188000E+02 0.0000E+00 0.9000E+01
      -13  1    4    4    0    0 0.28738448E+02 0.14987123E+03 -.24490835E+03 0.28856090E+03 0.10565837E+00 0.0000E+00 0.9000E+01
       13  1    4    4    0    0 0.33857074E+02 0.45273811E+01 -.28940329E+02 0.44769995E+02 0.10565837E+00 0.0000E+00 0.9000E+01
       23  1    3    3    0    0 -.88390776E+02 -.27492012E+02 0.66282174E+02 0.14586747E+03 0.91188000E+02 0.0000E+00 0.9000E+01
#aMCatNLO 1  0  0  1  2 0.10540108D+02 0.00000000D+00  -5  7  0 0.00000000D+00 0.00000000D+00 0.00000000D+00 0.00000000D+00 0.00000000D+00
  <mgrwgt>
 0.8604266008D-05    9    2    0
 0.297200634003920D+03 0.000000000000000D+00 0.000000000000000D+00 0.297200634003920D+03
 0.297200634003920D+03 0.000000000000000D+00 0.000000000000000D+00 -.297200634003920D+03
 0.161382210132418D+03 0.257952536869008D+02 -.126906596884089D+03 -.309562103260666D+02
 0.193440116351335D+03 0.287384421738337D+02 0.149871421116412D+03 -.118876985526999D+03
 0.350957989593009D+02 0.338570798694545D+02 0.452718779212988D+01 -.805715942499811D+01
 0.204483142564786D+03 -.883907757301889D+02 -.274920120244531D+02 0.157890355278064D+03
 0.000000000000000D+00 0.000000000000000D+00 -.000000000000000D+00 0.000000000000000D+00
 0.306162749770034D+03 0.000000000000000D+00 0.000000000000000D+00 0.306162749770034D+03
 0.300362581413222D+03 0.000000000000000D+00 0.000000000000000D+00 -.300362581413222D+03
 0.159164430984725D+03 0.246462724717476D+02 -.124307437598029D+03 -.309562103260666D+02
 0.195695149576947D+03 0.273436089316352D+02 0.153026732731739D+03 -.118876985526999D+03
 0.349320029301446D+02 0.336060691939752D+02 0.509500971947551D+01 -.805715942499811D+01
 0.204703127402154D+03 -.898574806566611D+02 -.241741164146094D+02 0.157890355278064D+03
 0.120306202892850D+02 0.426153005930314D+01 -.964018843857562D+01 0.580016835681207D+01
0.121682739168D-05 0.000000000000D+00 0.000000000000D+00 0.474533386817D-06 0.000000000000D+00  7 -3 3 23 -13 13 23 21 0 0.26768390D-01 0.78099904D-01 0.56426230D+05 0.56426230D+05 0.56426230D+05 0.11427050D+01  1  2  2  1  7  1       -3 0.107851848929D-04 0.100000000000D+01
-.634750651311D-07 0.000000000000D+00 -.467293758206D-08 0.474533386817D-06 0.000000000000D+00  7 -3 3 23 -13 13 23 21 2 0.26768390D-01 0.78099904D-01 0.56426230D+05 0.56426230D+05 0.56426230D+05 0.11427050D+01  1  2  3  1  7  1       -3 -.734632300469D-06 0.100000000000D+01
0.781561857964D-07 0.000000000000D+00 0.000000000000D+00 0.474533386817D-06 0.000000000000D+00  7 -3 3 23 -13 13 23 21 2 0.26768390D-01 0.78099904D-01 0.56426230D+05 0.56426230D+05 0.56426230D+05 0.11427050D+01  1  2 15  1  7  1       -3 0.904545091036D-06 0.100000000000D+01
0.267458122849D-05 0.000000000000D+00 0.000000000000D+00 0.474533386817D-06 0.000000000000D+00  7 -3 3 23 -13 13 23 21 2 0.27715032D-01 0.78099904D-01 0.59143824D+05 0.59143824D+05 0.59143824D+05 0.11409344D+01  1  2 12  1  7  1       -3 0.289632044225D-04 0.100000000000D+01
-.261263038537D-05 0.000000000000D+00 0.000000000000D+00 0.474533386817D-06 0.000000000000D+00  7 -3 3 23 -13 13 23 21 2 0.26768390D-01 0.78099904D-01 0.56426230D+05 0.56426230D+05 0.56426230D+05 0.11427050D+01  1  2  4  1  7  1       -3 -.302374273475D-04 0.100000000000D+01
-.297438188384D-04 0.000000000000D+00 -.411067665328D-05 0.474533386817D-06 0.000000000000D+00  7 -3 3 23 -13 13 23 21 2 0.27840770D-01 0.78099904D-01 0.56426230D+05 0.56426230D+05 0.56426230D+05 0.11427050D+01  1  2  5  1  7  1       -3 -.320250855034D-03 0.100000000000D+01
0.298853964410D-04 0.000000000000D+00 0.410750750418D-05 0.474533386817D-06 0.000000000000D+00  7 -3 3 23 -13 13 23 21 2 0.26768390D-01 0.78099904D-01 0.56426230D+05 0.56426230D+05 0.56426230D+05 0.11427050D+01  1  2  6  1  7  1       -3 0.345880346756D-03 0.100000000000D+01
0.554183308050D-07 0.000000000000D+00 0.000000000000D+00 0.474533386817D-06 0.000000000000D+00  7 21 3 23 -13 13 23 3 2 0.27715032D-01 0.78099904D-01 0.59143824D+05 0.59143824D+05 0.59143824D+05 0.11409344D+01  1  2 12  3  7  1       -3 0.998982764347D-05 0.100000000000D+01
-.204449887376D-06 0.000000000000D+00 -.285683224687D-07 0.474533386817D-06 0.000000000000D+00  7 21 3 23 -13 13 23 3 2 0.27840770D-01 0.78099904D-01 0.56426230D+05 0.56426230D+05 0.56426230D+05 0.11427050D+01  1  2  5  3  7  1       -3 -.366959281157D-04 0.100000000000D+01
  </mgrwgt>
  </event>
  <event>
  8     66 0.58687835E-06 0.20850058E+03 0.75467711E-02 0.97050918E-01
       -1 -1    0    0    0  501 0.00000000E+00 0.00000000E+00 0.13509659E+03 0.13509696E+03 0.32000000E+00 0.0000E+00 0.9000E+01
        1 -1    0    0  501    0 0.00000000E+00 0.00000000E+00 -.91438727E+03 0.91438732E+03 0.32000000E+00 0.0000E+00 0.9000E+01
       25  2    1    2    0    0 -.23720557E+03 -.10648307E+03 -.30237189E+03 0.49689190E+03 0.29642483E+03 0.0000E+00 0.0000E+00
       23  2    1    2    0    0 0.23720557E+03 0.10648307E+03 -.47691880E+03 0.55259239E+03 0.10149720E+03 0.0000E+00 0.0000E+00
       23  1    3    3    0    0 -.15984272E+03 -.25110435E+02 -.29505176E+02 0.18805860E+03 0.91188000E+02 0.0000E+00 0.9000E+01
      -11  1    4    4    0    0 0.12272180E+03 0.81745291E+02 -.35050433E+03 0.38025809E+03 0.51099893E-03 0.0000E+00 0.9000E+01
       11  1    4    4    0    0 0.11448377E+03 0.24737783E+02 -.12641447E+03 0.17233430E+03 0.51099893E-03 0.0000E+00 0.9000E+01
       23  1    3    3    0    0 -.77362846E+02 -.81372638E+02 -.27286671E+03 0.30883330E+03 0.91188000E+02 0.0000E+00 0.9000E+01
#aMCatNLO 1  0  0  1  2 0.19149711D+03 0.00000000D+00  -5  7  0 0.00000000D+00 0.00000000D+00 0.00000000D+00 0.00000000D+00 0.00000000D+00
  <mgrwgt>
 0.4257452850D-03    9    2    0
 0.351469522777354D+03 0.000000000000000D+00 0.000000000000000D+00 0.351469522777354D+03
 0.351469522777354D+03 0.000000000000000D+00 0.000000000000000D+00 -.351469522777354D+03
 0.248060532752830D+03 -.159842720791403D+03 -.251104353834116D+02 0.164434020842631D+03
 0.179148014739055D+03 0.122721795754495D+03 0.817452906820751D+02 -.101740254978252D+03
 0.117148875563989D+03 0.114483771517160D+03 0.247377830521642D+02 0.231672069479704D+01
 0.158581622498834D+03 -.773628464802529D+02 -.813726383508277D+02 -.650104865591769D+02
 0.000000000000000D+00 -.000000000000000D+00 0.000000000000000D+00 0.000000000000000D+00
 0.594306468351390D+03 0.000000000000000D+00 0.000000000000000D+00 0.594306468351390D+03
 0.404133245950269D+03 0.000000000000000D+00 0.000000000000000D+00 -.404133245950269D+03
 0.241692591176718D+03 -.127692410127854D+03 -.821958543418176D+02 0.164434020842631D+03
 0.182679086289060D+03 0.146474280702848D+03 0.395708753624359D+02 -.101740254978252D+03
 0.130850903698987D+03 0.130763953425593D+03 -.416896732694259D+01 0.231672069479704D+01
 0.173333830155110D+03 -.555739402018482D+02 -.120060564466527D+03 -.650104865591769D+02
 0.269883302981784D+03 -.939718837987392D+02 0.166854510772851D+03 0.190173222401121D+03
0.129794150625D-04 0.000000000000D+00 0.000000000000D+00 0.249102257551D-09 0.000000000000D+00  7 -1 1 23 -11 11 23 21 0 0.20784123D-01 0.14067500D+00 0.88492563D+05 0.88492563D+05 0.88492563D+05 0.11261052D+01  1  2  2  1  7  1       -1 0.507870184318D-03 0.100000000000D+01
-.696690183949D-06 0.000000000000D+00 -.498443713984D-07 0.249102257551D-09 0.000000000000D+00  7 -1 1 23 -11 11 23 21 2 0.20784123D-01 0.14067500D+00 0.88492563D+05 0.88492563D+05 0.88492563D+05 0.11261052D+01  1  2  3  1  7  1       -1 -.345696667230D-04 0.100000000000D+01
0.839890221239D-06 0.000000000000D+00 0.000000000000D+00 0.249102257551D-09 0.000000000000D+00  7 -1 1 23 -11 11 23 21 2 0.20784123D-01 0.14067500D+00 0.88492563D+05 0.88492563D+05 0.88492563D+05 0.11261052D+01  1  2 15  1  7  1       -1 0.416752319770D-04 0.100000000000D+01
0.315219124481D-05 0.000000000000D+00 0.000000000000D+00 0.249102257551D-09 0.000000000000D+00  7 -1 1 23 -11 11 23 21 2 0.35796061D-01 0.14067500D+00 0.16478252D+06 0.16478252D+06 0.16478252D+06 0.11043450D+01  1  2 12  1  7  1       -1 0.603429102110D-04 0.100000000000D+01
-.972429135685D-05 0.000000000000D+00 0.000000000000D+00 0.249102257551D-09 0.000000000000D+00  7 -1 1 23 -11 11 23 21 2 0.20784123D-01 0.14067500D+00 0.88492563D+05 0.88492563D+05 0.88492563D+05 0.11261052D+01  1  2  4  1  7  1       -1 -.482517938488D-03 0.100000000000D+01
-.901443638302D-05 0.000000000000D+00 -.432956157620D-05 0.249102257551D-09 0.000000000000D+00  7 -1 1 23 -11 11 23 21 2 0.39818869D-01 0.14067500D+00 0.88492563D+05 0.88492563D+05 0.88492563D+05 0.11261052D+01  1  2  5  1  7  1       -1 -.151961296846D-03 0.100000000000D+01
0.103428121037D-04 0.000000000000D+00 0.355202690232D-05 0.249102257551D-09 0.000000000000D+00  7 -1 1 23 -11 11 23 21 2 0.20784123D-01 0.14067500D+00 0.88492563D+05 0.88492563D+05 0.88492563D+05 0.11261052D+01  1  2  6  1  7  1       -1 0.513208848986D-03 0.100000000000D+01
0.190191511048D-06 0.000000000000D+00 0.000000000000D+00 0.249102257551D-09 0.000000000000D+00  7 21 1 23 -11 11 23 1 2 0.35796061D-01 0.14067500D+00 0.16478252D+06 0.16478252D+06 0.16478252D+06 0.11043450D+01  1  2 12  3  7  1       -1 0.371328460632D-04 0.100000000000D+01
-.386691734421D-06 0.000000000000D+00 -.305562690681D-06 0.249102257551D-09 0.000000000000D+00  7 21 1 23 -11 11 23 1 2 0.39818869D-01 0.14067500D+00 0.88492563D+05 0.88492563D+05 0.88492563D+05 0.11261052D+01  1  2  5  3  7  1       -1 -.654358345295D-04 0.100000000000D+01
  </mgrwgt>
  </event>
  <event>
  8     66 0.58687835E-06 0.15940477E+03 0.75467711E-02 0.96465056E-01
       -1 -1    0    0    0  501 0.00000000E+00 0.00000000E+00 0.78261544E+02 0.78262198E+02 0.32000000E+00 0.0000E+00 0.9000E+01
        1 -1    0    0  501    0 0.00000000E+00 0.00000000E+00 -.66925755E+03 0.66925763E+03 0.32000000E+00 0.0000E+00 0.9000E+01
       25  2    1    2    0    0 0.20790029E+02 -.30185199E+02 -.25173482E+03 0.39425009E+03 0.30119651E+03 0.0000E+00 0.0000E+00
       23  2    1    2    0    0 -.20790029E+02 0.30185199E+02 -.33926119E+03 0.35326974E+03 0.91422019E+02 0.0000E+00 0.0000E+00
       23  1    3    3    0    0 -.26705346E+02 0.54705002E+02 -.28914829E+00 0.10964099E+03 0.91188000E+02 0.0000E+00 0.9000E+01
      -11  1    4    4    0    0 -.26386471E+02 -.14969381E+02 -.26089080E+03 0.26264869E+03 0.51099893E-03 0.0000E+00 0.9000E+01
       11  1    4    4    0    0 0.55964420E+01 0.45154580E+02 -.78370390E+02 0.90621047E+02 0.51099893E-03 0.0000E+00 0.9000E+01
       23  1    3    3    0    0 0.47495375E+02 -.84890201E+02 -.25144567E+03 0.28460909E+03 0.91188000E+02 0.0000E+00 0.9000E+01
#aMCatNLO 1  0  0  2  2 0.37174017D+03 0.00000000D+00  -5  7  0 0.00000000D+00 0.00000000D+00 0.00000000D+00 0.00000000D+00 0.00000000D+00
  <mgrwgt>
 0.1248029533D-03    5    2    0
 0.228861098883909D+03 0.000000000000000D+00 0.000000000000000D+00 0.228861098883909D+03
 0.228861098883909D+03 0.000000000000000D+00 0.000000000000000D+00 -.228861098883909D+03
 0.178684653022459D+03 -.267053463644298D+02 0.547050017545682D+02 0.141092668627200D+03
 0.920857380362492D+02 -.263864709354456D+02 -.149693809897134D+02 -.869451259935737D+02
 0.468066490829361D+02 0.559644196932717D+01 0.451545801297458D+02 -.109820821779587D+02
 0.140145157626174D+03 0.474953753305482D+02 -.848902008946006D+02 -.431654604556679D+02
 0.000000000000000D+00 -.000000000000000D+00 0.000000000000000D+00 -.000000000000000D+00
 0.344401143439968D+03 0.000000000000000D+00 0.000000000000000D+00 0.344401143439968D+03
 0.991770686964274D+03 0.000000000000000D+00 0.000000000000000D+00 -.991770686964274D+03
 0.181752138932702D+03 0.525645247806323D+01 -.691651446149935D+02 0.141092668627200D+03
 0.125047326365446D+03 -.713215649985252D+01 -.895907988622138D+02 -.869451259935737D+02
 0.259249298794211D+02 0.120459281155166D+02 0.201591536559764D+02 -.109820821779587D+02
 0.256936832875571D+03 0.827066938964187D+02 -.221354084110738D+03 -.431654604556679D+02
 0.746510602351102D+03 -.928769179901460D+02 0.359950873931968D+03 -.647369543524307D+03
0.814431319576D-06 0.000000000000D+00 0.000000000000D+00 0.925423602492D-07 0.000000000000D+00  7 -1 1 23 -11 11 23 21 0 0.12040294D-01 0.10296276D+00 0.25409881D+05 0.25409881D+05 0.25409881D+05 0.11740869D+01  1  2  2  2  7  2        1 0.121862761758D-03 0.100000000000D+01
-.380502864333D-07 0.000000000000D+00 -.312763071186D-08 0.925423602492D-07 0.000000000000D+00  7 -1 1 23 -11 11 23 21 2 0.12040294D-01 0.10296276D+00 0.25409881D+05 0.25409881D+05 0.25409881D+05 0.11740869D+01  1  2  3  2  7  2        1 -.784828888040D-05 0.100000000000D+01
0.512719841325D-07 0.000000000000D+00 0.000000000000D+00 0.925423602492D-07 0.000000000000D+00  7 -1 1 23 -11 11 23 21 2 0.12040294D-01 0.10296276D+00 0.25409881D+05 0.25409881D+05 0.25409881D+05 0.11740869D+01  1  2 15  2  7  2        1 0.105754090353D-04 0.100000000000D+01
0.623026714856D-07 0.000000000000D+00 -.317786414256D-06 0.925423602492D-07 0.000000000000D+00  7 -1 1 23 -11 11 23 21 2 0.12040294D-01 0.49913323D+00 0.25409881D+05 0.25409881D+05 0.25409881D+05 0.11740869D+01  1  2  5  2  7  2        1 0.209823921906D-06 0.100000000000D+01
0.480089755820D-08 0.000000000000D+00 -.610171333227D-07 0.925423602492D-07 0.000000000000D+00  7 -1 21 23 -11 11 23 -1 2 0.12040294D-01 0.49913323D+00 0.25409881D+05 0.25409881D+05 0.25409881D+05 0.11740869D+01  1  2  5  4  7  2        1 0.324749670573D-08 0.100000000000D+01
  </mgrwgt>
  </event>
  <event>
  9     66 0.58687835E-06 0.65766713E+03 0.75467711E-02 0.88440025E-01
       -1 -1    0    0    0  501 0.00000000E+00 0.00000000E+00 0.76877500E+03 0.76877506E+03 0.32000000E+00 0.0000E+00 0.9000E+01
        1 -1    0    0  502    0 0.00000000E+00 0.00000000E+00 -.20760794E+04 0.20760794E+04 0.32000000E+00 0.0000E+00 0.9000E+01
       25  2    1    2    0    0 -.31506386E+03 -.80929679E+03 0.32094857E+03 0.97200913E+03 0.29591759E+03 0.0000E+00 0.0000E+00
       23  2    1    2    0    0 0.15425548E+03 0.40684074E+03 -.52845338E+03 0.69073289E+03 0.92383971E+02 0.0000E+00 0.0000E+00
       23  1    3    3    0    0 -.14579849E+02 -.32911740E+03 0.89551355E+02 0.35336318E+03 0.91188000E+02 0.0000E+00 0.9000E+01
      -11  1    4    4    0    0 0.15656136E+02 0.16738704E+03 -.20217063E+03 0.26293820E+03 0.51099893E-03 0.0000E+00 0.9000E+01
       11  1    4    4    0    0 0.13859935E+03 0.23945370E+03 -.32628276E+03 0.42779468E+03 0.51099893E-03 0.0000E+00 0.9000E+01
       23  1    3    3    0    0 -.30048401E+03 -.48017939E+03 0.23139722E+03 0.61864595E+03 0.91188000E+02 0.0000E+00 0.9000E+01
       21  1    1    2  502  501 0.16080838E+03 0.40245605E+03 -.10997996E+04 0.11821125E+04 0.75000000E+00 0.0000E+00 0.9000E+01
#aMCatNLO 2  0  0  2  1 0.43339383D+03 0.00000000D+00  -5  7  0 0.00000000D+00 0.00000000D+00 0.00000000D+00 0.00000000D+00 0.00000000D+00
  <mgrwgt>
 0.6202623725D-04    2    2    0
 0.795899261791770D+03 0.000000000000000D+00 0.000000000000000D+00 0.795899261791770D+03
 0.795899261791770D+03 0.000000000000000D+00 0.000000000000000D+00 -.795899261791770D+03
 0.296101719962380D+03 0.183361040558757D+02 -.246738458719608D+03 0.134702997358649D+03
 0.292204432919531D+03 0.420372681177618D+02 0.233411253209328D+03 -.170691199486885D+03
 0.478869947364939D+03 0.181709002915924D+03 0.347344484614501D+03 -.275045584870012D+03
 0.524622423336690D+03 -.242082375089562D+03 -.334017279104220D+03 0.311033786998247D+03
 0.000000000000000D+00 0.000000000000000D+00 0.000000000000000D+00 -.000000000000000D+00
 0.871528877474705D+03 0.000000000000000D+00 0.000000000000000D+00 0.871528877474705D+03
 0.183130778089367D+04 0.000000000000000D+00 0.000000000000000D+00 -.183130778089367D+04
 0.367411194725568D+03 -.145798488840066D+02 -.329117403330156D+03 0.134702997358649D+03
 0.239580929831303D+03 0.156561358339131D+02 0.167387041814205D+03 -.170691199486885D+03
 0.390125526182456D+03 0.138599345998833D+03 0.239453698470804D+03 -.275045584870012D+03
 0.652625586692949D+03 -.300484011649914D+03 -.480179390593369D+03 0.311033786998247D+03
 0.105309342093610D+04 0.160808378701175D+03 0.402456053638516D+03 -.959778903418965D+03
-.629713519719D-04 0.000000000000D+00 0.000000000000D+00 0.256115037393D-07 0.000000000000D+00  7 -1 1 23 -11 11 23 21 2 0.10800955D+00 0.31727199D+00 0.80438686D+06 0.80438686D+06 0.80438686D+06 0.10542154D+01  1  2 13  2  7  2        1 -.187093540319D-04 0.100000000000D+01
0.345562761223D-03 0.000000000000D+00 0.000000000000D+00 0.256115037393D-07 0.155705750689D-11  7 -1 1 23 -11 11 23 21 2 0.11827307D+00 0.31939679D+00 0.80438686D+06 0.80438686D+06 0.80438686D+06 0.10542154D+01  1  2  1  2  7  2        1 0.807355912856D-04 0.100000000000D+01
  </mgrwgt>
  </event>
  <event>
  8     66 0.58687835E-06 0.43476843E+02 0.75467711E-02 0.10157668E+00
       -1 -1    0    0    0  501 0.00000000E+00 0.00000000E+00 0.63030148E+03 0.63030156E+03 0.32000000E+00 0.0000E+00 0.9000E+01
        1 -1    0    0  501    0 0.00000000E+00 0.00000000E+00 -.10625353E+03 0.10625401E+03 0.32000000E+00 0.0000E+00 0.9000E+01
       25  2    1    2    0    0 0.14410965E+03 0.66254461E+02 0.31511167E+03 0.46235207E+03 0.29885922E+03 0.0000E+00 0.0000E+00
       23  2    1    2    0    0 -.14410965E+03 -.66254461E+02 0.20893629E+03 0.27420349E+03 0.79849471E+02 0.0000E+00 0.0000E+00
       23  1    3    3    0    0 -.10064500E+02 -.30761773E+02 0.21415244E+03 0.23499809E+03 0.91188000E+02 0.0000E+00 0.9000E+01
      -13  1    4    4    0    0 -.13936070E+02 -.69283109E+01 0.80376472E+02 0.81869433E+02 0.10565837E+00 0.0000E+00 0.9000E+01
       13  1    4    4    0    0 -.13017358E+03 -.59326151E+02 0.12855981E+03 0.19233406E+03 0.10565837E+00 0.0000E+00 0.9000E+01
       23  1    3    3    0    0 0.15417415E+03 0.97016235E+02 0.10095922E+03 0.22735399E+03 0.91188000E+02 0.0000E+00 0.9000E+01
#aMCatNLO 1  0  0  2  1 0.95755796D+02 0.00000000D+00  -5  7  0 0.00000000D+00 0.00000000D+00 0.00000000D+00 0.00000000D+00 0.00000000D+00
  <mgrwgt>
 0.4001588396D-03    9    2    0
 0.258789415238576D+03 0.000000000000000D+00 0.000000000000000D+00 0.258789415238576D+03
 0.258789415238576D+03 0.000000000000000D+00 0.000000000000000D+00 -.258789415238576D+03
 0.117591748009373D+03 -.100644970570599D+02 -.307617715796493D+02 0.668205594422097D+02
 0.351253917676146D+02 -.139358749101314D+02 -.692822257718304D+01 0.314894310720055D+02
 0.143540093917720D+03 -.130173787613327D+03 -.593262433325258D+02 -.117872996211339D+02
 0.221321596782443D+03 0.154174159580518D+03 0.970162374893581D+02 -.865226908930813D+02
 0.000000000000000D+00 -.000000000000000D+00 0.000000000000000D+00 -.000000000000000D+00
 0.303187491132442D+03 0.000000000000000D+00 0.000000000000000D+00 0.303187491132442D+03
 0.320479102198425D+03 0.000000000000000D+00 0.000000000000000D+00 -.320479102198425D+03
 0.123108492204116D+03 0.287056195010115D+01 -.486541079323375D+02 0.668205594422097D+02
 0.352496990475797D+02 -.101539677898000D+02 -.121595210362108D+02 0.314894310720055D+02
 0.140761154052585D+03 -.114895641588031D+03 -.804596395836552D+02 -.117872996211339D+02
 0.227242714650931D+03 0.178279685323870D+03 0.636724255809887D+02 -.865226908930813D+02
 0.973045333756560D+02 -.561006378961399D+02 0.776008429712147D+02 -.172916110659828D+02
0.657185295711D-05 0.000000000000D+00 0.000000000000D+00 0.739160157449D-09 0.000000000000D+00  7 -1 1 23 -13 13 23 21 0 0.96969501D-01 0.16346740D-01 0.52690538D+05 0.52690538D+05 0.52690538D+05 0.11452986D+01  1  2  2  2  7  2        1 0.304425394908D-03 0.100000000000D+01
-.358719228418D-06 0.000000000000D+00 -.252376457639D-07 0.739160157449D-09 0.000000000000D+00  7 -1 1 23 -13 13 23 21 2 0.96969501D-01 0.16346740D-01 0.52690538D+05 0.52690538D+05 0.52690538D+05 0.11452986D+01  1  2  3  2  7  2        1 -.217964181317D-04 0.100000000000D+01
0.426346316328D-06 0.000000000000D+00 0.000000000000D+00 0.739160157449D-09 0.000000000000D+00  7 -1 1 23 -13 13 23 21 2 0.96969501D-01 0.16346740D-01 0.52690538D+05 0.52690538D+05 0.52690538D+05 0.11452986D+01  1  2 15  2  7  2        1 0.259055602359D-04 0.100000000000D+01
0.311704170791D-05 0.000000000000D+00 0.000000000000D+00 0.739160157449D-09 0.000000000000D+00  7 -1 1 23 -13 13 23 21 2 0.96969501D-01 0.21363587D-01 0.79915448D+05 0.79915448D+05 0.79915448D+05 0.11298010D+01  1  2 12  2  7  2        1 0.129493289089D-03 0.100000000000D+01
-.359359620089D-05 0.000000000000D+00 0.000000000000D+00 0.739160157449D-09 0.000000000000D+00  7 -1 1 23 -13 13 23 21 2 0.96969501D-01 0.16346740D-01 0.52690538D+05 0.52690538D+05 0.52690538D+05 0.11452986D+01  1  2  4  2  7  2        1 -.218353294683D-03 0.100000000000D+01
-.664985904851D-05 0.000000000000D+00 -.306571751330D-05 0.739160157449D-09 0.000000000000D+00  7 -1 1 23 -13 13 23 21 2 0.96969501D-01 0.23615881D-01 0.52690538D+05 0.52690538D+05 0.52690538D+05 0.11452986D+01  1  2  5  2  7  2        1 -.250893708628D-03 0.100000000000D+01
0.746330461583D-05 0.000000000000D+00 0.286934374103D-05 0.739160157449D-09 0.000000000000D+00  7 -1 1 23 -13 13 23 21 2 0.96969501D-01 0.16346740D-01 0.52690538D+05 0.52690538D+05 0.52690538D+05 0.11452986D+01  1  2  6  2  7  2        1 0.453483658426D-03 0.100000000000D+01
0.110911196514D-06 0.000000000000D+00 0.000000000000D+00 0.739160157449D-09 0.000000000000D+00  7 -1 21 23 -13 13 23 -1 2 0.96969501D-01 0.21363587D-01 0.79915448D+05 0.79915448D+05 0.79915448D+05 0.11298010D+01  1  2 12  4  7  2        1 0.368850332545D-04 0.100000000000D+01
-.204654538179D-06 0.000000000000D+00 -.137294740561D-06 0.739160157449D-09 0.000000000000D+00  7 -1 21 23 -13 13 23 -1 2 0.96969501D-01 0.23615881D-01 0.52690538D+05 0.52690538D+05 0.52690538D+05 0.11452986D+01  1  2  5  4  7  2        1 -.589906749067D-04 0.100000000000D+01
  </mgrwgt>
  </event>
  <event>
  8     66 0.58687835E-06 0.18009737E+03 0.75467711E-02 0.10107130E+00
       -1 -1    0    0    0  501 0.00000000E+00 0.00000000E+00 0.87066620E+02 0.87067209E+02 0.32000000E+00 0.0000E+00 0.9000E+01
        1 -1    0    0  501    0 0.00000000E+00 0.00000000E+00 -.21278095E+04 0.21278095E+04 0.32000000E+00 0.0000E+00 0.9000E+01
       25  2    1    2    0    0 0.10437409E+03 -.16854288E+03 -.19421424E+04 0.19750191E+04 0.29913662E+03 0.0000E+00 0.0000E+00
       23  2    1    2    0    0 -.10437409E+03 0.16854288E+03 -.98600501E+02 0.23985765E+03 0.92244130E+02 0.0000E+00 0.0000E+00
       23  1    3    3    0    0 -.42246833E+02 0.19369548E+02 -.48239913E+03 0.49313705E+03 0.91188000E+02 0.0000E+00 0.9000E+01
      -11  1    4    4    0    0 0.65133471E+01 0.49552539E+01 0.11125796E+02 0.13811646E+02 0.51099893E-03 0.0000E+00 0.9000E+01
       11  1    4    4    0    0 -.11088744E+03 0.16358763E+03 -.10972630E+03 0.22604600E+03 0.51099893E-03 0.0000E+00 0.9000E+01
       23  1    3    3    0    0 0.14662092E+03 -.18791243E+03 -.14597433E+04 0.14818821E+04 0.91188000E+02 0.0000E+00 0.9000E+01
#aMCatNLO 1  0  0  2  1 0.24595842D+02 0.00000000D+00  -5  7  0 0.00000000D+00 0.00000000D+00 0.00000000D+00 0.00000000D+00 0.00000000D+00
  <mgrwgt>
 0.3278623188D-03    9    2    0
 0.430420563966832D+03 0.000000000000000D+00 0.000000000000000D+00 0.430420563966832D+03
 0.430420563966832D+03 0.000000000000000D+00 0.000000000000000D+00 -.430420563966832D+03
 0.125209143101213D+03 -.422468327544455D+02 0.193695480362576D+02 -.721256119781940D+02
 0.619115186363733D+02 0.651334707747961D+01 0.495525385987229D+01 0.613682157871199D+02
 0.321477291140639D+03 -.110887435133626D+03 0.163587626522046D+03 0.253556135594256D+03
 0.352243175055438D+03 0.146620920810592D+03 -.187912428418175D+03 -.242798739403182D+03
 0.000000000000000D+00 0.000000000000000D+00 0.000000000000000D+00 -.000000000000000D+00
 0.432675391223258D+03 0.000000000000000D+00 0.000000000000000D+00 0.432675391223258D+03
 0.503336026674750D+03 0.000000000000000D+00 0.000000000000000D+00 -.503336026674750D+03
 0.126424255280922D+03 -.458315589078900D+02 0.191103449518666D+02 -.721256119781940D+02
 0.617409596377443D+02 0.475181512004719D+01 0.482788164311838D+01 0.613682157871199D+02
 0.324431408832897D+03 -.120088939482489D+03 0.162922287467911D+03 0.253556135594256D+03
 0.348595807103378D+03 0.136636889100767D+03 -.188634350178185D+03 -.242798739403182D+03
 0.748189870430656D+02 0.245317941695645D+02 0.177383611528838D+01 -.706606354514920D+02
0.178240647610D-04 0.000000000000D+00 0.000000000000D+00 0.276878450157D-06 0.000000000000D+00  7 -1 1 23 -11 11 23 21 0 0.13394912D-01 0.32735536D+00 0.79342198D+05 0.79342198D+05 0.79342198D+05 0.11300634D+01  1  2  2  2  7  2        1 0.210158496548D-03 0.100000000000D+01
-.773780778136D-06 0.000000000000D+00 -.684491018664D-07 0.276878450157D-06 0.000000000000D+00  7 -1 1 23 -11 11 23 21 2 0.13394912D-01 0.32735536D+00 0.79342198D+05 0.79342198D+05 0.79342198D+05 0.11300634D+01  1  2  3  2  7  2        1 -.116510143454D-04 0.100000000000D+01
0.111713097394D-05 0.000000000000D+00 0.000000000000D+00 0.276878450157D-06 0.000000000000D+00  7 -1 1 23 -11 11 23 21 2 0.13394912D-01 0.32735536D+00 0.79342198D+05 0.79342198D+05 0.79342198D+05 0.11300634D+01  1  2 15  2  7  2        1 0.168209257336D-04 0.100000000000D+01
0.178749019919D-03 0.000000000000D+00 0.000000000000D+00 0.276878450157D-06 0.000000000000D+00  7 -1 1 23 -11 11 23 21 2 0.13394912D-01 0.38357726D+00 0.86358175D+05 0.86358175D+05 0.86358175D+05 0.11269869D+01  1  2 12  2  7  2        1 0.151962857529D-02 0.100000000000D+01
-.178818847267D-03 0.000000000000D+00 0.000000000000D+00 0.276878450157D-06 0.000000000000D+00  7 -1 1 23 -11 11 23 21 2 0.13394912D-01 0.32735536D+00 0.79342198D+05 0.79342198D+05 0.79342198D+05 0.11300634D+01  1  2  4  2  7  2        1 -.269252094856D-02 0.100000000000D+01
-.200511190233D-03 0.000000000000D+00 -.113467400328D-04 0.276878450157D-06 0.000000000000D+00  7 -1 1 23 -11 11 23 21 2 0.13394912D-01 0.38339560D+00 0.79342198D+05 0.79342198D+05 0.79342198D+05 0.11300634D+01  1  2  5  2  7  2        1 -.172361166826D-02 0.100000000000D+01
0.199942871640D-03 0.000000000000D+00 0.112065314340D-04 0.276878450157D-06 0.000000000000D+00  7 -1 1 23 -11 11 23 21 2 0.13394912D-01 0.32735536D+00 0.79342198D+05 0.79342198D+05 0.79342198D+05 0.11300634D+01  1  2  6  2  7  2        1 0.301059076622D-02 0.100000000000D+01
0.426242705114D-05 0.000000000000D+00 0.000000000000D+00 0.276878450157D-06 0.000000000000D+00  7 -1 21 23 -11 11 23 -1 2 0.13394912D-01 0.38357726D+00 0.86358175D+05 0.86358175D+05 0.86358175D+05 0.11269869D+01  1  2 12  4  7  2        1 0.132215629738D-04 0.100000000000D+01
-.468345566386D-05 0.000000000000D+00 -.269924514312D-06 0.276878450157D-06 0.000000000000D+00  7 -1 21 23 -11 11 23 -1 2 0.13394912D-01 0.38339560D+00 0.79342198D+05 0.79342198D+05 0.79342198D+05 0.11300634D+01  1  2  5  4  7  2        1 -.147743767592D-04 0.100000000000D+01
  </mgrwgt>
  </event>
  <event>
  8     66 0.58687835E-06 0.39212700E+03 0.75467711E-02 0.91676912E-01
       -1 -1    0    0    0  501 0.00000000E+00 0.00000000E+00 0.86635885E+02 0.86636476E+02 0.32000000E+00 0.0000E+00 0.9000E+01
        1 -1    0    0  501    0 0.00000000E+00 0.00000000E+00 -.29549610E+04 0.29549610E+04 0.32000000E+00 0.0000E+00 0.9000E+01
       25  2    1    2    0    0 0.33265676E+03 -.55374022E+02 -.24743076E+04 0.25151691E+04 0.30025102E+03 0.0000E+00 0.0000E+00
       23  2    1    2    0    0 -.33265676E+03 0.55374022E+02 -.39401749E+03 0.52642837E+03 0.90278703E+02 0.0000E+00 0.0000E+00
       23  1    3    3    0    0 0.20322399E+03 -.13436518E+03 -.17680527E+04 0.17870869E+04 0.91188000E+02 0.0000E+00 0.9000E+01
      -13  1    4    4    0    0 -.24067592E+02 -.17920888E+02 -.51558171E+02 0.59654533E+02 0.10565837E+00 0.0000E+00 0.9000E+01
       13  1    4    4    0    0 -.30858917E+03 0.73294909E+02 -.34245932E+03 0.46677384E+03 0.10565837E+00 0.0000E+00 0.9000E+01
       23  1    3    3    0    0 0.12943277E+03 0.78991155E+02 -.70625486E+03 0.72808215E+03 0.91188000E+02 0.0000E+00 0.9000E+01
#aMCatNLO 1  0  0  2  1 0.45433436D+03 0.00000000D+00  -5  7  0 0.00000000D+00 0.00000000D+00 0.00000000D+00 0.00000000D+00 0.00000000D+00
  <mgrwgt>
 0.2888404327D-03    3    2    0
 0.505970930775415D+03 0.000000000000000D+00 0.000000000000000D+00 0.505970930775415D+03
 0.505970930775415D+03 0.000000000000000D+00 0.000000000000000D+00 -.505970930775415D+03
 0.359950598174683D+03 0.203223992357735D+03 -.134365176513119D+03 -.248787439500256D+03
 0.331629024020408D+02 -.240672023480557D+02 -.179210125257769D+02 0.141203816136807D+02
 0.432291654697144D+03 -.308589561266062D+03 0.732950342439133D+02 0.293728438108395D+03
 0.186536706276964D+03 0.129432771256382D+03 0.789911547949823D+02 -.590613802218202D+02
 0.000000000000000D+00 -.000000000000000D+00 0.000000000000000D+00 0.000000000000000D+00
 0.111906636177321D+04 0.000000000000000D+00 0.000000000000000D+00 0.111906636177321D+04
 0.646054295367164D+03 0.000000000000000D+00 0.000000000000000D+00 -.646054295367164D+03
 0.496490030178158D+03 0.382525070551570D+03 -.173108287117432D+03 -.248787439500256D+03
 0.274895869929857D+02 -.113692331209489D+02 -.206647708521163D+02 0.141203816136807D+02
 0.331489622027407D+03 -.148687284462169D+03 0.387435878248493D+02 0.293728438108395D+03
 0.253785483592189D+03 0.221616911969150D+03 0.590721426196214D+02 -.590613802218202D+02
 0.655865934349634D+03 -.444085464937602D+03 0.959573275250774D+02 0.473012066406047D+03
0.918234049861D-04 0.000000000000D+00 0.000000000000D+00 0.129263002661D-05 0.000000000000D+00  7 -1 1 23 -13 13 23 21 0 0.13328644D-01 0.45460943D+00 0.15376359D+06 0.15376359D+06 0.15376359D+06 0.11067036D+01  1  2  2  2  7  2        1 0.284248175243D-03 0.100000000000D+01
-.469832378654D-05 0.000000000000D+00 -.352626052804D-06 0.129263002661D-05 0.000000000000D+00  7 -1 1 23 -13 13 23 21 2 0.13328644D-01 0.45460943D+00 0.15376359D+06 0.15376359D+06 0.15376359D+06 0.11067036D+01  1  2  3  2  7  2        1 -.178135256882D-04 0.100000000000D+01
0.590953334065D-05 0.000000000000D+00 0.000000000000D+00 0.129263002661D-05 0.000000000000D+00  7 -1 1 23 -13 13 23 21 2 0.13328644D-01 0.45460943D+00 0.15376359D+06 0.15376359D+06 0.15376359D+06 0.11067036D+01  1  2 15  2  7  2        1 0.224057831583D-04 0.100000000000D+01
  </mgrwgt>
  </event>
  <event>
  8     66 0.58687835E-06 0.12894761E+03 0.75467711E-02 0.10554090E+00
       -3 -1    0    0    0  501 0.00000000E+00 0.00000000E+00 0.29091152E+03 0.29091195E+03 0.50000000E+00 0.0000E+00 0.9000E+01
        3 -1    0    0  501    0 0.00000000E+00 0.00000000E+00 -.23045277E+03 0.23045331E+03 0.50000000E+00 0.0000E+00 0.9000E+01
       25  2    1    2    0    0 0.37294337E+02 0.65831869E+02 0.16828005E+03 0.36312542E+03 0.31275740E+03 0.0000E+00 0.0000E+00
       23  2    1    2    0    0 -.37294337E+02 -.65831869E+02 -.10782130E+03 0.15823985E+03 0.87691020E+02 0.0000E+00 0.0000E+00
       23  1    3    3    0    0 -.10640565E+03 0.37182922E+02 0.10618692E+03 0.17970989E+03 0.91188000E+02 0.0000E+00 0.9000E+01
      -13  1    4    4    0    0 -.58394717E+01 -.47630901E+02 -.38981233E+01 0.48145703E+02 0.10565837E+00 0.0000E+00 0.9000E+01
       13  1    4    4    0    0 -.31454865E+02 -.18200968E+02 -.10392317E+03 0.11009414E+03 0.10565837E+00 0.0000E+00 0.9000E+01
       23  1    3    3    0    0 0.14369998E+03 0.28648947E+02 0.62093126E+02 0.18341553E+03 0.91188000E+02 0.0000E+00 0.9000E+01
#aMCatNLO 1  0  0  2  1 0.17360463D+02 0.00000000D+00  -5  7  0 0.00000000D+00 0.00000000D+00 0.00000000D+00 0.00000000D+00 0.00000000D+00
  <mgrwgt>
 0.2765317912D-04    9    2    0
 0.258923965345884D+03 0.000000000000000D+00 0.000000000000000D+00 0.258923965345884D+03
 0.258923965345884D+03 0.000000000000000D+00 0.000000000000000D+00 -.258923965345884D+03
 0.168532582271601D+03 -.106404306310894D+03 0.371831723399508D+02 0.859273835070577D+02
 0.489279616079985D+02 -.583953271091426D+01 -.476311157488013D+02 -.954578950931938D+01
 0.122975994926687D+03 -.314551483818761D+02 -.182013609519137D+02 -.117483528326233D+03
 0.177411391885482D+03 0.143698987403685D+03 0.286493043607642D+02 0.411019343284949D+02
 0.000000000000000D+00 0.000000000000000D+00 0.000000000000000D+00 -.000000000000000D+00
 0.266721719947546D+03 0.000000000000000D+00 0.000000000000000D+00 0.266721719947546D+03
 0.268915673125320D+03 0.000000000000000D+00 0.000000000000000D+00 -.268915673125320D+03
 0.171940990353899D+03 -.112032171159624D+03 0.362454163829221D+02 0.859273835070577D+02
 0.494110034782165D+02 -.746502863590322D+01 -.479019677553359D+02 -.954578950931938D+01
 0.124185540550723D+03 -.355406100132886D+02 -.188821104164169D+02 -.117483528326233D+03
 0.172601312836876D+03 0.137913445276800D+03 0.276852750636941D+02 0.411019343284949D+02
 0.174985458531510D+02 0.171243645320162D+02 0.285338672513658D+01 -.219395317777439D+01
0.131297218429D-05 0.000000000000D+00 0.000000000000D+00 0.760305087485D-09 0.000000000000D+00  7 -3 3 23 -13 13 23 21 0 0.44755693D-01 0.35454347D-01 0.40380047D+05 0.40380047D+05 0.40380047D+05 0.11555489D+01  1  2  2  2  7  2        3 0.213593551067D-04 0.100000000000D+01
-.672441113168D-07 0.000000000000D+00 -.504215890120D-08 0.760305087485D-09 0.000000000000D+00  7 -3 3 23 -13 13 23 21 2 0.44755693D-01 0.35454347D-01 0.40380047D+05 0.40380047D+05 0.40380047D+05 0.11555489D+01  1  2  3  2  7  2        3 -.146070836831D-05 0.100000000000D+01
0.840019190492D-07 0.000000000000D+00 0.000000000000D+00 0.760305087485D-09 0.000000000000D+00  7 -3 3 23 -13 13 23 21 2 0.44755693D-01 0.35454347D-01 0.40380047D+05 0.40380047D+05 0.40380047D+05 0.11555489D+01  1  2 15  2  7  2        3 0.182472938829D-05 0.100000000000D+01
0.306562639781D-05 0.000000000000D+00 0.000000000000D+00 0.760305087485D-09 0.000000000000D+00  7 -3 3 23 -13 13 23 21 2 0.44755693D-01 0.37338148D-01 0.44658662D+05 0.44658662D+05 0.44658662D+05 0.11516362D+01  1  2 12  2  7  2        3 0.600985763767D-04 0.100000000000D+01
-.256346503711D-05 0.000000000000D+00 0.000000000000D+00 0.760305087485D-09 0.000000000000D+00  7 -3 3 23 -13 13 23 21 2 0.44755693D-01 0.35454347D-01 0.40380047D+05 0.40380047D+05 0.40380047D+05 0.11555489D+01  1  2  4  2  7  2        3 -.556847991332D-04 0.100000000000D+01
-.148328212667D-04 0.000000000000D+00 -.274831666553D-05 0.760305087485D-09 0.000000000000D+00  7 -3 3 23 -13 13 23 21 2 0.44755693D-01 0.37841810D-01 0.40380047D+05 0.40380047D+05 0.40380047D+05 0.11555489D+01  1  2  5  2  7  2        3 -.284793325072D-03 0.100000000000D+01
0.149859176376D-04 0.000000000000D+00 0.274249097857D-05 0.760305087485D-09 0.000000000000D+00  7 -3 3 23 -13 13 23 21 2 0.44755693D-01 0.35454347D-01 0.40380047D+05 0.40380047D+05 0.40380047D+05 0.11555489D+01  1  2  6  2  7  2        3 0.325531185874D-03 0.100000000000D+01
0.353620686658D-07 0.000000000000D+00 0.000000000000D+00 0.760305087485D-09 0.000000000000D+00  7 -3 21 23 -13 13 23 -3 2 0.44755693D-01 0.37338148D-01 0.44658662D+05 0.44658662D+05 0.44658662D+05 0.11516362D+01  1  2 12  4  7  2        3 0.113183411337D-04 0.100000000000D+01
-.160761058840D-06 0.000000000000D+00 -.305332974805D-07 0.760305087485D-09 0.000000000000D+00  7 -3 21 23 -13 13 23 -3 2 0.44755693D-01 0.37841810D-01 0.40380047D+05 0.40380047D+05 0.40380047D+05 0.11555489D+01  1  2  5  4  7  2        3 -.505401761876D-04 0.100000000000D+01
  </mgrwgt>
  </event>
  <event>
  8     66 0.58687835E-06 0.33242078E+03 0.75467711E-02 0.99357569E-01
       -1 -1    0    0    0  501 0.00000000E+00 0.00000000E+00 0.23466422E+03 0.23466444E+03 0.32000000E+00 0.0000E+00 0.9000E+01
        1 -1    0    0  501    0 0.00000000E+00 0.00000000E+00 -.51746874E+03 0.51746884E+03 0.32000000E+00 0.0000E+00 0.9000E+01
       25  2    1    2    0    0 0.24503059E+03 0.12309257E+03 -.19090164E+03 0.44879581E+03 0.29963724E+03 0.0000E+00 0.0000E+00
       23  2    1    2    0    0 -.24503059E+03 -.12309257E+03 -.91902890E+02 0.30333747E+03 0.91518901E+02 0.0000E+00 0.0000E+00
       23  1    3    3    0    0 0.35585778E+01 -.21284465E+02 0.53419648E+01 0.93858829E+02 0.91188000E+02 0.0000E+00 0.9000E+01
      -13  1    4    4    0    0 -.19864065E+03 -.88227318E+02 -.10857009E+03 0.24296017E+03 0.10565837E+00 0.0000E+00 0.9000E+01
       13  1    4    4    0    0 -.46389934E+02 -.34865249E+02 0.16667197E+02 0.60377299E+02 0.10565837E+00 0.0000E+00 0.9000E+01
       23  1    3    3    0    0 0.24147201E+03 0.14437703E+03 -.19624360E+03 0.35493698E+03 0.91188000E+02 0.0000E+00 0.9000E+01
#aMCatNLO 1  0  0  2  2 0.74395216D+01 0.00000000D+00  -5  7  0 0.00000000D+00 0.00000000D+00 0.00000000D+00 0.00000000D+00 0.00000000D+00
  <mgrwgt>
 0.1115786506D-03    6    2    0
 0.348470253762641D+03 0.000000000000000D+00 0.000000000000000D+00 0.348470253762641D+03
 0.348470253762641D+03 0.000000000000000D+00 0.000000000000000D+00 -.348470253762641D+03
 0.103459449056650D+03 0.355857787613849D+01 -.212844645012245D+02 0.438510473022147D+02
 0.218145525610991D+03 -.198640857361059D+03 -.882273890306372D+02 -.185797727595278D+02
 0.719217751684502D+02 -.463897312523924D+02 -.348651782784266D+02 0.424871029999156D+02
 0.303413757689192D+03 0.241472010737313D+03 0.144377031810288D+03 -.677583775426025D+02
 0.000000000000000D+00 0.000000000000000D+00 -.000000000000000D+00 0.000000000000000D+00
 0.359396493799224D+03 0.000000000000000D+00 0.000000000000000D+00 0.359396493799224D+03
 0.349758777849014D+03 0.000000000000000D+00 0.000000000000000D+00 -.349758777849014D+03
 0.103288261812601D+03 0.272263375350988D+01 -.205642067732142D+02 0.438510473022147D+02
 0.219149588505647D+03 -.200408975029511D+03 -.867039613513684D+02 -.185797727595278D+02
 0.720580888471607D+02 -.469718858048887D+02 -.343635881553770D+02 0.424871029999156D+02
 0.302484273975904D+03 0.239022179992618D+03 0.146487830221832D+03 -.677583775426025D+02
 0.121750585069258D+02 0.563604708827166D+01 -.485607394187224D+01 0.963771595020939D+01
0.379146698875D-05 0.000000000000D+00 0.000000000000D+00 0.573321970776D-06 0.000000000000D+00  7 -1 1 23 -13 13 23 21 0 0.36102212D-01 0.79610600D-01 0.11050357D+06 0.11050357D+06 0.11050357D+06 0.11181798D+01  1  2  2  2  7  2        1 0.139701763510D-03 0.100000000000D+01
-.210067673070D-06 0.000000000000D+00 -.145602315530D-07 0.573321970776D-06 0.000000000000D+00  7 -1 1 23 -13 13 23 21 2 0.36102212D-01 0.79610600D-01 0.11050357D+06 0.11050357D+06 0.11050357D+06 0.11181798D+01  1  2  3  2  7  2        1 -.967781063529D-05 0.100000000000D+01
0.245601327207D-06 0.000000000000D+00 0.000000000000D+00 0.573321970776D-06 0.000000000000D+00  7 -1 1 23 -13 13 23 21 2 0.36102212D-01 0.79610600D-01 0.11050357D+06 0.11050357D+06 0.11050357D+06 0.11181798D+01  1  2 15  2  7  2        1 0.113148448867D-04 0.100000000000D+01
-.702591721007D-06 0.000000000000D+00 0.000000000000D+00 0.573321970776D-06 0.000000000000D+00  7 -1 1 23 -13 13 23 21 2 0.36102212D-01 0.79610600D-01 0.11050357D+06 0.11050357D+06 0.11050357D+06 0.11181798D+01  1  2  4  2  7  2        1 -.323683769638D-04 0.100000000000D+01
0.571759764243D-07 0.000000000000D+00 0.000000000000D+00 0.573321970776D-06 0.690157466804D-07  7 -1 1 23 -13 13 23 21 2 0.37234192D-01 0.79904973D-01 0.11300185D+06 0.11300185D+06 0.11300185D+06 0.11173916D+01  1  2 11  2  7  2        1 0.248135397086D-05 0.100000000000D+01
0.101141875914D-08 0.000000000000D+00 0.000000000000D+00 0.573321970776D-06 0.484495258731D-10  7 -1 21 23 -13 13 23 -1 2 0.37234192D-01 0.79904973D-01 0.11300185D+06 0.11300185D+06 0.11300185D+06 0.11173916D+01  1  2 11  4  7  2        1 0.126875796858D-06 0.100000000000D+01
  </mgrwgt>
  </event>
  <event>
  8     66 0.58687835E-06 0.28799961E+03 0.75467711E-02 0.93756571E-01
       -1 -1    0    0    0  501 0.00000000E+00 0.00000000E+00 0.97838905E+03 0.97838911E+03 0.32000000E+00 0.0000E+00 0.9000E+01
        1 -1    0    0  501    0 0.00000000E+00 0.00000000E+00 -.10476509E+03 0.10476558E+03 0.32000000E+00 0.0000E+00 0.9000E+01
       25  2    1    2    0    0 -.57177496E+02 -.20183152E+03 0.32824765E+03 0.49179928E+03 0.30019125E+03 0.0000E+00 0.0000E+00
       23  2    1    2    0    0 0.57177496E+02 0.20183152E+03 0.54537631E+03 0.59135540E+03 0.90888201E+02 0.0000E+00 0.0000E+00
       23  1    3    3    0    0 0.52125922E+02 0.15722202E+02 0.98251739E+02 0.14468226E+03 0.91188000E+02 0.0000E+00 0.9000E+01
      -13  1    4    4    0    0 0.32120490E+02 0.10637348E+03 0.16901921E+03 0.20227344E+03 0.10565837E+00 0.0000E+00 0.9000E+01
       13  1    4    4    0    0 0.25057006E+02 0.95458047E+02 0.37635710E+03 0.38908196E+03 0.10565837E+00 0.0000E+00 0.9000E+01
       23  1    3    3    0    0 -.10930342E+03 -.21755373E+03 0.22999591E+03 0.34711703E+03 0.91188000E+02 0.0000E+00 0.9000E+01
#aMCatNLO 1  0  0  1  2 0.38451791D+03 0.00000000D+00  -5  7  0 0.00000000D+00 0.00000000D+00 0.00000000D+00 0.00000000D+00 0.00000000D+00
  <mgrwgt>
 0.2232455440D-03    3    2    0
 0.320158263876854D+03 0.000000000000000D+00 0.000000000000000D+00 0.320158263876854D+03
 0.320158263876854D+03 0.000000000000000D+00 0.000000000000000D+00 -.320158263876854D+03
 0.110692425667541D+03 0.521259219012538D+02 0.157222020682003D+02 -.311971534636615D+02
 0.111560717519323D+03 0.321204998724475D+02 0.106373491757715D+03 0.993717427852338D+01
 0.144680626507786D+03 0.250569961687381D+02 0.954580325562463D+02 0.105794114440152D+03
 0.273382758059057D+03 -.109303417942439D+03 -.217553726382161D+03 -.845341352550140D+02
 0.000000000000000D+00 -.000000000000000D+00 -.000000000000000D+00 -.000000000000000D+00
 0.540772767977312D+03 0.000000000000000D+00 0.000000000000000D+00 0.540772767977312D+03
 0.594361139198901D+03 0.000000000000000D+00 0.000000000000000D+00 -.594361139198901D+03
 0.161225863321335D+03 0.127097165554033D+03 0.234856505893543D+02 -.311971534636615D+02
 0.155896200850751D+03 0.105861688331326D+03 0.114009565171951D+03 0.993717427852338D+01
 0.189634730240138D+03 0.117231885032649D+03 0.105002958981000D+03 0.105794114440152D+03
 0.240142984849806D+03 0.322819963257780D+02 -.202892223898511D+03 -.845341352550140D+02
 0.388234127914184D+03 -.382472735243786D+03 -.396059508437939D+02 -.535883712215890D+02
0.138026841649D-04 0.000000000000D+00 0.000000000000D+00 0.622404214410D-06 0.000000000000D+00  7 -1 1 23 -13 13 23 21 0 0.15052143D+00 0.16117748D-01 0.82943773D+05 0.82943773D+05 0.82943773D+05 0.11284483D+01  1  2  2  1  7  1       -1 0.220326412973D-03 0.100000000000D+01
-.756368434542D-06 0.000000000000D+00 -.530059415234D-07 0.622404214410D-06 0.000000000000D+00  7 -1 1 23 -13 13 23 21 2 0.15052143D+00 0.16117748D-01 0.82943773D+05 0.82943773D+05 0.82943773D+05 0.11284483D+01  1  2  3  1  7  1       -1 -.153744563474D-04 0.100000000000D+01
0.899979273726D-06 0.000000000000D+00 0.000000000000D+00 0.622404214410D-06 0.000000000000D+00  7 -1 1 23 -13 13 23 21 2 0.15052143D+00 0.16117748D-01 0.82943773D+05 0.82943773D+05 0.82943773D+05 0.11284483D+01  1  2 15  1  7  1       -1 0.182935873915D-04 0.100000000000D+01
  </mgrwgt>
  </event>
  <event>
  9     66 0.58687835E-06 0.53652631E+03 0.75467711E-02 0.88998786E-01
       21 -1    0    0  502  501 0.00000000E+00 0.00000000E+00 0.23058372E+04 0.23058373E+04 0.75000000E+00 0.0000E+00 0.9000E+01
        1 -1    0    0  501    0 0.00000000E+00 0.00000000E+00 -.78934310E+03 0.78934317E+03 0.32000000E+00 0.0000E+00 0.9000E+01
       25  2    1    2    0    0 0.14482951E+03 -.77534469E+03 -.43070117E+03 0.94735182E+03 0.29972818E+03 0.0000E+00 0.0000E+00
       23  2    1    2    0    0 0.11625027E+03 0.30549972E+03 0.50216111E+03 0.60606319E+03 0.91118680E+02 0.0000E+00 0.0000E+00
       23  1    3    3    0    0 0.67781150E+02 -.63142081E+03 -.40475233E+03 0.75856853E+03 0.91188000E+02 0.0000E+00 0.9000E+01
      -11  1    4    4    0    0 0.11990305E+03 0.30020491E+03 0.50453024E+03 0.59920822E+03 0.51099893E-03 0.0000E+00 0.9000E+01
       11  1    4    4    0    0 -.36527797E+01 0.52948164E+01 -.23691348E+01 0.68549748E+01 0.51099893E-03 0.0000E+00 0.9000E+01
       23  1    3    3    0    0 0.77048358E+02 -.14392389E+03 -.25948848E+02 0.18878329E+03 0.91188000E+02 0.0000E+00 0.9000E+01
        1  1    1    2  502    0 -.26107978E+03 0.46984497E+03 0.14450342E+04 0.15417655E+04 0.32000000E+00 0.0000E+00 0.9000E+01
#aMCatNLO 2  0  0  1  2 0.53750995D+03 0.00000000D+00  -5  7  0 0.00000000D+00 0.00000000D+00 0.00000000D+00 0.00000000D+00 0.00000000D+00
  <mgrwgt>
 0.6787901309D-05    1    2    0
 0.727852101066273D+03 0.000000000000000D+00 0.000000000000000D+00 0.727852101066273D+03
 0.727852101066273D+03 0.000000000000000D+00 0.000000000000000D+00 -.727852101066273D+03
 0.613400122853556D+03 -.530077103420205D+02 -.414046488016865D+03 -.440113789579415D+03
 0.690051486953053D+03 0.994384494064983D+01 0.498089934167313D+03 0.477471037943788D+03
 0.979548503770793D+01 -.510831273947063D+01 0.791422601265096D+01 -.268732110109682D+01
 0.142457107288228D+03 0.481721781408413D+02 -.919576721630986D+02 -.346699272632758D+02
 0.000000000000000D+00 -.000000000000000D+00 0.000000000000000D+00 0.000000000000000D+00
 0.220209577857337D+04 0.000000000000000D+00 0.000000000000000D+00 0.220209577857337D+04
 0.826529409805192D+03 0.000000000000000D+00 0.000000000000000D+00 -.826529409805192D+03
 0.778011515066209D+03 0.677811503957850D+02 -.631420805885178D+03 -.440113789579415D+03
 0.576609329642147D+03 0.119903049541305D+03 0.300204906132368D+03 0.477471037943788D+03
 0.697133951181581D+01 -.365277968201001D+01 0.529481637861959D+01 -.268732110109682D+01
 0.190178311674957D+03 0.770483584189328D+02 -.143923887857589D+03 -.346699272632758D+02
 0.147685469248343D+04 -.261079778674013D+03 0.469844971231780D+03 0.137556636876818D+04
0.309847666793D-04 0.000000000000D+00 0.000000000000D+00 0.774156594908D-05 0.487899064844D-10  7 21 1 23 -11 11 23 1 2 0.35474420D+00 0.12143741D+00 0.71890056D+06 0.71890056D+06 0.71890056D+06 0.10575404D+01  1  2  1  3  7  1       -1 0.678790130876D-05 0.100000000000D+01
  </mgrwgt>
  </event>
  <event>
  8     66 0.58687835E-06 0.30450474E+03 0.75467711E-02 0.97127342E-01
       -1 -1    0    0    0  501 0.00000000E+00 0.00000000E+00 0.20476590E+03 0.20476615E+03 0.32000000E+00 0.0000E+00 0.9000E+01
        1 -1    0    0  501    0 0.00000000E+00 0.00000000E+00 -.85009867E+03 0.85009873E+03 0.32000000E+00 0.0000E+00 0.9000E+01
       25  2    1    2    0    0 -.20677579E+03 0.22436736E+03 -.59548431E+03 0.73295320E+03 0.29920209E+03 0.0000E+00 0.0000E+00
       23  2    1    2    0    0 0.20677579E+03 -.22436736E+03 -.49848465E+02 0.32191168E+03 0.89695729E+02 0.0000E+00 0.0000E+00
       23  1    3    3    0    0 -.20653740E+02 0.12728489E+03 -.40663397E+03 0.43622753E+03 0.91188000E+02 0.0000E+00 0.9000E+01
      -13  1    4    4    0    0 0.15332280E+03 -.16044572E+03 -.76000954E+02 0.23457806E+03 0.10565837E+00 0.0000E+00 0.9000E+01
       13  1    4    4    0    0 0.53452987E+02 -.63921637E+02 0.26152489E+02 0.87333621E+02 0.10565837E+00 0.0000E+00 0.9000E+01
       23  1    3    3    0    0 -.18612205E+03 0.97082462E+02 -.18885034E+03 0.29672567E+03 0.91188000E+02 0.0000E+00 0.9000E+01
#aMCatNLO 1  0  0  1  2 0.11010346D+03 0.00000000D+00  -5  7  0 0.00000000D+00 0.00000000D+00 0.00000000D+00 0.00000000D+00 0.00000000D+00
  <mgrwgt>
 0.2577109746D-03    9    2    0
 0.417218626129616D+03 0.000000000000000D+00 0.000000000000000D+00 0.417218626129616D+03
 0.417218626129616D+03 0.000000000000000D+00 0.000000000000000D+00 -.417218626129616D+03
 0.236982317069616D+03 -.206537401333786D+02 0.127284894788360D+03 -.176684311235897D+03
 0.237767878786174D+03 0.153322939544730D+03 -.160445853780809D+03 0.853391375418508D+02
 0.130629479253234D+03 0.534528488457566D+02 -.639215028584694D+02 0.100602660365214D+03
 0.229057577150207D+03 -.186122048257108D+03 0.970824618509186D+02 -.925748667116798D+01
 0.000000000000000D+00 0.000000000000000D+00 -.000000000000000D+00 0.000000000000000D+00
 0.493319699642913D+03 0.000000000000000D+00 0.000000000000000D+00 0.493319699642913D+03
 0.462646442640684D+03 0.000000000000000D+00 0.000000000000000D+00 -.462646442640684D+03
 0.245902516547132D+03 -.513525615096416D+02 0.135271448908141D+03 -.176684311235897D+03
 0.214919351920008D+03 0.124543894382600D+03 -.152958745435968D+03 0.853391375418508D+02
 0.122812296047893D+03 0.373405934017860D+02 -.597297653804137D+02 0.100602660365214D+03
 0.258035782399260D+03 -.217088421597880D+03 0.105138621843128D+03 -.925748667116798D+01
 0.114296195369303D+03 0.106556495323136D+03 -.277215599348880D+02 0.306732570022298D+02
0.829821144845D-05 0.000000000000D+00 0.000000000000D+00 0.183815878436D-06 0.000000000000D+00  7 -1 1 23 -13 13 23 21 0 0.31502470D-01 0.13078443D+00 0.11973527D+06 0.11973527D+06 0.11973527D+06 0.11153590D+01  1  2  2  1  7  1       -1 0.183818250061D-03 0.100000000000D+01
-.441391707706D-06 0.000000000000D+00 -.318673169313D-07 0.183815878436D-06 0.000000000000D+00  7 -1 1 23 -13 13 23 21 2 0.31502470D-01 0.13078443D+00 0.11973527D+06 0.11973527D+06 0.11973527D+06 0.11153590D+01  1  2  3  1  7  1       -1 -.121634742378D-04 0.100000000000D+01
0.531773170257D-06 0.000000000000D+00 0.000000000000D+00 0.183815878436D-06 0.000000000000D+00  7 -1 1 23 -13 13 23 21 2 0.31502470D-01 0.13078443D+00 0.11973527D+06 0.11973527D+06 0.11973527D+06 0.11153590D+01  1  2 15  1  7  1       -1 0.146541249957D-04 0.100000000000D+01
0.653560107747D-05 0.000000000000D+00 0.000000000000D+00 0.183815878436D-06 0.000000000000D+00  7 -1 1 23 -13 13 23 21 2 0.38709037D-01 0.13078443D+00 0.16268828D+06 0.16268828D+06 0.16268828D+06 0.11047797D+01  1  2 12  1  7  1       -1 0.123414849970D-03 0.100000000000D+01
-.661148182333D-05 0.000000000000D+00 0.000000000000D+00 0.183815878436D-06 0.000000000000D+00  7 -1 1 23 -13 13 23 21 2 0.31502470D-01 0.13078443D+00 0.11973527D+06 0.11973527D+06 0.11973527D+06 0.11153590D+01  1  2  4  1  7  1       -1 -.182193247920D-03 0.100000000000D+01
-.137156758185D-04 0.000000000000D+00 -.478447026988D-05 0.183815878436D-06 0.000000000000D+00  7 -1 1 23 -13 13 23 21 2 0.41034945D-01 0.13078443D+00 0.11973527D+06 0.11973527D+06 0.11973527D+06 0.11153590D+01  1  2  5  1  7  1       -1 -.240501394105D-03 0.100000000000D+01
0.146287857691D-04 0.000000000000D+00 0.462202205600D-05 0.183815878436D-06 0.000000000000D+00  7 -1 1 23 -13 13 23 21 2 0.31502470D-01 0.13078443D+00 0.11973527D+06 0.11973527D+06 0.11973527D+06 0.11153590D+01  1  2  6  1  7  1       -1 0.403126872857D-03 0.100000000000D+01
0.191309650932D-06 0.000000000000D+00 0.000000000000D+00 0.183815878436D-06 0.000000000000D+00  7 21 1 23 -13 13 23 1 2 0.38709037D-01 0.13078443D+00 0.16268828D+06 0.16268828D+06 0.16268828D+06 0.11047797D+01  1  2 12  3  7  1       -1 0.359697816901D-04 0.100000000000D+01
-.395818991154D-06 0.000000000000D+00 -.168703795797D-06 0.183815878436D-06 0.000000000000D+00  7 21 1 23 -13 13 23 1 2 0.41034945D-01 0.13078443D+00 0.11973527D+06 0.11973527D+06 0.11973527D+06 0.11153590D+01  1  2  5  3  7  1       -1 -.684147887614D-04 0.100000000000D+01
  </mgrwgt>
  </event>
  <event>
  8     66 0.58687835E-06 0.18739862E+03 0.75467711E-02 0.91204262E-01
       -1 -1    0    0    0  501 0.00000000E+00 0.00000000E+00 0.34795648E+03 0.34795662E+03 0.32000000E+00 0.0000E+00 0.9000E+01
        1 -1    0    0  501    0 0.00000000E+00 0.00000000E+00 -.32771084E+03 0.32771100E+03 0.32000000E+00 0.0000E+00 0.9000E+01
       25  2    1    2    0    0 -.79676446E+02 0.17628985E+02 0.26114690E+03 0.40574518E+03 0.29962032E+03 0.0000E+00 0.0000E+00
       23  2    1    2    0    0 0.79676446E+02 -.17628985E+02 -.24090126E+03 0.26992244E+03 0.90363637E+02 0.0000E+00 0.0000E+00
       23  1    3    3    0    0 -.30484468E+02 -.68744912E+02 0.24223722E+03 0.26953531E+03 0.91188000E+02 0.0000E+00 0.9000E+01
      -13  1    4    4    0    0 -.55998708E+01 0.25527727E+02 -.54858831E+02 0.60766158E+02 0.10565837E+00 0.0000E+00 0.9000E+01
       13  1    4    4    0    0 0.85276317E+02 -.43156712E+02 -.18604243E+03 0.20915628E+03 0.10565837E+00 0.0000E+00 0.9000E+01
       23  1    3    3    0    0 -.49191979E+02 0.86373897E+02 0.18909682E+02 0.13620987E+03 0.91188000E+02 0.0000E+00 0.9000E+01
#aMCatNLO 1  0  0  2  2 0.62313524D+03 0.00000000D+00  -5  7  0 0.00000000D+00 0.00000000D+00 0.00000000D+00 0.00000000D+00 0.00000000D+00
  <mgrwgt>
 0.2938882957D-03    3    2    0
 0.337682117533452D+03 0.000000000000000D+00 0.000000000000000D+00 0.337682117533452D+03
 0.337682117533452D+03 0.000000000000000D+00 0.000000000000000D+00 -.337682117533452D+03
 0.262394764143532D+03 -.304844678838054D+02 -.687449118126094D+02 0.234266077833854D+03
 0.624377694422810D+02 -.559999488150969D+01 0.255278207111957D+02 -.567048982010510D+02
 0.214827507099849D+03 0.852764413479580D+02 -.431568059155768D+02 -.192396144610357D+03
 0.135704194381243D+03 -.491919785826429D+02 0.863738970169905D+02 0.148349649775535D+02
 0.000000000000000D+00 -.000000000000000D+00 0.000000000000000D+00 0.000000000000000D+00
 0.106976516383614D+04 0.000000000000000D+00 0.000000000000000D+00 0.106976516383614D+04
 0.618518897372874D+03 0.000000000000000D+00 0.000000000000000D+00 -.618518897372874D+03
 0.334970336162706D+03 0.201969117035661D+03 -.906518356412829D+02 0.234266077833854D+03
 0.776005638937504D+02 0.488933335593714D+02 0.203922526977411D+02 -.567048982010510D+02
 0.374371182405234D+03 0.314552218481733D+03 -.647642463307018D+02 -.192396144610357D+03
 0.131978139447203D+03 0.549716528148606D+02 0.765572932440966D+02 0.148349649775535D+02
 0.769363839300121D+03 -.620386321891626D+03 0.584665360301471D+02 0.451246266463267D+03
0.815451490224D-05 0.000000000000D+00 0.000000000000D+00 0.566528631731D-06 0.000000000000D+00  7 -1 1 23 -13 13 23 21 0 0.53531789D-01 0.50417076D-01 0.35118244D+05 0.35118244D+05 0.35118244D+05 0.11610413D+01  1  2  2  2  7  2        1 0.282124744774D-03 0.100000000000D+01
-.262025035837D-06 0.000000000000D+00 -.313154843577D-07 0.566528631731D-06 0.000000000000D+00  7 -1 1 23 -13 13 23 21 2 0.53531789D-01 0.50417076D-01 0.35118244D+05 0.35118244D+05 0.35118244D+05 0.11610413D+01  1  2  3  2  7  2        1 -.122202805658D-04 0.100000000000D+01
0.514256958326D-06 0.000000000000D+00 0.000000000000D+00 0.566528631731D-06 0.000000000000D+00  7 -1 1 23 -13 13 23 21 2 0.53531789D-01 0.50417076D-01 0.35118244D+05 0.35118244D+05 0.35118244D+05 0.11610413D+01  1  2 15  2  7  2        1 0.239838315204D-04 0.100000000000D+01
  </mgrwgt>
  </event>
  <event>
  8     66 -.58687835E-06 0.91720130E+02 0.75467711E-02 0.10795975E+00
       -1 -1    0    0    0  501 0.00000000E+00 0.00000000E+00 0.11327944E+02 0.11332463E+02 0.32000000E+00 0.0000E+00 0.9000E+01
        1 -1    0    0  501    0 0.00000000E+00 0.00000000E+00 -.43088066E+04 0.43088066E+04 0.32000000E+00 0.0000E+00 0.9000E+01
       25  2    1    2    0    0 -.31520958E+02 0.31228118E+02 -.36475921E+04 0.36599577E+04 0.29731054E+03 0.0000E+00 0.0000E+00
       23  2    1    2    0    0 0.31520958E+02 -.31228118E+02 -.64988656E+03 0.66018137E+03 0.10732256E+03 0.0000E+00 0.0000E+00
       23  1    3    3    0    0 0.75170821E+02 0.20171598E+02 -.26230068E+04 0.26257451E+04 0.91188000E+02 0.0000E+00 0.9000E+01
      -11  1    4    4    0    0 0.33547944E+02 0.20866028E+02 -.49862512E+03 0.50018783E+03 0.51099893E-03 0.0000E+00 0.9000E+01
       11  1    4    4    0    0 -.20269856E+01 -.52094146E+02 -.15126145E+03 0.15999354E+03 0.51099893E-03 0.0000E+00 0.9000E+01
       23  1    3    3    0    0 -.10669178E+03 0.11056520E+02 -.10245853E+04 0.10342126E+04 0.91188000E+02 0.0000E+00 0.9000E+01
#aMCatNLO 1  0  0  1  2 0.50067115D+01 0.00000000D+00  -5  7  0 0.00000000D+00 0.00000000D+00 0.00000000D+00 0.00000000D+00 0.00000000D+00
  <mgrwgt>
 -.4418594245D-04   11    2    0
 0.220951819467631D+03 0.000000000000000D+00 0.000000000000000D+00 0.220951819467631D+03
 0.220951819467631D+03 0.000000000000000D+00 0.000000000000000D+00 -.220951819467631D+03
 0.161275848328579D+03 0.751708189507941D+02 0.201715989808659D+02 -.107875402585227D+03
 0.408464164392061D+02 0.335479432492298D+02 0.208660248060011D+02 -.103718006376356D+02
 0.931232898078851D+02 -.202698206728445D+01 -.520941456020923D+02 0.771624159959385D+02
 0.146658084359591D+03 -.106691780132739D+03 0.110565218152253D+02 0.410847872269242D+02
 0.000000000000000D+00 -.000000000000000D+00 0.000000000000000D+00 0.000000000000000D+00
 0.224989010653614D+03 0.000000000000000D+00 0.000000000000000D+00 0.224989010653614D+03
 0.222523736884608D+03 0.000000000000000D+00 0.000000000000000D+00 -.222523736884608D+03
 0.162004601836543D+03 0.768870245296482D+02 0.195326047487128D+02 -.107875402585227D+03
 0.411227527740292D+02 0.339830946647451D+02 0.207040050293183D+02 -.103718006376356D+02
 0.933136890652475D+02 -.103724024069598D+01 -.524626558355418D+02 0.771624159959385D+02
 0.145490957048802D+03 -.105140842504232D+03 0.104790617421102D+02 0.410847872269242D+02
 0.558074681360097D+01 -.469203644946549D+01 0.174698431540043D+01 0.246527376900610D+01
0.895067102859D-05 0.000000000000D+00 0.000000000000D+00 0.605949910753D-10 0.000000000000D+00  7 -1 1 23 -11 11 23 21 0 0.17431091D-02 0.66289367D+00 0.31031219D+05 0.31031219D+05 0.31031219D+05 0.11659766D+01  1  2  2  1  7  1       -1 0.439280484144D-04 0.100000000000D+01
-.466223198446D-06 0.000000000000D+00 -.343729335156D-07 0.605949910753D-10 0.000000000000D+00  7 -1 1 23 -11 11 23 21 2 0.17431091D-02 0.66289367D+00 0.31031219D+05 0.31031219D+05 0.31031219D+05 0.11659766D+01  1  2  3  1  7  1       -1 -.311071217389D-05 0.100000000000D+01
0.570903333613D-06 0.000000000000D+00 0.000000000000D+00 0.605949910753D-10 0.000000000000D+00  7 -1 1 23 -11 11 23 21 2 0.17431091D-02 0.66289367D+00 0.31031219D+05 0.31031219D+05 0.31031219D+05 0.11659766D+01  1  2 15  1  7  1       -1 0.380915397583D-05 0.100000000000D+01
0.289021816308D-05 0.000000000000D+00 0.000000000000D+00 0.605949910753D-10 0.000000000000D+00  7 -1 1 23 -11 11 23 21 2 0.17810799D-02 0.66289367D+00 0.31988688D+05 0.31988688D+05 0.31988688D+05 0.11647584D+01  1  2 12  1  7  1       -1 0.186365122524D-04 0.100000000000D+01
-.452645390437D-04 0.000000000000D+00 0.000000000000D+00 0.605949910753D-10 0.000000000000D+00  7 -1 1 23 -11 11 23 21 2 0.17431091D-02 0.66289367D+00 0.31031219D+05 0.31031219D+05 0.31031219D+05 0.11659766D+01  1  2  4  1  7  1       -1 -.302011897130D-03 0.100000000000D+01
-.262892255657D-03 0.000000000000D+00 -.355964640264D-04 0.605949910753D-10 0.000000000000D+00  7 -1 1 23 -11 11 23 21 2 0.18036281D-02 0.66289367D+00 0.31031219D+05 0.31031219D+05 0.31031219D+05 0.11659766D+01  1  2  5  1  7  1       -1 -.167142000316D-02 0.100000000000D+01
0.263974121345D-03 0.000000000000D+00 0.355757418219D-04 0.605949910753D-10 0.000000000000D+00  7 -1 1 23 -11 11 23 21 2 0.17431091D-02 0.66289367D+00 0.31031219D+05 0.31031219D+05 0.31031219D+05 0.11659766D+01  1  2  6  1  7  1       -1 0.176127553412D-02 0.100000000000D+01
0.424842700056D-04 0.000000000000D+00 0.000000000000D+00 0.605949910753D-10 0.174931452572D-10  7 -1 1 23 -11 11 23 21 2 0.17749589D-02 0.66760969D+00 0.31988688D+05 0.31988688D+05 0.31988688D+05 0.11647584D+01  1  2 11  1  7  1       -1 0.256461485501D-03 0.100000000000D+01
0.114395012822D-06 0.000000000000D+00 0.000000000000D+00 0.605949910753D-10 0.000000000000D+00  7 21 1 23 -11 11 23 1 2 0.17810799D-02 0.66289367D+00 0.31988688D+05 0.31988688D+05 0.31988688D+05 0.11647584D+01  1  2 12  3  7  1       -1 0.135469725167D-04 0.100000000000D+01
-.158455976042D-05 0.000000000000D+00 -.216571239076D-06 0.605949910753D-10 0.000000000000D+00  7 21 1 23 -11 11 23 1 2 0.18036281D-02 0.66289367D+00 0.31031219D+05 0.31031219D+05 0.31031219D+05 0.11659766D+01  1  2  5  3  7  1       -1 -.184770892110D-03 0.100000000000D+01
0.175546854514D-06 0.000000000000D+00 0.000000000000D+00 0.605949910753D-10 0.580601393222D-13  7 21 1 23 -11 11 23 1 2 0.17749589D-02 0.66760969D+00 0.31988688D+05 0.31988688D+05 0.31988688D+05 0.11647584D+01  1  2 11  3  7  1       -1 0.194698553447D-04 0.100000000000D+01
  </mgrwgt>
  </event>
  <event>
  8     66 0.58687835E-06 0.99837984E+02 0.75467711E-02 0.10383090E+00
       -1 -1    0    0    0  501 0.00000000E+00 0.00000000E+00 0.57885914E+03 0.57885922E+03 0.32000000E+00 0.0000E+00 0.9000E+01
        1 -1    0    0  501    0 0.00000000E+00 0.00000000E+00 -.79374366E+02 0.79375011E+02 0.32000000E+00 0.0000E+00 0.9000E+01
       25  2    1    2    0    0 0.50399870E+02 0.39048046E+02 0.39257123E+03 0.49765060E+03 0.29913049E+03 0.0000E+00 0.0000E+00
       23  2    1    2    0    0 -.50399870E+02 -.39048046E+02 0.10691354E+03 0.16058364E+03 0.10144803E+03 0.0000E+00 0.0000E+00
       23  1    3    3    0    0 -.11838861E+02 0.13237396E+03 0.21355132E+03 0.26754895E+03 0.91188000E+02 0.0000E+00 0.9000E+01
      -11  1    4    4    0    0 -.64084609E+02 -.48965172E+02 0.11608802E+03 0.14135364E+03 0.51099893E-03 0.0000E+00 0.9000E+01
       11  1    4    4    0    0 0.13684739E+02 0.99171258E+01 -.91744805E+01 0.19229991E+02 0.51099893E-03 0.0000E+00 0.9000E+01
       23  1    3    3    0    0 0.62238731E+02 -.93325917E+02 0.17901991E+03 0.23010165E+03 0.91188000E+02 0.0000E+00 0.9000E+01
#aMCatNLO 1  0  0  1  2 0.66761489D+02 0.00000000D+00  -5  7  0 0.00000000D+00 0.00000000D+00 0.00000000D+00 0.00000000D+00 0.00000000D+00
  <mgrwgt>
 0.2130399771D-03    9    2    0
 0.214352089163957D+03 0.000000000000000D+00 0.000000000000000D+00 0.214352089163957D+03
 0.214352089163957D+03 0.000000000000000D+00 0.000000000000000D+00 -.214352089163957D+03
 0.161986422548086D+03 -.118388319662591D+02 0.132373985888197D+03 0.161653847363201D+02
 0.817804438486096D+02 -.640846256787737D+02 -.489651849082224D+02 0.135503658471135D+02
 0.402150002817625D+02 0.136847002943826D+02 0.991709591438448D+01 -.364914570021530D+02
 0.144722311649456D+03 0.622387573506502D+02 -.933258968943589D+02 0.677570641871940D+01
 0.000000000000000D+00 -.000000000000000D+00 0.000000000000000D+00 0.000000000000000D+00
 0.302325342514842D+03 0.000000000000000D+00 0.000000000000000D+00 0.302325342514842D+03
 0.229984973835164D+03 0.000000000000000D+00 0.000000000000000D+00 -.229984973835164D+03
 0.159901412106032D+03 0.129317440979954D+02 0.129709909337774D+03 0.161653847363201D+02
 0.736589599389737D+02 -.521229323173578D+02 -.502516655578783D+02 0.135503658471135D+02
 0.426534481986525D+02 0.200617639340091D+02 0.923124243811441D+01 -.364914570021530D+02
 0.157657553539777D+03 0.855081159426498D+02 -.958285174392955D+02 0.677570641871940D+01
 0.984389425665712D+02 -.663786916572965D+02 0.713903122128517D+01 0.723403686796782D+02
0.199998485492D-05 0.000000000000D+00 0.000000000000D+00 0.966615569751D-09 0.000000000000D+00  7 -1 1 23 -11 11 23 21 0 0.89055308D-01 0.12211497D-01 0.40661055D+05 0.40661055D+05 0.40661055D+05 0.11552782D+01  1  2  2  1  7  1       -1 0.162505293504D-03 0.100000000000D+01
-.110605821643D-06 0.000000000000D+00 -.768046845099D-08 0.966615569751D-09 0.000000000000D+00  7 -1 1 23 -11 11 23 21 2 0.89055308D-01 0.12211497D-01 0.40661055D+05 0.40661055D+05 0.40661055D+05 0.11552782D+01  1  2  3  1  7  1       -1 -.119947696415D-04 0.100000000000D+01
0.130635998062D-06 0.000000000000D+00 0.000000000000D+00 0.966615569751D-09 0.000000000000D+00  7 -1 1 23 -11 11 23 21 2 0.89055308D-01 0.12211497D-01 0.40661055D+05 0.40661055D+05 0.40661055D+05 0.11552782D+01  1  2 15  1  7  1       -1 0.141669640924D-04 0.100000000000D+01
0.228581605309D-05 0.000000000000D+00 0.000000000000D+00 0.966615569751D-09 0.000000000000D+00  7 -1 1 23 -11 11 23 21 2 0.12782126D+00 0.12211497D-01 0.57083037D+05 0.57083037D+05 0.57083037D+05 0.11422686D+01  1  2 12  1  7  1       -1 0.106649944037D-03 0.100000000000D+01
-.250582046539D-05 0.000000000000D+00 0.000000000000D+00 0.966615569751D-09 0.000000000000D+00  7 -1 1 23 -11 11 23 21 2 0.89055308D-01 0.12211497D-01 0.40661055D+05 0.40661055D+05 0.40661055D+05 0.11552782D+01  1  2  4  1  7  1       -1 -.271746448773D-03 0.100000000000D+01
-.327119825607D-05 0.000000000000D+00 -.818210689960D-06 0.966615569751D-09 0.000000000000D+00  7 -1 1 23 -11 11 23 21 2 0.13093482D+00 0.12211497D-01 0.40661055D+05 0.40661055D+05 0.40661055D+05 0.11552782D+01  1  2  5  1  7  1       -1 -.147584438568D-03 0.100000000000D+01
0.338893072200D-05 0.000000000000D+00 0.760979680707D-06 0.966615569751D-09 0.000000000000D+00  7 -1 1 23 -11 11 23 21 2 0.89055308D-01 0.12211497D-01 0.40661055D+05 0.40661055D+05 0.40661055D+05 0.11552782D+01  1  2  6  1  7  1       -1 0.367516309154D-03 0.100000000000D+01
0.101052131207D-06 0.000000000000D+00 0.000000000000D+00 0.966615569751D-09 0.000000000000D+00  7 21 1 23 -11 11 23 1 2 0.12782126D+00 0.12211497D-01 0.57083037D+05 0.57083037D+05 0.57083037D+05 0.11422686D+01  1  2 12  3  7  1       -1 0.319809498741D-04 0.100000000000D+01
-.124999962516D-06 0.000000000000D+00 -.379047719215D-07 0.966615569751D-09 0.000000000000D+00  7 21 1 23 -11 11 23 1 2 0.13093482D+00 0.12211497D-01 0.40661055D+05 0.40661055D+05 0.40661055D+05 0.11552782D+01  1  2  5  3  7  1       -1 -.384538266010D-04 0.100000000000D+01
  </mgrwgt>
  </event>
  <event>
  8     66 0.58687835E-06 0.17707166E+03 0.75467711E-02 0.96815229E-01
       -1 -1    0    0    0  501 0.00000000E+00 0.00000000E+00 0.15339301E+03 0.15339335E+03 0.32000000E+00 0.0000E+00 0.9000E+01
        1 -1    0    0  501    0 0.00000000E+00 0.00000000E+00 -.40792281E+03 0.40792293E+03 0.32000000E+00 0.0000E+00 0.9000E+01
       25  2    1    2    0    0 0.80830439E+02 0.18011130E+02 -.38499032E+02 0.31275400E+03 0.29912360E+03 0.0000E+00 0.0000E+00
       23  2    1    2    0    0 -.80830439E+02 -.18011130E+02 -.21603076E+03 0.24856228E+03 0.90862296E+02 0.0000E+00 0.0000E+00
       23  1    3    3    0    0 -.15946932E+01 0.59243912E+02 0.81647845E+02 0.13599267E+03 0.91188000E+02 0.0000E+00 0.9000E+01
      -13  1    4    4    0    0 -.75848105E+02 -.45066933E+02 -.19467846E+03 0.21373741E+03 0.10565837E+00 0.0000E+00 0.9000E+01
       13  1    4    4    0    0 -.49823337E+01 0.27055803E+02 -.21352299E+02 0.34824875E+02 0.10565837E+00 0.0000E+00 0.9000E+01
       23  1    3    3    0    0 0.82425132E+02 -.41232782E+02 -.12014688E+03 0.17676133E+03 0.91188000E+02 0.0000E+00 0.9000E+01
#aMCatNLO 1  0  0  2  1 0.36532816D+03 0.00000000D+00  -5  7  0 0.00000000D+00 0.00000000D+00 0.00000000D+00 0.00000000D+00 0.00000000D+00
  <mgrwgt>
 0.2001494638D-03    3    2    0
 0.250145234011414D+03 0.000000000000000D+00 0.000000000000000D+00 0.250145234011414D+03
 0.250145234011414D+03 0.000000000000000D+00 0.000000000000000D+00 -.250145234011414D+03
 0.194120648118028D+03 -.159469176960584D+01 0.592439122396932D+02 0.160795492792736D+03
 0.140764012047246D+03 -.758482017495365D+02 -.450670276770831D+02 -.109683728945326D+03
 0.282094039775004D+02 -.498223917113647D+01 0.270558969297705D+02 -.623908702720546D+01
 0.137196403880054D+03 0.824251326902788D+02 -.412327814923806D+02 -.448726768202039D+02
 0.000000000000000D+00 -.000000000000000D+00 -.000000000000000D+00 0.000000000000000D+00
 0.554449646795090D+03 0.000000000000000D+00 0.000000000000000D+00 0.554449646795090D+03
 0.446089868276489D+03 0.000000000000000D+00 0.000000000000000D+00 -.446089868276489D+03
 0.254194559007651D+03 0.135696264589734D+03 0.109685713559370D+03 0.160795492792736D+03
 0.110961391991643D+03 0.123957245739999D+01 -.167443595725289D+02 -.109683728945326D+03
 0.383286134719876D+02 0.153942011206464D+02 0.345423649394345D+02 -.623908702720546D+01
 0.215995232848311D+03 0.190585678694163D+03 -.149372717422234D+01 -.448726768202039D+02
 0.381059717751986D+03 -.342915716861943D+03 -.125989991752053D+03 0.108359778518601D+03
0.189659045708D-05 0.000000000000D+00 0.000000000000D+00 0.840900921231D-07 0.000000000000D+00  7 -1 1 23 -13 13 23 21 0 0.23598961D-01 0.62757391D-01 0.31354371D+05 0.31354371D+05 0.31354371D+05 0.11655608D+01  1  2  2  2  7  2        1 0.196052084236D-03 0.100000000000D+01
-.900747632552D-07 0.000000000000D+00 -.728340673892D-08 0.840900921231D-07 0.000000000000D+00  7 -1 1 23 -13 13 23 21 2 0.23598961D-01 0.62757391D-01 0.31354371D+05 0.31354371D+05 0.31354371D+05 0.11655608D+01  1  2  3  2  7  2        1 -.126494289911D-04 0.100000000000D+01
0.119251613185D-06 0.000000000000D+00 0.000000000000D+00 0.840900921231D-07 0.000000000000D+00  7 -1 1 23 -13 13 23 21 2 0.23598961D-01 0.62757391D-01 0.31354371D+05 0.31354371D+05 0.31354371D+05 0.11655608D+01  1  2 15  2  7  2        1 0.167468085238D-04 0.100000000000D+01
  </mgrwgt>
  </event>
  <event>
  8     66 0.58687835E-06 0.12331395E+03 0.75467711E-02 0.10218961E+00
       -1 -1    0    0    0  501 0.00000000E+00 0.00000000E+00 0.85649514E+02 0.85650111E+02 0.32000000E+00 0.0000E+00 0.9000E+01
        1 -1    0    0  501    0 0.00000000E+00 0.00000000E+00 -.74929835E+03 0.74929842E+03 0.32000000E+00 0.0000E+00 0.9000E+01
       25  2    1    2    0    0 -.12431413E+03 -.56101239E+02 -.35945294E+03 0.48820161E+03 0.30088709E+03 0.0000E+00 0.0000E+00
       23  2    1    2    0    0 0.12431413E+03 0.56101239E+02 -.30419590E+03 0.34674692E+03 0.95377850E+02 0.0000E+00 0.0000E+00
       23  1    3    3    0    0 -.13465345E+03 0.64029816E+02 -.23202314E+03 0.29048469E+03 0.91188000E+02 0.0000E+00 0.9000E+01
      -13  1    4    4    0    0 0.59937425E+02 -.89127292E+01 -.57119634E+02 0.83274219E+02 0.10565837E+00 0.0000E+00 0.9000E+01
       13  1    4    4    0    0 0.64376704E+02 0.65013968E+02 -.24707626E+03 0.26347271E+03 0.10565837E+00 0.0000E+00 0.9000E+01
       23  1    3    3    0    0 0.10339319E+02 -.12013106E+03 -.12742980E+03 0.19771691E+03 0.91188000E+02 0.0000E+00 0.9000E+01
#aMCatNLO 1  0  0  2  1 0.59371596D+02 0.00000000D+00  -5  7  0 0.00000000D+00 0.00000000D+00 0.00000000D+00 0.00000000D+00 0.00000000D+00
  <mgrwgt>
 0.2131842775D-03    9    2    0
 0.253332424469426D+03 0.000000000000000D+00 0.000000000000000D+00 0.253332424469426D+03
 0.253332424469426D+03 0.000000000000000D+00 0.000000000000000D+00 -.253332424469426D+03
 0.174785947266245D+03 -.134653495731881D+03 0.640297948974948D+02 -.187015248778541D+01
 0.624125745992877D+02 0.599374146001727D+02 -.891273305501048D+01 0.149465376809742D+02
 0.110554939340274D+03 0.643768040799746D+02 0.650140123189508D+02 -.620580366364553D+02
 0.158911387733046D+03 0.103392770517333D+02 -.120131074161435D+03 0.489816514432665D+02
 0.000000000000000D+00 0.000000000000000D+00 -.000000000000000D+00 -.000000000000000D+00
 0.282135290484802D+03 0.000000000000000D+00 0.000000000000000D+00 0.282135290484802D+03
 0.287620782951463D+03 0.000000000000000D+00 0.000000000000000D+00 -.287620782951463D+03
 0.193448432487721D+03 -.154294895627226D+03 0.727779664528496D+02 -.187015248778541D+01
 0.559987647939619D+02 0.536214251189074D+02 -.609962605559449D+01 0.149465376809742D+02
 0.107519908921822D+03 0.527448230990176D+02 0.701948327132318D+02 -.620580366364553D+02
 0.153164499971612D+03 -.630666272227041D+01 -.112717064079720D+03 0.489816514432665D+02
 0.596244672611492D+02 0.542353101315717D+02 -.241561090307669D+02 -.548549246666076D+01
0.108749354639D-05 0.000000000000D+00 0.000000000000D+00 0.854707865623D-08 0.000000000000D+00  7 -1 1 23 -13 13 23 21 0 0.13176899D-01 0.11527672D+00 0.57130750D+05 0.57130750D+05 0.57130750D+05 0.11422371D+01  1  2  2  2  7  2        1 0.120069830476D-03 0.100000000000D+01
-.601678862035D-07 0.000000000000D+00 -.417626156176D-08 0.854707865623D-08 0.000000000000D+00  7 -1 1 23 -13 13 23 21 2 0.13176899D-01 0.11527672D+00 0.57130750D+05 0.57130750D+05 0.57130750D+05 0.11422371D+01  1  2  3  2  7  2        1 -.866731311273D-05 0.100000000000D+01
0.707370077480D-07 0.000000000000D+00 0.000000000000D+00 0.854707865623D-08 0.000000000000D+00  7 -1 1 23 -13 13 23 21 2 0.13176899D-01 0.11527672D+00 0.57130750D+05 0.57130750D+05 0.57130750D+05 0.11422371D+01  1  2 15  2  7  2        1 0.101898177499D-04 0.100000000000D+01
0.903019310998D-06 0.000000000000D+00 0.000000000000D+00 0.854707865623D-08 0.000000000000D+00  7 -1 1 23 -13 13 23 21 2 0.13176899D-01 0.13664197D+00 0.72819621D+05 0.72819621D+05 0.72819621D+05 0.11332045D+01  1  2 12  2  7  2        1 0.978969796079D-04 0.100000000000D+01
-.790998473099D-06 0.000000000000D+00 0.000000000000D+00 0.854707865623D-08 0.000000000000D+00  7 -1 1 23 -13 13 23 21 2 0.13176899D-01 0.11527672D+00 0.57130750D+05 0.57130750D+05 0.57130750D+05 0.11422371D+01  1  2  4  2  7  2        1 -.113945027333D-03 0.100000000000D+01
-.242531796254D-05 0.000000000000D+00 -.714588171975D-06 0.854707865623D-08 0.000000000000D+00  7 -1 1 23 -13 13 23 21 2 0.13176899D-01 0.14195866D+00 0.57130750D+05 0.57130750D+05 0.57130750D+05 0.11422371D+01  1  2  5  2  7  2        1 -.251239313315D-03 0.100000000000D+01
0.253418453415D-05 0.000000000000D+00 0.699375286328D-06 0.854707865623D-08 0.000000000000D+00  7 -1 1 23 -13 13 23 21 2 0.13176899D-01 0.11527672D+00 0.57130750D+05 0.57130750D+05 0.57130750D+05 0.11422371D+01  1  2  6  2  7  2        1 0.365054719866D-03 0.100000000000D+01
0.227719203073D-07 0.000000000000D+00 0.000000000000D+00 0.854707865623D-08 0.000000000000D+00  7 -1 21 23 -13 13 23 -1 2 0.13176899D-01 0.13664197D+00 0.72819621D+05 0.72819621D+05 0.72819621D+05 0.11332045D+01  1  2 12  4  7  2        1 0.400972561823D-05 0.100000000000D+01
-.627527028738D-07 0.000000000000D+00 -.210868499460D-07 0.854707865623D-08 0.000000000000D+00  7 -1 21 23 -13 13 23 -1 2 0.13176899D-01 0.14195866D+00 0.57130750D+05 0.57130750D+05 0.57130750D+05 0.11422371D+01  1  2  5  4  7  2        1 -.101851420256D-04 0.100000000000D+01
  </mgrwgt>
  </event>
  <event>
  8     66 0.58687835E-06 0.20462512E+03 0.75467711E-02 0.10261908E+00
       -1 -1    0    0    0  501 0.00000000E+00 0.00000000E+00 0.22007282E+03 0.22007305E+03 0.32000000E+00 0.0000E+00 0.9000E+01
        1 -1    0    0  501    0 0.00000000E+00 0.00000000E+00 -.53287757E+03 0.53287767E+03 0.32000000E+00 0.0000E+00 0.9000E+01
       25  2    1    2    0    0 0.12108868E+03 0.62597555E+02 0.74792195E+02 0.33227703E+03 0.29365495E+03 0.0000E+00 0.0000E+00
       23  2    1    2    0    0 -.12108868E+03 -.62597555E+02 -.38759695E+03 0.42067370E+03 0.90299740E+02 0.0000E+00 0.0000E+00
       23  1    3    3    0    0 0.12723270E+03 0.17258653E+02 -.55335820E+02 0.16692311E+03 0.91188000E+02 0.0000E+00 0.9000E+01
      -11  1    4    4    0    0 0.70961359E+01 -.71713950E+01 -.10468489E+03 0.10516991E+03 0.51099893E-03 0.0000E+00 0.9000E+01
       11  1    4    4    0    0 -.12818482E+03 -.55426160E+02 -.28291206E+03 0.31550379E+03 0.51099893E-03 0.0000E+00 0.9000E+01
       23  1    3    3    0    0 -.61440195E+01 0.45338902E+02 0.13012802E+03 0.16535391E+03 0.91188000E+02 0.0000E+00 0.9000E+01
#aMCatNLO 1  0  0  2  1 0.96356798D+02 0.00000000D+00  -5  7  0 0.00000000D+00 0.00000000D+00 0.00000000D+00 0.00000000D+00 0.00000000D+00
  <mgrwgt>
 0.6159000669D-03    4    2    0
 0.342449989673357D+03 0.000000000000000D+00 0.000000000000000D+00 0.342449989673357D+03
 0.342449989673357D+03 0.000000000000000D+00 0.000000000000000D+00 -.342449989673357D+03
 0.158235619433635D+03 0.127232702730358D+03 0.172586529981035D+02 0.154025376534369D+02
 0.678081911319913D+02 0.709613593758638D+01 -.717139500110064D+01 -.670534617531872D+02
 0.217641370155847D+03 -.128184819125740D+03 -.554261596608716D+02 -.166926208170747D+03
 0.241214798625240D+03 -.614401954220446D+01 0.453389016638687D+02 0.218577132270497D+03
 0.000000000000000D+00 0.000000000000000D+00 -.000000000000000D+00 0.000000000000000D+00
 0.476187558970916D+03 0.000000000000000D+00 0.000000000000000D+00 0.476187558970916D+03
 0.363627484373002D+03 0.000000000000000D+00 0.000000000000000D+00 -.363627484373002D+03
 0.143064281989757D+03 0.106807845004276D+03 0.225162944691573D+02 0.154025376534369D+02
 0.672576338139697D+02 -.205985862180306D+01 -.481451509771132D+01 -.670534617531872D+02
 0.235305464616068D+03 -.158889690298915D+03 -.475223002456210D+02 -.166926208170747D+03
 0.246017480880129D+03 -.391730711331227D+02 0.538410373322232D+02 0.218577132270497D+03
 0.148170182043994D+03 0.933147750495647D+02 -.240205164580482D+02 0.112560074597914D+03
0.175542697040D-04 0.000000000000D+00 0.000000000000D+00 0.465961798383D-08 0.000000000000D+00  7 -1 1 23 -11 11 23 21 0 0.33857383D-01 0.81981191D-01 0.41871438D+05 0.41871438D+05 0.41871438D+05 0.11541352D+01  1  2  2  2  7  2        1 0.700748834576D-03 0.100000000000D+01
-.660813571244D-06 0.000000000000D+00 -.674130178088D-07 0.465961798383D-08 0.000000000000D+00  7 -1 1 23 -11 11 23 21 2 0.33857383D-01 0.81981191D-01 0.41871438D+05 0.41871438D+05 0.41871438D+05 0.11541352D+01  1  2  3  2  7  2        1 -.351375855899D-04 0.100000000000D+01
0.108275293299D-05 0.000000000000D+00 0.000000000000D+00 0.465961798383D-08 0.000000000000D+00  7 -1 1 23 -11 11 23 21 2 0.33857383D-01 0.81981191D-01 0.41871438D+05 0.41871438D+05 0.41871438D+05 0.11541352D+01  1  2 15  2  7  2        1 0.575734602183D-04 0.100000000000D+01
-.201764425259D-05 0.000000000000D+00 0.000000000000D+00 0.465961798383D-08 0.000000000000D+00  7 -1 1 23 -11 11 23 21 2 0.33857383D-01 0.81981191D-01 0.41871438D+05 0.41871438D+05 0.41871438D+05 0.11541352D+01  1  2  4  2  7  2        1 -.107284642296D-03 0.100000000000D+01
  </mgrwgt>
  </event>
  <event>
  8     66 0.58687835E-06 0.17985316E+03 0.75467711E-02 0.94938074E-01
       -1 -1    0    0    0  501 0.00000000E+00 0.00000000E+00 0.43165044E+03 0.43165056E+03 0.32000000E+00 0.0000E+00 0.9000E+01
        1 -1    0    0  501    0 0.00000000E+00 0.00000000E+00 -.36924508E+03 0.36924522E+03 0.32000000E+00 0.0000E+00 0.9000E+01
       25  2    1    2    0    0 -.72518292E+02 0.59340790E+02 -.28791109E+03 0.42626225E+03 0.30004413E+03 0.0000E+00 0.0000E+00
       23  2    1    2    0    0 0.72518292E+02 -.59340790E+02 0.35031645E+03 0.37463352E+03 0.94066092E+02 0.0000E+00 0.0000E+00
       23  1    3    3    0    0 -.70747793E+02 -.82445393E+01 0.11458273E+01 0.11571425E+03 0.91188000E+02 0.0000E+00 0.9000E+01
      -11  1    4    4    0    0 0.19777414E+02 0.24465637E+02 0.57732732E+02 0.65747865E+02 0.51099893E-03 0.0000E+00 0.9000E+01
       11  1    4    4    0    0 0.52740878E+02 -.83806427E+02 0.29258372E+03 0.30888566E+03 0.51099893E-03 0.0000E+00 0.9000E+01
       23  1    3    3    0    0 -.17704995E+01 0.67585329E+02 -.28905692E+03 0.31054801E+03 0.91188000E+02 0.0000E+00 0.9000E+01
#aMCatNLO 1  0  0  2  1 0.41116282D+03 0.00000000D+00  -5  7  0 0.00000000D+00 0.00000000D+00 0.00000000D+00 0.00000000D+00 0.00000000D+00
  <mgrwgt>
 0.2430439513D-03    3    2    0
 0.399230388549953D+03 0.000000000000000D+00 0.000000000000000D+00 0.399230388549953D+03
 0.399230388549953D+03 0.000000000000000D+00 0.000000000000000D+00 -.399230388549953D+03
 0.115977575793142D+03 -.707477925948257D+02 -.824453925548298D+01 -.789456511015079D+01
 0.614361497240765D+02 0.197774142011957D+02 0.244656369678907D+02 0.527701334865553D+02
 0.286960150772942D+03 0.527408778754286D+02 -.838064270329780D+02 0.269334384586381D+03
 0.334086900809746D+03 -.177049948179862D+01 0.675853293205703D+02 -.314209952962786D+03
 0.000000000000000D+00 -.000000000000000D+00 -.000000000000000D+00 0.000000000000000D+00
 0.114218988954621D+04 0.000000000000000D+00 0.000000000000000D+00 0.114218988954621D+04
 0.510027584101917D+03 0.000000000000000D+00 0.000000000000000D+00 -.510027584101917D+03
 0.108165357865779D+03 -.429574256215263D+02 0.384295293221834D+02 -.789456511015079D+01
 0.851383148849825D+02 0.379504526901051D+02 0.549873513990415D+02 0.527701334865553D+02
 0.299585567099904D+03 0.125463762689223D+03 0.383320433307259D+02 0.269334384586381D+03
 0.405216808446274D+03 0.898920885354101D+02 0.221533131565574D+03 -.314209952962786D+03
 0.754111425351190D+03 -.210348878293212D+03 -.353282055617525D+03 0.632162305444296D+03
0.113909018908D-04 0.000000000000D+00 0.000000000000D+00 0.245006050808D-06 0.000000000000D+00  7 -1 1 23 -11 11 23 21 0 0.66407779D-01 0.56806955D-01 0.32347158D+05 0.32347158D+05 0.32347158D+05 0.11643127D+01  1  2  2  2  7  2        1 0.227459470489D-03 0.100000000000D+01
-.143593098598D-06 0.000000000000D+00 -.437440625541D-07 0.245006050808D-06 0.000000000000D+00  7 -1 1 23 -11 11 23 21 2 0.66407779D-01 0.56806955D-01 0.32347158D+05 0.32347158D+05 0.32347158D+05 0.11643127D+01  1  2  3  2  7  2        1 -.388703763638D-05 0.100000000000D+01
0.719307586731D-06 0.000000000000D+00 0.000000000000D+00 0.245006050808D-06 0.000000000000D+00  7 -1 1 23 -11 11 23 21 2 0.66407779D-01 0.56806955D-01 0.32347158D+05 0.32347158D+05 0.32347158D+05 0.11643127D+01  1  2 15  2  7  2        1 0.194715184020D-04 0.100000000000D+01
  </mgrwgt>
  </event>
  <event>
  8     66 0.58687835E-06 0.19645972E+03 0.75467711E-02 0.94331881E-01
       -1 -1    0    0    0  501 0.00000000E+00 0.00000000E+00 0.16038453E+04 0.16038453E+04 0.32000000E+00 0.0000E+00 0.9000E+01
        1 -1    0    0  501    0 0.00000000E+00 0.00000000E+00 -.91226901E+02 0.91227462E+02 0.32000000E+00 0.0000E+00 0.9000E+01
       25  2    1    2    0    0 -.19047560E+02 -.10419213E+03 0.15253276E+04 0.15585330E+04 0.30196357E+03 0.0000E+00 0.0000E+00
       23  2    1    2    0    0 0.19047560E+02 0.10419213E+03 -.12709255E+02 0.13653975E+03 0.85221878E+02 0.0000E+00 0.0000E+00
       23  1    3    3    0    0 0.70103722E+02 -.36674246E+02 0.11516806E+04 0.11579910E+04 0.91188000E+02 0.0000E+00 0.9000E+01
      -13  1    4    4    0    0 -.87525934E+01 -.82738137E+01 0.13155579E+02 0.17836600E+02 0.10565837E+00 0.0000E+00 0.9000E+01
       13  1    4    4    0    0 0.27800153E+02 0.11246594E+03 -.25864834E+02 0.11870315E+03 0.10565837E+00 0.0000E+00 0.9000E+01
       23  1    3    3    0    0 -.89151282E+02 -.67517879E+02 0.37364700E+03 0.40054206E+03 0.91188000E+02 0.0000E+00 0.9000E+01
#aMCatNLO 1  0  0  1  1 0.41649546D+03 0.00000000D+00  -5  7  0 0.00000000D+00 0.00000000D+00 0.00000000D+00 0.00000000D+00 0.00000000D+00
  <mgrwgt>
 0.1055052730D-02    3    2    0
 0.382510571403431D+03 0.000000000000000D+00 0.000000000000000D+00 0.382510571403431D+03
 0.382510571403431D+03 0.000000000000000D+00 0.000000000000000D+00 -.382510571403431D+03
 0.288653013299336D+03 0.701037218259561D+02 -.366742463529526D+02 0.262194161993319D+03
 0.135089223490336D+02 -.875264944173298D+01 -.827399899399442D+01 -.611743830616467D+01
 0.314153994127543D+03 0.278002094408365D+02 0.112466124360713D+03 -.292012416264471D+03
 0.148705213030949D+03 -.891512818250596D+02 -.675178790137655D+02 0.359356925773164D+02
 0.000000000000000D+00 -.000000000000000D+00 -.000000000000000D+00 -.000000000000000D+00
 0.640274324459918D+03 0.000000000000000D+00 0.000000000000000D+00 0.640274324459918D+03
 0.647329569278683D+03 0.000000000000000D+00 0.000000000000000D+00 -.647329569278683D+03
 0.321266927392240D+03 0.117399645736976D+03 0.111214800676458D+03 0.262194161993319D+03
 0.963918415086055D+01 -.695764158797796D+01 -.266121085179501D+01 -.611743830616467D+01
 0.420623651283340D+03 0.847781589885539D+02 0.290629779143201D+03 -.292012416264471D+03
 0.119518923241083D+03 -.683519809761043D+02 -.248079913311817D+01 0.359356925773164D+02
 0.416555207671077D+03 -.126868182161448D+03 -.396702569834746D+03 -.705524481876490D+01
0.300593645100D-03 0.000000000000D+00 0.000000000000D+00 0.702285913329D-08 0.000000000000D+00  7 -1 1 23 -13 13 23 21 0 0.24674547D+00 0.14034953D-01 0.38596421D+05 0.38596421D+05 0.38596421D+05 0.11573173D+01  1  2  2  1  7  1       -1 0.100313985774D-02 0.100000000000D+01
-.768545189875D-05 0.000000000000D+00 -.115435874531D-05 0.702285913329D-08 0.000000000000D+00  7 -1 1 23 -13 13 23 21 2 0.24674547D+00 0.14034953D-01 0.38596421D+05 0.38596421D+05 0.38596421D+05 0.11573173D+01  1  2  3  1  7  1       -1 -.343523156854D-04 0.100000000000D+01
0.192996290498D-04 0.000000000000D+00 0.000000000000D+00 0.702285913329D-08 0.000000000000D+00  7 -1 1 23 -13 13 23 21 2 0.24674547D+00 0.14034953D-01 0.38596421D+05 0.38596421D+05 0.38596421D+05 0.11573173D+01  1  2 15  1  7  1       -1 0.862651875862D-04 0.100000000000D+01
  </mgrwgt>
  </event>
  <event>
  8     66 0.58687835E-06 0.59865264E+03 0.75467711E-02 0.90087498E-01
       -1 -1    0    0    0  501 0.00000000E+00 0.00000000E+00 0.18483034E+03 0.18483061E+03 0.32000000E+00 0.0000E+00 0.9000E+01
        1 -1    0    0  501    0 0.00000000E+00 0.00000000E+00 -.22246194E+04 0.22246194E+04 0.32000000E+00 0.0000E+00 0.9000E+01
       25  2    1    2    0    0 0.24130034E+03 -.52250045E+03 -.14193728E+04 0.15606771E+04 0.29976854E+03 0.0000E+00 0.0000E+00
       23  2    1    2    0    0 -.24130034E+03 0.52250045E+03 -.62041624E+03 0.84877295E+03 0.65319479E+02 0.0000E+00 0.0000E+00
       23  1    3    3    0    0 0.11789679E+03 -.38684795E+03 -.11489276E+04 0.12214340E+04 0.91188000E+02 0.0000E+00 0.9000E+01
      -13  1    4    4    0    0 -.21975399E+03 0.50284775E+03 -.60037949E+03 0.81338995E+03 0.10565837E+00 0.0000E+00 0.9000E+01
       13  1    4    4    0    0 -.21546352E+02 0.19652699E+02 -.20036759E+02 0.35383001E+02 0.10565837E+00 0.0000E+00 0.9000E+01
       23  1    3    3    0    0 0.12340355E+03 -.13565250E+03 -.27044518E+03 0.33924311E+03 0.91188000E+02 0.0000E+00 0.9000E+01
#aMCatNLO 1  0  0  1  2 0.29037576D+03 0.00000000D+00  -5  7  0 0.00000000D+00 0.00000000D+00 0.00000000D+00 0.00000000D+00 0.00000000D+00
  <mgrwgt>
 0.5952949671D-03    7    2    0
 0.641231246594994D+03 0.000000000000000D+00 0.000000000000000D+00 0.641231246594994D+03
 0.641231246594994D+03 0.000000000000000D+00 0.000000000000000D+00 -.641231246594994D+03
 0.467393086291000D+03 0.117896786781019D+03 -.386847951356209D+03 -.215847297798332D+03
 0.573253996302024D+03 -.219754505395676D+03 0.502849018826041D+03 0.165743675294808D+03
 0.346060824887479D+02 -.215458338374429D+02 0.196514345166278D+02 0.186327429785851D+02
 0.207209328108215D+03 0.123403552452100D+03 -.135652501986460D+03 0.314708795249391D+02
 0.000000000000000D+00 -.000000000000000D+00 0.000000000000000D+00 0.000000000000000D+00
 0.814136617212793D+03 0.000000000000000D+00 0.000000000000000D+00 0.814136617212793D+03
 0.792006363405841D+03 0.000000000000000D+00 0.000000000000000D+00 -.792006363405841D+03
 0.542333856704475D+03 0.218814873276341D+03 -.437425143367602D+03 -.215847297798332D+03
 0.492268585806172D+03 -.113259872515117D+03 0.449477024940360D+03 0.165743675294808D+03
 0.291271164077561D+02 -.151759607509825D+02 0.164590405130311D+02 0.186327429785851D+02
 0.251195582699161D+03 0.169219252191179D+03 -.158613990093422D+03 0.314708795249391D+02
 0.291217839001069D+03 -.259598292201420D+03 0.130103068007633D+03 0.221302538069520D+02
0.198971493752D-03 0.000000000000D+00 0.000000000000D+00 0.584703425592D-08 0.000000000000D+00  7 -1 1 23 -13 13 23 21 0 0.28435460D-01 0.34224916D+00 0.35838499D+06 0.35838499D+06 0.35838499D+06 0.10788840D+01  1  2  2  1  7  1       -1 0.561340745326D-03 0.100000000000D+01
-.109905232396D-04 0.000000000000D+00 -.764102926404D-06 0.584703425592D-08 0.000000000000D+00  7 -1 1 23 -13 13 23 21 2 0.28435460D-01 0.34224916D+00 0.35838499D+06 0.35838499D+06 0.35838499D+06 0.10788840D+01  1  2  3  1  7  1       -1 -.360913867599D-04 0.100000000000D+01
0.126275061149D-04 0.000000000000D+00 0.000000000000D+00 0.584703425592D-08 0.000000000000D+00  7 -1 1 23 -13 13 23 21 2 0.28435460D-01 0.34224916D+00 0.35838499D+06 0.35838499D+06 0.35838499D+06 0.10788840D+01  1  2 15  1  7  1       -1 0.414670163620D-04 0.100000000000D+01
-.719943798421D-04 0.000000000000D+00 0.000000000000D+00 0.584703425592D-08 0.000000000000D+00  7 -1 1 23 -13 13 23 21 2 0.28435460D-01 0.34224916D+00 0.35838499D+06 0.35838499D+06 0.35838499D+06 0.10788840D+01  1  2  4  1  7  1       -1 -.236419772814D-03 0.100000000000D+01
-.109965960821D-03 0.000000000000D+00 -.739826574451D-04 0.584703425592D-08 0.000000000000D+00  7 -1 1 23 -13 13 23 21 2 0.46900929D-01 0.34224916D+00 0.35838499D+06 0.35838499D+06 0.35838499D+06 0.10788840D+01  1  2  5  1  7  1       -1 -.151335764897D-03 0.100000000000D+01
0.137761764878D-03 0.000000000000D+00 0.655970708687D-04 0.584703425592D-08 0.000000000000D+00  7 -1 1 23 -13 13 23 21 2 0.28435460D-01 0.34224916D+00 0.35838499D+06 0.35838499D+06 0.35838499D+06 0.10788840D+01  1  2  6  1  7  1       -1 0.452390939770D-03 0.100000000000D+01
-.286414120958D-05 0.000000000000D+00 -.417398017511D-05 0.584703425592D-08 0.000000000000D+00  7 21 1 23 -13 13 23 1 2 0.46900929D-01 0.34224916D+00 0.35838499D+06 0.35838499D+06 0.35838499D+06 0.10788840D+01  1  2  5  3  7  1       -1 -.360568098573D-04 0.100000000000D+01
  </mgrwgt>
  </event>
  <event>
  9     66 0.58687835E-06 0.18588641E+03 0.75467711E-02 0.95796794E-01
       -1 -1    0    0    0  502 0.00000000E+00 0.00000000E+00 0.18272233E+03 0.18272261E+03 0.32000000E+00 0.0000E+00 0.9000E+01
        1 -1    0    0  501    0 0.00000000E+00 0.00000000E+00 -.15166324E+04 0.15166324E+04 0.32000000E+00 0.0000E+00 0.9000E+01
       25  2    1    2    0    0 -.17252105E+03 -.70541644E+02 -.67965746E+03 0.76665593E+03 0.30180693E+03 0.0000E+00 0.0000E+00
       23  2    1    2    0    0 -.21203329E+03 0.43370027E+02 -.42124338E+03 0.48223912E+03 0.90936848E+02 0.0000E+00 0.0000E+00
       23  1    3    3    0    0 0.88453796E+00 -.21013305E+01 -.44123089E+03 0.45056092E+03 0.91188000E+02 0.0000E+00 0.9000E+01
      -13  1    4    4    0    0 -.16744514E+02 0.12887642E+02 -.53948613E+01 0.21807929E+02 0.10565837E+00 0.0000E+00 0.9000E+01
       13  1    4    4    0    0 -.19528877E+03 0.30482385E+02 -.41584852E+03 0.46043119E+03 0.10565837E+00 0.0000E+00 0.9000E+01
       23  1    3    3    0    0 -.17340558E+03 -.68440314E+02 -.23842657E+03 0.31609501E+03 0.91188000E+02 0.0000E+00 0.9000E+01
       21  1    1    2  501  502 0.38455433E+03 0.27171617E+02 -.23300921E+03 0.45045997E+03 0.75000000E+00 0.0000E+00 0.9000E+01
#aMCatNLO 2  0  0  1  1 0.38551308D+03 0.00000000D+00  -5  7  0 0.00000000D+00 0.00000000D+00 0.00000000D+00 0.00000000D+00 0.00000000D+00
  <mgrwgt>
 0.1989350696D-04    1    2    0
 0.223123207626276D+03 0.000000000000000D+00 0.000000000000000D+00 0.223123207626276D+03
 0.223123207626276D+03 0.000000000000000D+00 0.000000000000000D+00 -.223123207626276D+03
 0.173076772342592D+03 0.113571342870657D+03 0.586072316865174D+01 -.933140920923819D+02
 0.340788713049949D+02 0.931164234786528D+01 0.147286966517649D+02 0.292869985001560D+02
 0.962505617772076D+02 -.857715440896046D+02 0.382207278121089D+02 -.211326484952964D+02
 0.142840209827758D+03 -.371114411289180D+02 -.588101476325255D+02 0.851597420875223D+02
 0.000000000000000D+00 0.000000000000000D+00 0.000000000000000D+00 0.000000000000000D+00
 0.728088939736732D+03 0.000000000000000D+00 0.000000000000000D+00 0.728088939736732D+03
 0.380616314086597D+03 0.000000000000000D+00 0.000000000000000D+00 -.380616314086597D+03
 0.130491262707093D+03 0.884589513118016D+00 -.210143219243436D+01 -.933140920923819D+02
 0.361136066067781D+02 -.167443369804717D+02 0.128876483535748D+02 0.292869985001560D+02
 0.198780490133358D+03 -.195289304660212D+03 0.304824853081769D+02 -.211326484952964D+02
 0.224323209577633D+03 -.173405282730766D+03 -.684403189637556D+02 0.851597420875223D+02
 0.518996684798465D+03 0.384554334858332D+03 0.271716174944383D+02 0.347472625650135D+03
0.189152842267D-05 0.000000000000D+00 0.000000000000D+00 0.177472031367D-07 0.220160445508D-11  7 -1 1 23 -13 13 23 21 2 0.28111135D-01 0.23332794D+00 0.20387180D+06 0.20387180D+06 0.20387180D+06 0.10971864D+01  1  2  1  1  7  1       -1 0.198935069593D-04 0.100000000000D+01
  </mgrwgt>
  </event>
  <event>
  8     66 0.58687835E-06 0.19362644E+03 0.75467711E-02 0.98184136E-01
       -1 -1    0    0    0  501 0.00000000E+00 0.00000000E+00 0.30773034E+02 0.30774697E+02 0.32000000E+00 0.0000E+00 0.9000E+01
        1 -1    0    0  501    0 0.00000000E+00 0.00000000E+00 -.15069180E+04 0.15069181E+04 0.32000000E+00 0.0000E+00 0.9000E+01
       25  2    1    2    0    0 0.56691023E+02 0.55839668E+02 -.10780113E+04 0.11219451E+04 0.30053352E+03 0.0000E+00 0.0000E+00
       23  2    1    2    0    0 -.56691023E+02 -.55839668E+02 -.39813368E+03 0.41574769E+03 0.89463828E+02 0.0000E+00 0.0000E+00
       23  1    3    3    0    0 -.57087448E+02 -.38303335E+02 -.23532401E+03 0.26156981E+03 0.91188000E+02 0.0000E+00 0.9000E+01
      -13  1    4    4    0    0 0.34128051E+00 -.40407355E+02 -.28749861E+03 0.29032453E+03 0.10565837E+00 0.0000E+00 0.9000E+01
       13  1    4    4    0    0 -.57032303E+02 -.15432314E+02 -.11063507E+03 0.12542316E+03 0.10565837E+00 0.0000E+00 0.9000E+01
       23  1    3    3    0    0 0.11377847E+03 0.94143003E+02 -.84268730E+03 0.86037526E+03 0.91188000E+02 0.0000E+00 0.9000E+01
#aMCatNLO 1  0  0  2  1 0.27710161D+03 0.00000000D+00  -5  7  0 0.00000000D+00 0.00000000D+00 0.00000000D+00 0.00000000D+00 0.00000000D+00
  <mgrwgt>
 0.3160150302D-03    3    2    0
 0.215345639543775D+03 0.000000000000000D+00 0.000000000000000D+00 0.215345639543775D+03
 0.215345639543775D+03 0.000000000000000D+00 0.000000000000000D+00 -.215345639543775D+03
 0.127333948203931D+03 -.570874081352092D+02 -.383033002582076D+02 0.563255540845806D+02
 0.511742145361112D+02 0.341340866387398D+00 -.404074061798854D+02 -.313994465813432D+02
 0.686080894109551D+02 -.570324061148821D+02 -.154323037362356D+02 0.348743256101296D+02
 0.183575026936553D+03 0.113778473383704D+03 0.941430101743287D+02 -.598004331133669D+02
 0.000000000000000D+00 -.000000000000000D+00 -.000000000000000D+00 0.000000000000000D+00
 0.461459638721770D+03 0.000000000000000D+00 0.000000000000000D+00 0.461459638721770D+03
 0.349527926163706D+03 0.000000000000000D+00 0.000000000000000D+00 -.349527926163706D+03
 0.107368080780916D+03 0.347961410715128D+01 -.528939214916602D+01 0.563255540845806D+02
 0.486014116063134D+02 0.260893610004776D+02 -.263726602203575D+02 -.313994465813432D+02
 0.446110462623149D+02 -.278151644138037D+02 0.493447555602497D+00 0.348743256101296D+02
 0.311552529705250D+03 0.241550703839648D+03 0.163789172706149D+03 -.598004331133669D+02
 0.298854496530682D+03 -.243304514533473D+03 -.132620567892228D+03 0.111931712558063D+03
0.214163954297D-05 0.000000000000D+00 0.000000000000D+00 0.230304900444D-07 0.000000000000D+00  7 -1 1 23 -13 13 23 21 0 0.47344435D-02 0.23183367D+00 0.37491198D+05 0.37491198D+05 0.37491198D+05 0.11584591D+01  1  2  2  2  7  2        1 0.311612495226D-03 0.100000000000D+01
-.117344916103D-06 0.000000000000D+00 -.822445975166D-08 0.230304900444D-07 0.000000000000D+00  7 -1 1 23 -13 13 23 21 2 0.47344435D-02 0.23183367D+00 0.37491198D+05 0.37491198D+05 0.37491198D+05 0.11584591D+01  1  2  3  2  7  2        1 -.229136433548D-04 0.100000000000D+01
0.139891094870D-06 0.000000000000D+00 0.000000000000D+00 0.230304900444D-07 0.000000000000D+00  7 -1 1 23 -13 13 23 21 2 0.47344435D-02 0.23183367D+00 0.37491198D+05 0.37491198D+05 0.37491198D+05 0.11584591D+01  1  2 15  2  7  2        1 0.273161783469D-04 0.100000000000D+01
  </mgrwgt>
  </event>
  <event>
  8     66 0.58687835E-06 0.48437315E+03 0.75467711E-02 0.89724900E-01
       -1 -1    0    0    0  501 0.00000000E+00 0.00000000E+00 0.36956544E+03 0.36956558E+03 0.32000000E+00 0.0000E+00 0.9000E+01
        1 -1    0    0  501    0 0.00000000E+00 0.00000000E+00 -.99817444E+03 0.99817449E+03 0.32000000E+00 0.0000E+00 0.9000E+01
       25  2    1    2    0    0 0.13187906E+03 -.43155507E+03 -.71629027E+03 0.90019813E+03 0.30602786E+03 0.0000E+00 0.0000E+00
       23  2    1    2    0    0 -.13187906E+03 0.43155507E+03 0.87681273E+02 0.46754194E+03 0.85297061E+02 0.0000E+00 0.0000E+00
       23  1    3    3    0    0 0.80318469E+01 -.30013310E+03 -.28531174E+03 0.42410191E+03 0.91188000E+02 0.0000E+00 0.9000E+01
      -11  1    4    4    0    0 -.21955523E+02 0.12688177E+03 0.61181834E+02 0.14256313E+03 0.51099893E-03 0.0000E+00 0.9000E+01
       11  1    4    4    0    0 -.10992354E+03 0.30467330E+03 0.26499439E+02 0.32497881E+03 0.51099893E-03 0.0000E+00 0.9000E+01
       23  1    3    3    0    0 0.12384721E+03 -.13142198E+03 -.43097853E+03 0.47609622E+03 0.91188000E+02 0.0000E+00 0.9000E+01
#aMCatNLO 1  0  0  1  2 0.50983684D+03 0.00000000D+00  -5  7  0 0.00000000D+00 0.00000000D+00 0.00000000D+00 0.00000000D+00 0.00000000D+00
  <mgrwgt>
 0.5366464604D-03    3    2    0
 0.607363897286705D+03 0.000000000000000D+00 0.000000000000000D+00 0.607363897286705D+03
 0.607363897286705D+03 0.000000000000000D+00 0.000000000000000D+00 -.607363897286705D+03
 0.329877725716904D+03 0.803184690941681D+01 -.300133096631995D+03 -.101782495162331D+03
 0.192181950830820D+03 -.219555234027552D+02 0.126881773026016D+03 0.142663495299342D+03
 0.379627700585574D+03 -.109923535395162D+03 0.304673301447127D+03 0.198010572453662D+03
 0.313040417440111D+03 0.123847211888501D+03 -.131421977841148D+03 -.238891572590673D+03
 0.000000000000000D+00 0.000000000000000D+00 -.000000000000000D+00 -.000000000000000D+00
 0.867436243558653D+03 0.000000000000000D+00 0.000000000000000D+00 0.867436243558653D+03
 0.969996719500294D+03 0.000000000000000D+00 0.000000000000000D+00 -.969996719500294D+03
 0.242227302976503D+03 -.407837108859814D+02 -.195795371671981D+03 -.101782495162331D+03
 0.260563748273845D+03 -.605866011468836D+02 0.209451325574604D+03 0.142663495299342D+03
 0.547086220706114D+03 -.188996528492131D+03 0.473682866801192D+03 0.198010572453662D+03
 0.267505444787602D+03 0.743114296997313D+02 -.255448548273418D+02 -.238891572590673D+03
 0.520050246314883D+03 0.216055410825264D+03 -.461793965876473D+03 -.102560475941641D+03
0.905359493670D-04 0.000000000000D+00 0.000000000000D+00 0.105373175081D-08 0.000000000000D+00  7 -1 1 23 -11 11 23 21 0 0.56856236D-01 0.15356531D+00 0.23461735D+06 0.23461735D+06 0.23461735D+06 0.10925400D+01  1  2  2  1  7  1       -1 0.529735834025D-03 0.100000000000D+01
-.471666729764D-05 0.000000000000D+00 -.347681884232D-06 0.105373175081D-08 0.000000000000D+00  7 -1 1 23 -11 11 23 21 2 0.56856236D-01 0.15356531D+00 0.23461735D+06 0.23461735D+06 0.23461735D+06 0.10925400D+01  1  2  3  1  7  1       -1 -.329418694074D-04 0.100000000000D+01
0.570614135878D-05 0.000000000000D+00 0.000000000000D+00 0.105373175081D-08 0.000000000000D+00  7 -1 1 23 -11 11 23 21 2 0.56856236D-01 0.15356531D+00 0.23461735D+06 0.23461735D+06 0.23461735D+06 0.10925400D+01  1  2 15  1  7  1       -1 0.398524957559D-04 0.100000000000D+01
  </mgrwgt>
  </event>
  <event>
  9     66 0.58687835E-06 0.19858037E+03 0.75467711E-02 0.10616974E+00
       -1 -1    0    0    0  502 0.00000000E+00 0.00000000E+00 0.67844375E+02 0.67845129E+02 0.32000000E+00 0.0000E+00 0.9000E+01
        1 -1    0    0  501    0 0.00000000E+00 0.00000000E+00 -.11208089E+04 0.11208089E+04 0.32000000E+00 0.0000E+00 0.9000E+01
       25  2    1    2    0    0 -.38294922E+02 -.82348259E+02 -.93950919E+03 0.99043521E+03 0.30006108E+03 0.0000E+00 0.0000E+00
       23  2    1    2    0    0 0.30875380E+02 0.77841371E+02 -.48414007E+02 0.13259647E+03 0.90693657E+02 0.0000E+00 0.0000E+00
       23  1    3    3    0    0 0.90798005E+02 0.94103703E+01 -.44071983E+03 0.45921896E+03 0.91188000E+02 0.0000E+00 0.9000E+01
      -11  1    4    4    0    0 0.13767687E+02 0.42632303E+02 -.73518272E+02 0.86092966E+02 0.51099893E-03 0.0000E+00 0.9000E+01
       11  1    4    4    0    0 0.17107693E+02 0.35209069E+02 0.25104265E+02 0.46503503E+02 0.51099893E-03 0.0000E+00 0.9000E+01
       23  1    3    3    0    0 -.12909293E+03 -.91758630E+02 -.49878936E+03 0.53121625E+03 0.91188000E+02 0.0000E+00 0.9000E+01
       21  1    1    2  501  502 0.74195425E+01 0.45068881E+01 -.65041297E+02 0.65622362E+02 0.75000000E+00 0.0000E+00 0.9000E+01
#aMCatNLO 2  0  0  1  2 0.86811089D+01 0.00000000D+00  -5  7  0 0.00000000D+00 0.00000000D+00 0.00000000D+00 0.00000000D+00 0.00000000D+00
  <mgrwgt>
 0.2792968579D-04    2    2    0
 0.266989022298833D+03 0.000000000000000D+00 0.000000000000000D+00 0.266989022298833D+03
 0.266989022298833D+03 0.000000000000000D+00 0.000000000000000D+00 -.266989022298833D+03
 0.151759400778715D+03 0.928970851146744D+02 0.106854244153820D+02 -.772762425521243D+02
 0.455992730455235D+02 0.143973700564821D+02 0.430147938716854D+02 0.466228977148926D+01
 0.144784244679327D+03 0.191154662241594D+02 0.364286600759672D+02 0.138816530656352D+03
 0.191835126094100D+03 -.126409921395316D+03 -.901288783630347D+02 -.662025778757173D+02
 0.000000000000000D+00 0.000000000000000D+00 0.000000000000000D+00 -.000000000000000D+00
 0.268164773773679D+03 0.000000000000000D+00 0.000000000000000D+00 0.268164773773679D+03
 0.283544160361261D+03 0.000000000000000D+00 0.000000000000000D+00 -.283544160361261D+03
 0.150398476845718D+03 0.907980052695409D+02 0.941037032266834D+01 -.772762425521243D+02
 0.450421954481344D+02 0.137676870538604D+02 0.426323025188832D+02 0.466228977148926D+01
 0.144230304854796D+03 0.171076926038023D+02 0.352090685593253D+02 0.138816530656352D+03
 0.194377629032449D+03 -.129092927433726D+03 -.917586295313773D+02 -.662025778757173D+02
 0.176603279538420D+02 0.741954250652278D+01 0.450688813050047D+01 -.153793865875824D+02
-.967638987153D-07 0.000000000000D+00 0.000000000000D+00 0.444728460000D-06 0.000000000000D+00  7 -1 1 23 -11 11 23 21 2 0.10391587D-01 0.16235969D+00 0.39434162D+05 0.39434162D+05 0.39434162D+05 0.11564757D+01  1  2  8  1  7  1       -1 -.117872647728D-04 0.100000000000D+01
0.366515873800D-06 0.000000000000D+00 0.000000000000D+00 0.444728460000D-06 0.420620825122D-07  7 -1 1 23 -11 11 23 21 2 0.10437349D-01 0.17242710D+00 0.40886947D+05 0.40886947D+05 0.40886947D+05 0.11550620D+01  1  2  1  1  7  1       -1 0.397169505676D-04 0.100000000000D+01
  </mgrwgt>
  </event>
  <event>
  8     66 0.58687835E-06 0.18713392E+03 0.75467711E-02 0.97859663E-01
       -1 -1    0    0    0  501 0.00000000E+00 0.00000000E+00 0.18926229E+03 0.18926256E+03 0.32000000E+00 0.0000E+00 0.9000E+01
        1 -1    0    0  501    0 0.00000000E+00 0.00000000E+00 -.86426892E+03 0.86426898E+03 0.32000000E+00 0.0000E+00 0.9000E+01
       25  2    1    2    0    0 -.33427721E+03 0.27275269E+02 -.28763571E+03 0.53363413E+03 0.29924219E+03 0.0000E+00 0.0000E+00
       23  2    1    2    0    0 0.33427721E+03 -.27275269E+02 -.38737093E+03 0.51989741E+03 0.88044794E+02 0.0000E+00 0.0000E+00
       23  1    3    3    0    0 -.17150354E+03 0.47515940E+02 -.12197521E+02 0.20033786E+03 0.91188000E+02 0.0000E+00 0.9000E+01
      -13  1    4    4    0    0 0.26291679E+02 0.12747753E+02 -.93980321E+01 0.30693514E+02 0.10565837E+00 0.0000E+00 0.9000E+01
       13  1    4    4    0    0 0.30798554E+03 -.40023022E+02 -.37797290E+03 0.48920390E+03 0.10565837E+00 0.0000E+00 0.9000E+01
       23  1    3    3    0    0 -.16277367E+03 -.20240671E+02 -.27543819E+03 0.33329626E+03 0.91188000E+02 0.0000E+00 0.9000E+01
#aMCatNLO 1  0  0  2  1 0.29584997D+02 0.00000000D+00  -5  7  0 0.00000000D+00 0.00000000D+00 0.00000000D+00 0.00000000D+00 0.00000000D+00
  <mgrwgt>
 0.2476585238D-03    9    2    0
 0.404442438991368D+03 0.000000000000000D+00 0.000000000000000D+00 0.404442438991368D+03
 0.404442438991368D+03 0.000000000000000D+00 0.000000000000000D+00 -.404442438991368D+03
 0.250751196214328D+03 -.171503540684589D+03 0.475159401494528D+02 0.151293364108541D+03
 0.321337607514768D+02 0.262912737892247D+02 0.127478286025172D+02 0.133731211201432D+02
 0.321748949218527D+03 0.307985940745817D+03 -.400230978965652D+02 -.840547337209654D+02
 0.204250971798404D+03 -.162773673850453D+03 -.202406708554047D+02 -.806117515077190D+02
 0.000000000000000D+00 0.000000000000000D+00 -.000000000000000D+00 -.000000000000000D+00
 0.408624206127966D+03 0.000000000000000D+00 0.000000000000000D+00 0.408624206127966D+03
 0.460657387925843D+03 0.000000000000000D+00 0.000000000000000D+00 -.460657387925843D+03
 0.257253284445716D+03 -.179642833362601D+03 0.519881853144119D+02 0.151293364108541D+03
 0.315370103385075D+02 0.252711350686711D+02 0.133083577100290D+02 0.133731211201432D+02
 0.311386702447185D+03 0.297841785388968D+03 -.344492536398251D+02 -.840547337209654D+02
 0.209248736160318D+03 -.169398802709504D+03 -.166004036136125D+02 -.806117515077190D+02
 0.598558606620834D+02 0.259287156144651D+02 -.142468857710033D+02 -.520331817978770D+02
0.657792976690D-05 0.000000000000D+00 0.000000000000D+00 0.638035235561D-07 0.000000000000D+00  7 -1 1 23 -13 13 23 21 0 0.29117300D-01 0.13296447D+00 0.13228898D+06 0.13228898D+06 0.13228898D+06 0.11118840D+01  1  2  2  2  7  2        1 0.161503522709D-03 0.100000000000D+01
-.360435185036D-06 0.000000000000D+00 -.252609823136D-07 0.638035235561D-07 0.000000000000D+00  7 -1 1 23 -13 13 23 21 2 0.29117300D-01 0.13296447D+00 0.13228898D+06 0.13228898D+06 0.13228898D+06 0.11118840D+01  1  2  3  2  7  2        1 -.109405431764D-04 0.100000000000D+01
0.425325899824D-06 0.000000000000D+00 0.000000000000D+00 0.638035235561D-07 0.000000000000D+00  7 -1 1 23 -13 13 23 21 2 0.29117300D-01 0.13296447D+00 0.13228898D+06 0.13228898D+06 0.13228898D+06 0.11118840D+01  1  2 15  2  7  2        1 0.129102167720D-04 0.100000000000D+01
0.440381175881D-04 0.000000000000D+00 0.000000000000D+00 0.638035235561D-07 0.000000000000D+00  7 -1 1 23 -13 13 23 21 2 0.29117300D-01 0.15207330D+00 0.14407070D+06 0.14407070D+06 0.14407070D+06 0.11089368D+01  1  2 12  2  7  2        1 0.105917836893D-02 0.100000000000D+01
-.446050679703D-04 0.000000000000D+00 0.000000000000D+00 0.638035235561D-07 0.000000000000D+00  7 -1 1 23 -13 13 23 21 2 0.29117300D-01 0.13296447D+00 0.13228898D+06 0.13228898D+06 0.13228898D+06 0.11118840D+01  1  2  4  2  7  2        1 -.135392906208D-02 0.100000000000D+01
-.619052349380D-04 0.000000000000D+00 -.623138173651D-05 0.638035235561D-07 0.000000000000D+00  7 -1 1 23 -13 13 23 21 2 0.29117300D-01 0.15216571D+00 0.13228898D+06 0.13228898D+06 0.13228898D+06 0.11118840D+01  1  2  5  2  7  2        1 -.149836396307D-02 0.100000000000D+01
0.622350011850D-04 0.000000000000D+00 0.617511892593D-05 0.638035235561D-07 0.000000000000D+00  7 -1 1 23 -13 13 23 21 2 0.29117300D-01 0.13296447D+00 0.13228898D+06 0.13228898D+06 0.13228898D+06 0.11118840D+01  1  2  6  2  7  2        1 0.188906284907D-02 0.100000000000D+01
0.917631739558D-06 0.000000000000D+00 0.000000000000D+00 0.638035235561D-07 0.000000000000D+00  7 -1 21 23 -13 13 23 -1 2 0.29117300D-01 0.15207330D+00 0.14407070D+06 0.14407070D+06 0.14407070D+06 0.11089368D+01  1  2 12  4  7  2        1 0.305834862599D-04 0.100000000000D+01
-.125905002383D-05 0.000000000000D+00 -.130329118355D-06 0.638035235561D-07 0.000000000000D+00  7 -1 21 23 -13 13 23 -1 2 0.29117300D-01 0.15216571D+00 0.13228898D+06 0.13228898D+06 0.13228898D+06 0.11118840D+01  1  2  5  4  7  2        1 -.423463516305D-04 0.100000000000D+01
  </mgrwgt>
  </event>
  <event>
  9     66 -.58687835E-06 0.19323494E+03 0.75467711E-02 0.10616198E+00
       -1 -1    0    0    0  501 0.00000000E+00 0.00000000E+00 0.54102693E+03 0.54102702E+03 0.32000000E+00 0.0000E+00 0.9000E+01
        1 -1    0    0  502    0 0.00000000E+00 0.00000000E+00 -.17143330E+03 0.17143360E+03 0.32000000E+00 0.0000E+00 0.9000E+01
       25  2    1    2    0    0 0.82876559E+01 0.60623033E+02 -.10397539E+02 0.30629810E+03 0.29994429E+03 0.0000E+00 0.0000E+00
       23  2    1    2    0    0 -.26239925E+02 -.62868010E+02 0.36640216E+03 0.38352302E+03 0.90545232E+02 0.0000E+00 0.0000E+00
       23  1    3    3    0    0 -.28652091E+02 -.81480303E+02 -.38105614E+02 0.13125270E+03 0.91188000E+02 0.0000E+00 0.9000E+01
      -13  1    4    4    0    0 0.11037677E+02 -.45779341E+02 0.31126975E+03 0.31481176E+03 0.10565837E+00 0.0000E+00 0.9000E+01
       13  1    4    4    0    0 -.37277602E+02 -.17088669E+02 0.55132415E+02 0.68711255E+02 0.10565837E+00 0.0000E+00 0.9000E+01
       23  1    3    3    0    0 0.36939747E+02 0.14210334E+03 0.27708075E+02 0.17504540E+03 0.91188000E+02 0.0000E+00 0.9000E+01
       21  1    1    2  502  501 0.17952269E+02 0.22449775E+01 0.13589001E+02 0.22639509E+02 0.75000000E+00 0.0000E+00 0.9000E+01
#aMCatNLO 2  0  0  2  1 0.18092095D+02 0.00000000D+00  -5  7  0 0.00000000D+00 0.00000000D+00 0.00000000D+00 0.00000000D+00 0.00000000D+00
  <mgrwgt>
 -.9718898903D-04    3    2    0
 0.295290770171438D+03 0.000000000000000D+00 0.000000000000000D+00 0.295290770171438D+03
 0.295290770171438D+03 0.000000000000000D+00 0.000000000000000D+00 -.295290770171438D+03
 0.175097527045586D+03 -.233141073837331D+02 -.808127742769585D+02 -.123570387002877D+03
 0.180238984652068D+03 0.165115550652678D+02 -.450948660036268D+02 0.173723669077792D+03
 0.458249855296594D+02 -.358671529967429D+02 -.169122417017709D+02 0.229663387444018D+02
 0.189420043115562D+03 0.426697053152082D+02 0.142819881982356D+03 -.731196208193168D+02
 0.000000000000000D+00 0.000000000000000D+00 0.000000000000000D+00 0.000000000000000D+00
 0.305655538078779D+03 0.000000000000000D+00 0.000000000000000D+00 0.305655538078779D+03
 0.303431355967556D+03 0.000000000000000D+00 0.000000000000000D+00 -.303431355967556D+03
 0.176195556006036D+03 -.286520908741162D+02 -.814803028760737D+02 -.123570387002877D+03
 0.179993046035019D+03 0.110377421002904D+02 -.457793804287674D+02 0.173723669077792D+03
 0.470010473882523D+02 -.372776670520986D+02 -.170886301213118D+02 0.229663387444018D+02
 0.187668945905989D+03 0.369397467850925D+02 0.142103335893840D+03 -.731196208193168D+02
 0.182282987110395D+02 0.179522690408319D+02 0.224497753231234D+01 0.222418211122349D+01
-.532940580015D-05 0.000000000000D+00 0.000000000000D+00 0.765283485880D-06 0.000000000000D+00  7 -1 1 23 -13 13 23 21 2 0.80410412D-01 0.26810376D-01 0.40931199D+05 0.40931199D+05 0.40931199D+05 0.11550198D+01  1  2 13  2  7  2        1 -.256947834355D-03 0.100000000000D+01
-.165378930408D-05 0.000000000000D+00 0.000000000000D+00 0.765283485880D-06 0.000000000000D+00  7 -1 1 23 -13 13 23 21 2 0.80410412D-01 0.25666151D-01 0.37339744D+05 0.37339744D+05 0.37339744D+05 0.11586184D+01  1  2  8  2  7  2        1 -.849322997246D-04 0.100000000000D+01
0.532596568147D-05 0.000000000000D+00 0.000000000000D+00 0.765283485880D-06 0.166470825586D-07  7 -1 1 23 -13 13 23 21 2 0.83232834D-01 0.26373716D-01 0.40931199D+05 0.40931199D+05 0.40931199D+05 0.11550198D+01  1  2  1  2  7  2        1 0.244691145049D-03 0.100000000000D+01
  </mgrwgt>
  </event>
  <event>
  8     66 0.58687835E-06 0.22220229E+03 0.75467711E-02 0.86523759E-01
       -1 -1    0    0    0  501 0.00000000E+00 0.00000000E+00 0.57537163E+03 0.57537172E+03 0.32000000E+00 0.0000E+00 0.9000E+01
        1 -1    0    0  501    0 0.00000000E+00 0.00000000E+00 -.13672078E+03 0.13672116E+03 0.32000000E+00 0.0000E+00 0.9000E+01
       25  2    1    2    0    0 -.14650939E+03 -.26519176E+02 0.41796961E+03 0.53537991E+03 0.29960771E+03 0.0000E+00 0.0000E+00
       23  2    1    2    0    0 0.14650939E+03 0.26519176E+02 0.20681240E+02 0.17671297E+03 0.92905825E+02 0.0000E+00 0.0000E+00
       23  1    3    3    0    0 -.10409050E+03 -.84950508E+02 0.86258548E+02 0.18386737E+03 0.91188000E+02 0.0000E+00 0.9000E+01
      -13  1    4    4    0    0 0.21646570E+02 -.22821553E+02 -.18957028E+02 0.36725704E+02 0.10565837E+00 0.0000E+00 0.9000E+01
       13  1    4    4    0    0 0.12486282E+03 0.49340728E+02 0.39638269E+02 0.13998726E+03 0.10565837E+00 0.0000E+00 0.9000E+01
       23  1    3    3    0    0 -.42418883E+02 0.58431332E+02 0.33171106E+03 0.35151254E+03 0.91188000E+02 0.0000E+00 0.9000E+01
#aMCatNLO 1  0  0  2  1 0.10522103D+04 0.00000000D+00  -5  7  0 0.00000000D+00 0.00000000D+00 0.00000000D+00 0.00000000D+00 0.00000000D+00
  <mgrwgt>
 0.2488954132D-03    3    2    0
 0.280473570298814D+03 0.000000000000000D+00 0.000000000000000D+00 0.280473570298814D+03
 0.280473570298814D+03 0.000000000000000D+00 0.000000000000000D+00 -.280473570298814D+03
 0.165957278114943D+03 -.104090506729006D+03 -.849505081204448D+02 -.342803791445980D+02
 0.614453004848590D+02 0.216464429228515D+02 -.228216393142264D+02 -.527837971301203D+02
 0.146710142214774D+03 0.124862949349590D+03 0.493408158505835D+02 -.591489103838760D+02
 0.186834419783054D+03 -.424188855434351D+02 0.584313315840877D+02 0.146213086658594D+03
 0.000000000000000D+00 -.000000000000000D+00 0.000000000000000D+00 0.000000000000000D+00
 0.194340503391968D+04 0.000000000000000D+00 0.000000000000000D+00 0.194340503391968D+04
 0.801650191668273D+03 0.000000000000000D+00 0.000000000000000D+00 -.801650191668273D+03
 0.508367716400072D+03 -.963723603392587D+02 -.489550515781739D+03 -.342803791445980D+02
 0.174188131787339D+03 0.243434411646317D+02 -.164203449684694D+03 -.527837971301203D+02
 0.223790967693235D+03 0.129103607529390D+03 -.172962603311734D+03 -.591489103838760D+02
 0.286049188623363D+03 -.370063842351933D+02 -.225302347488187D+03 0.146213086658594D+03
 0.155265922108395D+04 -.200683041195696D+02 0.105201891626635D+04 0.114175484225141D+04
0.604058849857D-05 0.000000000000D+00 0.000000000000D+00 0.945199357445D-07 0.000000000000D+00  7 -1 1 23 -13 13 23 21 0 0.88518748D-01 0.21034002D-01 0.49373859D+05 0.49373859D+05 0.49373859D+05 0.11477771D+01  1  2  2  2  7  2        1 0.244837525886D-03 0.100000000000D+01
-.313457569291D-06 0.000000000000D+00 -.231974503580D-07 0.945199357445D-07 0.000000000000D+00  7 -1 1 23 -13 13 23 21 2 0.88518748D-01 0.21034002D-01 0.49373859D+05 0.49373859D+05 0.49373859D+05 0.11477771D+01  1  2  3  2  7  2        1 -.167375774716D-04 0.100000000000D+01
0.389452766895D-06 0.000000000000D+00 0.000000000000D+00 0.945199357445D-07 0.000000000000D+00  7 -1 1 23 -13 13 23 21 2 0.88518748D-01 0.21034002D-01 0.49373859D+05 0.49373859D+05 0.49373859D+05 0.11477771D+01  1  2 15  2  7  2        1 0.207954648286D-04 0.100000000000D+01
  </mgrwgt>
  </event>
  <event>
  9     66 0.58687835E-06 0.33615571E+03 0.75467711E-02 0.98789257E-01
       21 -1    0    0  502  501 0.00000000E+00 0.00000000E+00 0.64097038E+02 0.64101425E+02 0.75000000E+00 0.0000E+00 0.9000E+01
        1 -1    0    0  501    0 0.00000000E+00 0.00000000E+00 -.21772959E+04 0.21772960E+04 0.32000000E+00 0.0000E+00 0.9000E+01
       25  2    1    2    0    0 -.27697378E+03 0.88335617E+01 -.88730292E+03 0.97669131E+03 0.29971143E+03 0.0000E+00 0.0000E+00
       23  2    1    2    0    0 0.26210699E+03 -.36053486E+02 -.10903474E+04 0.11256540E+04 0.90772537E+02 0.0000E+00 0.0000E+00
       23  1    3    3    0    0 -.22661908E+03 0.10497471E+03 -.60271764E+03 0.65875618E+03 0.91188000E+02 0.0000E+00 0.9000E+01
      -13  1    4    4    0    0 0.65178077E+02 -.16007984E+02 -.14464260E+03 0.15945511E+03 0.10565837E+00 0.0000E+00 0.9000E+01
       13  1    4    4    0    0 0.19692892E+03 -.20045501E+02 -.94570479E+03 0.96619894E+03 0.10565837E+00 0.0000E+00 0.9000E+01
       23  1    3    3    0    0 -.50354707E+02 -.96141152E+02 -.28458528E+03 0.31793513E+03 0.91188000E+02 0.0000E+00 0.9000E+01
        1  1    1    2  502    0 0.14866791E+02 0.27219924E+02 -.13554859E+03 0.13905204E+03 0.32000000E+00 0.0000E+00 0.9000E+01
#aMCatNLO 2  0  0  1  2 0.31015250D+02 0.00000000D+00  -5  7  0 0.00000000D+00 0.00000000D+00 0.00000000D+00 0.00000000D+00 0.00000000D+00
  <mgrwgt>
 0.4025461478D-04    1    2    0
 0.356298079326687D+03 0.000000000000000D+00 0.000000000000000D+00 0.356298079326687D+03
 0.356298079326687D+03 0.000000000000000D+00 0.000000000000000D+00 -.356298079326687D+03
 0.270078028824512D+03 -.220982328100622D+03 0.115295157630611D+03 0.500072755096240D+02
 0.697594448841298D+02 0.666241082065529D+02 -.133600824994029D+02 0.157834264921344D+02
 0.229292123844992D+03 0.201673438583510D+03 -.113589880194192D+02 -.108506569471277D+03
 0.143466561099740D+03 -.473152186894405D+02 -.905760871117890D+02 0.427158674695187D+02
 0.000000000000000D+00 0.000000000000000D+00 0.000000000000000D+00 -.000000000000000D+00
 0.366654719861063D+03 0.000000000000000D+00 0.000000000000000D+00 0.366654719861063D+03
 0.380637667683479D+03 0.000000000000000D+00 0.000000000000000D+00 -.380637667683479D+03
 0.270539970607231D+03 -.226619077641141D+03 0.104974713132947D+03 0.500072755096240D+02
 0.689458510782173D+02 0.651778984723135D+02 -.160079786294174D+02 0.157834264921344D+02
 0.225735612030305D+03 0.196929095287848D+03 -.200455069624347D+02 -.108506569471277D+03
 0.148049364132580D+03 -.503547073104895D+02 -.961411514080349D+02 0.427158674695187D+02
 0.340215896962089D+02 0.148667911914687D+02 0.272199238669406D+02 -.139829478224161D+02
0.134084295777D-06 0.000000000000D+00 0.000000000000D+00 0.921734302438D-06 0.344450831717D-10  7 21 1 23 -13 13 23 1 2 0.98614020D-02 0.33496827D+00 0.12380128D+06 0.12380128D+06 0.12380128D+06 0.11141914D+01  1  2  1  3  7  1       -1 0.402546147766D-04 0.100000000000D+01
  </mgrwgt>
  </event>
  <event>
  8     66 0.58687835E-06 0.28520480E+03 0.75467711E-02 0.84476738E-01
       -1 -1    0    0    0  501 0.00000000E+00 0.00000000E+00 0.24654047E+03 0.24654067E+03 0.32000000E+00 0.0000E+00 0.9000E+01
        1 -1    0    0  501    0 0.00000000E+00 0.00000000E+00 -.24739394E+04 0.24739394E+04 0.32000000E+00 0.0000E+00 0.9000E+01
       25  2    1    2    0    0 -.11414828E+03 -.17421081E+03 0.10160419E+03 0.37979466E+03 0.30090088E+03 0.0000E+00 0.0000E+00
       23  2    1    2    0    0 0.11414828E+03 0.17421081E+03 -.23290031E+04 0.23406854E+04 0.10570483E+03 0.0000E+00 0.0000E+00
       23  1    3    3    0    0 -.48553377E+02 0.27271008E+02 0.10399687E+03 0.14910311E+03 0.91188000E+02 0.0000E+00 0.9000E+01
      -11  1    4    4    0    0 0.62382743E+02 0.13211621E+02 -.72056863E+03 0.72338462E+03 0.51099893E-03 0.0000E+00 0.9000E+01
       11  1    4    4    0    0 0.51765536E+02 0.16099919E+03 -.16084344E+04 0.16173008E+04 0.51099893E-03 0.0000E+00 0.9000E+01
       23  1    3    3    0    0 -.65594902E+02 -.20148182E+03 -.23926764E+01 0.23069155E+03 0.91188000E+02 0.0000E+00 0.9000E+01
#aMCatNLO 1  0  0  1  2 0.13201739D+04 0.00000000D+00  -5  7  0 0.00000000D+00 0.00000000D+00 0.00000000D+00 0.00000000D+00 0.00000000D+00
  <mgrwgt>
 0.1714385134D-03    5    2    0
 0.780977895263645D+03 0.000000000000000D+00 0.000000000000000D+00 0.780977895263645D+03
 0.780977895263645D+03 0.000000000000000D+00 0.000000000000000D+00 -.780977895263645D+03
 0.407997809930899D+03 -.485533768175571D+02 0.272710080104488D+02 0.393758585031637D+03
 0.232375113720390D+03 0.623827425870238D+02 0.132116206287315D+02 -.223454782862770D+03
 0.523196228520106D+03 0.517655363731011D+02 0.160999192054478D+03 -.495109970551466D+03
 0.398386638355894D+03 -.655949021425677D+02 -.201481820693658D+03 0.324806168382599D+03
 0.000000000000000D+00 -.000000000000000D+00 -.000000000000000D+00 0.000000000000000D+00
 0.172246501818246D+04 0.000000000000000D+00 0.000000000000000D+00 0.172246501818246D+04
 0.164510548743936D+04 0.000000000000000D+00 0.000000000000000D+00 -.164510548743936D+04
 0.524004426745455D+03 0.178992250475990D+03 0.281391788949601D+03 0.393758585031637D+03
 0.347749640169935D+03 0.204018508938010D+03 0.171389090273513D+03 -.223454782862770D+03
 0.815604345961542D+03 0.378629791149752D+03 0.526038066555812D+03 -.495109970551466D+03
 0.357773601717004D+03 0.119019414637851D+03 0.469368314173630D+01 0.324806168382599D+03
 0.132243849102789D+04 -.880659965201603D+03 -.983512628920663D+03 0.773595307430968D+02
0.118718758103D-03 0.000000000000D+00 0.000000000000D+00 0.171022428059D-07 0.000000000000D+00  7 -1 1 23 -11 11 23 21 0 0.37929320D-01 0.38060607D+00 0.81341780D+05 0.81341780D+05 0.81341780D+05 0.11291570D+01  1  2  2  1  7  1       -1 0.151757675304D-03 0.100000000000D+01
0.154180563957D-05 0.000000000000D+00 -.455911290482D-06 0.171022428059D-07 0.000000000000D+00  7 -1 1 23 -11 11 23 21 2 0.37929320D-01 0.38060607D+00 0.81341780D+05 0.81341780D+05 0.81341780D+05 0.11291570D+01  1  2  3  1  7  1       -1 0.251286761323D-05 0.100000000000D+01
0.751553121535D-05 0.000000000000D+00 0.000000000000D+00 0.171022428059D-07 0.000000000000D+00  7 -1 1 23 -11 11 23 21 2 0.37929320D-01 0.38060607D+00 0.81341780D+05 0.81341780D+05 0.81341780D+05 0.11291570D+01  1  2 15  1  7  1       -1 0.122489725699D-04 0.100000000000D+01
0.300453040337D-03 0.000000000000D+00 -.708897343804D-04 0.171022428059D-07 0.000000000000D+00  7 -1 1 23 -11 11 23 21 2 0.30366364D+00 0.38060607D+00 0.81341780D+05 0.81341780D+05 0.81341780D+05 0.11291570D+01  1  2  5  1  7  1       -1 0.156839061279D-05 0.100000000000D+01
0.673707000062D-04 0.000000000000D+00 -.178984254985D-04 0.171022428059D-07 0.000000000000D+00  7 21 1 23 -11 11 23 1 2 0.30366364D+00 0.38060607D+00 0.81341780D+05 0.81341780D+05 0.81341780D+05 0.11291570D+01  1  2  5  3  7  1       -1 0.335060727293D-05 0.100000000000D+01
  </mgrwgt>
  </event>
  <event>
  8     66 0.58687835E-06 0.17088105E+03 0.75467711E-02 0.10129826E+00
       -1 -1    0    0    0  501 0.00000000E+00 0.00000000E+00 0.17441626E+03 0.17441655E+03 0.32000000E+00 0.0000E+00 0.9000E+01
        1 -1    0    0  501    0 0.00000000E+00 0.00000000E+00 -.51012172E+03 0.51012182E+03 0.32000000E+00 0.0000E+00 0.9000E+01
       25  2    1    2    0    0 0.78185639E+02 -.18744436E+03 -.25872654E+03 0.44845281E+03 0.30483130E+03 0.0000E+00 0.0000E+00
       23  2    1    2    0    0 -.78185639E+02 0.18744436E+03 -.76978926E+02 0.23608556E+03 0.92532459E+02 0.0000E+00 0.0000E+00
       23  1    3    3    0    0 0.13665040E+03 -.25882902E+02 -.81056184E+02 0.18500976E+03 0.91188000E+02 0.0000E+00 0.9000E+01
      -11  1    4    4    0    0 -.73019883E+02 0.14416289E+03 -.96613194E+02 0.18827892E+03 0.51099893E-03 0.0000E+00 0.9000E+01
       11  1    4    4    0    0 -.51657560E+01 0.43281473E+02 0.19634269E+02 0.47806646E+02 0.51099893E-03 0.0000E+00 0.9000E+01
       23  1    3    3    0    0 -.58464761E+02 -.16156146E+03 -.17767036E+03 0.26344305E+03 0.91188000E+02 0.0000E+00 0.9000E+01
#aMCatNLO 1  0  0  1  2 0.11711000D+02 0.00000000D+00  -5  7  0 0.00000000D+00 0.00000000D+00 0.00000000D+00 0.00000000D+00 0.00000000D+00
  <mgrwgt>
 0.1241376230D-03    9    2    0
 0.298284524008843D+03 0.000000000000000D+00 0.000000000000000D+00 0.298284524008843D+03
 0.298284524008843D+03 0.000000000000000D+00 0.000000000000000D+00 -.298284524008843D+03
 0.166678576283657D+03 0.136650400321171D+03 -.258829020087654D+02 0.111013478287595D+02
 0.161675446430650D+03 -.730198828386838D+02 0.144162887748610D+03 -.491003918076949D+01
 0.659048859907221D+02 -.516575598898086D+01 0.432814725363467D+02 0.494316001925677D+02
 0.202310139312658D+03 -.584647614935063D+02 -.161561458276191D+03 -.556229088405577D+02
 0.000000000000000D+00 -.000000000000000D+00 0.000000000000000D+00 0.000000000000000D+00
 0.309570688876483D+03 0.000000000000000D+00 0.000000000000000D+00 0.309570688876483D+03
 0.301395496772941D+03 0.000000000000000D+00 0.000000000000000D+00 -.301395496772941D+03
 0.169037702953883D+03 0.139088881126022D+03 -.280986992478541D+02 0.111013478287595D+02
 0.158742537205147D+03 -.706925214596065D+02 0.142048062441040D+03 -.491003918076949D+01
 0.652711445081546D+02 -.421295669919203D+01 0.424156834632813D+02 0.494316001925677D+02
 0.203632599176213D+03 -.555161896282337D+02 -.164240764746567D+03 -.556229088405577D+02
 0.142822018060277D+02 -.866721333898986D+01 0.787571809009963D+01 0.817519210354190D+01
0.149104298655D-05 0.000000000000D+00 0.000000000000D+00 0.319160611492D-08 0.000000000000D+00  7 -1 1 23 -11 11 23 21 0 0.26833301D-01 0.78480296D-01 0.80092242D+05 0.80092242D+05 0.80092242D+05 0.11297205D+01  1  2  2  1  7  1       -1 0.924025332785D-04 0.100000000000D+01
-.825572687528D-07 0.000000000000D+00 -.572599766900D-08 0.319160611492D-08 0.000000000000D+00  7 -1 1 23 -11 11 23 21 2 0.26833301D-01 0.78480296D-01 0.80092242D+05 0.80092242D+05 0.80092242D+05 0.11297205D+01  1  2  3  1  7  1       -1 -.652966698476D-05 0.100000000000D+01
0.969232568754D-07 0.000000000000D+00 0.000000000000D+00 0.319160611492D-08 0.000000000000D+00  7 -1 1 23 -11 11 23 21 2 0.26833301D-01 0.78480296D-01 0.80092242D+05 0.80092242D+05 0.80092242D+05 0.11297205D+01  1  2 15  1  7  1       -1 0.766590998025D-05 0.100000000000D+01
0.469318082468D-05 0.000000000000D+00 0.000000000000D+00 0.319160611492D-08 0.000000000000D+00  7 -1 1 23 -11 11 23 21 2 0.27985045D-01 0.78480296D-01 0.83394845D+05 0.83394845D+05 0.83394845D+05 0.11282515D+01  1  2 12  1  7  1       -1 0.345367335661D-03 0.100000000000D+01
-.468326569750D-05 0.000000000000D+00 0.000000000000D+00 0.319160611492D-08 0.000000000000D+00  7 -1 1 23 -11 11 23 21 2 0.26833301D-01 0.78480296D-01 0.80092242D+05 0.80092242D+05 0.80092242D+05 0.11297205D+01  1  2  4  1  7  1       -1 -.370411544226D-03 0.100000000000D+01
-.327247652197D-04 0.000000000000D+00 -.428645966866D-05 0.319160611492D-08 0.000000000000D+00  7 -1 1 23 -11 11 23 21 2 0.28105751D-01 0.78480296D-01 0.80092242D+05 0.80092242D+05 0.80092242D+05 0.11297205D+01  1  2  5  1  7  1       -1 -.239812059524D-02 0.100000000000D+01
0.328926468536D-04 0.000000000000D+00 0.428186330092D-05 0.319160611492D-08 0.000000000000D+00  7 -1 1 23 -11 11 23 21 2 0.26833301D-01 0.78480296D-01 0.80092242D+05 0.80092242D+05 0.80092242D+05 0.11297205D+01  1  2  6  1  7  1       -1 0.260156414385D-02 0.100000000000D+01
0.811299327260D-07 0.000000000000D+00 0.000000000000D+00 0.319160611492D-08 0.000000000000D+00  7 21 1 23 -11 11 23 1 2 0.27985045D-01 0.78480296D-01 0.83394845D+05 0.83394845D+05 0.83394845D+05 0.11282515D+01  1  2 12  3  7  1       -1 0.666099741755D-04 0.100000000000D+01
-.262274945881D-06 0.000000000000D+00 -.347803482934D-07 0.319160611492D-08 0.000000000000D+00  7 21 1 23 -11 11 23 1 2 0.28105751D-01 0.78480296D-01 0.80092242D+05 0.80092242D+05 0.80092242D+05 0.11297205D+01  1  2  5  3  7  1       -1 -.214410467439D-03 0.100000000000D+01
  </mgrwgt>
  </event>
  <event>
  9     66 0.58687835E-06 0.17378580E+03 0.75467711E-02 0.10802086E+00
       -1 -1    0    0    0  501 0.00000000E+00 0.00000000E+00 0.95691895E+02 0.95692430E+02 0.32000000E+00 0.0000E+00 0.9000E+01
        1 -1    0    0  502    0 0.00000000E+00 0.00000000E+00 -.54857849E+03 0.54857859E+03 0.32000000E+00 0.0000E+00 0.9000E+01
       25  2    1    2    0    0 -.56206086E+02 0.27999088E+02 -.42204057E+03 0.52288804E+03 0.30224260E+03 0.0000E+00 0.0000E+00
       23  2    1    2    0    0 0.54839666E+02 -.19775450E+02 -.31654454E+02 0.11297397E+03 0.91447559E+02 0.0000E+00 0.0000E+00
       23  1    3    3    0    0 -.97995109E+02 -.20936476E+02 -.67844033E+02 0.15152373E+03 0.91188000E+02 0.0000E+00 0.9000E+01
      -13  1    4    4    0    0 0.75361887E+02 -.50157076E+01 -.41871157E+01 0.75644659E+02 0.10565837E+00 0.0000E+00 0.9000E+01
       13  1    4    4    0    0 -.20522222E+02 -.14759742E+02 -.27467339E+02 0.37329311E+02 0.10565837E+00 0.0000E+00 0.9000E+01
       23  1    3    3    0    0 0.41789023E+02 0.48935563E+02 -.35419654E+03 0.37136431E+03 0.91188000E+02 0.0000E+00 0.9000E+01
       21  1    1    2  502  501 0.13664200E+01 -.82236377E+01 0.80842497E+00 0.84090054E+01 0.75000000E+00 0.0000E+00 0.9000E+01
#aMCatNLO 2  0  0  2  2 0.83363853D+01 0.00000000D+00  -5  7  0 0.00000000D+00 0.00000000D+00 0.00000000D+00 0.00000000D+00 0.00000000D+00
  <mgrwgt>
 0.5870990968D-04    2    2    0
 0.222717212656248D+03 0.000000000000000D+00 0.000000000000000D+00 0.222717212656248D+03
 0.222717212656248D+03 0.000000000000000D+00 0.000000000000000D+00 -.222717212656248D+03
 0.147285332028142D+03 -.975435180964888D+02 -.236543922683036D+02 0.574756425837697D+02
 0.104042626309965D+03 0.756806252048686D+02 -.693322788210858D+01 0.710580143911302D+02
 0.255206456884078D+02 -.204443695864274D+02 -.152288979312467D+02 -.118818195849025D+01
 0.168585821285980D+03 0.423072624780476D+02 0.458165180816589D+02 -.127345475016410D+03
 0.000000000000000D+00 0.000000000000000D+00 -.000000000000000D+00 0.000000000000000D+00
 0.234016019684294D+03 0.000000000000000D+00 0.000000000000000D+00 0.234016019684294D+03
 0.224299208959632D+03 0.000000000000000D+00 0.000000000000000D+00 -.224299208959632D+03
 0.147173640532382D+03 -.979951215053374D+02 -.209364704353819D+02 0.574756425837697D+02
 0.103700685115317D+03 0.753620151561093D+02 -.501571089542493D+01 0.710580143911302D+02
 0.253066732490436D+02 -.205223220097996D+02 -.147597504685367D+02 -.118818195849025D+01
 0.169331428061057D+03 0.417890083376257D+02 0.489355694786489D+02 -.127345475016410D+03
 0.128028016861262D+02 0.136642002140196D+01 -.822363767930535D+01 0.971681072466157D+01
-.211491571705D-06 0.000000000000D+00 0.000000000000D+00 0.141769264009D-07 0.000000000000D+00  7 -1 1 23 -13 13 23 21 2 0.14010392D-01 0.83797406D-01 0.30201503D+05 0.30201503D+05 0.30201503D+05 0.11670663D+01  1  2  8  2  7  2        1 -.457501067155D-04 0.100000000000D+01
0.527957779270D-06 0.000000000000D+00 0.000000000000D+00 0.141769264009D-07 0.147874577709D-08  7 -1 1 23 -13 13 23 21 2 0.14721162D-01 0.84392632D-01 0.31726407D+05 0.31726407D+05 0.31726407D+05 0.11650881D+01  1  2  1  2  7  2        1 0.104460016394D-03 0.100000000000D+01
  </mgrwgt>
  </event>
  <event>
  8     66 0.58687835E-06 0.25915371E+03 0.75467711E-02 0.95075471E-01
       -1 -1    0    0    0  501 0.00000000E+00 0.00000000E+00 0.10460822E+04 0.10460822E+04 0.32000000E+00 0.0000E+00 0.9000E+01
        1 -1    0    0  501    0 0.00000000E+00 0.00000000E+00 -.37360408E+03 0.37360422E+03 0.32000000E+00 0.0000E+00 0.9000E+01
       25  2    1    2    0    0 0.32082937E+03 0.18555018E+03 -.15887660E+03 0.50486323E+03 0.30378406E+03 0.0000E+00 0.0000E+00
       23  2    1    2    0    0 -.32082937E+03 -.18555018E+03 0.83135468E+03 0.91482321E+03 0.91599878E+02 0.0000E+00 0.0000E+00
       23  1    3    3    0    0 0.16577604E+02 0.10925471E+03 -.39440208E+01 0.14332555E+03 0.91188000E+02 0.0000E+00 0.9000E+01
      -13  1    4    4    0    0 -.31209632E+03 -.17417146E+03 0.82508435E+03 0.89916851E+03 0.10565837E+00 0.0000E+00 0.9000E+01
       13  1    4    4    0    0 -.87330451E+01 -.11378720E+02 0.62703359E+01 0.15654700E+02 0.10565837E+00 0.0000E+00 0.9000E+01
       23  1    3    3    0    0 0.30425176E+03 0.76295471E+02 -.15493258E+03 0.36153767E+03 0.91188000E+02 0.0000E+00 0.9000E+01
#aMCatNLO 1  0  0  2  1 0.11437496D+03 0.00000000D+00  -5  7  0 0.00000000D+00 0.00000000D+00 0.00000000D+00 0.00000000D+00 0.00000000D+00
  <mgrwgt>
 0.2220932708D-03    6    2    0
 0.625156539250475D+03 0.000000000000000D+00 0.000000000000000D+00 0.625156539250475D+03
 0.625156539250475D+03 0.000000000000000D+00 0.000000000000000D+00 -.625156539250475D+03
 0.164862397223655D+03 0.165776040614556D+02 0.109254705630909D+03 -.815656239810337D+02
 0.577205130536206D+03 -.312096725350807D+03 -.174171672383266D+03 0.453239037685235D+03
 0.144021251766981D+02 -.873264143483769D+01 -.113785038904378D+02 -.130070457488505D+01
 0.493843425564390D+03 0.304251762724189D+03 0.762954706427946D+02 -.370372709129317D+03
 0.000000000000000D+00 0.000000000000000D+00 -.000000000000000D+00 0.000000000000000D+00
 0.690258062276487D+03 0.000000000000000D+00 0.000000000000000D+00 0.690258062276487D+03
 0.680100566365897D+03 0.000000000000000D+00 0.000000000000000D+00 -.680100566365897D+03
 0.173302324040909D+03 0.855823954400704D+01 0.122442842561222D+03 -.815656239810337D+02
 0.580834943571469D+03 -.339558920240194D+03 -.129009093001800D+03 0.453239037685235D+03
 0.139879446243933D+02 -.940589415487125D+01 -.102713152795211D+02 -.130070457488505D+01
 0.487408309689182D+03 0.280981992539555D+03 0.114563454953042D+03 -.370372709129317D+03
 0.114825106716430D+03 0.594245823115030D+02 -.977258892329425D+02 0.101574959105895D+02
0.820051722656D-04 0.000000000000D+00 0.000000000000D+00 0.142003261237D-06 0.000000000000D+00  7 -1 1 23 -13 13 23 21 0 0.16093573D+00 0.57477565D-01 0.17710629D+06 0.17710629D+06 0.17710629D+06 0.11019034D+01  1  2  2  2  7  2        1 0.197867903118D-03 0.100000000000D+01
-.368830038151D-05 0.000000000000D+00 -.314921453958D-06 0.142003261237D-06 0.000000000000D+00  7 -1 1 23 -13 13 23 21 2 0.16093573D+00 0.57477565D-01 0.17710629D+06 0.17710629D+06 0.17710629D+06 0.11019034D+01  1  2  3  2  7  2        1 -.108055642960D-04 0.100000000000D+01
0.510028244351D-05 0.000000000000D+00 0.000000000000D+00 0.142003261237D-06 0.000000000000D+00  7 -1 1 23 -13 13 23 21 2 0.16093573D+00 0.57477565D-01 0.17710629D+06 0.17710629D+06 0.17710629D+06 0.11019034D+01  1  2 15  2  7  2        1 0.149422292576D-04 0.100000000000D+01
0.735161602146D-04 0.000000000000D+00 0.000000000000D+00 0.142003261237D-06 0.000000000000D+00  7 -1 1 23 -13 13 23 21 2 0.16093573D+00 0.65251584D-01 0.23102231D+06 0.23102231D+06 0.23102231D+06 0.10930478D+01  1  2 12  2  7  2        1 0.176179604797D-03 0.100000000000D+01
-.573836859673D-04 0.000000000000D+00 0.000000000000D+00 0.142003261237D-06 0.000000000000D+00  7 -1 1 23 -13 13 23 21 2 0.16093573D+00 0.57477565D-01 0.17710629D+06 0.17710629D+06 0.17710629D+06 0.11019034D+01  1  2  4  2  7  2        1 -.168116217261D-03 0.100000000000D+01
0.146128102865D-05 0.000000000000D+00 0.000000000000D+00 0.142003261237D-06 0.000000000000D+00  7 -1 21 23 -13 13 23 -1 2 0.16093573D+00 0.65251584D-01 0.23102231D+06 0.23102231D+06 0.23102231D+06 0.10930478D+01  1  2 12  4  7  2        1 0.120253151640D-04 0.100000000000D+01
  </mgrwgt>
  </event>
  <event>
  8     66 0.58687835E-06 0.34547044E+03 0.75467711E-02 0.83922441E-01
       -1 -1    0    0    0  501 0.00000000E+00 0.00000000E+00 0.33693388E+03 0.33693403E+03 0.32000000E+00 0.0000E+00 0.9000E+01
        1 -1    0    0  501    0 0.00000000E+00 0.00000000E+00 -.13512753E+04 0.13512753E+04 0.32000000E+00 0.0000E+00 0.9000E+01
       25  2    1    2    0    0 -.14760500E+03 -.26881287E+03 -.12297018E+04 0.13024585E+04 0.30030624E+03 0.0000E+00 0.0000E+00
       23  2    1    2    0    0 0.14760500E+03 0.26881287E+03 0.21536042E+03 0.38575090E+03 0.91520768E+02 0.0000E+00 0.0000E+00
       23  1    3    3    0    0 -.15594581E+03 -.18051559E+03 -.10602518E+04 0.10905752E+04 0.91188000E+02 0.0000E+00 0.9000E+01
      -11  1    4    4    0    0 -.10225212E+01 0.87952747E+01 -.81582683E+01 0.12039923E+02 0.51099893E-03 0.0000E+00 0.9000E+01
       11  1    4    4    0    0 0.14862753E+03 0.26001760E+03 0.22351869E+03 0.37371098E+03 0.51099893E-03 0.0000E+00 0.9000E+01
       23  1    3    3    0    0 0.83408058E+01 -.88297285E+02 -.16945000E+03 0.21188330E+03 0.91188000E+02 0.0000E+00 0.9000E+01
#aMCatNLO 1  0  0  1  1 0.13610019D+04 0.00000000D+00  -5  7  0 0.00000000D+00 0.00000000D+00 0.00000000D+00 0.00000000D+00 0.00000000D+00
  <mgrwgt>
 0.2743627969D-03    5    2    0
 0.674752239839733D+03 0.000000000000000D+00 0.000000000000000D+00 0.674752239839733D+03
 0.674752239839733D+03 0.000000000000000D+00 0.000000000000000D+00 -.674752239839733D+03
 0.567365173972452D+03 -.155945810014552D+03 -.180515586563313D+03 -.506638941100464D+03
 0.892967871225083D+01 -.102252124441868D+01 0.879527465226749D+01 -.115618164659298D+01
 0.635512254686204D+03 0.148627525465090D+03 0.260017596444954D+03 0.560514526189515D+03
 0.137697372308559D+03 0.834080579388071D+01 -.882972845339089D+02 -.527194034424578D+02
 0.000000000000000D+00 0.000000000000000D+00 -.000000000000000D+00 0.000000000000000D+00
 0.172811673924900D+04 0.000000000000000D+00 0.000000000000000D+00 0.172811673924900D+04
 0.155987868789682D+04 0.000000000000000D+00 0.000000000000000D+00 -.155987868789682D+04
 0.776124658975043D+03 -.531206980139521D+03 0.234926291710351D+03 -.506638941100464D+03
 0.199560483609896D+02 -.909083071396889D+01 0.177274901527598D+02 -.115618164659298D+01
 0.996709812506925D+03 -.307281814388194D+03 0.764742965201011D+03 0.560514526189515D+03
 0.123844175513786D+03 -.647125101785851D+02 -.742185904926919D+01 -.527194034424578D+02
 0.137136073178907D+04 0.912292135420269D+03 -.100997488801485D+04 0.168238051352179D+03
0.636939903663D-04 0.000000000000D+00 0.000000000000D+00 0.474187449939D-05 0.000000000000D+00  7 -1 1 23 -11 11 23 21 0 0.51835996D-01 0.20788852D+00 0.11934983D+06 0.11934983D+06 0.11934983D+06 0.11154719D+01  1  2  2  1  7  1       -1 0.254428586407D-03 0.100000000000D+01
-.161045837562D-05 0.000000000000D+00 -.244601694019D-06 0.474187449939D-05 0.000000000000D+00  7 -1 1 23 -11 11 23 21 2 0.51835996D-01 0.20788852D+00 0.11934983D+06 0.11934983D+06 0.11934983D+06 0.11154719D+01  1  2  3  1  7  1       -1 -.800450046567D-05 0.100000000000D+01
0.395013912914D-05 0.000000000000D+00 0.000000000000D+00 0.474187449939D-05 0.000000000000D+00  7 -1 1 23 -11 11 23 21 2 0.51835996D-01 0.20788852D+00 0.11934983D+06 0.11934983D+06 0.11934983D+06 0.11154719D+01  1  2 15  1  7  1       -1 0.196334726668D-04 0.100000000000D+01
0.818885872791D-04 0.000000000000D+00 -.281040843414D-04 0.474187449939D-05 0.000000000000D+00  7 -1 1 23 -11 11 23 21 2 0.28636767D+00 0.20788852D+00 0.11934983D+06 0.11934983D+06 0.11934983D+06 0.11154719D+01  1  2  5  1  7  1       -1 0.312114686830D-05 0.100000000000D+01
0.157910278919D-04 0.000000000000D+00 -.587955910393D-05 0.474187449939D-05 0.000000000000D+00  7 21 1 23 -11 11 23 1 2 0.28636767D+00 0.20788852D+00 0.11934983D+06 0.11934983D+06 0.11934983D+06 0.11154719D+01  1  2  5  3  7  1       -1 0.518409141563D-05 0.100000000000D+01
  </mgrwgt>
  </event>
  <event>
  8     66 0.58687835E-06 0.14035645E+03 0.75467711E-02 0.97680355E-01
       -1 -1    0    0    0  501 0.00000000E+00 0.00000000E+00 0.13022296E+03 0.13022335E+03 0.32000000E+00 0.0000E+00 0.9000E+01
        1 -1    0    0  501    0 0.00000000E+00 0.00000000E+00 -.87819729E+03 0.87819735E+03 0.32000000E+00 0.0000E+00 0.9000E+01
       25  2    1    2    0    0 0.21985996E+03 -.12655626E+03 -.52590960E+03 0.65636025E+03 0.29978821E+03 0.0000E+00 0.0000E+00
       23  2    1    2    0    0 -.21985996E+03 0.12655626E+03 -.22206473E+03 0.35206046E+03 0.10138506E+03 0.0000E+00 0.0000E+00
       23  1    3    3    0    0 0.10697806E+03 0.41980650E+02 -.32529879E+03 0.35684904E+03 0.91188000E+02 0.0000E+00 0.9000E+01
      -11  1    4    4    0    0 -.17746147E+03 0.99358413E+02 -.11477335E+03 0.23353285E+03 0.51099893E-03 0.0000E+00 0.9000E+01
       11  1    4    4    0    0 -.42398492E+02 0.27197850E+02 -.10729138E+03 0.11852761E+03 0.51099893E-03 0.0000E+00 0.9000E+01
       23  1    3    3    0    0 0.11288191E+03 -.16853691E+03 -.20061081E+03 0.29951121E+03 0.91188000E+02 0.0000E+00 0.9000E+01
#aMCatNLO 1  0  0  1  2 0.13147841D+03 0.00000000D+00  -5  7  0 0.00000000D+00 0.00000000D+00 0.00000000D+00 0.00000000D+00 0.00000000D+00
  <mgrwgt>
 0.7716099135D-04    7    2    0
 0.338174037718060D+03 0.000000000000000D+00 0.000000000000000D+00 0.338174037718060D+03
 0.338174037718060D+03 0.000000000000000D+00 0.000000000000000D+00 -.338174037718060D+03
 0.172305970446389D+03 0.106978057262966D+03 0.419806501036348D+02 -.903737594027695D+02
 0.221264527632650D+03 -.177461472554754D+03 0.993584133617196D+02 0.871396731772612D+02
 0.580684752421659D+02 -.423984915846067D+02 0.271978501511849D+02 -.288893176702697D+02
 0.224709102114914D+03 0.112881906876394D+03 -.168536913616539D+03 0.321234038957781D+02
 0.000000000000000D+00 0.000000000000000D+00 -.000000000000000D+00 0.000000000000000D+00
 0.188040416134190D+04 0.000000000000000D+00 0.000000000000000D+00 0.188040416134190D+04
 0.347318213785388D+03 0.000000000000000D+00 0.000000000000000D+00 -.347318213785388D+03
 0.170791863741524D+03 0.886585757052571D+02 0.694755348423371D+02 -.903737594027695D+02
 0.260608372958537D+03 -.203190756846024D+03 0.137974337276886D+03 0.871396731772612D+02
 0.681254568357510D+02 -.491365329857367D+02 0.373106730007329D+02 -.288893176702697D+02
 0.189483226845987D+03 0.907663818696462D+02 -.135344718243492D+03 0.321234038957781D+02
 0.153871345474548D+04 0.729023322568579D+02 -.109415826876464D+03 0.153308594755651D+04
0.470722485278D-05 0.000000000000D+00 0.000000000000D+00 0.161672042755D-07 0.000000000000D+00  7 -1 1 23 -11 11 23 21 0 0.20034337D-01 0.13510731D+00 0.96988618D+05 0.96988618D+05 0.96988618D+05 0.11228134D+01  1  2  2  1  7  1       -1 0.208521747062D-03 0.100000000000D+01
-.259354334980D-06 0.000000000000D+00 -.180769828754D-07 0.161672042755D-07 0.000000000000D+00  7 -1 1 23 -11 11 23 21 2 0.20034337D-01 0.13510731D+00 0.96988618D+05 0.96988618D+05 0.96988618D+05 0.11228134D+01  1  2  3  1  7  1       -1 -.144842191811D-04 0.100000000000D+01
0.305359910803D-06 0.000000000000D+00 0.000000000000D+00 0.161672042755D-07 0.000000000000D+00  7 -1 1 23 -11 11 23 21 2 0.20034337D-01 0.13510731D+00 0.96988618D+05 0.96988618D+05 0.96988618D+05 0.11228134D+01  1  2 15  1  7  1       -1 0.170535027978D-04 0.100000000000D+01
0.825754017562D-04 0.000000000000D+00 0.000000000000D+00 0.161672042755D-07 0.000000000000D+00  7 -1 1 23 -11 11 23 21 2 0.10981466D+00 0.13510731D+00 0.14839675D+06 0.14839675D+06 0.14839675D+06 0.11079204D+01  1  2 12  1  7  1       -1 0.195246060683D-03 0.100000000000D+01
-.104127070297D-03 0.000000000000D+00 -.216609228336D-05 0.161672042755D-07 0.000000000000D+00  7 -1 1 23 -11 11 23 21 2 0.11207749D+00 0.13510731D+00 0.96988618D+05 0.96988618D+05 0.96988618D+05 0.11228134D+01  1  2  5  1  7  1       -1 -.246773129436D-03 0.100000000000D+01
0.171921254818D-04 0.000000000000D+00 0.000000000000D+00 0.161672042755D-07 0.000000000000D+00  7 21 1 23 -11 11 23 1 2 0.10981466D+00 0.13510731D+00 0.14839675D+06 0.14839675D+06 0.14839675D+06 0.11079204D+01  1  2 12  3  7  1       -1 0.279630563146D-03 0.100000000000D+01
-.220597949659D-04 0.000000000000D+00 -.456636427204D-06 0.161672042755D-07 0.000000000000D+00  7 21 1 23 -11 11 23 1 2 0.11207749D+00 0.13510731D+00 0.96988618D+05 0.96988618D+05 0.96988618D+05 0.11228134D+01  1  2  5  3  7  1       -1 -.362033533726D-03 0.100000000000D+01
  </mgrwgt>
  </event>
  <event>
  9     66 0.58687835E-06 0.27990671E+03 0.75467711E-02 0.98717629E-01
       -1 -1    0    0    0  502 0.00000000E+00 0.00000000E+00 0.18753027E+04 0.18753028E+04 0.32000000E+00 0.0000E+00 0.9000E+01
        1 -1    0    0  501    0 0.00000000E+00 0.00000000E+00 -.77823653E+02 0.77824311E+02 0.32000000E+00 0.0000E+00 0.9000E+01
       25  2    1    2    0    0 0.21919565E+03 0.27732285E+02 0.64311646E+03 0.74303386E+03 0.29947406E+03 0.0000E+00 0.0000E+00
       23  2    1    2    0    0 -.14619915E+03 -.13919822E+03 0.83078929E+03 0.86015979E+03 0.94412312E+02 0.0000E+00 0.0000E+00
       23  1    3    3    0    0 -.45752369E+01 0.83893100E+02 0.22188433E+03 0.25417886E+03 0.91188000E+02 0.0000E+00 0.9000E+01
      -11  1    4    4    0    0 -.77019447E+02 -.62442940E+02 0.58792855E+03 0.59623074E+03 0.51099893E-03 0.0000E+00 0.9000E+01
       11  1    4    4    0    0 -.69179703E+02 -.76755280E+02 0.24286074E+03 0.26392905E+03 0.51099893E-03 0.0000E+00 0.9000E+01
       23  1    3    3    0    0 0.22377088E+03 -.56160815E+02 0.42123214E+03 0.48885500E+03 0.91188000E+02 0.0000E+00 0.9000E+01
       21  1    1    2  501  502 -.72996495E+02 0.11146594E+03 0.32357332E+03 0.34993342E+03 0.75000000E+00 0.0000E+00 0.9000E+01
#aMCatNLO 2  0  0  1  2 0.13324092D+03 0.00000000D+00  -5  7  0 0.00000000D+00 0.00000000D+00 0.00000000D+00 0.00000000D+00 0.00000000D+00
  <mgrwgt>
 0.2561734380D-04    1    2    0
 0.308252554225643D+03 0.000000000000000D+00 0.000000000000000D+00 0.308252554225643D+03
 0.308252554225643D+03 0.000000000000000D+00 0.000000000000000D+00 -.308252554225643D+03
 0.146221886371521D+03 -.205990548233988D+02 0.108361533297552D+03 -.299840916459415D+02
 0.142714065588414D+03 -.936601513157105D+02 -.370325196074265D+02 0.101112180590757D+03
 0.100031304188373D+03 -.810817914406087D+02 -.585807439238927D+02 0.548958770474933D+00
 0.227537852302978D+03 0.195340997579718D+03 -.127482697662324D+02 -.716770477152906D+02
 0.000000000000000D+00 -.000000000000000D+00 0.000000000000000D+00 0.000000000000000D+00
 0.384395617674348D+03 0.000000000000000D+00 0.000000000000000D+00 0.384395617674348D+03
 0.379668147990624D+03 0.000000000000000D+00 0.000000000000000D+00 -.379668147990624D+03
 0.127566775200580D+03 -.457523687357596D+01 0.838931001143342D+02 -.299840916459415D+02
 0.141614932531366D+03 -.770194472136268D+02 -.624429403772173D+02 0.101112180590757D+03
 0.103332016541959D+03 -.691797031278824D+02 -.767552797013611D+02 0.548958770474933D+00
 0.258225280173067D+03 0.223770881990698D+03 -.561608153465042D+02 -.716770477152906D+02
 0.133324761217999D+03 -.729964947756131D+02 0.111465935310748D+03 0.472746968372327D+01
0.118510933687D-04 0.000000000000D+00 0.000000000000D+00 0.564343900973D-07 0.212843337800D-10  7 -1 1 23 -11 11 23 21 2 0.28850737D+00 0.11972889D-01 0.12524321D+06 0.12524321D+06 0.12524321D+06 0.11137874D+01  1  2  1  1  7  1       -1 0.256173438011D-04 0.100000000000D+01
  </mgrwgt>
  </event>
  <event>
  8     66 0.58687835E-06 0.27514121E+03 0.75467711E-02 0.96080774E-01
       -1 -1    0    0    0  501 0.00000000E+00 0.00000000E+00 0.22859017E+03 0.22859039E+03 0.32000000E+00 0.0000E+00 0.9000E+01
        1 -1    0    0  501    0 0.00000000E+00 0.00000000E+00 -.72158964E+03 0.72158971E+03 0.32000000E+00 0.0000E+00 0.9000E+01
       25  2    1    2    0    0 -.30227467E+03 -.16405859E+03 -.28025027E+03 0.53571945E+03 0.30028307E+03 0.0000E+00 0.0000E+00
       23  2    1    2    0    0 0.30227467E+03 0.16405859E+03 -.21274920E+03 0.41446065E+03 0.90720516E+02 0.0000E+00 0.0000E+00
       23  1    3    3    0    0 -.13382242E+03 0.46506160E+02 -.13643193E+03 0.21679526E+03 0.91188000E+02 0.0000E+00 0.9000E+01
      -11  1    4    4    0    0 0.35207250E+02 0.31019867E+02 0.18060667E+01 0.46957901E+02 0.51099893E-03 0.0000E+00 0.9000E+01
       11  1    4    4    0    0 0.26706742E+03 0.13303872E+03 -.21455527E+03 0.36750275E+03 0.51099893E-03 0.0000E+00 0.9000E+01
       23  1    3    3    0    0 -.16845225E+03 -.21056475E+03 -.14381834E+03 0.31892419E+03 0.91188000E+02 0.0000E+00 0.9000E+01
#aMCatNLO 1  0  0  2  1 0.79661535D+02 0.00000000D+00  -5  7  0 0.00000000D+00 0.00000000D+00 0.00000000D+00 0.00000000D+00 0.00000000D+00
  <mgrwgt>
 0.2907268681D-03    9    2    0
 0.406138446865997D+03 0.000000000000000D+00 0.000000000000000D+00 0.406138446865997D+03
 0.406138446865997D+03 0.000000000000000D+00 0.000000000000000D+00 -.406138446865997D+03
 0.170796039374644D+03 -.133822420587483D+03 0.465061599203145D+02 -.280137923108950D+02
 0.560262805662442D+02 0.352072498261859D+02 0.310198670994878D+02 0.306130939124773D+02
 0.299673879021117D+03 0.267067421062318D+03 0.133038719267904D+03 -.279307277069829D+02
 0.285780694769988D+03 -.168452250301021D+03 -.210564746287706D+03 0.253314261054005D+02
 0.000000000000000D+00 0.000000000000000D+00 0.000000000000000D+00 -.000000000000000D+00
 0.433005320952292D+03 0.000000000000000D+00 0.000000000000000D+00 0.433005320952292D+03
 0.471754301659601D+03 0.000000000000000D+00 0.000000000000000D+00 -.471754301659601D+03
 0.183675109244920D+03 -.150866010253084D+03 0.433124555158427D+02 -.280137923108950D+02
 0.523409911028473D+02 0.299967628268873D+02 0.300435026360386D+02 0.306130939124773D+02
 0.272964790505061D+03 0.239533957343006D+03 0.127879375134654D+03 -.279307277069829D+02
 0.307192933875522D+03 -.196963454241072D+03 -.215907303776280D+03 0.253314261054005D+02
 0.885857978835419D+02 0.782987443242634D+02 0.146719704897444D+02 -.387489807073094D+02
0.750053799211D-05 0.000000000000D+00 0.000000000000D+00 0.102516511520D-05 0.000000000000D+00  7 -1 1 23 -11 11 23 21 0 0.35167741D-01 0.11101381D+00 0.15937316D+06 0.15937316D+06 0.15937316D+06 0.11054805D+01  1  2  2  2  7  2        1 0.177197802135D-03 0.100000000000D+01
-.416546804382D-06 0.000000000000D+00 -.288040408267D-07 0.102516511520D-05 0.000000000000D+00  7 -1 1 23 -11 11 23 21 2 0.35167741D-01 0.11101381D+00 0.15937316D+06 0.15937316D+06 0.15937316D+06 0.11054805D+01  1  2  3  2  7  2        1 -.120262970805D-04 0.100000000000D+01
0.490839557036D-06 0.000000000000D+00 0.000000000000D+00 0.102516511520D-05 0.000000000000D+00  7 -1 1 23 -11 11 23 21 2 0.35167741D-01 0.11101381D+00 0.15937316D+06 0.15937316D+06 0.15937316D+06 0.11054805D+01  1  2 15  2  7  2        1 0.141712342279D-04 0.100000000000D+01
0.982195861915D-05 0.000000000000D+00 0.000000000000D+00 0.102516511520D-05 0.000000000000D+00  7 -1 1 23 -11 11 23 21 2 0.35167741D-01 0.13217441D+00 0.19418187D+06 0.19418187D+06 0.19418187D+06 0.10988115D+01  1  2 12  2  7  2        1 0.211814581156D-03 0.100000000000D+01
-.966121314294D-05 0.000000000000D+00 0.000000000000D+00 0.102516511520D-05 0.000000000000D+00  7 -1 1 23 -11 11 23 21 2 0.35167741D-01 0.11101381D+00 0.15937316D+06 0.15937316D+06 0.15937316D+06 0.11054805D+01  1  2  4  2  7  2        1 -.278932927087D-03 0.100000000000D+01
-.221940487455D-04 0.000000000000D+00 -.527431212194D-05 0.102516511520D-05 0.000000000000D+00  7 -1 1 23 -11 11 23 21 2 0.35167741D-01 0.13472052D+00 0.15937316D+06 0.15937316D+06 0.15937316D+06 0.11054805D+01  1  2  5  2  7  2        1 -.471875167845D-03 0.100000000000D+01
0.228822190298D-04 0.000000000000D+00 0.517704114407D-05 0.102516511520D-05 0.000000000000D+00  7 -1 1 23 -11 11 23 21 2 0.35167741D-01 0.11101381D+00 0.15937316D+06 0.15937316D+06 0.15937316D+06 0.11054805D+01  1  2  6  2  7  2        1 0.660642119971D-03 0.100000000000D+01
0.252773994471D-06 0.000000000000D+00 0.000000000000D+00 0.102516511520D-05 0.000000000000D+00  7 -1 21 23 -11 11 23 -1 2 0.35167741D-01 0.13217441D+00 0.19418187D+06 0.19418187D+06 0.19418187D+06 0.10988115D+01  1  2 12  4  7  2        1 0.885773462453D-05 0.100000000000D+01
-.561898346407D-06 0.000000000000D+00 -.147173707047D-06 0.102516511520D-05 0.000000000000D+00  7 -1 21 23 -11 11 23 -1 2 0.35167741D-01 0.13472052D+00 0.15937316D+06 0.15937316D+06 0.15937316D+06 0.11054805D+01  1  2  5  4  7  2        1 -.191222119790D-04 0.100000000000D+01
  </mgrwgt>
  </event>
  <event>
  8     66 0.58687835E-06 0.11216429E+03 0.75467711E-02 0.10048323E+00
       -1 -1    0    0    0  501 0.00000000E+00 0.00000000E+00 0.37610156E+03 0.37610169E+03 0.32000000E+00 0.0000E+00 0.9000E+01
        1 -1    0    0  501    0 0.00000000E+00 0.00000000E+00 -.46128982E+03 0.46128993E+03 0.32000000E+00 0.0000E+00 0.9000E+01
       25  2    1    2    0    0 -.23472274E+03 0.55884857E+02 -.31080510E+03 0.49490140E+03 0.30018279E+03 0.0000E+00 0.0000E+00
       23  2    1    2    0    0 0.23472274E+03 -.55884857E+02 0.22561683E+03 0.34249022E+03 0.90436251E+02 0.0000E+00 0.0000E+00
       23  1    3    3    0    0 -.18635577E+03 0.20162590E+02 -.32360198E+03 0.38492661E+03 0.91188000E+02 0.0000E+00 0.9000E+01
      -11  1    4    4    0    0 0.56546876E+02 -.52982088E+02 0.88591375E+02 0.11769912E+03 0.51099893E-03 0.0000E+00 0.9000E+01
       11  1    4    4    0    0 0.17817586E+03 -.29027693E+01 0.13702546E+03 0.22479110E+03 0.51099893E-03 0.0000E+00 0.9000E+01
       23  1    3    3    0    0 -.48366966E+02 0.35722267E+02 0.12796879E+02 0.10997479E+03 0.91188000E+02 0.0000E+00 0.9000E+01
#aMCatNLO 1  0  0  2  1 0.38906918D+02 0.00000000D+00  -5  7  0 0.00000000D+00 0.00000000D+00 0.00000000D+00 0.00000000D+00 0.00000000D+00
  <mgrwgt>
 0.1314440872D-03    9    2    0
 0.416523617032467D+03 0.000000000000000D+00 0.000000000000000D+00 0.416523617032467D+03
 0.416523617032467D+03 0.000000000000000D+00 0.000000000000000D+00 -.416523617032467D+03
 0.353842155011368D+03 -.186355771440796D+03 0.201625902326890D+02 -.285926591496669D+03
 0.127372371456856D+03 0.565468761245514D+02 -.529820876462036D+02 0.101089416853337D+03
 0.239975766830268D+03 0.178175861763665D+03 -.290276934641425D+01 0.160727424171085D+03
 0.111856940766442D+03 -.483669664474197D+02 0.357222667599289D+02 0.241097504722465D+02
 0.000000000000000D+00 0.000000000000000D+00 0.000000000000000D+00 -.000000000000000D+00
 0.423466927690030D+03 0.000000000000000D+00 0.000000000000000D+00 0.423466927690030D+03
 0.475294938169877D+03 0.000000000000000D+00 0.000000000000000D+00 -.475294938169877D+03
 0.359914934067114D+03 -.198477172172528D+03 0.873526313445471D+01 -.285926591496669D+03
 0.127286971769397D+03 0.522221163476498D+02 -.570592108835014D+02 0.101089416853337D+03
 0.234275299208074D+03 0.170121879103649D+03 -.104955794792052D+02 0.160727424171085D+03
 0.112478095007376D+03 -.521767427822405D+02 0.321306389181777D+02 0.241097504722465D+02
 0.648065658079466D+02 0.283099195034700D+02 0.266888883100741D+02 -.518280104798472D+02
0.521018684592D-05 0.000000000000D+00 0.000000000000D+00 0.649688571098D-06 0.000000000000D+00  7 -1 1 23 -11 11 23 21 0 0.57861797D-01 0.70967684D-01 0.82186614D+05 0.82186614D+05 0.82186614D+05 0.11287814D+01  1  2  2  2  7  2        1 0.980272644496D-04 0.100000000000D+01
-.240340897963D-06 0.000000000000D+00 -.200084893620D-07 0.649688571098D-06 0.000000000000D+00  7 -1 1 23 -11 11 23 21 2 0.57861797D-01 0.70967684D-01 0.82186614D+05 0.82186614D+05 0.82186614D+05 0.11287814D+01  1  2  3  2  7  2        1 -.576157126263D-05 0.100000000000D+01
0.338060915428D-06 0.000000000000D+00 0.000000000000D+00 0.649688571098D-06 0.000000000000D+00  7 -1 1 23 -11 11 23 21 2 0.57861797D-01 0.70967684D-01 0.82186614D+05 0.82186614D+05 0.82186614D+05 0.11287814D+01  1  2 15  2  7  2        1 0.810416400975D-05 0.100000000000D+01
0.237910562051D-04 0.000000000000D+00 0.000000000000D+00 0.649688571098D-06 0.000000000000D+00  7 -1 1 23 -11 11 23 21 2 0.57861797D-01 0.81519003D-01 0.94606206D+05 0.94606206D+05 0.94606206D+05 0.11237035D+01  1  2 12  2  7  2        1 0.465506533224D-03 0.100000000000D+01
-.242170754124D-04 0.000000000000D+00 0.000000000000D+00 0.649688571098D-06 0.000000000000D+00  7 -1 1 23 -11 11 23 21 2 0.57861797D-01 0.70967684D-01 0.82186614D+05 0.82186614D+05 0.82186614D+05 0.11287814D+01  1  2  4  2  7  2        1 -.580543748248D-03 0.100000000000D+01
-.350590369330D-04 0.000000000000D+00 -.504197612190D-05 0.649688571098D-06 0.000000000000D+00  7 -1 1 23 -11 11 23 21 2 0.57861797D-01 0.81806293D-01 0.82186614D+05 0.82186614D+05 0.82186614D+05 0.11287814D+01  1  2  5  2  7  2        1 -.691211300871D-03 0.100000000000D+01
0.354673139083D-04 0.000000000000D+00 0.499147526909D-05 0.649688571098D-06 0.000000000000D+00  7 -1 1 23 -11 11 23 21 2 0.57861797D-01 0.70967684D-01 0.82186614D+05 0.82186614D+05 0.82186614D+05 0.11287814D+01  1  2  6  2  7  2        1 0.850240047817D-03 0.100000000000D+01
0.508863633224D-06 0.000000000000D+00 0.000000000000D+00 0.649688571098D-06 0.000000000000D+00  7 -1 21 23 -11 11 23 -1 2 0.57861797D-01 0.81519003D-01 0.94606206D+05 0.94606206D+05 0.94606206D+05 0.11237035D+01  1  2 12  4  7  2        1 0.283852380346D-04 0.100000000000D+01
-.733672219260D-06 0.000000000000D+00 -.110079042531D-06 0.649688571098D-06 0.000000000000D+00  7 -1 21 23 -11 11 23 -1 2 0.57861797D-01 0.81806293D-01 0.82186614D+05 0.82186614D+05 0.82186614D+05 0.11287814D+01  1  2  5  4  7  2        1 -.413025399967D-04 0.100000000000D+01
  </mgrwgt>
  </event>
  <event>
  8     66 0.58687835E-06 0.25839108E+03 0.75467711E-02 0.10005948E+00
       -1 -1    0    0    0  501 0.00000000E+00 0.00000000E+00 0.89415856E+03 0.89415862E+03 0.32000000E+00 0.0000E+00 0.9000E+01
        1 -1    0    0  501    0 0.00000000E+00 0.00000000E+00 -.10949533E+03 0.10949580E+03 0.32000000E+00 0.0000E+00 0.9000E+01
       25  2    1    2    0    0 -.14510847E+03 0.71873555E+02 0.73701735E+03 0.81190083E+03 0.29960992E+03 0.0000E+00 0.0000E+00
       23  2    1    2    0    0 0.14510847E+03 -.71873555E+02 0.47645875E+02 0.19175359E+03 0.90978212E+02 0.0000E+00 0.0000E+00
       23  1    3    3    0    0 -.18264927E+03 -.20519286E+02 0.45981085E+03 0.50351074E+03 0.91188000E+02 0.0000E+00 0.9000E+01
      -13  1    4    4    0    0 0.85374124E+02 -.31703969E+01 0.53031503E+02 0.10055418E+03 0.10565837E+00 0.0000E+00 0.9000E+01
       13  1    4    4    0    0 0.59734346E+02 -.68703158E+02 -.53856280E+01 0.91199409E+02 0.10565837E+00 0.0000E+00 0.9000E+01
       23  1    3    3    0    0 0.37540803E+02 0.92392841E+02 0.27720650E+03 0.30839008E+03 0.91188000E+02 0.0000E+00 0.9000E+01
#aMCatNLO 1  0  0  2  1 0.10269324D+03 0.00000000D+00  -5  7  0 0.00000000D+00 0.00000000D+00 0.00000000D+00 0.00000000D+00 0.00000000D+00
  <mgrwgt>
 0.6096589799D-04    4    2    0
 0.312900069808020D+03 0.000000000000000D+00 0.000000000000000D+00 0.312900069808020D+03
 0.312900069808020D+03 0.000000000000000D+00 0.000000000000000D+00 -.312900069808020D+03
 0.230990865922797D+03 -.182649272745303D+03 -.205192862960211D+02 0.106111878935761D+03
 0.947742380153788D+02 0.853741577887218D+02 -.317030900609868D+01 -.410287522850496D+02
 0.153017931323320D+03 0.597343117329522D+02 -.687032462028133D+02 -.122988468034423D+03
 0.147017104354545D+03 0.375408032236288D+02 0.923928415049331D+02 0.579053413837117D+02
 0.000000000000000D+00 -.000000000000000D+00 0.000000000000000D+00 0.000000000000000D+00
 0.372453391299901D+03 0.000000000000000D+00 0.000000000000000D+00 0.372453391299901D+03
 0.364702066473734D+03 0.000000000000000D+00 0.000000000000000D+00 -.364702066473734D+03
 0.226443463042580D+03 -.169241517015225D+03 -.553079440751851D+02 0.106111878935761D+03
 0.101565500085763D+03 0.911290281206482D+02 -.181022796185804D+02 -.410287522850496D+02
 0.169109533829411D+03 0.691761181152708D+02 -.932015871380346D+02 -.122988468034423D+03
 0.137051602966718D+03 0.458670778321326D+02 0.707889337546756D+02 0.579053413837117D+02
 0.102985357849163D+03 -.369307070528262D+02 0.958228770771245D+02 0.775132482616701D+01
0.692712326697D-05 0.000000000000D+00 0.000000000000D+00 0.432102361574D-06 0.000000000000D+00  7 -1 1 23 -13 13 23 21 0 0.13756290D+00 0.16845476D-01 0.66765950D+05 0.66765950D+05 0.66765950D+05 0.11364101D+01  1  2  2  2  7  2        1 0.134170138793D-03 0.100000000000D+01
-.367697077366D-06 0.000000000000D+00 -.266019772986D-07 0.432102361574D-06 0.000000000000D+00  7 -1 1 23 -13 13 23 21 2 0.13756290D+00 0.16845476D-01 0.66765950D+05 0.66765950D+05 0.66765950D+05 0.11364101D+01  1  2  3  2  7  2        1 -.919736291014D-05 0.100000000000D+01
0.448737096701D-06 0.000000000000D+00 0.000000000000D+00 0.432102361574D-06 0.000000000000D+00  7 -1 1 23 -13 13 23 21 2 0.13756290D+00 0.16845476D-01 0.66765950D+05 0.66765950D+05 0.66765950D+05 0.11364101D+01  1  2 15  2  7  2        1 0.112244512770D-04 0.100000000000D+01
-.300763818193D-05 0.000000000000D+00 0.000000000000D+00 0.432102361574D-06 0.000000000000D+00  7 -1 1 23 -13 13 23 21 2 0.13756290D+00 0.16845476D-01 0.66765950D+05 0.66765950D+05 0.66765950D+05 0.11364101D+01  1  2  4  2  7  2        1 -.752313291684D-04 0.100000000000D+01
  </mgrwgt>
  </event>
  <event>
  7     66 0.58687835E-06 0.24333422E+03 0.75467711E-02 0.92134106E-01
       -1 -1    0    0    0  501 0.00000000E+00 0.00000000E+00 0.26791566E+03 0.26791585E+03 0.32000000E+00 0.0000E+00 0.9000E+01
        1 -1    0    0  501    0 0.00000000E+00 0.00000000E+00 -.45652556E+03 0.45652567E+03 0.32000000E+00 0.0000E+00 0.9000E+01
       25  2    1    2    0    0 -.45198676E+02 -.98958548E+02 -.28916715E+03 0.43105240E+03 0.30058745E+03 0.0000E+00 0.0000E+00
       23  1    3    3    0    0 0.79440250E+01 -.15945206E+03 -.23369970E+03 0.29735310E+03 0.91188000E+02 0.0000E+00 0.9000E+01
      -11  1    1    2    0    0 0.85487908E+02 0.13320901E+02 0.15981131E+03 0.18172860E+03 0.51099893E-03 0.0000E+00 0.9000E+01
       11  1    1    2    0    0 -.40289232E+02 0.85637647E+02 -.59254058E+02 0.11166052E+03 0.51099893E-03 0.0000E+00 0.9000E+01
       23  1    3    3    0    0 -.53142701E+02 0.60493512E+02 -.55467455E+02 0.13369930E+03 0.91188000E+02 0.0000E+00 0.9000E+01
#aMCatNLO 1  0  0  2  1 0.51359287D+03 0.00000000D+00  -5  7  0 0.00000000D+00 0.00000000D+00 0.00000000D+00 0.00000000D+00 0.00000000D+00
  <mgrwgt>
 0.8910695533D-03    3    2    0
 0.349729117179476D+03 0.000000000000000D+00 0.000000000000000D+00 0.349729117179476D+03
 0.349729117179476D+03 0.000000000000000D+00 0.000000000000000D+00 -.349729117179476D+03
 0.244956601935318D+03 0.794400552270007D+01 -.159452102459177D+03 -.161865392488021D+03
 0.231312940229578D+03 0.854878816941736D+02 0.133209944234850D+02 0.214522841461381D+03
 0.996707955269382D+02 -.402891761986630D+02 0.856376176789841D+02 -.312609692823808D+02
 0.123517896667117D+03 -.531427110182107D+02 0.604934903567081D+02 -.213964796909787D+02
 0.000000000000000D+00 -.000000000000000D+00 -.000000000000000D+00 0.000000000000000D+00
 0.127874260274781D+04 0.000000000000000D+00 0.000000000000000D+00 0.127874260274781D+04
 0.511937202468716D+03 0.000000000000000D+00 0.000000000000000D+00 -.511937202468716D+03
 0.297797141517512D+03 0.184887018495499D+03 -.141365735800954D+03 -.161865392488021D+03
 0.350413768076136D+03 0.275136461249861D+03 0.327060703777569D+02 0.214522841461381D+03
 0.100618565376417D+03 0.250071085568856D+02 0.923119278292818D+02 -.312609692823808D+02
 0.118937463449690D+03 0.259001006583175D+02 0.685729123675584D+02 -.213964796909787D+02
 0.922912866796775D+03 -.510930688960563D+03 -.522251747736433D+02 0.766805400279098D+03
0.248385242741D-04 0.000000000000D+00 0.000000000000D+00 0.129925821291D-09 0.000000000000D+00  7 -1 1 23 -11 11 23 21 0 0.41217817D-01 0.70234725D-01 0.59211543D+05 0.59211543D+05 0.59211543D+05 0.11408914D+01  1  2  2  2  7  2        1 0.872770548741D-03 0.100000000000D+01
-.115917600155D-05 0.000000000000D+00 -.953864733460D-07 0.129925821291D-09 0.000000000000D+00  7 -1 1 23 -11 11 23 21 2 0.41217817D-01 0.70234725D-01 0.59211543D+05 0.59211543D+05 0.59211543D+05 0.11408914D+01  1  2  3  2  7  2        1 -.530166542944D-04 0.100000000000D+01
0.155927229605D-05 0.000000000000D+00 0.000000000000D+00 0.129925821291D-09 0.000000000000D+00  7 -1 1 23 -11 11 23 21 2 0.41217817D-01 0.70234725D-01 0.59211543D+05 0.59211543D+05 0.59211543D+05 0.11408914D+01  1  2 15  2  7  2        1 0.713156588474D-04 0.100000000000D+01
  </mgrwgt>
  </event>
  <event>
  8     66 0.58687835E-06 0.93730043E+02 0.75467711E-02 0.10149854E+00
       -1 -1    0    0    0  501 0.00000000E+00 0.00000000E+00 0.58781391E+02 0.58782263E+02 0.32000000E+00 0.0000E+00 0.9000E+01
        1 -1    0    0  501    0 0.00000000E+00 0.00000000E+00 -.20903492E+04 0.20903492E+04 0.32000000E+00 0.0000E+00 0.9000E+01
       25  2    1    2    0    0 -.11159551E+03 -.12482153E+03 -.18624968E+04 0.18945522E+04 0.30397345E+03 0.0000E+00 0.0000E+00
       23  2    1    2    0    0 0.11159551E+03 0.12482153E+03 -.16907101E+03 0.25457926E+03 0.90507562E+02 0.0000E+00 0.0000E+00
       23  1    3    3    0    0 -.59934384E+02 -.29549216E+02 -.23368971E+03 0.25959857E+03 0.91188000E+02 0.0000E+00 0.9000E+01
      -13  1    4    4    0    0 0.89370774E+02 0.70627623E+02 -.15829872E+03 0.19502280E+03 0.10565837E+00 0.0000E+00 0.9000E+01
       13  1    4    4    0    0 0.22224737E+02 0.54193908E+02 -.10772296E+02 0.59556462E+02 0.10565837E+00 0.0000E+00 0.9000E+01
       23  1    3    3    0    0 -.51661128E+02 -.95272315E+02 -.16288070E+04 0.16349536E+04 0.91188000E+02 0.0000E+00 0.9000E+01
#aMCatNLO 1  0  0  1  2 0.12933254D+03 0.00000000D+00  -5  7  0 0.00000000D+00 0.00000000D+00 0.00000000D+00 0.00000000D+00 0.00000000D+00
  <mgrwgt>
 0.2333831338D-03    9    2    0
 0.350534726607641D+03 0.000000000000000D+00 0.000000000000000D+00 0.350534726607641D+03
 0.350534726607641D+03 0.000000000000000D+00 0.000000000000000D+00 -.350534726607641D+03
 0.118611596994208D+03 -.599343828592088D+02 -.295492206382709D+02 0.358911257621307D+02
 0.139123230653038D+03 0.893708684473922D+02 0.706276484233087D+02 0.798740036463113D+02
 0.151354521179332D+03 0.222246487908651D+02 0.541938888722043D+02 0.139561020619852D+03
 0.291980104388704D+03 -.516611343790485D+02 -.952723166572421D+02 -.255326150028293D+03
 0.000000000000000D+00 -.000000000000000D+00 -.000000000000000D+00 0.000000000000000D+00
 0.436627471515921D+03 0.000000000000000D+00 0.000000000000000D+00 0.436627471515921D+03
 0.408605226570125D+03 0.000000000000000D+00 0.000000000000000D+00 -.408605226570125D+03
 0.112894172431799D+03 -.553430869129833D+02 -.887764876133505D+01 0.358911257621307D+02
 0.157764906458965D+03 0.952588482752144D+02 0.971373310153958D+02 0.798740036463113D+02
 0.164557224192474D+03 0.284899108596543D+02 0.824022241003626D+02 0.139561020619852D+03
 0.277682907194893D+03 -.403633966065376D+02 -.444060686204052D+02 -.255326150028293D+03
 0.132333487807917D+03 -.280422756153477D+02 -.126255837734018D+03 0.280222449457954D+02
0.970128830675D-05 0.000000000000D+00 0.000000000000D+00 0.345752499306D-06 0.000000000000D+00  7 -1 1 23 -13 13 23 21 0 0.90433599D-02 0.32159225D+00 0.45618844D+05 0.45618844D+05 0.45618844D+05 0.11508150D+01  1  2  2  1  7  1       -1 0.225083755299D-03 0.100000000000D+01
-.378122534110D-06 0.000000000000D+00 -.372555015058D-07 0.345752499306D-06 0.000000000000D+00  7 -1 1 23 -13 13 23 21 2 0.90433599D-02 0.32159225D+00 0.45618844D+05 0.45618844D+05 0.45618844D+05 0.11508150D+01  1  2  3  1  7  1       -1 -.116187211845D-04 0.100000000000D+01
0.609788332457D-06 0.000000000000D+00 0.000000000000D+00 0.345752499306D-06 0.000000000000D+00  7 -1 1 23 -13 13 23 21 2 0.90433599D-02 0.32159225D+00 0.45618844D+05 0.45618844D+05 0.45618844D+05 0.11508150D+01  1  2 15  1  7  1       -1 0.187372081197D-04 0.100000000000D+01
0.211468471771D-05 0.000000000000D+00 0.000000000000D+00 0.345752499306D-06 0.000000000000D+00  7 -1 1 23 -13 13 23 21 2 0.11860232D-01 0.32159225D+00 0.80875124D+05 0.80875124D+05 0.80875124D+05 0.11293663D+01  1  2 12  1  7  1       -1 0.406151090150D-04 0.100000000000D+01
-.503579335784D-05 0.000000000000D+00 0.000000000000D+00 0.345752499306D-06 0.000000000000D+00  7 -1 1 23 -13 13 23 21 2 0.90433599D-02 0.32159225D+00 0.45618844D+05 0.45618844D+05 0.45618844D+05 0.11508150D+01  1  2  4  1  7  1       -1 -.154736821240D-03 0.100000000000D+01
-.519989692472D-05 0.000000000000D+00 -.417011220595D-05 0.345752499306D-06 0.000000000000D+00  7 -1 1 23 -13 13 23 21 2 0.13573184D-01 0.32159225D+00 0.45618844D+05 0.45618844D+05 0.45618844D+05 0.11508150D+01  1  2  5  1  7  1       -1 -.858820649321D-04 0.100000000000D+01
0.665837100087D-05 0.000000000000D+00 0.384844529247D-05 0.345752499306D-06 0.000000000000D+00  7 -1 1 23 -13 13 23 21 2 0.90433599D-02 0.32159225D+00 0.45618844D+05 0.45618844D+05 0.45618844D+05 0.11508150D+01  1  2  6  1  7  1       -1 0.204594408488D-03 0.100000000000D+01
0.759624158513D-07 0.000000000000D+00 0.000000000000D+00 0.345752499306D-06 0.000000000000D+00  7 21 1 23 -13 13 23 1 2 0.11860232D-01 0.32159225D+00 0.80875124D+05 0.80875124D+05 0.80875124D+05 0.11293663D+01  1  2 12  3  7  1       -1 0.198733942125D-04 0.100000000000D+01
-.105012062997D-06 0.000000000000D+00 -.200704595305D-06 0.345752499306D-06 0.000000000000D+00  7 21 1 23 -13 13 23 1 2 0.13573184D-01 0.32159225D+00 0.45618844D+05 0.45618844D+05 0.45618844D+05 0.11508150D+01  1  2  5  3  7  1       -1 -.232831340092D-04 0.100000000000D+01
  </mgrwgt>
  </event>
  <event>
  8     66 0.58687835E-06 0.62958789E+03 0.75467711E-02 0.82585091E-01
       -1 -1    0    0    0  501 0.00000000E+00 0.00000000E+00 0.38118151E+03 0.38118165E+03 0.32000000E+00 0.0000E+00 0.9000E+01
        1 -1    0    0  501    0 0.00000000E+00 0.00000000E+00 -.12090980E+04 0.12090981E+04 0.32000000E+00 0.0000E+00 0.9000E+01
       25  2    1    2    0    0 0.59360514E+03 0.42007209E+02 -.14847156E+03 0.68230197E+03 0.29893229E+03 0.0000E+00 0.0000E+00
       23  2    1    2    0    0 -.59360514E+03 -.42007209E+02 -.67944496E+03 0.90797775E+03 0.92986357E+02 0.0000E+00 0.0000E+00
       23  1    3    3    0    0 0.71838231E+02 0.66454296E+02 -.51136372E+02 0.14320295E+03 0.91188000E+02 0.0000E+00 0.9000E+01
      -11  1    4    4    0    0 -.14207531E+03 -.57450828E+01 -.10681973E+03 0.17784503E+03 0.51099893E-03 0.0000E+00 0.9000E+01
       11  1    4    4    0    0 -.45152983E+03 -.36262126E+02 -.57262523E+03 0.73013272E+03 0.51099893E-03 0.0000E+00 0.9000E+01
       23  1    3    3    0    0 0.52176691E+03 -.24447087E+02 -.97335186E+02 0.53909902E+03 0.91188000E+02 0.0000E+00 0.9000E+01
#aMCatNLO 1  0  0  1  1 0.14623647D+04 0.00000000D+00  -5  7  0 0.00000000D+00 0.00000000D+00 0.00000000D+00 0.00000000D+00 0.00000000D+00
  <mgrwgt>
 0.1961615396D-03    3    2    0
 0.678885819189427D+03 0.000000000000000D+00 0.000000000000000D+00 0.678885819189427D+03
 0.678885819189427D+03 0.000000000000000D+00 0.000000000000000D+00 -.678885819189427D+03
 0.136544389290402D+03 0.718382307660517D+02 0.664542958946481D+02 0.274265211107583D+02
 0.143165106986256D+03 -.142075307885377D+03 -.574508280584737D+01 -.166687963337356D+02
 0.505997728425611D+03 -.451529832247901D+03 -.362621260288338D+02 -.225476317997988D+03
 0.572064413676585D+03 0.521766909367226D+03 -.244470870599669D+02 0.214718593220965D+03
 0.000000000000000D+00 0.000000000000000D+00 0.000000000000000D+00 -.000000000000000D+00
 0.171215716295027D+04 0.000000000000000D+00 0.000000000000000D+00 0.171215716295027D+04
 0.174611020364987D+04 0.000000000000000D+00 0.000000000000000D+00 -.174611020364987D+04
 0.983089992030153D+02 0.153745728060511D+02 -.189951686249696D+02 0.274265211107583D+02
 0.299930752602186D+03 -.248604803669064D+03 -.166961849468566D+03 -.166687963337356D+02
 0.104434909804318D+04 -.824265578113283D+03 -.600343006408212D+03 -.225476317997988D+03
 0.552919699491112D+03 0.251297240678090D+03 -.433763259502381D+03 0.214718593220965D+03
 0.146275881726065D+04 0.806198568298205D+03 0.122006328400413D+04 -.339530406996032D+02
0.513522793776D-04 0.000000000000D+00 0.000000000000D+00 0.373162234639D-06 0.000000000000D+00  7 -1 1 23 -11 11 23 21 0 0.58643323D-01 0.18601510D+00 0.39638091D+06 0.39638091D+06 0.39638091D+06 0.10757123D+01  1  2  2  1  7  1       -1 0.194111411217D-03 0.100000000000D+01
-.283319074801D-05 0.000000000000D+00 -.197206274176D-06 0.373162234639D-06 0.000000000000D+00  7 -1 1 23 -11 11 23 21 2 0.58643323D-01 0.18601510D+00 0.39638091D+06 0.39638091D+06 0.39638091D+06 0.10757123D+01  1  2  3  1  7  1       -1 -.123925140254D-04 0.100000000000D+01
0.330189344546D-05 0.000000000000D+00 0.000000000000D+00 0.373162234639D-06 0.000000000000D+00  7 -1 1 23 -11 11 23 21 2 0.58643323D-01 0.18601510D+00 0.39638091D+06 0.39638091D+06 0.39638091D+06 0.10757123D+01  1  2 15  1  7  1       -1 0.144426424031D-04 0.100000000000D+01
  </mgrwgt>
  </event>
  <event>
  9     66 0.58687835E-06 0.19854383E+03 0.75467711E-02 0.97422257E-01
       21 -1    0    0  502  501 0.00000000E+00 0.00000000E+00 0.14108166E+03 0.14108366E+03 0.75000000E+00 0.0000E+00 0.9000E+01
        3 -1    0    0  501    0 0.00000000E+00 0.00000000E+00 -.12639206E+04 0.12639207E+04 0.50000000E+00 0.0000E+00 0.9000E+01
       25  2    1    2    0    0 -.28980562E+03 -.33981241E+02 -.42439041E+03 0.59613863E+03 0.30021996E+03 0.0000E+00 0.0000E+00
       23  2    1    2    0    0 -.17817638E+02 0.23332256E+01 -.22994000E+03 0.24749761E+03 0.89776125E+02 0.0000E+00 0.0000E+00
       23  1    3    3    0    0 -.77185574E+02 -.11569418E+03 -.11951727E+03 0.20479840E+03 0.91188000E+02 0.0000E+00 0.9000E+01
      -13  1    4    4    0    0 0.20442731E+02 0.15581940E+02 -.18591929E+03 0.18768776E+03 0.10565837E+00 0.0000E+00 0.9000E+01
       13  1    4    4    0    0 -.38260369E+02 -.13248715E+02 -.44020708E+02 0.59809850E+02 0.10565837E+00 0.0000E+00 0.9000E+01
       23  1    3    3    0    0 -.21262004E+03 0.81712942E+02 -.30487315E+03 0.39134023E+03 0.91188000E+02 0.0000E+00 0.9000E+01
        3  1    1    2  502    0 0.30762326E+03 0.31648015E+02 -.46850850E+03 0.56136809E+03 0.50000000E+00 0.0000E+00 0.9000E+01
#aMCatNLO 2  0  0  1  1 0.30924693D+03 0.00000000D+00  -5  7  0 0.00000000D+00 0.00000000D+00 0.00000000D+00 0.00000000D+00 0.00000000D+00
  <mgrwgt>
 0.4557819519D-05    1    2    0
 0.216760326808769D+03 0.000000000000000D+00 0.000000000000000D+00 0.216760326808769D+03
 0.216760326808769D+03 0.000000000000000D+00 0.000000000000000D+00 -.216760326808769D+03
 0.154931502946609D+03 0.287031677403211D+02 -.104800442250640D+03 0.623018035616657D+02
 0.100270669784383D+03 0.743115574315477D+02 0.211239431321968D+02 -.639200960391514D+02
 0.218317837790781D+02 -.183597080403317D+02 -.112013728859714D+02 0.375195270754081D+01
 0.156486697107468D+03 -.846550171315371D+02 0.948778720044149D+02 -.213366023005513D+01
 0.000000000000000D+00 0.000000000000000D+00 0.000000000000000D+00 -.000000000000000D+00
 0.396864872501943D+03 0.000000000000000D+00 0.000000000000000D+00 0.396864872501943D+03
 0.449314939836074D+03 0.000000000000000D+00 0.000000000000000D+00 -.449314939836074D+03
 0.177593720034515D+03 -.771856084496986D+02 -.115694188155287D+03 0.623018035616657D+02
 0.688947380895004D+02 0.204428077082586D+02 0.155819726533478D+02 -.639200960391514D+02
 0.406627903535853D+02 -.382603757674226D+02 -.132487364059983D+02 0.375195270754081D+01
 0.245365250508566D+03 -.212620079634640D+03 0.817129368173324D+02 -.213366023005513D+01
 0.313663313351850D+03 0.307623256143502D+03 0.316480150906055D+02 -.524500673341307D+02
0.204676689366D-06 0.000000000000D+00 0.000000000000D+00 0.666130451358D-07 0.172361143402D-11  7 21 3 23 -13 13 23 3 2 0.21705022D-01 0.19444939D+00 0.15488295D+06 0.15488295D+06 0.15488295D+06 0.11064557D+01  1  2  1  3  7  1       -3 0.455781951880D-05 0.100000000000D+01
  </mgrwgt>
  </event>
  <event>
  9     66 0.58687835E-06 0.20199481E+03 0.75467711E-02 0.10497519E+00
       -1 -1    0    0    0  501 0.00000000E+00 0.00000000E+00 0.29060241E+03 0.29060259E+03 0.32000000E+00 0.0000E+00 0.9000E+01
        1 -1    0    0  502    0 0.00000000E+00 0.00000000E+00 -.39610018E+03 0.39610031E+03 0.32000000E+00 0.0000E+00 0.9000E+01
       25  2    1    2    0    0 0.96085290E+01 0.86107390E+02 0.15088546E+03 0.34752772E+03 0.30083598E+03 0.0000E+00 0.0000E+00
       23  2    1    2    0    0 -.44066063E+01 -.11722285E+03 -.26743083E+03 0.30574100E+03 0.90541152E+02 0.0000E+00 0.0000E+00
       23  1    3    3    0    0 0.78776195E+02 0.11087027E+03 0.16144538E+03 0.22995166E+03 0.91188000E+02 0.0000E+00 0.9000E+01
      -13  1    4    4    0    0 -.84925255E+01 0.16302700E+01 0.39041794E+01 0.94886538E+01 0.10565837E+00 0.0000E+00 0.9000E+01
       13  1    4    4    0    0 0.40859192E+01 -.11885312E+03 -.27133501E+03 0.29625235E+03 0.10565837E+00 0.0000E+00 0.9000E+01
       23  1    3    3    0    0 -.69167666E+02 -.24762876E+02 -.10559924E+02 0.11757606E+03 0.91188000E+02 0.0000E+00 0.9000E+01
       21  1    1    2  502  501 -.52019227E+01 0.31115457E+02 0.11047603E+02 0.33434170E+02 0.75000000E+00 0.0000E+00 0.9000E+01
#aMCatNLO 2  0  0  2  2 0.31547293D+02 0.00000000D+00  -5  7  0 0.00000000D+00 0.00000000D+00 0.00000000D+00 0.00000000D+00 0.00000000D+00
  <mgrwgt>
 0.1305651700D-03    1    2    0
 0.321006997596184D+03 0.000000000000000D+00 0.000000000000000D+00 0.321006997596184D+03
 0.321006997596184D+03 0.000000000000000D+00 0.000000000000000D+00 -.321006997596184D+03
 0.268025203491567D+03 0.766262846964149D+02 0.123730021085811D+03 0.205770631379759D+03
 0.105112232527440D+02 -.857700935376303D+01 0.213567469107336D+01 0.568855152287448D+01
 0.246397024597546D+03 0.206848052017660D+01 -.106785809712082D+03 -.222045053903473D+03
 0.117080543850511D+03 -.701177558628285D+02 -.190798860648030D+02 0.105858710008399D+02
 0.000000000000000D+00 -.000000000000000D+00 0.000000000000000D+00 0.000000000000000D+00
 0.348026296363924D+03 0.000000000000000D+00 0.000000000000000D+00 0.348026296363924D+03
 0.330736752739661D+03 0.000000000000000D+00 0.000000000000000D+00 -.330736752739661D+03
 0.262972829272094D+03 0.787761952688849D+02 0.110870266130751D+03 0.205770631379759D+03
 0.103509039313661D+02 -.849254254780540D+01 0.163043394275525D+01 0.568855152287448D+01
 0.251886489133228D+03 0.408593619450693D+01 -.118853281697568D+03 -.222045053903473D+03
 0.117578391219205D+03 -.691676662310360D+02 -.247628758629122D+02 0.105858710008399D+02
 0.359744355476919D+02 -.520192268455041D+01 0.311154574869741D+02 0.172895436242633D+02
0.267648548182D-05 0.000000000000D+00 0.000000000000D+00 0.366127664635D-06 0.259835845218D-08  7 -1 1 23 -13 13 23 21 2 0.44707565D-01 0.60937802D-01 0.48392639D+05 0.48392639D+05 0.48392639D+05 0.11485457D+01  1  2  1  2  7  2        1 0.130565170048D-03 0.100000000000D+01
  </mgrwgt>
  </event>
  <event>
  8     66 0.58687835E-06 0.47857723E+03 0.75467711E-02 0.85255094E-01
       -1 -1    0    0    0  501 0.00000000E+00 0.00000000E+00 0.43901925E+03 0.43901937E+03 0.32000000E+00 0.0000E+00 0.9000E+01
        1 -1    0    0  501    0 0.00000000E+00 0.00000000E+00 -.15125011E+04 0.15125012E+04 0.32000000E+00 0.0000E+00 0.9000E+01
       25  2    1    2    0    0 0.24300137E+03 0.35690539E+03 -.13377334E+04 0.14371318E+04 0.29897499E+03 0.0000E+00 0.0000E+00
       23  2    1    2    0    0 -.24300137E+03 -.35690539E+03 0.26425152E+03 0.51438873E+03 0.91300442E+02 0.0000E+00 0.0000E+00
       23  1    3    3    0    0 -.29537453E+02 0.90307750E+02 -.29136816E+03 0.31974773E+03 0.91188000E+02 0.0000E+00 0.9000E+01
      -11  1    4    4    0    0 -.17837772E+03 -.28977086E+03 0.16472404E+03 0.37804731E+03 0.51099893E-03 0.0000E+00 0.9000E+01
       11  1    4    4    0    0 -.64623646E+02 -.67134537E+02 0.99527482E+02 0.13634141E+03 0.51099893E-03 0.0000E+00 0.9000E+01
       23  1    3    3    0    0 0.27253882E+03 0.26659764E+03 -.10463652E+04 0.11173841E+04 0.91188000E+02 0.0000E+00 0.9000E+01
#aMCatNLO 1  0  0  2  2 0.11262409D+04 0.00000000D+00  -5  7  0 0.00000000D+00 0.00000000D+00 0.00000000D+00 0.00000000D+00 0.00000000D+00
  <mgrwgt>
 0.4824736624D-03    3    2    0
 0.814872541394633D+03 0.000000000000000D+00 0.000000000000000D+00 0.814872541394633D+03
 0.814872541394633D+03 0.000000000000000D+00 0.000000000000000D+00 -.814872541394633D+03
 0.190959808385639D+03 -.295374526704019D+02 0.903077495822705D+02 -.138283933737111D+03
 0.561189215097498D+03 -.178377723010642D+03 -.289770855748688D+03 0.446259536854909D+03
 0.228817390716888D+03 -.646236463520519D+02 -.671345367749005D+02 0.208983579734556D+03
 0.648778668589240D+03 0.272538822033096D+03 0.266597642941318D+03 -.516959182852353D+03
 0.000000000000000D+00 0.000000000000000D+00 0.000000000000000D+00 0.000000000000000D+00
 0.217683241515780D+04 0.000000000000000D+00 0.000000000000000D+00 0.217683241515780D+04
 0.125781788826436D+04 0.000000000000000D+00 0.000000000000000D+00 -.125781788826436D+04
 0.177586920086792D+03 -.607104472728265D+02 -.203385865791186D+02 -.138283933737111D+03
 0.908323415238441D+03 -.302674333873337D+03 -.730952871292534D+03 0.446259536854909D+03
 0.334903861991456D+03 -.112305197184930D+03 -.236376823871075D+03 0.208983579734556D+03
 0.560217762104873D+03 0.170277598973027D+03 -.963713245026765D+02 -.516959182852353D+03
 0.145361834400059D+04 0.305412379358067D+03 0.108403960624540D+04 0.919014526893444D+03
0.254896999714D-03 0.000000000000D+00 0.000000000000D+00 0.176981219475D-05 0.000000000000D+00  7 -1 1 23 -11 11 23 21 0 0.67541435D-01 0.23269249D+00 0.22903617D+06 0.22903617D+06 0.22903617D+06 0.10933321D+01  1  2  2  2  7  2        1 0.467400594993D-03 0.100000000000D+01
-.928401479806D-05 0.000000000000D+00 -.978871594822D-06 0.176981219475D-05 0.000000000000D+00  7 -1 1 23 -11 11 23 21 2 0.67541435D-01 0.23269249D+00 0.22903617D+06 0.22903617D+06 0.22903617D+06 0.10933321D+01  1  2  3  2  7  2        1 -.203500078270D-04 0.100000000000D+01
0.161606008832D-04 0.000000000000D+00 0.000000000000D+00 0.176981219475D-05 0.000000000000D+00  7 -1 1 23 -11 11 23 21 2 0.67541435D-01 0.23269249D+00 0.22903617D+06 0.22903617D+06 0.22903617D+06 0.10933321D+01  1  2 15  2  7  2        1 0.354230752122D-04 0.100000000000D+01
  </mgrwgt>
  </event>
  <event>
  9     66 0.58687835E-06 0.33283668E+03 0.75467711E-02 0.94226837E-01
       21 -1    0    0  502  501 0.00000000E+00 0.00000000E+00 0.54038377E+03 0.54038429E+03 0.75000000E+00 0.0000E+00 0.9000E+01
        1 -1    0    0  501    0 0.00000000E+00 0.00000000E+00 -.56323712E+03 0.56323722E+03 0.32000000E+00 0.0000E+00 0.9000E+01
       25  2    1    2    0    0 0.12830243E+03 0.18748245E+03 -.79265581E+02 0.38529300E+03 0.30092603E+03 0.0000E+00 0.0000E+00
       23  2    1    2    0    0 0.13830921E+03 -.33244748E+03 -.88157860E+02 0.38217789E+03 0.92937422E+02 0.0000E+00 0.0000E+00
       23  1    3    3    0    0 0.63317104E+02 0.22647074E+03 -.86152351E+02 0.26652491E+03 0.91188000E+02 0.0000E+00 0.9000E+01
      -13  1    4    4    0    0 0.13457484E+03 -.29722928E+03 -.49943205E+02 0.33007570E+03 0.10565837E+00 0.0000E+00 0.9000E+01
       13  1    4    4    0    0 0.37343747E+01 -.35218203E+02 -.38214655E+02 0.52102192E+02 0.10565837E+00 0.0000E+00 0.9000E+01
       23  1    3    3    0    0 0.64985326E+02 -.38988285E+02 0.68867694E+01 0.11876808E+03 0.91188000E+02 0.0000E+00 0.9000E+01
        1  1    1    2  502    0 -.26661164E+03 0.14496503E+03 0.14457009E+03 0.33615062E+03 0.32000000E+00 0.0000E+00 0.9000E+01
#aMCatNLO 2  0  0  1  2 0.30347426D+03 0.00000000D+00  -5  7  0 0.00000000D+00 0.00000000D+00 0.00000000D+00 0.00000000D+00 0.00000000D+00
  <mgrwgt>
 0.1921263580D-04    2    2    0
 0.342375643298558D+03 0.000000000000000D+00 0.000000000000000D+00 0.342375643298558D+03
 0.342375643298558D+03 0.000000000000000D+00 0.000000000000000D+00 -.342375643298558D+03
 0.300949341151051D+03 -.398499514041567D+02 0.282565869000413D+03 -.287013178160828D+02
 0.242416388238917D+03 0.286780279015593D+02 -.239650140586255D+03 0.226072138811270D+02
 0.401425620407502D+02 -.120697863617995D+02 -.266247433867894D+02 -.275112446821953D+02
 0.101242995166397D+03 0.232417098643969D+02 -.162909850273690D+02 0.336053486171511D+02
 0.000000000000000D+00 -.000000000000000D+00 0.000000000000000D+00 0.000000000000000D+00
 0.674513977128950D+03 0.000000000000000D+00 0.000000000000000D+00 0.674513977128950D+03
 0.451235211813655D+03 0.000000000000000D+00 0.000000000000000D+00 -.451235211813655D+03
 0.253844574159273D+03 0.633171042300244D+02 0.226470737963312D+03 -.287013178160828D+02
 0.327058043636721D+03 0.134575008337430D+03 -.297229616490337D+03 0.226072138811270D+02
 0.448454109385681D+02 0.373420624631925D+01 -.352178648131226D+02 -.275112446821953D+02
 0.123238588544090D+03 0.649853256402742D+02 -.389882848825992D+02 0.336053486171511D+02
 0.376762571663953D+03 -.266611644454048D+03 0.144965028222746D+03 0.223278765315295D+03
-.185645455571D-08 0.000000000000D+00 0.000000000000D+00 0.783884329121D-07 0.000000000000D+00  7 21 1 23 -13 13 23 1 2 0.84396939D-01 0.65747307D-01 0.26829828D+06 0.26829828D+06 0.26829828D+06 0.10881587D+01  1  2 13  3  7  1       -1 -.158137349094D-06 0.100000000000D+01
0.322289443684D-06 0.000000000000D+00 0.000000000000D+00 0.783884329121D-07 0.744065580413D-12  7 21 1 23 -13 13 23 1 2 0.83136001D-01 0.86651900D-01 0.26829828D+06 0.26829828D+06 0.26829828D+06 0.10881587D+01  1  2  1  3  7  1       -1 0.193707731470D-04 0.100000000000D+01
  </mgrwgt>
  </event>
  <event>
  8     66 0.58687835E-06 0.25912025E+03 0.75467711E-02 0.99708710E-01
       -1 -1    0    0    0  501 0.00000000E+00 0.00000000E+00 0.27705832E+03 0.27705851E+03 0.32000000E+00 0.0000E+00 0.9000E+01
        1 -1    0    0  501    0 0.00000000E+00 0.00000000E+00 -.30852844E+03 0.30852861E+03 0.32000000E+00 0.0000E+00 0.9000E+01
       25  2    1    2    0    0 -.17240371E+03 -.82592113E+02 0.46040764E+02 0.35923376E+03 0.30064039E+03 0.0000E+00 0.0000E+00
       23  2    1    2    0    0 0.17240371E+03 0.82592113E+02 -.77510883E+02 0.22635336E+03 0.93184823E+02 0.0000E+00 0.0000E+00
       23  1    3    3    0    0 -.18349035E+03 -.89564198E+02 -.46776853E+02 0.22845958E+03 0.91188000E+02 0.0000E+00 0.9000E+01
      -13  1    4    4    0    0 0.19626875E+02 -.11811080E+02 0.11815164E+02 0.25774505E+02 0.10565837E+00 0.0000E+00 0.9000E+01
       13  1    4    4    0    0 0.15277683E+03 0.94403193E+02 -.89326047E+02 0.20057885E+03 0.10565837E+00 0.0000E+00 0.9000E+01
       23  1    3    3    0    0 0.11086647E+02 0.69720850E+01 0.92817617E+02 0.13077418E+03 0.91188000E+02 0.0000E+00 0.9000E+01
#aMCatNLO 1  0  0  1  2 0.11942777D+03 0.00000000D+00  -5  7  0 0.00000000D+00 0.00000000D+00 0.00000000D+00 0.00000000D+00 0.00000000D+00
  <mgrwgt>
 0.1970042618D-03    3    2    0
 0.292370443012453D+03 0.000000000000000D+00 0.000000000000000D+00 0.292370443012453D+03
 0.292370443012453D+03 0.000000000000000D+00 0.000000000000000D+00 -.292370443012453D+03
 0.226272729813585D+03 -.183490356170246D+03 -.895641990284368D+02 -.345491006858728D+02
 0.264474627095595D+02 0.196267043326614D+02 -.118112123872310D+02 0.132195318659758D+02
 0.196061918705407D+03 0.152777006906738D+03 0.944033272406834D+02 -.786604979195561D+02
 0.135958774796355D+03 0.110866449308467D+02 0.697208417498440D+01 0.999900667394531D+02
 0.000000000000000D+00 -.000000000000000D+00 -.000000000000000D+00 -.000000000000000D+00
 0.308873297595398D+03 0.000000000000000D+00 0.000000000000000D+00 0.308873297595398D+03
 0.639066695938856D+03 0.000000000000000D+00 0.000000000000000D+00 -.639066695938856D+03
 0.204183937787797D+03 -.173037981372097D+03 -.473291215954644D+02 -.345491006858728D+02
 0.256147530927742D+02 0.208908822008319D+02 -.670302872731411D+01 0.132195318659758D+02
 0.226321827999306D+03 0.163033354552147D+03 0.135846314633371D+03 -.786604979195561D+02
 0.140691759607678D+03 0.178042899142833D+02 0.341161793229021D+02 0.999900667394531D+02
 0.351127715046698D+03 -.286905452951657D+02 -.115930343633495D+03 -.330193398343458D+03
0.348722161131D-05 0.000000000000D+00 0.000000000000D+00 0.753245394638D-07 0.000000000000D+00  7 -1 1 23 -13 13 23 21 0 0.42624384D-01 0.47465941D-01 0.67143305D+05 0.67143305D+05 0.67143305D+05 0.11362011D+01  1  2  2  1  7  1       -1 0.193999031789D-03 0.100000000000D+01
-.190301211799D-06 0.000000000000D+00 -.133918491940D-07 0.753245394638D-07 0.000000000000D+00  7 -1 1 23 -13 13 23 21 2 0.42624384D-01 0.47465941D-01 0.67143305D+05 0.67143305D+05 0.67143305D+05 0.11362011D+01  1  2  3  1  7  1       -1 -.136669622732D-04 0.100000000000D+01
0.232146568706D-06 0.000000000000D+00 0.000000000000D+00 0.753245394638D-07 0.000000000000D+00  7 -1 1 23 -13 13 23 21 2 0.42624384D-01 0.47465941D-01 0.67143305D+05 0.67143305D+05 0.67143305D+05 0.11362011D+01  1  2 15  1  7  1       -1 0.166721922911D-04 0.100000000000D+01
  </mgrwgt>
  </event>
  <event>
  8     66 0.58687835E-06 0.13349722E+03 0.75467711E-02 0.10215040E+00
       -1 -1    0    0    0  501 0.00000000E+00 0.00000000E+00 0.49610291E+02 0.49611323E+02 0.32000000E+00 0.0000E+00 0.9000E+01
        1 -1    0    0  501    0 0.00000000E+00 0.00000000E+00 -.14025046E+04 0.14025046E+04 0.32000000E+00 0.0000E+00 0.9000E+01
       25  2    1    2    0    0 -.12422202E+03 0.10329709E+03 -.99611365E+03 0.10527084E+04 0.29975182E+03 0.0000E+00 0.0000E+00
       23  2    1    2    0    0 0.12422202E+03 -.10329709E+03 -.35678066E+03 0.39940757E+03 0.78310721E+02 0.0000E+00 0.0000E+00
       23  1    3    3    0    0 0.14509116E+02 0.12764494E+03 -.32837150E+03 0.36420714E+03 0.91188000E+02 0.0000E+00 0.9000E+01
      -11  1    4    4    0    0 0.61291629E+02 -.20809788E+02 -.20935991E+03 0.21913759E+03 0.51099893E-03 0.0000E+00 0.9000E+01
       11  1    4    4    0    0 0.62930390E+02 -.82487301E+02 -.14742076E+03 0.18026999E+03 0.51099893E-03 0.0000E+00 0.9000E+01
       23  1    3    3    0    0 -.13873113E+03 -.24347853E+02 -.66774215E+03 0.68850125E+03 0.91188000E+02 0.0000E+00 0.9000E+01
#aMCatNLO 1  0  0  1  2 0.44614316D+02 0.00000000D+00  -5  7  0 0.00000000D+00 0.00000000D+00 0.00000000D+00 0.00000000D+00 0.00000000D+00
  <mgrwgt>
 0.3368918181D-03    9    2    0
 0.263779144735996D+03 0.000000000000000D+00 0.000000000000000D+00 0.263779144735996D+03
 0.263779144735996D+03 0.000000000000000D+00 0.000000000000000D+00 -.263779144735996D+03
 0.160397561528087D+03 0.145091157941009D+02 0.127644941487076D+03 0.301393575212001D+02
 0.662890912255541D+02 0.612916287899678D+02 -.208097882091307D+02 -.143014884006441D+02
 0.118144712684958D+03 0.629303902546731D+02 -.824873006042562D+02 0.565135767477944D+02
 0.182726924033394D+03 -.138731134838742D+03 -.243478526736896D+02 -.723514458683504D+02
 0.000000000000000D+00 0.000000000000000D+00 0.000000000000000D+00 0.000000000000000D+00
 0.350031729440526D+03 0.000000000000000D+00 0.000000000000000D+00 0.350031729440526D+03
 0.270553578457478D+03 0.000000000000000D+00 0.000000000000000D+00 -.270553578457478D+03
 0.151230077011896D+03 0.738786038207430D+01 0.116586120512727D+03 0.301393575212001D+02
 0.651990611631973D+02 0.582868865880156D+02 -.254759466549212D+02 -.143014884006441D+02
 0.121550096969468D+03 0.574529301407903D+02 -.909934202824338D+02 0.565135767477944D+02
 0.191462155364311D+03 -.147282032375515D+03 -.376268097617167D+02 -.723514458683504D+02
 0.911439173891324D+02 0.241543552646352D+02 0.375100561863442D+02 0.794781509830474D+02
0.344261510322D-05 0.000000000000D+00 0.000000000000D+00 0.181928037015D-08 0.000000000000D+00  7 -1 1 23 -11 11 23 21 0 0.76324346D-02 0.21577002D+00 0.60962753D+05 0.60962753D+05 0.60962753D+05 0.11397987D+01  1  2  2  1  7  1       -1 0.287724173195D-03 0.100000000000D+01
-.190240286721D-06 0.000000000000D+00 -.132205484577D-07 0.181928037015D-08 0.000000000000D+00  7 -1 1 23 -11 11 23 21 2 0.76324346D-02 0.21577002D+00 0.60962753D+05 0.60962753D+05 0.60962753D+05 0.11397987D+01  1  2  3  1  7  1       -1 -.206560211802D-04 0.100000000000D+01
0.228974689024D-06 0.000000000000D+00 0.000000000000D+00 0.181928037015D-08 0.000000000000D+00  7 -1 1 23 -11 11 23 21 2 0.76324346D-02 0.21577002D+00 0.60962753D+05 0.60962753D+05 0.60962753D+05 0.11397987D+01  1  2 15  1  7  1       -1 0.248617477807D-04 0.100000000000D+01
0.112978037152D-04 0.000000000000D+00 0.000000000000D+00 0.181928037015D-08 0.000000000000D+00  7 -1 1 23 -11 11 23 21 2 0.10202890D-01 0.21577002D+00 0.73251600D+05 0.73251600D+05 0.73251600D+05 0.11329871D+01  1  2 12  1  7  1       -1 0.778066364735D-03 0.100000000000D+01
-.112637608318D-04 0.000000000000D+00 0.000000000000D+00 0.181928037015D-08 0.000000000000D+00  7 -1 1 23 -11 11 23 21 2 0.76324346D-02 0.21577002D+00 0.60962753D+05 0.60962753D+05 0.60962753D+05 0.11397987D+01  1  2  4  1  7  1       -1 -.122300321515D-02 0.100000000000D+01
-.138065908115D-04 0.000000000000D+00 -.180826535045D-05 0.181928037015D-08 0.000000000000D+00  7 -1 1 23 -11 11 23 21 2 0.10375789D-01 0.21577002D+00 0.60962753D+05 0.60962753D+05 0.60962753D+05 0.11397987D+01  1  2  5  1  7  1       -1 -.940451887627D-03 0.100000000000D+01
0.137886798432D-04 0.000000000000D+00 0.172623950150D-05 0.181928037015D-08 0.000000000000D+00  7 -1 1 23 -11 11 23 21 2 0.76324346D-02 0.21577002D+00 0.60962753D+05 0.60962753D+05 0.60962753D+05 0.11397987D+01  1  2  6  1  7  1       -1 0.149715534914D-02 0.100000000000D+01
0.426419829936D-06 0.000000000000D+00 0.000000000000D+00 0.181928037015D-08 0.000000000000D+00  7 21 1 23 -11 11 23 1 2 0.10202890D-01 0.21577002D+00 0.73251600D+05 0.73251600D+05 0.73251600D+05 0.11329871D+01  1  2 12  3  7  1       -1 0.412408842185D-03 0.100000000000D+01
-.500717787146D-06 0.000000000000D+00 -.710842065142D-07 0.181928037015D-08 0.000000000000D+00  7 21 1 23 -11 11 23 1 2 0.10375789D-01 0.21577002D+00 0.60962753D+05 0.60962753D+05 0.60962753D+05 0.11397987D+01  1  2  5  3  7  1       -1 -.479213535026D-03 0.100000000000D+01
  </mgrwgt>
  </event>
  <event>
  9     66 0.58687835E-06 0.20485189E+03 0.75467711E-02 0.10120558E+00
       21 -1    0    0  502  501 0.00000000E+00 0.00000000E+00 0.11844096E+04 0.11844099E+04 0.75000000E+00 0.0000E+00 0.9000E+01
        1 -1    0    0  501    0 0.00000000E+00 0.00000000E+00 -.16129056E+03 0.16129088E+03 0.32000000E+00 0.0000E+00 0.9000E+01
       25  2    1    2    0    0 0.12854395E+03 0.66194940E+02 0.89826121E+03 0.95742284E+03 0.29812743E+03 0.0000E+00 0.0000E+00
       23  2    1    2    0    0 0.35200390E+02 -.87382712E+02 -.55345220E+02 0.14387172E+03 0.93601142E+02 0.0000E+00 0.0000E+00
       23  1    3    3    0    0 -.12005330E+02 0.11300521E+03 0.53770588E+03 0.55709709E+03 0.91188000E+02 0.0000E+00 0.9000E+01
      -11  1    4    4    0    0 0.63280821E+01 -.46168714E+02 -.76265139E+02 0.89375423E+02 0.51099893E-03 0.0000E+00 0.9000E+01
       11  1    4    4    0    0 0.28872308E+02 -.41213998E+02 0.20919919E+02 0.54496301E+02 0.51099893E-03 0.0000E+00 0.9000E+01
       23  1    3    3    0    0 0.14054928E+03 -.46810269E+02 0.36055534E+03 0.40032575E+03 0.91188000E+02 0.0000E+00 0.9000E+01
        1  1    1    2  502    0 -.16374434E+03 0.21187772E+02 0.18020309E+03 0.24440619E+03 0.32000000E+00 0.0000E+00 0.9000E+01
#aMCatNLO 2  0  0  1  2 0.16510945D+03 0.00000000D+00  -5  7  0 0.00000000D+00 0.00000000D+00 0.00000000D+00 0.00000000D+00 0.00000000D+00
  <mgrwgt>
 0.1185741358D-04    1    2    0
 0.344630673666561D+03 0.000000000000000D+00 0.000000000000000D+00 0.344630673666561D+03
 0.344630673666561D+03 0.000000000000000D+00 0.000000000000000D+00 -.344630673666561D+03
 0.238874912198123D+03 -.664718211005262D+02 0.120052925183000D+03 0.172958852008927D+03
 0.233147227747414D+03 -.478685660615425D+02 -.391559147313820D+02 -.224795561635600D+03
 0.533641352009387D+02 0.156180744299323D+02 -.394989606849402D+02 -.323053986456553D+02
 0.163875072186646D+03 0.987223127321363D+02 -.413980497666778D+02 0.841421082723289D+02
 0.000000000000000D+00 -.000000000000000D+00 0.000000000000000D+00 -.000000000000000D+00
 0.431775976080519D+03 0.000000000000000D+00 0.000000000000000D+00 0.431775976080519D+03
 0.442438533477271D+03 0.000000000000000D+00 0.000000000000000D+00 -.442438533477271D+03
 0.226151102428202D+03 -.120053297552656D+02 0.113005209414047D+03 0.172958852008927D+03
 0.229574910016687D+03 0.632808212391601D+01 -.461687140251681D+02 -.224795561635600D+03
 0.597983494972481D+02 0.288723081707581D+02 -.412139981296779D+02 -.323053986456553D+02
 0.193236765887600D+03 0.140549282032748D+03 -.468102689830544D+02 0.841421082723289D+02
 0.165453381728053D+03 -.163744342572156D+03 0.211877717238535D+02 -.106625573967521D+02
0.283852178326D-06 0.000000000000D+00 0.000000000000D+00 0.162952653739D-07 0.179803463978D-12  7 21 1 23 -11 11 23 1 2 0.18221685D+00 0.24813966D-01 0.84590843D+05 0.84590843D+05 0.84590843D+05 0.11277352D+01  1  2  1  3  7  1       -1 0.118574135814D-04 0.100000000000D+01
  </mgrwgt>
  </event>
  <event>
  7     66 0.58687835E-06 0.16995368E+03 0.75467711E-02 0.10746800E+00
       -1 -1    0    0    0  501 0.00000000E+00 0.00000000E+00 0.40399898E+02 0.40401165E+02 0.32000000E+00 0.0000E+00 0.9000E+01
        1 -1    0    0  501    0 0.00000000E+00 0.00000000E+00 -.14399679E+04 0.14399679E+04 0.32000000E+00 0.0000E+00 0.9000E+01
       23  2    1    2    0    0 0.46773730E+02 0.25563490E+02 -.11365522E+03 0.15420424E+03 0.89555380E+02 0.0000E+00 0.0000E+00
       23  1    1    2    0    0 0.49702719E+02 -.97247492E+02 -.34424674E+03 0.37248960E+03 0.91188000E+02 0.0000E+00 0.9000E+01
      -11  1    3    3    0    0 -.69294197E+01 0.18086569E+02 0.80441691E+01 0.20972589E+02 0.51099893E-03 0.0000E+00 0.9000E+01
       11  1    3    3    0    0 0.53703150E+02 0.74769209E+01 -.12169939E+03 0.13323166E+03 0.51099893E-03 0.0000E+00 0.9000E+01
       23  1    1    2    0    0 -.96476449E+02 0.71684002E+02 -.94166600E+03 0.95367521E+03 0.91188000E+02 0.0000E+00 0.9000E+01
#aMCatNLO 1  0  0  2  1 0.25782716D+01 0.00000000D+00  -5  7  0 0.00000000D+00 0.00000000D+00 0.00000000D+00 0.00000000D+00 0.00000000D+00
  <mgrwgt>
 0.3118854524D-03   11    2    0
 0.241196017238620D+03 0.000000000000000D+00 0.000000000000000D+00 0.241196017238620D+03
 0.241196017238620D+03 0.000000000000000D+00 0.000000000000000D+00 -.241196017238620D+03
 0.144333570305850D+03 0.497026970471891D+02 -.972474775228062D+02 0.242795839116010D+02
 0.876995058994672D+02 -.692940985901853D+01 0.180865742146287D+02 0.855339841653313D+02
 0.557750899174300D+02 0.537031564074426D+02 0.747692430716131D+01 0.130739148719941D+02
 0.194583868354492D+03 -.964764435956131D+02 0.716839790010161D+02 -.122887482948926D+03
 0.000000000000000D+00 0.000000000000000D+00 -.000000000000000D+00 -.000000000000000D+00
 0.241728885189417D+03 0.000000000000000D+00 0.000000000000000D+00 0.241728885189417D+03
 0.244338486052011D+03 0.000000000000000D+00 0.000000000000000D+00 -.244338486052011D+03
 0.143790484892658D+03 0.491303495648966D+02 -.967324286802322D+02 0.242795839116010D+02
 0.877929521058972D+02 -.727801895530345D+01 0.184002834858447D+02 0.855339841653313D+02
 0.555892580819113D+02 0.534819353637825D+02 0.767599855141885D+01 0.130739148719941D+02
 0.195226229474224D+03 -.972507865358815D+02 0.723808012068954D+02 -.122887482948926D+03
 0.366844668673728D+01 0.191652056250588D+01 -.172465456392672D+01 -.260960086259424D+01
0.936168098351D-06 0.000000000000D+00 0.000000000000D+00 0.223185263729D-09 0.000000000000D+00  7 -1 1 23 -11 11 23 21 0 0.62154691D-02 0.22153362D+00 0.33623785D+05 0.33623785D+05 0.33623785D+05 0.11627686D+01  1  2  2  2  7  2        1 0.100931567201D-03 0.100000000000D+01
-.472578481731D-07 0.000000000000D+00 -.359513199639D-08 0.223185263729D-09 0.000000000000D+00  7 -1 1 23 -11 11 23 21 2 0.62154691D-02 0.22153362D+00 0.33623785D+05 0.33623785D+05 0.33623785D+05 0.11627686D+01  1  2  3  2  7  2        1 -.688864327498D-05 0.100000000000D+01
0.588664758764D-07 0.000000000000D+00 0.000000000000D+00 0.223185263729D-09 0.000000000000D+00  7 -1 1 23 -11 11 23 21 2 0.62154691D-02 0.22153362D+00 0.33623785D+05 0.33623785D+05 0.33623785D+05 0.11627686D+01  1  2 15  2  7  2        1 0.858080020240D-05 0.100000000000D+01
0.493507582168D-08 0.000000000000D+00 0.000000000000D+00 0.223185263729D-09 0.000000000000D+00  7 -1 1 23 -11 11 23 21 2 0.62154691D-02 0.22466273D+00 0.34191398D+05 0.34191398D+05 0.34191398D+05 0.11621027D+01  1  2 12  2  7  2        1 0.696796187101D-06 0.100000000000D+01
-.268263034718D-04 0.000000000000D+00 0.000000000000D+00 0.223185263729D-09 0.000000000000D+00  7 -1 1 23 -11 11 23 21 2 0.62154691D-02 0.22153362D+00 0.33623785D+05 0.33623785D+05 0.33623785D+05 0.11627686D+01  1  2  4  2  7  2        1 -.391039461481D-02 0.100000000000D+01
-.771891804085D-04 0.000000000000D+00 -.718952187177D-05 0.223185263729D-09 0.000000000000D+00  7 -1 1 23 -11 11 23 21 2 0.62154691D-02 0.22464508D+00 0.33623785D+05 0.33623785D+05 0.33623785D+05 0.11627686D+01  1  2  5  2  7  2        1 -.109140463301D-01 0.100000000000D+01
0.772826376511D-04 0.000000000000D+00 0.718882264151D-05 0.223185263729D-09 0.000000000000D+00  7 -1 1 23 -11 11 23 21 2 0.62154691D-02 0.22153362D+00 0.33623785D+05 0.33623785D+05 0.33623785D+05 0.11627686D+01  1  2  6  2  7  2        1 0.112652721761D-01 0.100000000000D+01
0.268236093550D-04 0.000000000000D+00 0.000000000000D+00 0.223185263729D-09 0.241842951881D-09  7 -1 1 23 -11 11 23 21 2 0.62292008D-02 0.22441991D+00 0.34191398D+05 0.34191398D+05 0.34191398D+05 0.11621027D+01  1  2 11  2  7  2        1 0.378389929870D-02 0.100000000000D+01
0.418464424646D-09 0.000000000000D+00 0.000000000000D+00 0.223185263729D-09 0.000000000000D+00  7 -1 21 23 -11 11 23 -1 2 0.62154691D-02 0.22466273D+00 0.34191398D+05 0.34191398D+05 0.34191398D+05 0.11621027D+01  1  2 12  4  7  2        1 0.525287024196D-07 0.100000000000D+01
-.197186803290D-06 0.000000000000D+00 -.184142917274D-07 0.223185263729D-09 0.000000000000D+00  7 -1 21 23 -11 11 23 -1 2 0.62154691D-02 0.22464508D+00 0.33623785D+05 0.33623785D+05 0.33623785D+05 0.11627686D+01  1  2  5  4  7  2        1 -.248101077444D-04 0.100000000000D+01
0.684080459630D-07 0.000000000000D+00 0.000000000000D+00 0.223185263729D-09 0.576211086720D-12  7 -1 21 23 -11 11 23 -1 2 0.62292008D-02 0.22441991D+00 0.34191398D+05 0.34191398D+05 0.34191398D+05 0.11621027D+01  1  2 11  4  7  2        1 0.859198129554D-05 0.100000000000D+01
  </mgrwgt>
  </event>
  <event>
  8     66 0.58687835E-06 0.76411448E+02 0.75467711E-02 0.10611156E+00
       -3 -1    0    0    0  501 0.00000000E+00 0.00000000E+00 0.34826900E+03 0.34826936E+03 0.50000000E+00 0.0000E+00 0.9000E+01
        3 -1    0    0  501    0 0.00000000E+00 0.00000000E+00 -.18524402E+03 0.18524469E+03 0.50000000E+00 0.0000E+00 0.9000E+01
       25  2    1    2    0    0 0.48230873E+02 -.11543459E+03 0.19943048E+03 0.38127349E+03 0.29990931E+03 0.0000E+00 0.0000E+00
       23  2    1    2    0    0 -.48230873E+02 0.11543459E+03 -.36405493E+02 0.15224057E+03 0.78743058E+02 0.0000E+00 0.0000E+00
       23  1    3    3    0    0 0.12801413E+02 -.14584240E+03 0.21714186E+03 0.27730798E+03 0.91188000E+02 0.0000E+00 0.9000E+01
      -13  1    4    4    0    0 -.32873895E+02 0.61790973E+02 0.20107500E+02 0.72822662E+02 0.10565837E+00 0.0000E+00 0.9000E+01
       13  1    4    4    0    0 -.15356978E+02 0.53643616E+02 -.56512993E+02 0.79417907E+02 0.10565837E+00 0.0000E+00 0.9000E+01
       23  1    3    3    0    0 0.35429460E+02 0.30407810E+02 -.17711377E+02 0.10396550E+03 0.91188000E+02 0.0000E+00 0.9000E+01
#aMCatNLO 1  0  0  1  2 0.52343486D+01 0.00000000D+00  -5  7  0 0.00000000D+00 0.00000000D+00 0.00000000D+00 0.00000000D+00 0.00000000D+00
  <mgrwgt>
 0.3237212413D-04   11    2    0
 0.253998081235741D+03 0.000000000000000D+00 0.000000000000000D+00 0.253998081235741D+03
 0.253998081235741D+03 0.000000000000000D+00 0.000000000000000D+00 -.253998081235741D+03
 0.221553169892431D+03 0.128014142070008D+02 -.145842400312966D+03 0.139056369184003D+03
 0.700278114938537D+02 -.328739258462383D+02 0.617909873322320D+02 -.225239130318932D+01
 0.101543342190378D+03 -.153569486478607D+02 0.536436050781839D+02 -.848385413926654D+02
 0.114871838894819D+03 0.354294602870981D+02 0.304078079025502D+02 -.519654364881482D+02
 0.000000000000000D+00 0.000000000000000D+00 -.000000000000000D+00 0.000000000000000D+00
 0.260013096342146D+03 0.000000000000000D+00 0.000000000000000D+00 0.260013096342146D+03
 0.255152873264952D+03 0.000000000000000D+00 0.000000000000000D+00 -.255152873264952D+03
 0.220586822774839D+03 0.109447819578680D+02 -.144522776665670D+03 0.139056369184003D+03
 0.706764803323046D+02 -.334647706694353D+02 0.622109373793874D+02 -.225239130318932D+01
 0.101997930559224D+03 -.162116582359636D+02 0.542511001728955D+02 -.848385413926654D+02
 0.114761895227240D+03 0.344651833537046D+02 0.310931793025368D+02 -.519654364881482D+02
 0.714284071349131D+01 0.426646359382633D+01 -.303244018915007D+01 0.486022307719419D+01
0.219546794178D-05 0.000000000000D+00 0.000000000000D+00 0.375574282689D-08 0.000000000000D+00  7 -3 3 23 -13 13 23 21 0 0.53579926D-01 0.28499159D-01 0.40143168D+05 0.40143168D+05 0.40143168D+05 0.11557787D+01  1  2  2  1  7  1       -3 0.370291387261D-04 0.100000000000D+01
-.113624996968D-06 0.000000000000D+00 -.843117497641D-08 0.375574282689D-08 0.000000000000D+00  7 -3 3 23 -13 13 23 21 2 0.53579926D-01 0.28499159D-01 0.40143168D+05 0.40143168D+05 0.40143168D+05 0.11557787D+01  1  2  3  1  7  1       -3 -.255999897314D-05 0.100000000000D+01
0.139230798264D-06 0.000000000000D+00 0.000000000000D+00 0.375574282689D-08 0.000000000000D+00  7 -3 3 23 -13 13 23 21 2 0.53579926D-01 0.28499159D-01 0.40143168D+05 0.40143168D+05 0.40143168D+05 0.11557787D+01  1  2 15  1  7  1       -3 0.313690393922D-05 0.100000000000D+01
0.218966251897D-05 0.000000000000D+00 0.000000000000D+00 0.375574282689D-08 0.000000000000D+00  7 -3 3 23 -13 13 23 21 2 0.54968812D-01 0.28499159D-01 0.41220215D+05 0.41220215D+05 0.41220215D+05 0.11547455D+01  1  2 12  1  7  1       -3 0.466992800186D-04 0.100000000000D+01
-.202339463404D-04 0.000000000000D+00 0.000000000000D+00 0.375574282689D-08 0.000000000000D+00  7 -3 3 23 -13 13 23 21 2 0.53579926D-01 0.28499159D-01 0.40143168D+05 0.40143168D+05 0.40143168D+05 0.11557787D+01  1  2  4  1  7  1       -3 -.455875760054D-03 0.100000000000D+01
-.960906497244D-04 0.000000000000D+00 -.105008870356D-04 0.375574282689D-08 0.000000000000D+00  7 -3 3 23 -13 13 23 21 2 0.55035330D-01 0.28499159D-01 0.40143168D+05 0.40143168D+05 0.40143168D+05 0.11557787D+01  1  2  5  1  7  1       -3 -.204660894057D-02 0.100000000000D+01
0.963412502816D-04 0.000000000000D+00 0.104971168460D-04 0.375574282689D-08 0.000000000000D+00  7 -3 3 23 -13 13 23 21 2 0.53579926D-01 0.28499159D-01 0.40143168D+05 0.40143168D+05 0.40143168D+05 0.11557787D+01  1  2  6  1  7  1       -3 0.217059193287D-02 0.100000000000D+01
0.180202143459D-04 0.000000000000D+00 0.000000000000D+00 0.375574282689D-08 0.975074981165D-09  7 -3 3 23 -13 13 23 21 2 0.54848771D-01 0.28628729D-01 0.41220215D+05 0.41220215D+05 0.41220215D+05 0.11547455D+01  1  2 11  1  7  1       -3 0.382908018122D-03 0.100000000000D+01
0.800336376592D-07 0.000000000000D+00 0.000000000000D+00 0.375574282689D-08 0.000000000000D+00  7 21 3 23 -13 13 23 3 2 0.54968812D-01 0.28499159D-01 0.41220215D+05 0.41220215D+05 0.41220215D+05 0.11547455D+01  1  2 12  3  7  1       -3 0.276286536842D-04 0.100000000000D+01
-.461298646633D-06 0.000000000000D+00 -.507100465536D-07 0.375574282689D-08 0.000000000000D+00  7 21 3 23 -13 13 23 3 2 0.55035330D-01 0.28499159D-01 0.40143168D+05 0.40143168D+05 0.40143168D+05 0.11557787D+01  1  2  5  3  7  1       -3 -.159206294269D-03 0.100000000000D+01
0.832278148648D-07 0.000000000000D+00 0.000000000000D+00 0.375574282689D-08 0.414946830426D-11  7 21 3 23 -13 13 23 3 2 0.54848771D-01 0.28628729D-01 0.41220215D+05 0.41220215D+05 0.41220215D+05 0.11547455D+01  1  2 11  3  7  1       -3 0.286291906367D-04 0.100000000000D+01
  </mgrwgt>
  </event>
  <event>
  9     66 -.58687835E-06 0.18790531E+03 0.75467711E-02 0.10684302E+00
       -1 -1    0    0    0  501 0.00000000E+00 0.00000000E+00 0.64243088E+02 0.64243885E+02 0.32000000E+00 0.0000E+00 0.9000E+01
        1 -1    0    0  502    0 0.00000000E+00 0.00000000E+00 -.15941451E+04 0.15941451E+04 0.32000000E+00 0.0000E+00 0.9000E+01
       25  2    1    2    0    0 -.17186995E+02 0.18622053E+02 -.30696256E+03 0.43089458E+03 0.30133362E+03 0.0000E+00 0.0000E+00
       23  2    1    2    0    0 0.86075452E+01 -.22316279E+02 -.11724157E+04 0.11761090E+04 0.90009132E+02 0.0000E+00 0.0000E+00
       23  1    3    3    0    0 -.11540620E+03 -.67139286E+01 -.83981571E+02 0.16950464E+03 0.91188000E+02 0.0000E+00 0.9000E+01
      -13  1    4    4    0    0 -.40410665E+02 -.16463880E+02 -.51911493E+03 0.52094568E+03 0.10565837E+00 0.0000E+00 0.9000E+01
       13  1    4    4    0    0 0.49018210E+02 -.58523990E+01 -.65330078E+03 0.65516331E+03 0.10565837E+00 0.0000E+00 0.9000E+01
       23  1    3    3    0    0 0.98219205E+02 0.25335981E+02 -.22298099E+03 0.26138994E+03 0.91188000E+02 0.0000E+00 0.9000E+01
       21  1    1    2  502  501 0.85794501E+01 0.36942265E+01 -.50523720E+02 0.51385436E+02 0.75000000E+00 0.0000E+00 0.9000E+01
#aMCatNLO 2  0  0  2  1 0.93409996D+01 0.00000000D+00  -5  7  0 0.00000000D+00 0.00000000D+00 0.00000000D+00 0.00000000D+00 0.00000000D+00
  <mgrwgt>
 -.9969959525D-04    3    2    0
 0.313772657850787D+03 0.000000000000000D+00 0.000000000000000D+00 0.313772657850787D+03
 0.313772657850787D+03 0.000000000000000D+00 0.000000000000000D+00 -.313772657850787D+03
 0.234467731150710D+03 -.112189986033522D+03 -.532905925557987D+01 0.184512530111671D+03
 0.109612276702723D+03 -.389079575933992D+02 -.158167912383330D+02 -.101246487123196D+03
 0.138268486148733D+03 0.509041088681131D+02 -.504038819057734D+01 -.128458321836672D+03
 0.145196821699408D+03 0.100193834758808D+03 0.261862386844902D+02 0.451922788481976D+02
 0.000000000000000D+00 0.000000000000000D+00 0.000000000000000D+00 -.000000000000000D+00
 0.315914991501552D+03 0.000000000000000D+00 0.000000000000000D+00 0.315914991501552D+03
 0.324157493180147D+03 0.000000000000000D+00 0.000000000000000D+00 -.324157493180147D+03
 0.236058874406628D+03 -.115406196743570D+03 -.671392784431074D+01 0.184512530111671D+03
 0.110249457053348D+03 -.404107879423832D+02 -.164638951541297D+02 -.101246487123196D+03
 0.137617541938377D+03 0.490183332545634D+02 -.585238455774345D+01 -.128458321836672D+03
 0.143688958749298D+03 0.982192013797684D+02 0.253359810405031D+02 0.451922788481976D+02
 0.124576525340478D+02 0.857945005162112D+01 0.369422651568077D+01 -.824250167859534D+01
-.747534969243D-05 0.000000000000D+00 0.000000000000D+00 0.563221295277D-07 0.000000000000D+00  7 -1 1 23 -13 13 23 21 2 0.98162426D-02 0.24603817D+00 0.37244774D+05 0.37244774D+05 0.37244774D+05 0.11587187D+01  1  2 13  2  7  2        1 -.429004244446D-03 0.100000000000D+01
-.191262450846D-04 0.000000000000D+00 0.000000000000D+00 0.563221295277D-07 0.000000000000D+00  7 -1 1 23 -13 13 23 21 2 0.98162426D-02 0.23738769D+00 0.35308405D+05 0.35308405D+05 0.35308405D+05 0.11608274D+01  1  2  8  2  7  2        1 -.119908006709D-02 0.100000000000D+01
0.267020463151D-04 0.000000000000D+00 0.000000000000D+00 0.563221295277D-07 0.462502804510D-08  7 -1 1 23 -13 13 23 21 2 0.98832646D-02 0.24524444D+00 0.37244774D+05 0.37244774D+05 0.37244774D+05 0.11587187D+01  1  2  1  2  7  2        1 0.152838471630D-02 0.100000000000D+01
  </mgrwgt>
  </event>
  <event>
  8     66 0.58687835E-06 0.18402925E+03 0.75467711E-02 0.95218684E-01
       -1 -1    0    0    0  501 0.00000000E+00 0.00000000E+00 0.14817198E+03 0.14817233E+03 0.32000000E+00 0.0000E+00 0.9000E+01
        1 -1    0    0  501    0 0.00000000E+00 0.00000000E+00 -.13907499E+04 0.13907500E+04 0.32000000E+00 0.0000E+00 0.9000E+01
       25  2    1    2    0    0 -.41107435E+01 -.75663222E+02 -.13463408E+04 0.13813973E+04 0.29980525E+03 0.0000E+00 0.0000E+00
       23  2    1    2    0    0 0.41107435E+01 0.75663222E+02 0.10376281E+03 0.15752501E+03 0.91134992E+02 0.0000E+00 0.0000E+00
       23  1    3    3    0    0 0.11357302E+02 -.14011684E+03 -.10684703E+04 0.10815293E+04 0.91188000E+02 0.0000E+00 0.9000E+01
      -11  1    4    4    0    0 -.15868726E+02 0.60867280E+02 0.14077956E+02 0.64457979E+02 0.51099893E-03 0.0000E+00 0.9000E+01
       11  1    4    4    0    0 0.19979469E+02 0.14795942E+02 0.89684856E+02 0.93067032E+02 0.51099893E-03 0.0000E+00 0.9000E+01
       23  1    3    3    0    0 -.15468046E+02 0.64453614E+02 -.27787047E+03 0.29986793E+03 0.91188000E+02 0.0000E+00 0.9000E+01
#aMCatNLO 1  0  0  2  2 0.38213118D+03 0.00000000D+00  -5  7  0 0.00000000D+00 0.00000000D+00 0.00000000D+00 0.00000000D+00 0.00000000D+00
  <mgrwgt>
 0.2028806037D-03    3    2    0
 0.453949849962347D+03 0.000000000000000D+00 0.000000000000000D+00 0.453949849962347D+03
 0.453949849962347D+03 0.000000000000000D+00 0.000000000000000D+00 -.453949849962347D+03
 0.370891191405672D+03 0.113573024212232D+02 -.140116836678438D+03 -.330882620092473D+03
 0.128526068138789D+03 -.158687259628367D+02 0.608672802847519D+02 0.112081701977935D+03
 0.280497233417116D+03 0.199794694945334D+02 0.147959420164408D+02 0.279393269162339D+03
 0.127985206963118D+03 -.154680459529199D+02 0.644536143772451D+02 -.605923510478005D+02
 0.000000000000000D+00 -.000000000000000D+00 0.000000000000000D+00 0.000000000000000D+00
 0.790356002874507D+03 0.000000000000000D+00 0.000000000000000D+00 0.790356002874507D+03
 0.615091832181649D+03 0.000000000000000D+00 0.000000000000000D+00 -.615091832181649D+03
 0.419000648601327D+03 0.167526193281519D+03 -.172330956214128D+03 -.330882620092473D+03
 0.127729562791976D+03 0.347953721228056D+02 0.504164196625883D+02 0.112081701977935D+03
 0.311307992598280D+03 0.136984812594840D+03 -.933962101524904D+01 0.279393269162339D+03
 0.127002963526420D+03 0.349454635314856D+02 0.540544445310744D+02 -.605923510478005D+02
 0.420406667538153D+03 -.374251841530650D+03 0.771997130357148D+02 0.175264170692858D+03
0.118104889550D-04 0.000000000000D+00 0.000000000000D+00 0.168548614500D-05 0.000000000000D+00  7 -1 1 23 -11 11 23 21 0 0.22795719D-01 0.21396156D+00 0.33866765D+05 0.33866765D+05 0.33866765D+05 0.11624820D+01  1  2  2  2  7  2        1 0.186980378978D-03 0.100000000000D+01
-.578625847028D-08 0.000000000000D+00 -.453553873604D-07 0.168548614500D-05 0.000000000000D+00  7 -1 1 23 -11 11 23 21 2 0.22795719D-01 0.21396156D+00 0.33866765D+05 0.33866765D+05 0.33866765D+05 0.11624820D+01  1  2  3  2  7  2        1 -.123793683735D-06 0.100000000000D+01
0.748980961753D-06 0.000000000000D+00 0.000000000000D+00 0.168548614500D-05 0.000000000000D+00  7 -1 1 23 -11 11 23 21 2 0.22795719D-01 0.21396156D+00 0.33866765D+05 0.33866765D+05 0.33866765D+05 0.11624820D+01  1  2 15  2  7  2        1 0.160240184186D-04 0.100000000000D+01
  </mgrwgt>
  </event>
  <event>
  8     66 0.58687835E-06 0.28573724E+03 0.75467711E-02 0.90972749E-01
       -1 -1    0    0    0  501 0.00000000E+00 0.00000000E+00 0.27897051E+03 0.27897070E+03 0.32000000E+00 0.0000E+00 0.9000E+01
        1 -1    0    0  501    0 0.00000000E+00 0.00000000E+00 -.46680404E+03 0.46680414E+03 0.32000000E+00 0.0000E+00 0.9000E+01
       25  2    1    2    0    0 0.14432797E+03 0.15771836E+03 -.31082002E+03 0.48170558E+03 0.29954221E+03 0.0000E+00 0.0000E+00
       23  2    1    2    0    0 -.14432797E+03 -.15771836E+03 0.12298650E+03 0.26406926E+03 0.94346433E+02 0.0000E+00 0.0000E+00
       23  1    3    3    0    0 -.29351220E+02 -.42252525E+01 -.25018032E+02 0.99098437E+02 0.91188000E+02 0.0000E+00 0.9000E+01
      -13  1    4    4    0    0 -.96828010E+02 -.14061372E+03 0.54960676E+02 0.17935598E+03 0.10565837E+00 0.0000E+00 0.9000E+01
       13  1    4    4    0    0 -.47499965E+02 -.17104642E+02 0.68025824E+02 0.84713277E+02 0.10565837E+00 0.0000E+00 0.9000E+01
       23  1    3    3    0    0 0.17367919E+03 0.16194362E+03 -.28580199E+03 0.38260714E+03 0.91188000E+02 0.0000E+00 0.9000E+01
#aMCatNLO 1  0  0  2  2 0.58024960D+03 0.00000000D+00  -5  7  0 0.00000000D+00 0.00000000D+00 0.00000000D+00 0.00000000D+00 0.00000000D+00
  <mgrwgt>
 0.1848251535D-03    5    2    0
 0.360866555198007D+03 0.000000000000000D+00 0.000000000000000D+00 0.360866555198007D+03
 0.360866555198007D+03 0.000000000000000D+00 0.000000000000000D+00 -.360866555198007D+03
 0.958884866852938D+02 -.293512196121865D+02 -.422525233414493D+01 -.607024363185218D-01
 0.199634355054834D+03 -.968280719275530D+02 -.140613874819421D+03 0.103469504750049D+03
 0.105239005837068D+03 -.474999029846133D+02 -.171044893882653D+02 0.923387459780210D+02
 0.320971262818819D+03 0.173679194524353D+03 0.161943616541831D+03 -.195747548291751D+03
 0.000000000000000D+00 0.000000000000000D+00 -.000000000000000D+00 -.000000000000000D+00
 0.512762635800317D+03 0.000000000000000D+00 0.000000000000000D+00 0.512762635800317D+03
 0.215553912901917D+04 0.000000000000000D+00 0.000000000000000D+00 -.215553912901917D+04
 0.131435775079220D+03 -.679443721622325D+02 0.659065264853916D+02 -.607024363185218D-01
 0.194640420694908D+03 -.163764642837470D+03 -.189762143586683D+02 0.103469504750049D+03
 0.141396399070460D+03 -.893715348639188D+02 0.589849677237063D+02 0.923387459780210D+02
 0.458588027171039D+03 0.413323417649674D+02 0.402445353038917D+03 -.195747548291751D+03
 0.174224114280386D+04 0.279748208098654D+03 -.508360632889346D+03 -.164277649321885D+04
0.579305481370D-05 0.000000000000D+00 0.000000000000D+00 0.754756849704D-07 0.000000000000D+00  7 -1 1 23 -13 13 23 21 0 0.42918563D-01 0.71816028D-01 0.81645770D+05 0.81645770D+05 0.81645770D+05 0.11290213D+01  1  2  2  2  7  2        1 0.183266649682D-03 0.100000000000D+01
-.300513257362D-06 0.000000000000D+00 -.222468558310D-07 0.754756849704D-07 0.000000000000D+00  7 -1 1 23 -13 13 23 21 2 0.42918563D-01 0.71816028D-01 0.81645770D+05 0.81645770D+05 0.81645770D+05 0.11290213D+01  1  2  3  2  7  2        1 -.121183571169D-04 0.100000000000D+01
0.384551091380D-06 0.000000000000D+00 0.000000000000D+00 0.754756849704D-07 0.000000000000D+00  7 -1 1 23 -13 13 23 21 2 0.42918563D-01 0.71816028D-01 0.81645770D+05 0.81645770D+05 0.81645770D+05 0.11290213D+01  1  2 15  2  7  2        1 0.155072275212D-04 0.100000000000D+01
-.331403474354D-05 0.000000000000D+00 -.289830757564D-05 0.754756849704D-07 0.000000000000D+00  7 -1 1 23 -13 13 23 21 2 0.42918563D-01 0.46886448D+00 0.81645770D+05 0.81645770D+05 0.81645770D+05 0.11290213D+01  1  2  5  2  7  2        1 -.171347193379D-05 0.100000000000D+01
-.994889882371D-06 0.000000000000D+00 -.665999176144D-06 0.754756849704D-07 0.000000000000D+00  7 -1 21 23 -13 13 23 -1 2 0.42918563D-01 0.46886448D+00 0.81645770D+05 0.81645770D+05 0.81645770D+05 0.11290213D+01  1  2  5  4  7  2        1 -.116894647269D-06 0.100000000000D+01
  </mgrwgt>
  </event>
  <event>
  9     66 0.58687835E-06 0.24771973E+03 0.75467711E-02 0.97556492E-01
       21 -1    0    0  502  501 0.00000000E+00 0.00000000E+00 0.15507433E+03 0.15507614E+03 0.75000000E+00 0.0000E+00 0.9000E+01
        1 -1    0    0  501    0 0.00000000E+00 0.00000000E+00 -.15346702E+04 0.15346703E+04 0.32000000E+00 0.0000E+00 0.9000E+01
       25  2    1    2    0    0 -.36665496E+02 0.90490089E+02 -.10480250E+04 0.10944286E+04 0.29980776E+03 0.0000E+00 0.0000E+00
       23  2    1    2    0    0 0.20774818E+03 0.55015215E+02 -.27231190E+03 0.36304039E+03 0.10704473E+03 0.0000E+00 0.0000E+00
       23  1    3    3    0    0 -.13650469E+03 0.32634838E+02 -.51736430E+03 0.54376431E+03 0.91188000E+02 0.0000E+00 0.9000E+01
      -11  1    4    4    0    0 0.12456629E+03 -.21403367E+02 -.15802020E+03 0.20234932E+03 0.51099893E-03 0.0000E+00 0.9000E+01
       11  1    4    4    0    0 0.83181890E+02 0.76418582E+02 -.11429170E+03 0.16069107E+03 0.51099893E-03 0.0000E+00 0.9000E+01
       23  1    3    3    0    0 0.99839197E+02 0.57855250E+02 -.53066070E+03 0.55066426E+03 0.91188000E+02 0.0000E+00 0.9000E+01
        1  1    1    2  502    0 -.17108268E+03 -.14550530E+03 -.59259000E+02 0.23227744E+03 0.32000000E+00 0.0000E+00 0.9000E+01
#aMCatNLO 2  0  0  1  2 0.22459091D+03 0.00000000D+00  -5  7  0 0.00000000D+00 0.00000000D+00 0.00000000D+00 0.00000000D+00 0.00000000D+00
  <mgrwgt>
 0.3048091864D-04    2    2    0
 0.287439200444718D+03 0.000000000000000D+00 0.000000000000000D+00 0.287439200444718D+03
 0.287439200444718D+03 0.000000000000000D+00 0.000000000000000D+00 -.287439200444718D+03
 0.222707079265741D+03 -.193911733974132D+03 -.161896758031006D+02 -.584750000907468D+02
 0.118426996486114D+03 0.875075465658179D+02 -.529217112556691D+02 0.597216482401882D+02
 0.100801151351494D+03 0.493455373546195D+02 0.476408623193575D+02 0.738663542787828D+02
 0.132943173786089D+03 0.570586500536948D+02 0.214705247394122D+02 -.751130024282243D+02
 0.000000000000000D+00 -.000000000000000D+00 -.000000000000000D+00 0.000000000000000D+00
 0.697949276453627D+03 0.000000000000000D+00 0.000000000000000D+00 0.697949276453627D+03
 0.340983857931358D+03 0.000000000000000D+00 0.000000000000000D+00 -.340983857931358D+03
 0.177293939835796D+03 -.136504693781036D+03 0.326348387253802D+02 -.584750000907468D+02
 0.139791055539874D+03 0.124566287377366D+03 -.214033639750125D+02 0.597216482401882D+02
 0.134963937826736D+03 0.831818910243780D+02 0.764185790555467D+02 0.738663542787828D+02
 0.165143300381805D+03 0.998391965683292D+02 0.578552505119721D+02 -.751130024282243D+02
 0.421740900800775D+03 -.171082681189036D+03 -.145505304317887D+03 0.356965418522269D+03
-.215488828022D-08 0.000000000000D+00 0.000000000000D+00 0.218050331563D-08 0.000000000000D+00  7 21 1 23 -11 11 23 1 2 0.23493444D-01 0.19902795D+00 0.15147055D+06 0.15147055D+06 0.15147055D+06 0.11072177D+01  1  2 13  3  7  1       -1 -.510770233337D-06 0.100000000000D+01
0.195735786102D-06 0.000000000000D+00 0.000000000000D+00 0.218050331563D-08 0.391055092185D-13  7 21 1 23 -11 11 23 1 2 0.23857727D-01 0.23610321D+00 0.15147055D+06 0.15147055D+06 0.15147055D+06 0.11072177D+01  1  2  1  3  7  1       -1 0.309916888777D-04 0.100000000000D+01
  </mgrwgt>
  </event>
  <event>
  8     66 0.58687835E-06 0.22571024E+03 0.75467711E-02 0.10337521E+00
       -1 -1    0    0    0  501 0.00000000E+00 0.00000000E+00 0.22921963E+03 0.22921985E+03 0.32000000E+00 0.0000E+00 0.9000E+01
        1 -1    0    0  501    0 0.00000000E+00 0.00000000E+00 -.54889369E+03 0.54889379E+03 0.32000000E+00 0.0000E+00 0.9000E+01
       25  2    1    2    0    0 -.12547131E+03 -.89300484E+02 0.74456698E+02 0.34515257E+03 0.29978137E+03 0.0000E+00 0.0000E+00
       23  2    1    2    0    0 0.12547131E+03 0.89300484E+02 -.39413076E+03 0.43296107E+03 0.91643906E+02 0.0000E+00 0.0000E+00
       23  1    3    3    0    0 -.14627828E+03 -.12560384E+03 -.10708623E+02 0.21354996E+03 0.91188000E+02 0.0000E+00 0.9000E+01
      -13  1    4    4    0    0 0.17668736E+02 -.18348318E+02 -.39625781E+02 0.47106886E+02 0.10565837E+00 0.0000E+00 0.9000E+01
       13  1    4    4    0    0 0.10780258E+03 0.10764880E+03 -.35450498E+03 0.38585419E+03 0.10565837E+00 0.0000E+00 0.9000E+01
       23  1    3    3    0    0 0.20806964E+02 0.36303357E+02 0.85165321E+02 0.13160261E+03 0.91188000E+02 0.0000E+00 0.9000E+01
#aMCatNLO 1  0  0  2  2 0.29853636D+01 0.00000000D+00  -5  7  0 0.00000000D+00 0.00000000D+00 0.00000000D+00 0.00000000D+00 0.00000000D+00
  <mgrwgt>
 0.1489706921D-03    7    2    0
 0.354707391193065D+03 0.000000000000000D+00 0.000000000000000D+00 0.354707391193065D+03
 0.354707391193065D+03 0.000000000000000D+00 0.000000000000000D+00 -.354707391193065D+03
 0.229404394517769D+03 -.146278278241488D+03 -.125603841673973D+03 0.844835199995211D+02
 0.338123196797345D+02 0.176686159017131D+02 -.183484856527071D+02 -.222356931192777D+02
 0.263474317076185D+03 0.107802698323495D+03 0.107648970104482D+03 -.214962771726595D+03
 0.182723751112442D+03 0.208069640162799D+02 0.363033572221984D+02 0.152714944846351D+03
 0.000000000000000D+00 0.000000000000000D+00 -.000000000000000D+00 0.000000000000000D+00
 0.356603043489929D+03 0.000000000000000D+00 0.000000000000000D+00 0.356603043489929D+03
 0.355887855794279D+03 0.000000000000000D+00 0.000000000000000D+00 -.355887855794279D+03
 0.229982801193630D+03 -.147242419113527D+03 -.125535024447186D+03 0.844835199995211D+02
 0.337329572600121D+02 0.175268549583982D+02 -.183383672195313D+02 -.222356931192777D+02
 0.263056397487706D+03 0.106697639699672D+03 0.107727845580188D+03 -.214962771726595D+03
 0.182648907929739D+03 0.200401365613643D+02 0.363580908616512D+02 0.152714944846351D+03
 0.306983541312067D+01 0.297778789409330D+01 -.212544775121919D+00 0.715187695650236D+00
0.468266702344D-05 0.000000000000D+00 0.000000000000D+00 0.125369858675D-05 0.000000000000D+00  7 -1 1 23 -13 13 23 21 0 0.35264583D-01 0.84445208D-01 0.60376150D+05 0.60376150D+05 0.60376150D+05 0.11401608D+01  1  2  2  2  7  2        1 0.166767171599D-03 0.100000000000D+01
-.217518222724D-06 0.000000000000D+00 -.179826743446D-07 0.125369858675D-05 0.000000000000D+00  7 -1 1 23 -13 13 23 21 2 0.35264583D-01 0.84445208D-01 0.60376150D+05 0.60376150D+05 0.60376150D+05 0.11401608D+01  1  2  3  2  7  2        1 -.100703638828D-04 0.100000000000D+01
0.297117992504D-06 0.000000000000D+00 0.000000000000D+00 0.125369858675D-05 0.000000000000D+00  7 -1 1 23 -13 13 23 21 2 0.35264583D-01 0.84445208D-01 0.60376150D+05 0.60376150D+05 0.60376150D+05 0.11401608D+01  1  2 15  2  7  2        1 0.137555661460D-04 0.100000000000D+01
-.507424960480D-04 0.000000000000D+00 0.000000000000D+00 0.125369858675D-05 0.000000000000D+00  7 -1 1 23 -13 13 23 21 2 0.35264583D-01 0.84445208D-01 0.60376150D+05 0.60376150D+05 0.60376150D+05 0.11401608D+01  1  2  4  2  7  2        1 -.234920731295D-02 0.100000000000D+01
0.507429588119D-04 0.000000000000D+00 0.000000000000D+00 0.125369858675D-05 0.974602683115D-06  7 -1 1 23 -13 13 23 21 2 0.35453046D-01 0.84726241D-01 0.61026989D+05 0.61026989D+05 0.61026989D+05 0.11397593D+01  1  2 11  2  7  2        1 0.231540460546D-02 0.100000000000D+01
0.148706515587D-08 0.000000000000D+00 0.000000000000D+00 0.125369858675D-05 0.000000000000D+00  7 -1 21 23 -13 13 23 -1 2 0.35264583D-01 0.84950916D-01 0.61026989D+05 0.61026989D+05 0.61026989D+05 0.11397593D+01  1  2 12  4  7  2        1 0.189518416198D-06 0.100000000000D+01
0.954379223889D-07 0.000000000000D+00 0.000000000000D+00 0.125369858675D-05 0.604582272047D-09  7 -1 21 23 -13 13 23 -1 2 0.35453046D-01 0.84726241D-01 0.61026989D+05 0.61026989D+05 0.61026989D+05 0.11397593D+01  1  2 11  4  7  2        1 0.121315072753D-04 0.100000000000D+01
  </mgrwgt>
  </event>
  <event>
  8     66 -.58687835E-06 0.59765634E+02 0.75467711E-02 0.10373556E+00
       -1 -1    0    0    0  501 0.00000000E+00 0.00000000E+00 0.57632566E+02 0.57633455E+02 0.32000000E+00 0.0000E+00 0.9000E+01
        1 -1    0    0  501    0 0.00000000E+00 0.00000000E+00 -.16034921E+04 0.16034921E+04 0.32000000E+00 0.0000E+00 0.9000E+01
       25  2    1    2    0    0 0.42083496E+02 -.38421532E+02 -.15302226E+04 0.15597855E+04 0.29682002E+03 0.0000E+00 0.0000E+00
       23  2    1    2    0    0 -.42083496E+02 0.38421532E+02 -.15636880E+02 0.10134011E+03 0.82329044E+02 0.0000E+00 0.0000E+00
       23  1    3    3    0    0 -.57782505E+02 -.51718028E+01 -.11463300E+04 0.11514136E+04 0.91188000E+02 0.0000E+00 0.9000E+01
      -13  1    4    4    0    0 -.65653429E+02 0.26270371E+02 -.31723935E+00 0.70715040E+02 0.10565837E+00 0.0000E+00 0.9000E+01
       13  1    4    4    0    0 0.23569933E+02 0.12151162E+02 -.15319641E+02 0.30625072E+02 0.10565837E+00 0.0000E+00 0.9000E+01
       23  1    3    3    0    0 0.99866000E+02 -.33249730E+02 -.38389261E+03 0.40837182E+03 0.91188000E+02 0.0000E+00 0.9000E+01
#aMCatNLO 1  0  0  1  2 0.10043739D+03 0.00000000D+00  -5  7  0 0.00000000D+00 0.00000000D+00 0.00000000D+00 0.00000000D+00 0.00000000D+00
  <mgrwgt>
 -.2721840329D-02    7    2    0
 0.303996920613602D+03 0.000000000000000D+00 0.000000000000000D+00 0.303996920613602D+03
 0.303996920613602D+03 0.000000000000000D+00 0.000000000000000D+00 -.303996920613602D+03
 0.231215237940204D+03 -.577825044047398D+02 -.517180296496431D+01 -.204400757216193D+03
 0.192397180693931D+03 -.656535727530705D+02 0.262703946205059D+02 0.178930572821453D+03
 0.447207303464581D+02 0.235700766194821D+02 0.121511381949852D+02 0.360103464498571D+02
 0.139660692246611D+03 0.998660005383282D+02 -.332497298505268D+02 -.105401620551172D+02
 0.000000000000000D+00 0.000000000000000D+00 -.000000000000000D+00 0.000000000000000D+00
 0.100316493720401D+04 0.000000000000000D+00 0.000000000000000D+00 0.100316493720401D+04
 0.311745341808164D+03 0.000000000000000D+00 0.000000000000000D+00 -.311745341808164D+03
 0.243552236338877D+03 -.960074290429812D+02 0.231181739594570D+01 -.204400757216193D+03
 0.206482064842912D+03 -.977685130689729D+02 0.325578111036520D+02 0.178930572821453D+03
 0.418913761615645D+02 0.165966813820435D+02 0.135163794106960D+02 0.360103464498571D+02
 0.124308191153816D+03 0.786130899632227D+02 -.290888658118481D+02 -.105401620551172D+02
 0.698676410515002D+03 0.985661707666878D+02 -.192971420984456D+02 0.691419595395843D+03
0.307573480587D-04 0.000000000000D+00 0.000000000000D+00 0.446379147703D-09 0.000000000000D+00  7 -1 1 23 -13 13 23 21 0 0.88666195D-02 0.24669116D+00 0.29682553D+05 0.29682553D+05 0.29682553D+05 0.11677648D+01  1  2  2  1  7  1       -1 0.152923764361D-02 0.100000000000D+01
-.103879405251D-05 0.000000000000D+00 -.118116315141D-06 0.446379147703D-09 0.000000000000D+00  7 -1 1 23 -13 13 23 21 2 0.88666195D-02 0.24669116D+00 0.29682553D+05 0.29682553D+05 0.29682553D+05 0.11677648D+01  1  2  3  1  7  1       -1 -.704313992091D-04 0.100000000000D+01
0.192998877802D-05 0.000000000000D+00 0.000000000000D+00 0.446379147703D-09 0.000000000000D+00  7 -1 1 23 -13 13 23 21 2 0.88666195D-02 0.24669116D+00 0.29682553D+05 0.29682553D+05 0.29682553D+05 0.11677648D+01  1  2 15  1  7  1       -1 0.130855398878D-03 0.100000000000D+01
0.134751138618D-03 0.000000000000D+00 0.000000000000D+00 0.446379147703D-09 0.000000000000D+00  7 -1 1 23 -13 13 23 21 2 0.29041447D-01 0.24669116D+00 0.57883651D+05 0.57883651D+05 0.57883651D+05 0.11417441D+01  1  2 12  1  7  1       -1 0.133713360095D-02 0.100000000000D+01
-.290904078836D-03 0.000000000000D+00 -.105828718159D-04 0.446379147703D-09 0.000000000000D+00  7 -1 1 23 -13 13 23 21 2 0.29646428D-01 0.24669116D+00 0.29682553D+05 0.29682553D+05 0.29682553D+05 0.11677648D+01  1  2  5  1  7  1       -1 -.299816953862D-02 0.100000000000D+01
0.184896514772D-04 0.000000000000D+00 0.000000000000D+00 0.446379147703D-09 0.000000000000D+00  7 21 1 23 -13 13 23 1 2 0.29041447D-01 0.24669116D+00 0.57883651D+05 0.57883651D+05 0.57883651D+05 0.11417441D+01  1  2 12  3  7  1       -1 0.204623479898D-02 0.100000000000D+01
-.403572597829D-04 0.000000000000D+00 -.148278477541D-05 0.446379147703D-09 0.000000000000D+00  7 21 1 23 -13 13 23 1 2 0.29646428D-01 0.24669116D+00 0.29682553D+05 0.29682553D+05 0.29682553D+05 0.11677648D+01  1  2  5  3  7  1       -1 -.469670083309D-02 0.100000000000D+01
  </mgrwgt>
  </event>
  <event>
  8     66 0.58687835E-06 0.43037748E+03 0.75467711E-02 0.90372695E-01
       -1 -1    0    0    0  501 0.00000000E+00 0.00000000E+00 0.25385915E+03 0.25385935E+03 0.32000000E+00 0.0000E+00 0.9000E+01
        1 -1    0    0  501    0 0.00000000E+00 0.00000000E+00 -.13431326E+04 0.13431326E+04 0.32000000E+00 0.0000E+00 0.9000E+01
       25  2    1    2    0    0 0.91245838E+02 0.36244204E+03 -.11135095E+04 0.12122865E+04 0.30007510E+03 0.0000E+00 0.0000E+00
       23  2    1    2    0    0 -.91245838E+02 -.36244204E+03 0.24236062E+02 0.38470549E+03 0.87868591E+02 0.0000E+00 0.0000E+00
       23  1    3    3    0    0 0.50609012E+02 0.18197044E+01 -.27299196E+03 0.29224039E+03 0.91188000E+02 0.0000E+00 0.9000E+01
      -11  1    4    4    0    0 -.26069861E+02 -.25689147E+03 0.33168878E+02 0.26033256E+03 0.51099893E-03 0.0000E+00 0.9000E+01
       11  1    4    4    0    0 -.65175977E+02 -.10555057E+03 -.89328159E+01 0.12437293E+03 0.51099893E-03 0.0000E+00 0.9000E+01
       23  1    3    3    0    0 0.40636826E+02 0.36062234E+03 -.84051752E+03 0.92004607E+03 0.91188000E+02 0.0000E+00 0.9000E+01
#aMCatNLO 1  0  0  2  2 0.53522667D+03 0.00000000D+00  -5  7  0 0.00000000D+00 0.00000000D+00 0.00000000D+00 0.00000000D+00 0.00000000D+00
  <mgrwgt>
 0.1627521096D-03    5    2    0
 0.583923520605080D+03 0.000000000000000D+00 0.000000000000000D+00 0.583923520605080D+03
 0.583923520605080D+03 0.000000000000000D+00 0.000000000000000D+00 -.583923520605080D+03
 0.145004146369953D+03 0.506090117520575D+02 0.181970435741945D+01 -.100729180111874D+03
 0.386933354581738D+03 -.260698609281506D+02 -.256891471030339D+03 0.288174522383455D+03
 0.161744036525129D+03 -.651759770228092D+02 -.105550572920850D+03 0.103789700484417D+03
 0.474165503733339D+03 0.406368261989023D+02 0.360622339593770D+03 -.291235042755997D+03
 0.000000000000000D+00 0.000000000000000D+00 -.000000000000000D+00 -.000000000000000D+00
 0.812108933613741D+03 0.000000000000000D+00 0.000000000000000D+00 0.812108933613741D+03
 0.106414286445332D+04 0.000000000000000D+00 0.000000000000000D+00 -.106414286445332D+04
 0.154564108068109D+03 0.343986223559715D+02 0.651550398119062D+02 -.100729180111874D+03
 0.314539062221867D+03 -.640282922990923D+02 -.108584732341805D+03 0.288174522383455D+03
 0.138464433206763D+03 -.814210100737436D+02 -.420798818343929D+02 0.103789700484417D+03
 0.677085774073656D+03 -.216602671329665D+02 0.604022248603115D+03 -.291235042755997D+03
 0.591598420496667D+03 0.132710947149831D+03 -.518512674238822D+03 -.252033930839581D+03
0.247855943152D-04 0.000000000000D+00 0.000000000000D+00 0.355746288416D-06 0.000000000000D+00  7 -1 1 23 -11 11 23 21 0 0.39055272D-01 0.20663580D+00 0.18522477D+06 0.18522477D+06 0.18522477D+06 0.11003945D+01  1  2  2  2  7  2        1 0.162638921466D-03 0.100000000000D+01
-.122112500591D-05 0.000000000000D+00 -.951832083672D-07 0.355746288416D-06 0.000000000000D+00  7 -1 1 23 -11 11 23 21 2 0.39055272D-01 0.20663580D+00 0.18522477D+06 0.18522477D+06 0.18522477D+06 0.11003945D+01  1  2  3  2  7  2        1 -.970246517136D-05 0.100000000000D+01
0.158662762151D-05 0.000000000000D+00 0.000000000000D+00 0.355746288416D-06 0.000000000000D+00  7 -1 1 23 -11 11 23 21 2 0.39055272D-01 0.20663580D+00 0.18522477D+06 0.18522477D+06 0.18522477D+06 0.11003945D+01  1  2 15  2  7  2        1 0.126065711235D-04 0.100000000000D+01
-.336955777965D-05 0.000000000000D+00 -.662754994728D-05 0.355746288416D-06 0.000000000000D+00  7 -1 1 23 -11 11 23 21 2 0.39055272D-01 0.42924947D+00 0.18522477D+06 0.18522477D+06 0.18522477D+06 0.11003945D+01  1  2  5  2  7  2        1 -.282344135885D-05 0.100000000000D+01
0.141703948816D-06 0.000000000000D+00 -.523938603117D-06 0.355746288416D-06 0.000000000000D+00  7 -1 21 23 -11 11 23 -1 2 0.39055272D-01 0.42924947D+00 0.18522477D+06 0.18522477D+06 0.18522477D+06 0.11003945D+01  1  2  5  4  7  2        1 0.325235157027D-07 0.100000000000D+01
  </mgrwgt>
  </event>
  <event>
  9     66 0.58687835E-06 0.24685683E+03 0.75467711E-02 0.98936367E-01
       21 -1    0    0  502  501 0.00000000E+00 0.00000000E+00 0.26339656E+03 0.26339762E+03 0.75000000E+00 0.0000E+00 0.9000E+01
        1 -1    0    0  501    0 0.00000000E+00 0.00000000E+00 -.23682224E+04 0.23682224E+04 0.32000000E+00 0.0000E+00 0.9000E+01
       25  2    1    2    0    0 -.22199149E+03 0.58820620E+02 0.68080235E+02 0.38369880E+03 0.29974950E+03 0.0000E+00 0.0000E+00
       23  2    1    2    0    0 0.88311468E+02 -.15812008E+03 -.19907871E+04 0.20011457E+04 0.92466751E+02 0.0000E+00 0.0000E+00
       23  1    3    3    0    0 -.72305313E+01 0.66583664E+02 -.48097523E+02 0.12294018E+03 0.91188000E+02 0.0000E+00 0.9000E+01
      -13  1    4    4    0    0 0.33505794E+02 -.40729524E+02 -.24779143E+03 0.25334194E+03 0.10565837E+00 0.0000E+00 0.9000E+01
       13  1    4    4    0    0 0.54805673E+02 -.11739055E+03 -.17429956E+04 0.17478038E+04 0.10565837E+00 0.0000E+00 0.9000E+01
       23  1    3    3    0    0 -.21476096E+03 -.77630445E+01 0.11617776E+03 0.26075862E+03 0.91188000E+02 0.0000E+00 0.9000E+01
        1  1    1    2  502    0 0.13368002E+03 0.99299456E+02 -.18211900E+03 0.24677553E+03 0.32000000E+00 0.0000E+00 0.9000E+01
#aMCatNLO 2  0  0  1  2 0.16652547D+03 0.00000000D+00  -5  7  0 0.00000000D+00 0.00000000D+00 0.00000000D+00 0.00000000D+00 0.00000000D+00
  <mgrwgt>
 0.2267137514D-04    2    2    0
 0.700526765902463D+03 0.000000000000000D+00 0.000000000000000D+00 0.700526765902463D+03
 0.700526765902463D+03 0.000000000000000D+00 0.000000000000000D+00 -.700526765902463D+03
 0.147289819392229D+03 0.653453281509294D+01 0.768085530494823D+02 0.862367996387203D+02
 0.914915715983395D+02 0.421596762390920D+02 -.343011749447653D+02 -.735982253207076D+02
 0.580021433967443D+03 0.109906917750364D+03 -.764606702666238D+02 -.564357244300666D+03
 0.582250706846915D+03 -.158601126804549D+03 0.339532921619068D+02 0.551718669982654D+03
 0.000000000000000D+00 0.000000000000000D+00 0.000000000000000D+00 0.000000000000000D+00
 0.804156269499135D+03 0.000000000000000D+00 0.000000000000000D+00 0.804156269499135D+03
 0.775698501006359D+03 0.000000000000000D+00 0.000000000000000D+00 -.775698501006359D+03
 0.142259276970298D+03 -.723053127872923D+01 0.665836642549096D+02 0.862367996387203D+02
 0.905440288794969D+02 0.335057666278613D+02 -.407294242293313D+02 -.735982253207076D+02
 0.579036552458783D+03 0.548057011620802D+02 -.117390651283837D+03 -.564357244300666D+03
 0.599075351593285D+03 -.214760959849830D+03 -.776304447814486D+01 0.551718669982654D+03
 0.168939560603631D+03 0.133680023338618D+03 0.992994557364037D+02 0.284577684927760D+02
-.363796807567D-06 0.000000000000D+00 0.000000000000D+00 0.378050628199D-05 0.000000000000D+00  7 21 1 23 -13 13 23 1 2 0.42177604D-01 0.32903411D+00 0.12089818D+06 0.12089818D+06 0.12089818D+06 0.11150207D+01  1  2 13  3  7  1       -1 -.769002804632D-05 0.100000000000D+01
0.188255996248D-05 0.000000000000D+00 0.000000000000D+00 0.378050628199D-05 0.207157798774D-10  7 21 1 23 -13 13 23 1 2 0.40522623D-01 0.36434192D+00 0.12089818D+06 0.12089818D+06 0.12089818D+06 0.11150207D+01  1  2  1  3  7  1       -1 0.303614031885D-04 0.100000000000D+01
  </mgrwgt>
  </event>
  <event>
  8     66 0.58687835E-06 0.21928798E+03 0.75467711E-02 0.95481565E-01
       -1 -1    0    0    0  501 0.00000000E+00 0.00000000E+00 0.21406466E+03 0.21406490E+03 0.32000000E+00 0.0000E+00 0.9000E+01
        1 -1    0    0  501    0 0.00000000E+00 0.00000000E+00 -.81726257E+03 0.81726264E+03 0.32000000E+00 0.0000E+00 0.9000E+01
       25  2    1    2    0    0 0.18460854E+03 0.26769364E+03 -.15613657E+03 0.47104831E+03 0.30293180E+03 0.0000E+00 0.0000E+00
       23  2    1    2    0    0 -.18460854E+03 -.26769364E+03 -.44706133E+03 0.56027923E+03 0.91152517E+02 0.0000E+00 0.0000E+00
       23  1    3    3    0    0 0.11660521E+03 0.24569672E+03 -.13328662E+02 0.28715250E+03 0.91188000E+02 0.0000E+00 0.9000E+01
      -13  1    4    4    0    0 -.17916841E+03 -.27522732E+03 -.43548060E+03 0.54543080E+03 0.10565837E+00 0.0000E+00 0.9000E+01
       13  1    4    4    0    0 -.54401308E+01 0.75336757E+01 -.11580739E+02 0.14848433E+02 0.10565837E+00 0.0000E+00 0.9000E+01
       23  1    3    3    0    0 0.68003325E+02 0.21996924E+02 -.14280791E+03 0.18389581E+03 0.91188000E+02 0.0000E+00 0.9000E+01
#aMCatNLO 1  0  0  2  1 0.16648881D+03 0.00000000D+00  -5  7  0 0.00000000D+00 0.00000000D+00 0.00000000D+00 0.00000000D+00 0.00000000D+00
  <mgrwgt>
 0.2518599682D-03    9    2    0
 0.418266892201488D+03 0.000000000000000D+00 0.000000000000000D+00 0.418266892201488D+03
 0.418266892201488D+03 0.000000000000000D+00 0.000000000000000D+00 -.418266892201488D+03
 0.344407437369091D+03 0.116605214927999D+03 0.245696716996544D+03 0.190624181781483D+03
 0.358428095355409D+03 -.179168642422159D+03 -.275227700059113D+03 -.143593210956777D+03
 0.995504186916591D+01 -.543989744489021D+01 0.753405555756439D+01 -.357048753834224D+01
 0.123743209809310D+03 0.680033249390505D+02 0.219969275050043D+02 -.434604832863641D+02
 0.000000000000000D+00 0.000000000000000D+00 -.000000000000000D+00 -.000000000000000D+00
 0.454573678986592D+03 0.000000000000000D+00 0.000000000000000D+00 0.454573678986592D+03
 0.673045660299834D+03 0.000000000000000D+00 0.000000000000000D+00 -.673045660299834D+03
 0.389524156078136D+03 0.924881910595849D+02 0.313882418524915D+03 0.190624181781483D+03
 0.325706855628012D+03 -.201649346467869D+03 -.211668341136057D+03 -.143593210956777D+03
 0.119249287577122D+02 -.615887422496060D+01 0.956680787390288D+01 -.357048753834224D+01
 0.125784441606324D+03 0.598038355332945D+02 0.451792214877273D+02 -.434604832863641D+02
 0.274678957216242D+03 0.555161940999506D+02 -.156960106750489D+03 -.218471981313242D+03
0.112404845322D-04 0.000000000000D+00 0.000000000000D+00 0.520107360396D-07 0.000000000000D+00  7 -1 1 23 -13 13 23 21 0 0.32933048D-01 0.12573273D+00 0.13704939D+06 0.13704939D+06 0.13704939D+06 0.11106598D+01  1  2  2  2  7  2        1 0.245353406694D-03 0.100000000000D+01
-.613157212444D-06 0.000000000000D+00 -.431664202911D-07 0.520107360396D-07 0.000000000000D+00  7 -1 1 23 -13 13 23 21 2 0.32933048D-01 0.12573273D+00 0.13704939D+06 0.13704939D+06 0.13704939D+06 0.11106598D+01  1  2  3  2  7  2        1 -.165097696332D-04 0.100000000000D+01
0.736601688429D-06 0.000000000000D+00 0.000000000000D+00 0.520107360396D-07 0.000000000000D+00  7 -1 1 23 -13 13 23 21 2 0.32933048D-01 0.12573273D+00 0.13704939D+06 0.13704939D+06 0.13704939D+06 0.11106598D+01  1  2 15  2  7  2        1 0.198336151652D-04 0.100000000000D+01
0.960969217437D-05 0.000000000000D+00 0.000000000000D+00 0.520107360396D-07 0.000000000000D+00  7 -1 1 23 -13 13 23 21 2 0.32933048D-01 0.20500742D+00 0.21526966D+06 0.21526966D+06 0.21526966D+06 0.10953797D+01  1  2 12  2  7  2        1 0.102560185066D-03 0.100000000000D+01
-.126569437244D-04 0.000000000000D+00 0.000000000000D+00 0.520107360396D-07 0.000000000000D+00  7 -1 1 23 -13 13 23 21 2 0.32933048D-01 0.12573273D+00 0.13704939D+06 0.13704939D+06 0.13704939D+06 0.11106598D+01  1  2  4  2  7  2        1 -.340798772175D-03 0.100000000000D+01
-.141102265609D-04 0.000000000000D+00 -.379440838365D-05 0.520107360396D-07 0.000000000000D+00  7 -1 1 23 -13 13 23 21 2 0.32933048D-01 0.21008050D+00 0.13704939D+06 0.13704939D+06 0.13704939D+06 0.11106598D+01  1  2  5  2  7  2        1 -.149428421337D-03 0.100000000000D+01
0.145490053583D-04 0.000000000000D+00 0.334405214689D-05 0.520107360396D-07 0.000000000000D+00  7 -1 1 23 -13 13 23 21 2 0.32933048D-01 0.12573273D+00 0.13704939D+06 0.13704939D+06 0.13704939D+06 0.11106598D+01  1  2  6  2  7  2        1 0.391744110618D-03 0.100000000000D+01
0.532304715947D-06 0.000000000000D+00 0.000000000000D+00 0.520107360396D-07 0.000000000000D+00  7 -1 21 23 -13 13 23 -1 2 0.32933048D-01 0.20500742D+00 0.21526966D+06 0.21526966D+06 0.21526966D+06 0.10953797D+01  1  2 12  4  7  2        1 0.525549185428D-05 0.100000000000D+01
-.636223904002D-06 0.000000000000D+00 -.218476426323D-06 0.520107360396D-07 0.000000000000D+00  7 -1 21 23 -13 13 23 -1 2 0.32933048D-01 0.21008050D+00 0.13704939D+06 0.13704939D+06 0.13704939D+06 0.11106598D+01  1  2  5  4  7  2        1 -.614987809253D-05 0.100000000000D+01
  </mgrwgt>
  </event>
  <event>
  8     66 0.58687835E-06 0.23655061E+03 0.75467711E-02 0.95973336E-01
       -1 -1    0    0    0  501 0.00000000E+00 0.00000000E+00 0.60416231E+02 0.60417079E+02 0.32000000E+00 0.0000E+00 0.9000E+01
        1 -1    0    0  501    0 0.00000000E+00 0.00000000E+00 -.13621525E+04 0.13621525E+04 0.32000000E+00 0.0000E+00 0.9000E+01
       25  2    1    2    0    0 0.13379143E+03 0.55991922E+02 -.48773399E+03 0.59078230E+03 0.30017334E+03 0.0000E+00 0.0000E+00
       23  2    1    2    0    0 -.13379143E+03 -.55991922E+02 -.81400227E+03 0.83178731E+03 0.90747994E+02 0.0000E+00 0.0000E+00
       23  1    3    3    0    0 0.15490053E+03 0.97117611E+02 -.20199148E+03 0.28730091E+03 0.91188000E+02 0.0000E+00 0.9000E+01
      -11  1    4    4    0    0 0.11174599E+02 -.84021488E+01 -.14173860E+03 0.14242647E+03 0.51099893E-03 0.0000E+00 0.9000E+01
       11  1    4    4    0    0 -.14496602E+03 -.47589773E+02 -.67226367E+03 0.68936085E+03 0.51099893E-03 0.0000E+00 0.9000E+01
       23  1    3    3    0    0 -.21109102E+02 -.41125689E+02 -.28574252E+03 0.30348139E+03 0.91188000E+02 0.0000E+00 0.9000E+01
#aMCatNLO 1  0  0  2  2 0.33283388D+03 0.00000000D+00  -5  7  0 0.00000000D+00 0.00000000D+00 0.00000000D+00 0.00000000D+00 0.00000000D+00
  <mgrwgt>
 0.2936098576D-03    5    2    0
 0.286874101000759D+03 0.000000000000000D+00 0.000000000000000D+00 0.286874101000759D+03
 0.286874101000759D+03 0.000000000000000D+00 0.000000000000000D+00 -.286874101000759D+03
 0.254059029333179D+03 0.154900528105409D+03 0.971176105939015D+02 0.151012367529663D+03
 0.315561566109586D+02 0.111745986736125D+02 -.840214879702218D+01 -.282899851560891D+02
 0.183972330585687D+03 -.144966024934923D+03 -.475897728440514D+02 -.102790483783025D+03
 0.104160685471694D+03 -.211091018440986D+02 -.411256889528279D+02 -.199318985905491D+02
 0.000000000000000D+00 0.000000000000000D+00 0.000000000000000D+00 -.000000000000000D+00
 0.362431556285825D+03 0.000000000000000D+00 0.000000000000000D+00 0.362431556285825D+03
 0.123134696646357D+04 0.000000000000000D+00 0.000000000000000D+00 -.123134696646357D+04
 0.193273469711011D+03 0.788674190728777D+02 0.381809009877726D+01 0.151012367529663D+03
 0.361646684611147D+02 -.335910595174759D+00 -.225265875987164D+02 -.282899851560891D+02
 0.287212970519709D+03 -.225053394956150D+03 -.145864239267609D+03 -.102790483783025D+03
 0.146647762090261D+03 -.637390160142161D+02 -.934364598976086D+02 -.199318985905491D+02
 0.930479651967304D+03 0.210260902492663D+03 0.258009196665156D+03 -.868915410177749D+03
0.437663402203D-05 0.000000000000D+00 0.000000000000D+00 0.538143359199D-06 0.000000000000D+00  7 -1 1 23 -11 11 23 21 0 0.92948729D-02 0.20956199D+00 0.55956192D+05 0.55956192D+05 0.55956192D+05 0.11430207D+01  1  2  2  2  7  2        1 0.289016247782D-03 0.100000000000D+01
-.232147940618D-06 0.000000000000D+00 -.168074270388D-07 0.538143359199D-06 0.000000000000D+00  7 -1 1 23 -11 11 23 21 2 0.92948729D-02 0.20956199D+00 0.55956192D+05 0.55956192D+05 0.55956192D+05 0.11430207D+01  1  2  3  2  7  2        1 -.200288073379D-04 0.100000000000D+01
0.285453694962D-06 0.000000000000D+00 0.000000000000D+00 0.538143359199D-06 0.000000000000D+00  7 -1 1 23 -11 11 23 21 2 0.92948729D-02 0.20956199D+00 0.55956192D+05 0.55956192D+05 0.55956192D+05 0.11430207D+01  1  2 15  2  7  2        1 0.246278172663D-04 0.100000000000D+01
-.311417795724D-05 0.000000000000D+00 -.139991805428D-05 0.538143359199D-06 0.000000000000D+00  7 -1 1 23 -11 11 23 21 2 0.92948729D-02 0.90563759D+00 0.55956192D+05 0.55956192D+05 0.55956192D+05 0.11430207D+01  1  2  5  2  7  2        1 -.538642020289D-08 0.100000000000D+01
-.551051734463D-06 0.000000000000D+00 -.246755946658D-06 0.538143359199D-06 0.000000000000D+00  7 -1 21 23 -11 11 23 -1 2 0.92948729D-02 0.90563759D+00 0.55956192D+05 0.55956192D+05 0.55956192D+05 0.11430207D+01  1  2  5  4  7  2        1 -.137297440859D-10 0.100000000000D+01
  </mgrwgt>
  </event>
  <event>
  9     66 0.58687835E-06 0.30736794E+03 0.75467711E-02 0.93949948E-01
       -1 -1    0    0    0  501 0.00000000E+00 0.00000000E+00 0.44496479E+03 0.44496490E+03 0.32000000E+00 0.0000E+00 0.9000E+01
        1 -1    0    0  502    0 0.00000000E+00 0.00000000E+00 -.17387268E+04 0.17387268E+04 0.32000000E+00 0.0000E+00 0.9000E+01
       25  2    1    2    0    0 0.58415360E+02 0.53457957E+02 0.19222586E+03 0.36413934E+03 0.29895914E+03 0.0000E+00 0.0000E+00
       23  2    1    2    0    0 -.42105084E+03 -.61713740E+02 -.19079702E+03 0.47452728E+03 0.87636967E+02 0.0000E+00 0.0000E+00
       23  1    3    3    0    0 0.46661048E+02 0.11648292E+03 0.19917739E+03 0.25245279E+03 0.91188000E+02 0.0000E+00 0.9000E+01
      -11  1    4    4    0    0 -.40566571E+03 -.42437094E+02 -.18971107E+03 0.44983982E+03 0.51099893E-03 0.0000E+00 0.9000E+01
       11  1    4    4    0    0 -.15385136E+02 -.19276646E+02 -.10859544E+01 0.24687462E+02 0.51099893E-03 0.0000E+00 0.9000E+01
       23  1    3    3    0    0 0.11754311E+02 -.63024964E+02 -.69515335E+01 0.11168655E+03 0.91188000E+02 0.0000E+00 0.9000E+01
       21  1    1    2  502  501 0.36263548E+03 0.82557825E+01 -.12951908E+04 0.13450251E+04 0.75000000E+00 0.0000E+00 0.9000E+01
#aMCatNLO 2  0  0  2  2 0.36272945D+03 0.00000000D+00  -5  7  0 0.00000000D+00 0.00000000D+00 0.00000000D+00 0.00000000D+00 0.00000000D+00
  <mgrwgt>
 0.3830975963D-04    1    2    0
 0.378082992839256D+03 0.000000000000000D+00 0.000000000000000D+00 0.378082992839256D+03
 0.378082992839256D+03 0.000000000000000D+00 0.000000000000000D+00 -.378082992839256D+03
 0.303269051585550D+03 0.172944952857444D+03 0.119357908471295D+03 0.198747576770369D+03
 0.304268608931019D+03 -.234121604904583D+03 -.385317097525468D+02 -.190477735815148D+03
 0.197942808772339D+02 -.527037234179246D+01 -.190463726274307D+02 -.112801620677801D+01
 0.128834044284708D+03 0.664470243889308D+02 -.617798260913177D+02 -.714182474844239D+01
 0.000000000000000D+00 0.000000000000000D+00 0.000000000000000D+00 -.000000000000000D+00
 0.444207316132048D+03 0.000000000000000D+00 0.000000000000000D+00 0.444207316132048D+03
 0.174169127889819D+04 0.000000000000000D+00 0.000000000000000D+00 -.174169127889819D+04
 0.252113813467960D+03 0.466610482747098D+02 0.116482921062142D+03 0.198747576770369D+03
 0.450163683109362D+03 -.405665708219656D+03 -.424370937266562D+02 -.190477735815148D+03
 0.246893480382431D+02 -.153851358732792D+02 -.192766459777494D+02 -.112801620677801D+01
 0.111698553759484D+03 0.117543113583922D+02 -.630249638771250D+02 -.714182474844239D+01
 0.134723319665518D+04 0.362635484459833D+03 0.825578251938906D+01 -.129748396276614D+04
0.260104534378D-04 0.000000000000D+00 0.000000000000D+00 0.252087128702D-07 0.260142287374D-11  7 -1 1 23 -11 11 23 21 2 0.68456117D-01 0.26749638D+00 0.28188546D+06 0.28188546D+06 0.28188546D+06 0.10865587D+01  1  2  1  2  7  2        1 0.383097596287D-04 0.100000000000D+01
  </mgrwgt>
  </event>
  <event>
  9     66 0.58687835E-06 0.18861822E+03 0.75467711E-02 0.10136181E+00
       -1 -1    0    0    0  501 0.00000000E+00 0.00000000E+00 0.84771170E+03 0.84771176E+03 0.32000000E+00 0.0000E+00 0.9000E+01
       21 -1    0    0  501  502 0.00000000E+00 0.00000000E+00 -.11751041E+03 0.11751280E+03 0.75000000E+00 0.0000E+00 0.9000E+01
       25  2    1    2    0    0 -.83952725E+02 0.88749561E+02 0.38204685E+03 0.50218574E+03 0.30216912E+03 0.0000E+00 0.0000E+00
       23  2    1    2    0    0 -.75815310E+02 -.86208267E+02 0.17548719E+03 0.22778074E+03 0.88929678E+02 0.0000E+00 0.0000E+00
       23  1    3    3    0    0 -.81335890E+02 -.43891040E+02 0.61885355E+02 0.14382976E+03 0.91188000E+02 0.0000E+00 0.9000E+01
      -13  1    4    4    0    0 -.30114567E+02 -.43917047E+01 0.10823397E+03 0.11243121E+03 0.10565837E+00 0.0000E+00 0.9000E+01
       13  1    4    4    0    0 -.45700743E+02 -.81816562E+02 0.67253218E+02 0.11534953E+03 0.10565837E+00 0.0000E+00 0.9000E+01
       23  1    3    3    0    0 -.26168347E+01 0.13264060E+03 0.32016150E+03 0.35835599E+03 0.91188000E+02 0.0000E+00 0.9000E+01
       -1  1    1    2    0  502 0.15976803E+03 -.25412944E+01 0.17266725E+03 0.23525808E+03 0.32000000E+00 0.0000E+00 0.9000E+01
#aMCatNLO 2  0  0  2  1 0.15978824D+03 0.00000000D+00  -5  7  0 0.00000000D+00 0.00000000D+00 0.00000000D+00 0.00000000D+00 0.00000000D+00
  <mgrwgt>
 0.1822258022D-04    1    2    0
 0.221627266976251D+03 0.000000000000000D+00 0.000000000000000D+00 0.221627266976251D+03
 0.221627266976251D+03 0.000000000000000D+00 0.000000000000000D+00 -.221627266976251D+03
 0.129957589699530D+03 -.324919122177200D+02 -.446676924990293D+02 -.743155210151921D+02
 0.381872876508726D+02 -.153859275956701D+02 -.462596242299318D+01 0.346430749474168D+02
 0.893659343227759D+02 -.127679788573966D+02 -.823407145734385D+02 -.322994683673788D+02
 0.185743722279324D+03 0.606458186707867D+02 0.131634369495461D+03 0.719719144351540D+02
 0.000000000000000D+00 0.000000000000000D+00 -.000000000000000D+00 -.000000000000000D+00
 0.310230414207984D+03 0.000000000000000D+00 0.000000000000000D+00 0.310230414207984D+03
 0.321103378672159D+03 0.000000000000000D+00 0.000000000000000D+00 -.321103378672159D+03
 0.149599278016415D+03 -.813356979932758D+02 -.438907758785362D+02 -.743155210151921D+02
 0.461120125275907D+02 -.301145836740816D+02 -.439168619884000D+01 0.346430749474168D+02
 0.991253263425880D+02 -.457009088609558D+02 -.818168784236595D+02 -.322994683673788D+02
 0.176339427588650D+03 -.261684394803991D+01 0.132640634944889D+03 0.719719144351540D+02
 0.160157748404898D+03 0.159768034476353D+03 -.254129444385338D+01 -.108729644641749D+02
0.810620169758D-07 0.000000000000D+00 0.000000000000D+00 0.173223847943D-07 0.373085637967D-12  7 -1 21 23 -13 13 23 -1 2 0.13041731D+00 0.18078704D-01 0.82585880D+05 0.82585880D+05 0.82585880D+05 0.11286053D+01  1  2  1  4  7  2        1 0.182225802244D-04 0.100000000000D+01
  </mgrwgt>
  </event>
  <event>
  8     66 0.58687835E-06 0.17484654E+03 0.75467711E-02 0.99166302E-01
       -1 -1    0    0    0  501 0.00000000E+00 0.00000000E+00 0.11473341E+03 0.11473386E+03 0.32000000E+00 0.0000E+00 0.9000E+01
        1 -1    0    0  501    0 0.00000000E+00 0.00000000E+00 -.12973806E+04 0.12973806E+04 0.32000000E+00 0.0000E+00 0.9000E+01
       25  2    1    2    0    0 -.15019879E+03 -.22006951E+03 -.10020396E+04 0.10789938E+04 0.29858674E+03 0.0000E+00 0.0000E+00
       23  2    1    2    0    0 0.15019879E+03 0.22006951E+03 -.18060758E+03 0.33312066E+03 0.85790491E+02 0.0000E+00 0.0000E+00
       23  1    3    3    0    0 -.19417917E+03 -.20677301E+03 -.75757284E+03 0.81405927E+03 0.91188000E+02 0.0000E+00 0.9000E+01
      -13  1    4    4    0    0 0.13194663E+03 0.13266343E+03 -.96823656E+02 0.21067589E+03 0.10565837E+00 0.0000E+00 0.9000E+01
       13  1    4    4    0    0 0.18252160E+02 0.87406081E+02 -.83783920E+02 0.12244477E+03 0.10565837E+00 0.0000E+00 0.9000E+01
       23  1    3    3    0    0 0.43980384E+02 -.13296500E+02 -.24446673E+03 0.26493453E+03 0.91188000E+02 0.0000E+00 0.9000E+01
#aMCatNLO 1  0  0  2  1 0.60222457D+01 0.00000000D+00  -5  7  0 0.00000000D+00 0.00000000D+00 0.00000000D+00 0.00000000D+00 0.00000000D+00
  <mgrwgt>
 0.5930812048D-03   11    2    0
 0.385815032670565D+03 0.000000000000000D+00 0.000000000000000D+00 0.385815032670565D+03
 0.385815032670565D+03 0.000000000000000D+00 0.000000000000000D+00 -.385815032670565D+03
 0.328659433236789D+03 -.194179173906239D+03 -.206773014600817D+03 -.138712438395076D+03
 0.237147857910255D+03 0.131946802387303D+03 0.132663503040233D+03 0.145703612900581D+03
 0.956663657044801D+02 0.182519876391102D+02 0.874060117686714D+02 0.343381359572702D+02
 0.110156408489606D+03 0.439803838798257D+02 -.132965002080874D+02 -.413293104627760D+02
 0.000000000000000D+00 -.000000000000000D+00 -.000000000000000D+00 -.000000000000000D+00
 0.387146202183843D+03 0.000000000000000D+00 0.000000000000000D+00 0.387146202183843D+03
 0.392698639172106D+03 0.000000000000000D+00 0.000000000000000D+00 -.392698639172106D+03
 0.326845791992777D+03 -.193793852478964D+03 -.204244271829687D+03 -.138712438395076D+03
 0.238333773235236D+03 0.132226301701274D+03 0.134497768720028D+03 0.145703612900581D+03
 0.963651201535282D+02 0.183648682743281D+02 0.881468117089355D+02 0.343381359572702D+02
 0.110108880139703D+03 0.441098610100256D+02 -.124467827155118D+02 -.413293104627760D+02
 0.819127583470571D+01 -.907178506663652D+00 -.595352588376420D+01 -.555243698826298D+01
0.638103304105D-05 0.000000000000D+00 0.000000000000D+00 0.547370236028D-08 0.000000000000D+00  7 -1 1 23 -13 13 23 21 0 0.17651331D-01 0.19959705D+00 0.11440020D+06 0.11440020D+06 0.11440020D+06 0.11169588D+01  1  2  2  2  7  2        1 0.170108865857D-03 0.100000000000D+01
-.347033853159D-06 0.000000000000D+00 -.245048470422D-07 0.547370236028D-08 0.000000000000D+00  7 -1 1 23 -13 13 23 21 2 0.17651331D-01 0.19959705D+00 0.11440020D+06 0.11440020D+06 0.11440020D+06 0.11169588D+01  1  2  3  2  7  2        1 -.115420265928D-04 0.100000000000D+01
0.414723546107D-06 0.000000000000D+00 0.000000000000D+00 0.547370236028D-08 0.000000000000D+00  7 -1 1 23 -13 13 23 21 2 0.17651331D-01 0.19959705D+00 0.11440020D+06 0.11440020D+06 0.11440020D+06 0.11169588D+01  1  2 15  2  7  2        1 0.137933234877D-04 0.100000000000D+01
0.624579755575D-05 0.000000000000D+00 0.000000000000D+00 0.547370236028D-08 0.000000000000D+00  7 -1 1 23 -13 13 23 21 2 0.17651331D-01 0.20349881D+00 0.11651307D+06 0.11651307D+06 0.11651307D+06 0.11163156D+01  1  2 12  2  7  2        1 0.199298084721D-03 0.100000000000D+01
-.323817717072D-04 0.000000000000D+00 0.000000000000D+00 0.547370236028D-08 0.000000000000D+00  7 -1 1 23 -13 13 23 21 2 0.17651331D-01 0.19959705D+00 0.11440020D+06 0.11440020D+06 0.11440020D+06 0.11169588D+01  1  2  4  2  7  2        1 -.107698792715D-02 0.100000000000D+01
-.364158665892D-03 0.000000000000D+00 -.364139412041D-04 0.547370236028D-08 0.000000000000D+00  7 -1 1 23 -13 13 23 21 2 0.17651331D-01 0.20349740D+00 0.11440020D+06 0.11440020D+06 0.11440020D+06 0.11169588D+01  1  2  5  2  7  2        1 -.116385088246D-01 0.100000000000D+01
0.364801874364D-03 0.000000000000D+00 0.364071232974D-04 0.547370236028D-08 0.000000000000D+00  7 -1 1 23 -13 13 23 21 2 0.17651331D-01 0.19959705D+00 0.11440020D+06 0.11440020D+06 0.11440020D+06 0.11169588D+01  1  2  6  2  7  2        1 0.121329746267D-01 0.100000000000D+01
0.260660976370D-04 0.000000000000D+00 0.000000000000D+00 0.547370236028D-08 0.100333051312D-08  7 -1 1 23 -13 13 23 21 2 0.17712233D-01 0.20315820D+00 0.11651307D+06 0.11651307D+06 0.11651307D+06 0.11163156D+01  1  2 11  2  7  2        1 0.830077314877D-03 0.100000000000D+01
0.337274342789D-06 0.000000000000D+00 0.000000000000D+00 0.547370236028D-08 0.000000000000D+00  7 -1 21 23 -13 13 23 -1 2 0.17651331D-01 0.20349881D+00 0.11651307D+06 0.11651307D+06 0.11651307D+06 0.11163156D+01  1  2 12  4  7  2        1 0.103271656118D-04 0.100000000000D+01
-.127886551769D-05 0.000000000000D+00 -.128378902358D-06 0.547370236028D-08 0.000000000000D+00  7 -1 21 23 -13 13 23 -1 2 0.17651331D-01 0.20349740D+00 0.11440020D+06 0.11440020D+06 0.11440020D+06 0.11169588D+01  1  2  5  4  7  2        1 -.392522657109D-04 0.100000000000D+01
0.911905214188D-07 0.000000000000D+00 0.000000000000D+00 0.547370236028D-08 0.323227538026D-11  7 -1 21 23 -13 13 23 -1 2 0.17712233D-01 0.20315820D+00 0.11651307D+06 0.11651307D+06 0.11651307D+06 0.11163156D+01  1  2 11  4  7  2        1 0.279286757001D-05 0.100000000000D+01
  </mgrwgt>
  </event>
  <event>
  8     66 0.58687835E-06 0.19246386E+03 0.75467711E-02 0.10613276E+00
       -1 -1    0    0    0  501 0.00000000E+00 0.00000000E+00 0.37724716E+03 0.37724729E+03 0.32000000E+00 0.0000E+00 0.9000E+01
        1 -1    0    0  501    0 0.00000000E+00 0.00000000E+00 -.90555491E+03 0.90555497E+03 0.32000000E+00 0.0000E+00 0.9000E+01
       25  2    1    2    0    0 -.37239845E+02 -.35397681E+02 0.31180599E+03 0.43606648E+03 0.30048495E+03 0.0000E+00 0.0000E+00
       23  2    1    2    0    0 0.37239845E+02 0.35397681E+02 -.84011374E+03 0.84673578E+03 0.92361147E+02 0.0000E+00 0.0000E+00
       23  1    3    3    0    0 -.12661723E+02 0.10117968E+03 0.11621747E+03 0.17949763E+03 0.91188000E+02 0.0000E+00 0.9000E+01
      -13  1    4    4    0    0 0.12401246E+02 -.18766745E+02 -.55824307E+02 0.60185929E+02 0.10565837E+00 0.0000E+00 0.9000E+01
       13  1    4    4    0    0 0.24838599E+02 0.54164425E+02 -.78428943E+03 0.78654985E+03 0.10565837E+00 0.0000E+00 0.9000E+01
       23  1    3    3    0    0 -.24578121E+02 -.13657736E+03 0.19558852E+03 0.25656886E+03 0.91188000E+02 0.0000E+00 0.9000E+01
#aMCatNLO 1  0  0  1  1 0.20404124D+02 0.00000000D+00  -5  7  0 0.00000000D+00 0.00000000D+00 0.00000000D+00 0.00000000D+00 0.00000000D+00
  <mgrwgt>
 0.1801174790D-03    4    2    0
 0.584481086905305D+03 0.000000000000000D+00 0.000000000000000D+00 0.584481086905305D+03
 0.584481086905305D+03 0.000000000000000D+00 0.000000000000000D+00 -.584481086905305D+03
 0.249502128094809D+03 -.126617233405573D+02 0.101179678489573D+03 0.208658606346904D+03
 0.408169885484580D+02 0.124012292383281D+02 -.187668402733556D+02 -.340593859853308D+02
 0.508692640697004D+03 0.248386152685368D+02 0.541645208806965D+02 -.505190509183018D+03
 0.369950416470338D+03 -.245781211663076D+02 -.136577359096913D+03 0.330591288821445D+03
 0.000000000000000D+00 0.000000000000000D+00 -.000000000000000D+00 -.000000000000000D+00
 0.587516533890777D+03 0.000000000000000D+00 0.000000000000000D+00 0.587516533890777D+03
 0.619895095899279D+03 0.000000000000000D+00 0.000000000000000D+00 -.619895095899279D+03
 0.250350735415787D+03 -.167618143272836D+02 0.102668724337311D+03 0.208658606346904D+03
 0.405079258095032D+02 0.117341538393526D+02 -.185245759294206D+02 -.340593859853308D+02
 0.508685347522007D+03 0.164934748800352D+02 0.571952576825187D+02 -.505190509183018D+03
 0.369596227530480D+03 -.306443233443554D+02 -.134374273069309D+03 0.330591288821445D+03
 0.382713935122782D+02 0.191785089522512D+02 -.696513302109954D+01 -.323785620085028D+02
0.317007075870D-04 0.000000000000D+00 0.000000000000D+00 0.212566420167D-05 0.000000000000D+00  7 -1 1 23 -13 13 23 21 0 0.58038039D-01 0.13931616D+00 0.37042336D+05 0.37042336D+05 0.37042336D+05 0.11589334D+01  1  2  2  1  7  1       -1 0.225835168364D-03 0.100000000000D+01
0.881028602483D-06 0.000000000000D+00 -.121739064122D-06 0.212566420167D-05 0.000000000000D+00  7 -1 1 23 -13 13 23 21 2 0.58038039D-01 0.13931616D+00 0.37042336D+05 0.37042336D+05 0.37042336D+05 0.11589334D+01  1  2  3  1  7  1       -1 0.843003915071D-05 0.100000000000D+01
0.196538127837D-05 0.000000000000D+00 0.000000000000D+00 0.212566420167D-05 0.000000000000D+00  7 -1 1 23 -13 13 23 21 2 0.58038039D-01 0.13931616D+00 0.37042336D+05 0.37042336D+05 0.37042336D+05 0.11589334D+01  1  2 15  1  7  1       -1 0.188055655356D-04 0.100000000000D+01
-.762439385967D-05 0.000000000000D+00 0.000000000000D+00 0.212566420167D-05 0.000000000000D+00  7 -1 1 23 -13 13 23 21 2 0.58038039D-01 0.13931616D+00 0.37042336D+05 0.37042336D+05 0.37042336D+05 0.11589334D+01  1  2  4  1  7  1       -1 -.729532940887D-04 0.100000000000D+01
  </mgrwgt>
  </event>
  <event>
  8     66 0.58687835E-06 0.22887272E+03 0.75467711E-02 0.98822635E-01
       -1 -1    0    0    0  501 0.00000000E+00 0.00000000E+00 0.90520287E+03 0.90520293E+03 0.32000000E+00 0.0000E+00 0.9000E+01
        1 -1    0    0  501    0 0.00000000E+00 0.00000000E+00 -.61134247E+02 0.61135084E+02 0.32000000E+00 0.0000E+00 0.9000E+01
       25  2    1    2    0    0 0.11666161E+03 0.34381573E+01 0.59700087E+03 0.67820353E+03 0.29988038E+03 0.0000E+00 0.0000E+00
       23  2    1    2    0    0 -.11666161E+03 -.34381573E+01 0.24706775E+03 0.28813448E+03 0.91417996E+02 0.0000E+00 0.0000E+00
       23  1    3    3    0    0 0.17785370E+03 0.13154480E+02 0.29380472E+03 0.35558606E+03 0.91188000E+02 0.0000E+00 0.9000E+01
      -11  1    4    4    0    0 -.12289954E+03 -.24426646E+02 0.22137443E+03 0.25437688E+03 0.51099893E-03 0.0000E+00 0.9000E+01
       11  1    4    4    0    0 0.62379346E+01 0.20988488E+02 0.25693320E+02 0.33757594E+02 0.51099893E-03 0.0000E+00 0.9000E+01
       23  1    3    3    0    0 -.61192097E+02 -.97163226E+01 0.30319615E+03 0.32261748E+03 0.91188000E+02 0.0000E+00 0.9000E+01
#aMCatNLO 1  0  0  1  1 0.20137230D+03 0.00000000D+00  -5  7  0 0.00000000D+00 0.00000000D+00 0.00000000D+00 0.00000000D+00 0.00000000D+00
  <mgrwgt>
 0.1937101979D-03    5    2    0
 0.235243124015329D+03 0.000000000000000D+00 0.000000000000000D+00 0.235243124015329D+03
 0.235243124015329D+03 0.000000000000000D+00 0.000000000000000D+00 -.235243124015329D+03
 0.203247127561909D+03 0.177853702484713D+03 0.131544798975456D+02 -.344842527724027D+02
 0.125314685274862D+03 -.122899540016351D+03 -.244266456548672D+02 -.167701859219227D+01
 0.232404690729769D+02 0.623793461377408D+01 0.209884883298157D+02 -.779043850598051D+01
 0.118683966120911D+03 -.611920970821359D+02 -.971632257249410D+01 0.439517098705755D+02
 0.000000000000000D+00 0.000000000000000D+00 -.000000000000000D+00 0.000000000000000D+00
 0.377531744953223D+03 0.000000000000000D+00 0.000000000000000D+00 0.377531744953223D+03
 0.339221872072087D+03 0.000000000000000D+00 0.000000000000000D+00 -.339221872072087D+03
 0.186176914668794D+03 0.136209042309569D+03 0.812682306650657D+02 -.344842527724027D+02
 0.154829556331683D+03 -.152857915659775D+03 0.245730898068684D+02 -.167701859219227D+01
 0.315513096170034D+02 0.378550609475368D+00 0.305720608704846D+02 -.779043850598051D+01
 0.139211810298136D+03 -.887712416774599D+02 0.353919571792642D+02 0.439517098705755D+02
 0.204984026109694D+03 0.105041564418191D+03 -.171805338521683D+03 0.383098728811355D+02
0.484179385594D-05 0.000000000000D+00 0.000000000000D+00 0.209721355944D-06 0.000000000000D+00  7 -1 1 23 -11 11 23 21 0 0.13926205D+00 0.94053375D-02 0.52382723D+05 0.52382723D+05 0.52382723D+05 0.11455213D+01  1  2  2  1  7  1       -1 0.196284282863D-03 0.100000000000D+01
-.268742051169D-06 0.000000000000D+00 -.185937632804D-07 0.209721355944D-06 0.000000000000D+00  7 -1 1 23 -11 11 23 21 2 0.13926205D+00 0.94053375D-02 0.52382723D+05 0.52382723D+05 0.52382723D+05 0.11455213D+01  1  2  3  1  7  1       -1 -.142962179234D-04 0.100000000000D+01
0.318230664145D-06 0.000000000000D+00 0.000000000000D+00 0.209721355944D-06 0.000000000000D+00  7 -1 1 23 -11 11 23 21 2 0.13926205D+00 0.94053375D-02 0.52382723D+05 0.52382723D+05 0.52382723D+05 0.11455213D+01  1  2 15  1  7  1       -1 0.169288539130D-04 0.100000000000D+01
-.123917575771D-05 0.000000000000D+00 -.139040173559D-05 0.209721355944D-06 0.000000000000D+00  7 -1 1 23 -11 11 23 21 2 0.27929828D+00 0.94053375D-02 0.52382723D+05 0.52382723D+05 0.52382723D+05 0.11455213D+01  1  2  5  1  7  1       -1 -.488011444555D-05 0.100000000000D+01
-.969227512631D-08 0.000000000000D+00 -.104685896363D-06 0.209721355944D-06 0.000000000000D+00  7 21 1 23 -11 11 23 1 2 0.27929828D+00 0.94053375D-02 0.52382723D+05 0.52382723D+05 0.52382723D+05 0.11455213D+01  1  2  5  3  7  1       -1 -.326606468357D-06 0.100000000000D+01
  </mgrwgt>
  </event>
  <event>
  8     66 0.58687835E-06 0.98597150E+02 0.75467711E-02 0.10041127E+00
       -1 -1    0    0    0  501 0.00000000E+00 0.00000000E+00 0.20838772E+03 0.20838797E+03 0.32000000E+00 0.0000E+00 0.9000E+01
        1 -1    0    0  501    0 0.00000000E+00 0.00000000E+00 -.33523703E+03 0.33523718E+03 0.32000000E+00 0.0000E+00 0.9000E+01
       25  2    1    2    0    0 0.71532189E+02 -.72938476E+02 -.21304027E+03 0.38193999E+03 0.30009186E+03 0.0000E+00 0.0000E+00
       23  2    1    2    0    0 -.71532189E+02 0.72938476E+02 0.86190970E+02 0.16168515E+03 0.90974339E+02 0.0000E+00 0.0000E+00
       23  1    3    3    0    0 0.95229175E+02 -.98914333E+02 -.20605596E+02 0.16610985E+03 0.91188000E+02 0.0000E+00 0.9000E+01
      -13  1    4    4    0    0 -.29793366E+02 0.62954673E+02 0.49735402E+01 0.69826090E+02 0.10565837E+00 0.0000E+00 0.9000E+01
       13  1    4    4    0    0 -.41738823E+02 0.99838032E+01 0.81217430E+02 0.91859065E+02 0.10565837E+00 0.0000E+00 0.9000E+01
       23  1    3    3    0    0 -.23696986E+02 0.25975857E+02 -.19243468E+03 0.21583014E+03 0.91188000E+02 0.0000E+00 0.9000E+01
#aMCatNLO 1  0  0  1  2 0.18008178D+03 0.00000000D+00  -5  7  0 0.00000000D+00 0.00000000D+00 0.00000000D+00 0.00000000D+00 0.00000000D+00
  <mgrwgt>
 0.7113059349D-04    7    2    0
 0.264309266534560D+03 0.000000000000000D+00 0.000000000000000D+00 0.264309266534560D+03
 0.264309266534560D+03 0.000000000000000D+00 0.000000000000000D+00 -.264309266534560D+03
 0.165880841288661D+03 0.952291746038638D+02 -.989143331442451D+02 0.186697928625379D+02
 0.730017522994839D+02 -.297933502324078D+02 0.629547443670164D+02 0.218703516754509D+02
 0.113956090434160D+03 -.417388392992140D+02 0.998373276618653D+01 0.105566021621761D+03
 0.175779849046815D+03 -.236969850722420D+02 0.259758560110421D+02 -.146106166159750D+03
 0.000000000000000D+00 0.000000000000000D+00 -.000000000000000D+00 0.000000000000000D+00
 0.648945509767906D+03 0.000000000000000D+00 0.000000000000000D+00 0.648945509767906D+03
 0.301153635098928D+03 0.000000000000000D+00 0.000000000000000D+00 -.301153635098928D+03
 0.129813024082699D+03 0.538292676022033D+02 -.727325144716971D+02 0.186697928625379D+02
 0.971626900592313D+02 -.536179638401089D+02 0.780217278120597D+02 0.218703516754509D+02
 0.134222401904263D+03 -.764861496288322D+02 0.319583661481488D+02 0.105566021621761D+03
 0.197252418420822D+03 -.759249917722907D+02 0.590055002803989D+02 -.146106166159750D+03
 0.391648610399819D+03 0.152199837639028D+03 -.962530797689103D+02 0.347791874668979D+03
0.124716800089D-05 0.000000000000D+00 0.000000000000D+00 0.355084816879D-06 0.000000000000D+00  7 -1 1 23 -13 13 23 21 0 0.32059680D-01 0.51574958D-01 0.35179472D+05 0.35179472D+05 0.35179472D+05 0.11609723D+01  1  2  2  1  7  1       -1 0.101194290398D-03 0.100000000000D+01
-.593753752369D-07 0.000000000000D+00 -.478945351028D-08 0.355084816879D-06 0.000000000000D+00  7 -1 1 23 -13 13 23 21 2 0.32059680D-01 0.51574958D-01 0.35179472D+05 0.35179472D+05 0.35179472D+05 0.11609723D+01  1  2  3  1  7  1       -1 -.649353396483D-05 0.100000000000D+01
0.781875013218D-07 0.000000000000D+00 0.000000000000D+00 0.355084816879D-06 0.000000000000D+00  7 -1 1 23 -13 13 23 21 2 0.32059680D-01 0.51574958D-01 0.35179472D+05 0.35179472D+05 0.35179472D+05 0.11609723D+01  1  2 15  1  7  1       -1 0.855090504157D-05 0.100000000000D+01
0.348538939192D-08 0.000000000000D+00 0.000000000000D+00 0.355084816879D-06 0.000000000000D+00  7 -1 1 23 -13 13 23 21 2 0.77643171D-01 0.51574958D-01 0.95675361D+05 0.95675361D+05 0.95675361D+05 0.11233010D+01  1  2 12  1  7  1       -1 0.719377703977D-07 0.100000000000D+01
-.103579210491D-05 0.000000000000D+00 -.392721972899D-06 0.355084816879D-06 0.000000000000D+00  7 -1 1 23 -13 13 23 21 2 0.85882119D-01 0.51574958D-01 0.35179472D+05 0.35179472D+05 0.35179472D+05 0.11609723D+01  1  2  5  1  7  1       -1 -.191007466101D-04 0.100000000000D+01
0.337728070937D-09 0.000000000000D+00 0.000000000000D+00 0.355084816879D-06 0.000000000000D+00  7 21 1 23 -13 13 23 1 2 0.77643171D-01 0.51574958D-01 0.95675361D+05 0.95675361D+05 0.95675361D+05 0.11233010D+01  1  2 12  3  7  1       -1 0.551257687115D-07 0.100000000000D+01
-.906418659943D-07 0.000000000000D+00 -.431040169616D-07 0.355084816879D-06 0.000000000000D+00  7 21 1 23 -13 13 23 1 2 0.85882119D-01 0.51574958D-01 0.35179472D+05 0.35179472D+05 0.35179472D+05 0.11609723D+01  1  2  5  3  7  1       -1 -.131473849152D-04 0.100000000000D+01
  </mgrwgt>
  </event>
  <event>
  9     66 0.58687835E-06 0.23959317E+03 0.75467711E-02 0.97725258E-01
       -1 -1    0    0    0  501 0.00000000E+00 0.00000000E+00 0.97922878E+03 0.97922883E+03 0.32000000E+00 0.0000E+00 0.9000E+01
       21 -1    0    0  501  502 0.00000000E+00 0.00000000E+00 -.21263958E+03 0.21264091E+03 0.75000000E+00 0.0000E+00 0.9000E+01
       25  2    1    2    0    0 0.13684587E+03 0.25384921E+03 0.37364947E+03 0.55920486E+03 0.29988320E+03 0.0000E+00 0.0000E+00
       23  2    1    2    0    0 0.46354596E+02 -.87078420E+02 -.27970721E+02 0.14425868E+03 0.10147318E+03 0.0000E+00 0.0000E+00
       23  1    3    3    0    0 0.18101014E+03 0.19602872E+03 0.18447959E+03 0.33695682E+03 0.91188000E+02 0.0000E+00 0.9000E+01
      -11  1    4    4    0    0 0.63434537E+02 -.81460125E+02 -.50907763E+02 0.11511426E+03 0.51099893E-03 0.0000E+00 0.9000E+01
       11  1    4    4    0    0 -.17079941E+02 -.56182951E+01 0.22937041E+02 0.29144425E+02 0.51099893E-03 0.0000E+00 0.9000E+01
       23  1    3    3    0    0 -.44164273E+02 0.57820489E+02 0.18916989E+03 0.22224804E+03 0.91188000E+02 0.0000E+00 0.9000E+01
       -1  1    1    2    0  502 -.18320047E+03 -.16677079E+03 0.42091044E+03 0.48840619E+03 0.32000000E+00 0.0000E+00 0.9000E+01
#aMCatNLO 2  0  0  2  2 0.24773960D+03 0.00000000D+00  -5  7  0 0.00000000D+00 0.00000000D+00 0.00000000D+00 0.00000000D+00 0.00000000D+00
  <mgrwgt>
 0.7730602461D-05    1    2    0
 0.280175057639103D+03 0.000000000000000D+00 0.000000000000000D+00 0.280175057639103D+03
 0.280175057639103D+03 0.000000000000000D+00 0.000000000000000D+00 -.280175057639103D+03
 0.191689370517188D+03 0.106904630627192D+03 0.128569095094315D+03 0.217014092254080D+02
 0.179424161825464D+03 0.102839781921436D+02 -.129844066657761D+03 -.123400923793498D+03
 0.296943158537989D+02 -.249226168289379D+02 -.127576285794760D+02 0.989234438600132D+01
 0.159542267081756D+03 -.922659919903975D+02 0.140326001429225D+02 0.918071701820888D+02
 0.000000000000000D+00 -.000000000000000D+00 -.000000000000000D+00 0.000000000000000D+00
 0.571844736787852D+03 0.000000000000000D+00 0.000000000000000D+00 0.571844736787852D+03
 0.364126003461303D+03 0.000000000000000D+00 0.000000000000000D+00 -.364126003461303D+03
 0.282804057568412D+03 0.181010144749230D+03 0.196028722305309D+03 0.217014092254080D+02
 0.160895868250299D+03 0.634345368764722D+02 -.814601249581435D+02 -.123400923793498D+03
 0.205218934898713D+02 -.170799412713720D+02 -.561829521517462D+01 0.989234438600132D+01
 0.148450327800826D+03 -.441642728967521D+02 0.578204892994771D+02 0.918071701820888D+02
 0.323298593139746D+03 -.183200467457578D+03 -.166770791431468D+03 0.207718733326549D+03
0.167262545338D-06 0.000000000000D+00 0.000000000000D+00 0.774553740640D-08 0.667836502706D-13  7 -1 21 23 -11 11 23 -1 2 0.15065066D+00 0.32713882D-01 0.14729983D+06 0.14729983D+06 0.14729983D+06 0.11081750D+01  1  2  1  4  7  2        1 0.773060246098D-05 0.100000000000D+01
  </mgrwgt>
  </event>
  <event>
  8     66 0.58687835E-06 0.51663470E+03 0.75467711E-02 0.93405293E-01
       -1 -1    0    0    0  501 0.00000000E+00 0.00000000E+00 0.15534148E+03 0.15534181E+03 0.32000000E+00 0.0000E+00 0.9000E+01
        1 -1    0    0  501    0 0.00000000E+00 0.00000000E+00 -.19268312E+04 0.19268312E+04 0.32000000E+00 0.0000E+00 0.9000E+01
       25  2    1    2    0    0 0.19906564E+03 0.43623877E+03 -.66703616E+03 0.87468172E+03 0.30033228E+03 0.0000E+00 0.0000E+00
       23  2    1    2    0    0 -.19906564E+03 -.43623877E+03 -.11044535E+04 0.12074913E+04 0.91028584E+02 0.0000E+00 0.0000E+00
       23  1    3    3    0    0 0.15136655E+03 0.40978096E+03 -.60453751E+03 0.75140743E+03 0.91188000E+02 0.0000E+00 0.9000E+01
      -13  1    4    4    0    0 -.10023372E+03 -.26069232E+03 -.53612747E+03 0.60451630E+03 0.10565837E+00 0.0000E+00 0.9000E+01
       13  1    4    4    0    0 -.98831919E+02 -.17554645E+03 -.56832608E+03 0.60297500E+03 0.10565837E+00 0.0000E+00 0.9000E+01
       23  1    3    3    0    0 0.47699091E+02 0.26457814E+02 -.62498652E+02 0.12327430E+03 0.91188000E+02 0.0000E+00 0.9000E+01
#aMCatNLO 1  0  0  1  2 0.79300459D+02 0.00000000D+00  -5  7  0 0.00000000D+00 0.00000000D+00 0.00000000D+00 0.00000000D+00 0.00000000D+00
  <mgrwgt>
 0.1676177326D-03    4    2    0
 0.547098867567926D+03 0.000000000000000D+00 0.000000000000000D+00 0.547098867567926D+03
 0.547098867567926D+03 0.000000000000000D+00 0.000000000000000D+00 -.547098867567926D+03
 0.451132613869512D+03 0.151366545205141D+03 0.409780957100844D+03 0.661295708659480D+02
 0.282365156862982D+03 -.100233719271624D+03 -.260692432708912D+03 -.415058894561106D+02
 0.227302965455628D+03 -.988319170005234D+02 -.175546338113082D+03 -.105272852445496D+03
 0.133396998947730D+03 0.476990910670060D+02 0.264578137211506D+02 0.806491710356591D+02
 0.000000000000000D+00 -.000000000000000D+00 -.000000000000000D+00 -.000000000000000D+00
 0.556500344150093D+03 0.000000000000000D+00 0.000000000000000D+00 0.556500344150093D+03
 0.745876246567201D+03 0.000000000000000D+00 0.000000000000000D+00 -.745876246567201D+03
 0.471227765482190D+03 0.183386922314495D+03 0.419209341735654D+03 0.661295708659480D+02
 0.270800649772290D+03 -.810301865430049D+02 -.255037961735812D+03 -.415058894561106D+02
 0.217434512098541D+03 -.833925485446095D+02 -.171000223499136D+03 -.105272852445496D+03
 0.137604639576562D+03 0.571070999722670D+02 0.292279974171010D+02 0.806491710356591D+02
 0.205309023787711D+03 -.760712871991477D+02 -.223991539178074D+02 -.189375902417108D+03
0.289406944859D-04 0.000000000000D+00 0.000000000000D+00 0.198885975711D-05 0.000000000000D+00  7 -1 1 23 -13 13 23 21 0 0.23898716D-01 0.29643559D+00 0.26691142D+06 0.26691142D+06 0.26691142D+06 0.10883270D+01  1  2  2  1  7  1       -1 0.174939395177D-03 0.100000000000D+01
-.160139941628D-05 0.000000000000D+00 -.111139887086D-06 0.198885975711D-05 0.000000000000D+00  7 -1 1 23 -13 13 23 21 2 0.23898716D-01 0.29643559D+00 0.26691142D+06 0.26691142D+06 0.26691142D+06 0.10883270D+01  1  2  3  1  7  1       -1 -.114656087852D-04 0.100000000000D+01
0.186545551818D-05 0.000000000000D+00 0.000000000000D+00 0.198885975711D-05 0.000000000000D+00  7 -1 1 23 -13 13 23 21 2 0.23898716D-01 0.29643559D+00 0.26691142D+06 0.26691142D+06 0.26691142D+06 0.10883270D+01  1  2 15  1  7  1       -1 0.133561826988D-04 0.100000000000D+01
-.128667133672D-05 0.000000000000D+00 0.000000000000D+00 0.198885975711D-05 0.000000000000D+00  7 -1 1 23 -13 13 23 21 2 0.23898716D-01 0.29643559D+00 0.26691142D+06 0.26691142D+06 0.26691142D+06 0.10883270D+01  1  2  4  1  7  1       -1 -.921223651760D-05 0.100000000000D+01
  </mgrwgt>
  </event>
  <event>
  8     66 0.58687835E-06 0.45853500E+03 0.75467711E-02 0.87991214E-01
       -1 -1    0    0    0  501 0.00000000E+00 0.00000000E+00 0.51847924E+03 0.51847933E+03 0.32000000E+00 0.0000E+00 0.9000E+01
        1 -1    0    0  501    0 0.00000000E+00 0.00000000E+00 -.16112425E+04 0.16112425E+04 0.32000000E+00 0.0000E+00 0.9000E+01
       25  2    1    2    0    0 -.40290098E+03 0.28328452E+02 0.36007880E+03 0.61893351E+03 0.30048337E+03 0.0000E+00 0.0000E+00
       23  2    1    2    0    0 0.40290098E+03 -.28328452E+02 -.14528420E+04 0.15107883E+04 0.92734471E+02 0.0000E+00 0.0000E+00
       23  1    3    3    0    0 -.82405737E+02 -.86708001E+02 0.95414562E+02 0.17812404E+03 0.91188000E+02 0.0000E+00 0.9000E+01
      -11  1    4    4    0    0 0.66587118E+02 -.39906563E+02 -.25193295E+03 0.26362206E+03 0.51099893E-03 0.0000E+00 0.9000E+01
       11  1    4    4    0    0 0.33631386E+03 0.11578111E+02 -.12009091E+04 0.12471663E+04 0.51099893E-03 0.0000E+00 0.9000E+01
       23  1    3    3    0    0 -.32049524E+03 0.11503645E+03 0.26466424E+03 0.44080948E+03 0.91188000E+02 0.0000E+00 0.9000E+01
#aMCatNLO 1  0  0  1  1 0.72533112D+03 0.00000000D+00  -5  7  0 0.00000000D+00 0.00000000D+00 0.00000000D+00 0.00000000D+00 0.00000000D+00
  <mgrwgt>
 0.3153495898D-03    5    2    0
 0.913999945448240D+03 0.000000000000000D+00 0.000000000000000D+00 0.913999945448240D+03
 0.913999945448240D+03 0.000000000000000D+00 0.000000000000000D+00 -.913999945448240D+03
 0.264562475797606D+03 -.824057371973025D+02 -.867080014340997D+02 0.217644364090671D+03
 0.156530964148706D+03 0.665871184067844D+02 -.399065634988318D+02 -.135924849050194D+03
 0.735124731280228D+03 0.336313861307253D+03 0.115781112723619D+02 -.653580373459760D+03
 0.671781719669939D+03 -.320495242516734D+03 0.115036453660570D+03 0.571860858419283D+03
 0.000000000000000D+00 0.000000000000000D+00 0.000000000000000D+00 0.000000000000000D+00
 0.137688473642188D+04 0.000000000000000D+00 0.000000000000000D+00 0.137688473642188D+04
 0.131751605690553D+04 0.000000000000000D+00 0.000000000000000D+00 -.131751605690553D+04
 0.325955335061357D+03 -.109872181077024D+03 -.196190376206140D+03 0.217644364090671D+03
 0.177332405691004D+03 0.510583073488105D+02 -.101805042947367D+03 -.135924849050194D+03
 0.753952081953714D+03 0.267053215868307D+03 -.264497669564283D+03 -.653580373459760D+03
 0.709404230832400D+03 -.384737617089232D+03 -.141036293142473D+03 0.571860858419283D+03
 0.727756739788936D+03 0.176498274949139D+03 0.703529381860263D+03 0.593686795163437D+02
0.245127859640D-03 0.000000000000D+00 0.000000000000D+00 0.289522136162D-05 0.000000000000D+00  7 -1 1 23 -11 11 23 21 0 0.79766046D-01 0.24788347D+00 0.21025434D+06 0.21025434D+06 0.21025434D+06 0.10961615D+01  1  2  2  1  7  1       -1 0.278992101594D-03 0.100000000000D+01
-.573977208663D-05 0.000000000000D+00 -.941355524664D-06 0.289522136162D-05 0.000000000000D+00  7 -1 1 23 -11 11 23 21 2 0.79766046D-01 0.24788347D+00 0.21025434D+06 0.21025434D+06 0.21025434D+06 0.10961615D+01  1  2  3  1  7  1       -1 -.784951769420D-05 0.100000000000D+01
0.154187715667D-04 0.000000000000D+00 0.000000000000D+00 0.289522136162D-05 0.000000000000D+00  7 -1 1 23 -11 11 23 21 2 0.79766046D-01 0.24788347D+00 0.21025434D+06 0.21025434D+06 0.21025434D+06 0.10961615D+01  1  2 15  1  7  1       -1 0.210861892091D-04 0.100000000000D+01
0.513214908607D-04 0.000000000000D+00 -.740370759414D-04 0.289522136162D-05 0.000000000000D+00  7 -1 1 23 -11 11 23 21 2 0.16809535D+00 0.24788347D+00 0.21025434D+06 0.21025434D+06 0.21025434D+06 0.10961615D+01  1  2  5  1  7  1       -1 0.111673585383D-04 0.100000000000D+01
0.873098153367D-05 0.000000000000D+00 -.596933935750D-05 0.289522136162D-05 0.000000000000D+00  7 21 1 23 -11 11 23 1 2 0.16809535D+00 0.24788347D+00 0.21025434D+06 0.21025434D+06 0.21025434D+06 0.10961615D+01  1  2  5  3  7  1       -1 0.119534581817D-04 0.100000000000D+01
  </mgrwgt>
  </event>
  <event>
  8     66 0.58687835E-06 0.26762852E+03 0.75467711E-02 0.99401960E-01
       -1 -1    0    0    0  501 0.00000000E+00 0.00000000E+00 0.41916474E+03 0.41916486E+03 0.32000000E+00 0.0000E+00 0.9000E+01
        1 -1    0    0  501    0 0.00000000E+00 0.00000000E+00 -.21336661E+03 0.21336685E+03 0.32000000E+00 0.0000E+00 0.9000E+01
       25  2    1    2    0    0 -.14396940E+03 0.10831047E+03 0.24705486E+02 0.35035439E+03 0.29946534E+03 0.0000E+00 0.0000E+00
       23  2    1    2    0    0 0.14396940E+03 -.10831047E+03 0.18109264E+03 0.28217732E+03 0.11987974E+03 0.0000E+00 0.0000E+00
       23  1    3    3    0    0 -.11908982E+03 -.36224812E+02 -.49982182E+02 0.16219770E+03 0.91188000E+02 0.0000E+00 0.9000E+01
      -13  1    4    4    0    0 0.14589236E+03 -.56566848E+02 0.99142113E+02 0.18523920E+03 0.10565837E+00 0.0000E+00 0.9000E+01
       13  1    4    4    0    0 -.19229654E+01 -.51743620E+02 0.81950527E+02 0.96938125E+02 0.10565837E+00 0.0000E+00 0.9000E+01
       23  1    3    3    0    0 -.24879575E+02 0.14453528E+03 0.74687668E+02 0.18815669E+03 0.91188000E+02 0.0000E+00 0.9000E+01
#aMCatNLO 1  0  0  2  2 0.12840709D+03 0.00000000D+00  -5  7  0 0.00000000D+00 0.00000000D+00 0.00000000D+00 0.00000000D+00 0.00000000D+00
  <mgrwgt>
 0.1396291278D-03    4    2    0
 0.299058309837301D+03 0.000000000000000D+00 0.000000000000000D+00 0.299058309837301D+03
 0.299058309837301D+03 0.000000000000000D+00 0.000000000000000D+00 -.299058309837301D+03
 0.188728231529581D+03 -.119089952066179D+03 -.362247144357553D+02 -.108666680326612D+03
 0.161785222528743D+03 0.145892260844307D+03 -.565671244796053D+02 0.411104230399104D+02
 0.743183298744630D+02 -.192261504664913D+01 -.517435305102059D+02 0.533115818284478D+02
 0.173284835741816D+03 -.248796937314790D+02 0.144535369425567D+03 0.142446754582537D+02
 0.000000000000000D+00 -.000000000000000D+00 -.000000000000000D+00 0.000000000000000D+00
 0.470109936359398D+03 0.000000000000000D+00 0.000000000000000D+00 0.470109936359398D+03
 0.330970857483854D+03 0.000000000000000D+00 0.000000000000000D+00 -.330970857483854D+03
 0.167672952980429D+03 -.882303819945420D+02 -.143499162739076D+02 -.108666680326612D+03
 0.184001088856906D+03 0.175832725045314D+03 -.353438342734010D+02 0.411104230399104D+02
 0.692508858648867D+02 0.105085565257170D+02 -.429316977973861D+02 0.533115818284478D+02
 0.190820013168844D+03 0.664691051881028D+01 0.166882994590227D+03 0.142446754582537D+02
 0.189335852972186D+03 -.104757810095299D+03 -.742575462455326D+02 0.139139078875544D+03
0.371419442836D-05 0.000000000000D+00 0.000000000000D+00 0.511546524813D-09 0.000000000000D+00  7 -1 1 23 -13 13 23 21 0 0.64486910D-01 0.32825660D-01 0.71625027D+05 0.71625027D+05 0.71625027D+05 0.11338133D+01  1  2  2  2  7  2        1 0.157675030093D-03 0.100000000000D+01
-.203250835235D-06 0.000000000000D+00 -.142634845747D-07 0.511546524813D-09 0.000000000000D+00  7 -1 1 23 -13 13 23 21 2 0.64486910D-01 0.32825660D-01 0.71625027D+05 0.71625027D+05 0.71625027D+05 0.11338133D+01  1  2  3  2  7  2        1 -.110920989825D-04 0.100000000000D+01
0.239920425283D-06 0.000000000000D+00 0.000000000000D+00 0.511546524813D-09 0.000000000000D+00  7 -1 1 23 -13 13 23 21 2 0.64486910D-01 0.32825660D-01 0.71625027D+05 0.71625027D+05 0.71625027D+05 0.11338133D+01  1  2 15  2  7  2        1 0.130932849652D-04 0.100000000000D+01
-.367341424433D-06 0.000000000000D+00 0.000000000000D+00 0.511546524813D-09 0.000000000000D+00  7 -1 1 23 -13 13 23 21 2 0.64486910D-01 0.32825660D-01 0.71625027D+05 0.71625027D+05 0.71625027D+05 0.11338133D+01  1  2  4  2  7  2        1 -.200470882959D-04 0.100000000000D+01
  </mgrwgt>
  </event>
  <event>
  9     66 0.58687835E-06 0.34389361E+03 0.75467711E-02 0.93604042E-01
       -3 -1    0    0    0  502 0.00000000E+00 0.00000000E+00 0.15692229E+04 0.15692230E+04 0.50000000E+00 0.0000E+00 0.9000E+01
        3 -1    0    0  501    0 0.00000000E+00 0.00000000E+00 -.20594856E+03 0.20594916E+03 0.50000000E+00 0.0000E+00 0.9000E+01
       25  2    1    2    0    0 -.15444249E+03 0.17955179E+03 0.33716370E+03 0.50966962E+03 0.29998739E+03 0.0000E+00 0.0000E+00
       23  2    1    2    0    0 0.37951180E+03 0.64487427E+02 0.44057730E+03 0.59240432E+03 0.92987589E+02 0.0000E+00 0.0000E+00
       23  1    3    3    0    0 -.26732076E+02 0.18798914E+03 0.12263691E+03 0.24374081E+03 0.91188000E+02 0.0000E+00 0.9000E+01
      -13  1    4    4    0    0 0.34890758E+03 0.84538196E+02 0.40747365E+03 0.54306353E+03 0.10565837E+00 0.0000E+00 0.9000E+01
       13  1    4    4    0    0 0.30604215E+02 -.20050769E+02 0.33103649E+02 0.49340795E+02 0.10565837E+00 0.0000E+00 0.9000E+01
       23  1    3    3    0    0 -.12771042E+03 -.84373494E+01 0.21452679E+03 0.26592881E+03 0.91188000E+02 0.0000E+00 0.9000E+01
       21  1    1    2  501  502 -.22506931E+03 -.24403921E+03 0.58553338E+03 0.67309823E+03 0.75000000E+00 0.0000E+00 0.9000E+01
#aMCatNLO 2  0  0  1  2 0.33198092D+03 0.00000000D+00  -5  7  0 0.00000000D+00 0.00000000D+00 0.00000000D+00 0.00000000D+00 0.00000000D+00
  <mgrwgt>
 0.5812814359D-06    1    2    0
 0.353367580237113D+03 0.000000000000000D+00 0.000000000000000D+00 0.353367580237113D+03
 0.353367580237113D+03 0.000000000000000D+00 0.000000000000000D+00 -.353367580237113D+03
 0.188727684835225D+03 -.888558091452666D+02 0.120629321153284D+03 -.696857211952479D+02
 0.258128346379377D+03 0.255289370859710D+03 -.169709141777396D+02 0.341989532380341D+02
 0.376888601368559D+02 0.193536156978384D+02 -.322493117469681D+02 -.242273186356524D+01
 0.222190269122768D+03 -.185787177412281D+03 -.714090952285759D+02 0.379094998207790D+02
 0.000000000000000D+00 -.000000000000000D+00 -.000000000000000D+00 0.000000000000000D+00
 0.651812100685980D+03 0.000000000000000D+00 0.000000000000000D+00 0.651812100685980D+03
 0.495816737179256D+03 0.000000000000000D+00 0.000000000000000D+00 -.495816737179256D+03
 0.221869038796188D+03 -.267320763496122D+02 0.187989136356017D+03 -.696857211952479D+02
 0.360628736113400D+03 0.348907993332466D+03 0.845383291583345D+02 0.341989532380341D+02
 0.366674410745691D+02 0.306038052933073D+02 -.200509028934758D+02 -.242273186356524D+01
 0.161658654932417D+03 -.127710415910136D+03 -.843734922571252D+01 0.379094998207790D+02
 0.366804966948661D+03 -.225069306366025D+03 -.244039213395163D+03 0.155995363506724D+03
0.440895317385D-05 0.000000000000D+00 0.000000000000D+00 0.240381030419D-06 0.185808426131D-10  7 -3 3 23 -13 13 23 21 2 0.24141879D+00 0.31684424D-01 0.29995553D+06 0.29995553D+06 0.29995553D+06 0.10845566D+01  1  2  1  1  7  1       -3 0.581281435851D-06 0.100000000000D+01
  </mgrwgt>
  </event>
  <event>
  9     66 0.58687835E-06 0.17850328E+03 0.75467711E-02 0.10080802E+00
       -3 -1    0    0    0  501 0.00000000E+00 0.00000000E+00 0.33110588E+03 0.33110626E+03 0.50000000E+00 0.0000E+00 0.9000E+01
       21 -1    0    0  501  502 0.00000000E+00 0.00000000E+00 -.55410250E+03 0.55410301E+03 0.75000000E+00 0.0000E+00 0.9000E+01
       25  2    1    2    0    0 -.32321765E+02 0.12402426E+03 0.17494236E+03 0.37090801E+03 0.30090066E+03 0.0000E+00 0.0000E+00
       23  2    1    2    0    0 -.42140842E+02 0.51865520E+02 -.24127771E+03 0.26726909E+03 0.93551855E+02 0.0000E+00 0.0000E+00
       23  1    3    3    0    0 0.96392601E+02 0.52621873E+02 0.31781019E+02 0.14623912E+03 0.91188000E+02 0.0000E+00 0.9000E+01
      -11  1    4    4    0    0 -.50350954E+02 0.11389754E+02 -.51021823E+02 0.72582170E+02 0.51099893E-03 0.0000E+00 0.9000E+01
       11  1    4    4    0    0 0.82101119E+01 0.40475765E+02 -.19025589E+03 0.19468692E+03 0.51099893E-03 0.0000E+00 0.9000E+01
       23  1    3    3    0    0 -.12871437E+03 0.71402389E+02 0.14316134E+03 0.22466889E+03 0.91188000E+02 0.0000E+00 0.9000E+01
       -3  1    1    2    0  502 0.74462607E+02 -.17588978E+03 -.15666127E+03 0.24703218E+03 0.50000000E+00 0.0000E+00 0.9000E+01
#aMCatNLO 2  0  0  2  1 0.19100234D+03 0.00000000D+00  -5  7  0 0.00000000D+00 0.00000000D+00 0.00000000D+00 0.00000000D+00 0.00000000D+00
  <mgrwgt>
 0.5184795860D-05    1    2    0
 0.302649851300045D+03 0.000000000000000D+00 0.000000000000000D+00 0.302649851300045D+03
 0.302649851300045D+03 0.000000000000000D+00 0.000000000000000D+00 -.302649851300045D+03
 0.154232118035717D+03 0.114683039167137D+03 0.941762272083396D+01 0.472377370272994D+02
 0.614292773143643D+02 -.426000958760883D+02 -.691871932021152D+01 -.437140625620783D+02
 0.173659614721167D+03 0.291988048825448D+02 -.910209383013077D+01 -.170945147536988D+03
 0.215978692528842D+03 -.101281748173593D+03 0.660319042950833D+01 0.167421473071767D+03
 0.000000000000000D+00 0.000000000000000D+00 -.000000000000000D+00 -.000000000000000D+00
 0.367513751062060D+03 0.000000000000000D+00 0.000000000000000D+00 0.367513751062060D+03
 0.499210550784728D+03 0.000000000000000D+00 0.000000000000000D+00 -.499210550784728D+03
 0.150357075868491D+03 0.963926012291071D+02 0.526218732900050D+02 0.472377370272994D+02
 0.676451351377613D+02 -.503509536792897D+02 0.113897544183675D+02 -.437140625620783D+02
 0.175863404280775D+03 0.821011186614597D+01 0.404757651184770D+02 -.170945147536988D+03
 0.240854500427958D+03 -.128714366700553D+03 0.714023892580367D+02 0.167421473071767D+03
 0.232004186131803D+03 0.744626072845897D+02 -.175889782084886D+03 -.131696799722668D+03
0.138823960837D-06 0.000000000000D+00 0.000000000000D+00 0.567443023443D-07 0.715122525402D-12  7 -3 21 23 -11 11 23 -3 2 0.50939400D-01 0.85246549D-01 0.89945868D+05 0.89945868D+05 0.89945868D+05 0.11255181D+01  1  2  1  4  7  2        3 0.518479586008D-05 0.100000000000D+01
  </mgrwgt>
  </event>
  <event>
  9     66 0.58687835E-06 0.15158773E+03 0.75467711E-02 0.11014887E+00
       -1 -1    0    0    0  501 0.00000000E+00 0.00000000E+00 0.72724464E+02 0.72725168E+02 0.32000000E+00 0.0000E+00 0.9000E+01
        1 -1    0    0  502    0 0.00000000E+00 0.00000000E+00 -.15678186E+04 0.15678187E+04 0.32000000E+00 0.0000E+00 0.9000E+01
       25  2    1    2    0    0 -.75705739E+02 0.41002836E+02 -.14714491E+04 0.15041614E+04 0.29987742E+03 0.0000E+00 0.0000E+00
       23  2    1    2    0    0 0.77816108E+02 -.46768241E+02 -.23553629E+02 0.13019658E+03 0.90298179E+02 0.0000E+00 0.0000E+00
       23  1    3    3    0    0 -.29393262E+02 -.12932943E+02 -.15523253E+03 0.18287595E+03 0.91188000E+02 0.0000E+00 0.9000E+01
      -11  1    4    4    0    0 0.44027698E+02 -.30943830E+02 -.58209855E+02 0.79273868E+02 0.51099893E-03 0.0000E+00 0.9000E+01
       11  1    4    4    0    0 0.33788410E+02 -.15824411E+02 0.34656227E+02 0.50922713E+02 0.51099893E-03 0.0000E+00 0.9000E+01
       23  1    3    3    0    0 -.46312477E+02 0.53935779E+02 -.13162166E+04 0.13212855E+04 0.91188000E+02 0.0000E+00 0.9000E+01
       21  1    1    2  502  501 -.21103689E+01 0.57654051E+01 -.91407812E-01 0.61858232E+01 0.75000000E+00 0.0000E+00 0.9000E+01
#aMCatNLO 2  0  0  2  1 0.61395075D+01 0.00000000D+00  -5  7  0 0.00000000D+00 0.00000000D+00 0.00000000D+00 0.00000000D+00 0.00000000D+00
  <mgrwgt>
 0.1810692013D-04    4    2    0
 0.330172365016246D+03 0.000000000000000D+00 0.000000000000000D+00 0.330172365016246D+03
 0.330172365016246D+03 0.000000000000000D+00 0.000000000000000D+00 -.330172365016246D+03
 0.101158053050596D+03 -.297165655102561D+02 -.120496970933924D+02 0.298233279031579D+02
 0.640069743234700D+02 0.438224933107766D+02 -.303832223129669D+02 0.354025654995951D+02
 0.204248709517317D+03 0.331352948663835D+02 -.140401380327675D+02 0.201053381214114D+03
 0.290930993141109D+03 -.472412226669040D+02 0.564730574391268D+02 -.266279274616867D+03
 0.000000000000000D+00 -.000000000000000D+00 0.000000000000000D+00 0.000000000000000D+00
 0.344616981020086D+03 0.000000000000000D+00 0.000000000000000D+00 0.344616981020086D+03
 0.330839660919076D+03 0.000000000000000D+00 0.000000000000000D+00 -.330839660919076D+03
 0.101172659875858D+03 -.293932622422799D+02 -.129329428164376D+02 0.298233279031579D+02
 0.644150641768252D+02 0.440276982652138D+02 -.309438303126597D+02 0.354025654995951D+02
 0.204486015989136D+03 0.337884101081591D+02 -.158244108845853D+02 0.201053381214114D+03
 0.290299530188455D+03 -.463124772237528D+02 0.539357789092936D+02 -.266279274616867D+03
 0.150833717088877D+02 -.211036890734021D+01 0.576540510438908D+01 0.137773201010098D+02
-.654665557728D-06 0.000000000000D+00 0.000000000000D+00 0.573750944357D-06 0.000000000000D+00  7 -1 1 23 -11 11 23 21 2 0.10719171D-01 0.24070966D+00 0.22978841D+05 0.22978841D+05 0.22978841D+05 0.11782343D+01  1  2  8  2  7  2        1 -.361071311623D-04 0.100000000000D+01
-.352449326328D-07 0.000000000000D+00 0.000000000000D+00 0.573750944357D-06 0.000000000000D+00  7 -1 1 23 -11 11 23 21 2 0.10719171D-01 0.24902451D+00 0.22978841D+05 0.22978841D+05 0.22978841D+05 0.11782343D+01  1  2  9  2  7  2        1 -.179468752172D-05 0.100000000000D+01
0.352246188742D-07 0.000000000000D+00 0.000000000000D+00 0.573750944357D-06 0.000000000000D+00  7 -1 1 23 -11 11 23 21 2 0.10719171D-01 0.24070966D+00 0.22978841D+05 0.22978841D+05 0.22978841D+05 0.11782343D+01  1  2 10  2  7  2        1 0.194276286390D-05 0.100000000000D+01
0.105480298334D-05 0.000000000000D+00 0.000000000000D+00 0.573750944357D-06 0.112470744987D-06  7 -1 1 23 -11 11 23 21 2 0.11188121D-01 0.24119614D+00 0.23957830D+05 0.23957830D+05 0.23957830D+05 0.11765082D+01  1  2  1  2  7  2        1 0.540659759544D-04 0.100000000000D+01
  </mgrwgt>
  </event>
  <event>
  8     66 0.58687835E-06 0.12321141E+03 0.75467711E-02 0.10202406E+00
       -3 -1    0    0    0  501 0.00000000E+00 0.00000000E+00 0.21119264E+03 0.21119323E+03 0.50000000E+00 0.0000E+00 0.9000E+01
        3 -1    0    0  501    0 0.00000000E+00 0.00000000E+00 -.38490040E+03 0.38490072E+03 0.50000000E+00 0.0000E+00 0.9000E+01
       25  2    1    2    0    0 0.14278753E+03 -.74113614E+01 -.24229280E+03 0.41105315E+03 0.29969265E+03 0.0000E+00 0.0000E+00
       23  2    1    2    0    0 -.14278753E+03 0.74113614E+01 0.68585038E+02 0.18504081E+03 0.95357152E+02 0.0000E+00 0.0000E+00
       23  1    3    3    0    0 0.14529084E+03 -.98346011E+02 -.18237915E+03 0.26899586E+03 0.91188000E+02 0.0000E+00 0.9000E+01
      -13  1    4    4    0    0 -.18312214E+02 -.35359621E+02 0.21498733E+02 0.45253139E+02 0.10565837E+00 0.0000E+00 0.9000E+01
       13  1    4    4    0    0 -.12447532E+03 0.42770982E+02 0.47086306E+02 0.13978767E+03 0.10565837E+00 0.0000E+00 0.9000E+01
       23  1    3    3    0    0 -.25033083E+01 0.90934650E+02 -.59913645E+02 0.14205729E+03 0.91188000E+02 0.0000E+00 0.9000E+01
#aMCatNLO 1  0  0  1  2 0.47298311D+02 0.00000000D+00  -5  7  0 0.00000000D+00 0.00000000D+00 0.00000000D+00 0.00000000D+00 0.00000000D+00
  <mgrwgt>
 0.2293041862D-04    6    2    0
 0.285111214981872D+03 0.000000000000000D+00 0.000000000000000D+00 0.285111214981872D+03
 0.285111214981872D+03 0.000000000000000D+00 0.000000000000000D+00 -.285111214981872D+03
 0.225642018269342D+03 0.145290851223707D+03 -.983460117321893D+02 -.108709243359177D+03
 0.538553643072716D+02 -.183121046501156D+02 -.353596830709592D+02 0.362596180491946D+02
 0.160474073929542D+03 -.124475445402959D+03 0.427710454882404D+02 0.918064788733449D+02
 0.130250973457589D+03 -.250330117063200D+01 0.909346493149081D+02 -.193568535633622D+02
 0.000000000000000D+00 -.000000000000000D+00 0.000000000000000D+00 -.000000000000000D+00
 0.309155341961428D+03 0.000000000000000D+00 0.000000000000000D+00 0.309155341961428D+03
 0.310338460309385D+03 0.000000000000000D+00 0.000000000000000D+00 -.310338460309385D+03
 0.240330953194881D+03 0.163734822892901D+03 -.104004441732388D+03 -.108709243359177D+03
 0.534484180929693D+02 -.140648455947920D+02 -.366627005819543D+02 0.362596180491946D+02
 0.150113829927055D+03 -.112181868628484D+03 0.389994964489077D+02 0.918064788733449D+02
 0.128287495604055D+03 0.773007391931362D+01 0.877951499895570D+02 -.193568535633622D+02
 0.473131054518525D+02 -.452181825889388D+02 0.138724958758773D+02 -.118311834795706D+01
0.151131798223D-05 0.000000000000D+00 0.000000000000D+00 0.232378969485D-07 0.000000000000D+00  7 -3 3 23 -13 13 23 21 0 0.32491246D-01 0.59215517D-01 0.61994061D+05 0.61994061D+05 0.61994061D+05 0.11391712D+01  1  2  2  1  7  1       -3 0.168455512122D-04 0.100000000000D+01
-.820882783173D-07 0.000000000000D+00 -.580385899094D-08 0.232378969485D-07 0.000000000000D+00  7 -3 3 23 -13 13 23 21 2 0.32491246D-01 0.59215517D-01 0.61994061D+05 0.61994061D+05 0.61994061D+05 0.11391712D+01  1  2  3  1  7  1       -3 -.118737666558D-05 0.100000000000D+01
0.997824168888D-07 0.000000000000D+00 0.000000000000D+00 0.232378969485D-07 0.000000000000D+00  7 -3 3 23 -13 13 23 21 2 0.32491246D-01 0.59215517D-01 0.61994061D+05 0.61994061D+05 0.61994061D+05 0.11391712D+01  1  2 15  1  7  1       -3 0.144331585310D-05 0.100000000000D+01
0.162780912703D-05 0.000000000000D+00 0.000000000000D+00 0.232378969485D-07 0.000000000000D+00  7 -3 3 23 -13 13 23 21 2 0.36549917D-01 0.59215517D-01 0.74663301D+05 0.74663301D+05 0.74663301D+05 0.11322862D+01  1  2 12  1  7  1       -3 0.186047373244D-04 0.100000000000D+01
-.127211349222D-05 0.000000000000D+00 0.000000000000D+00 0.232378969485D-07 0.000000000000D+00  7 -3 3 23 -13 13 23 21 2 0.32491246D-01 0.59215517D-01 0.61994061D+05 0.61994061D+05 0.61994061D+05 0.11391712D+01  1  2  4  1  7  1       -3 -.184006524147D-04 0.100000000000D+01
0.303881939818D-07 0.000000000000D+00 0.000000000000D+00 0.232378969485D-07 0.000000000000D+00  7 21 3 23 -13 13 23 3 2 0.36549917D-01 0.59215517D-01 0.74663301D+05 0.74663301D+05 0.74663301D+05 0.11322862D+01  1  2 12  3  7  1       -3 0.562484331002D-05 0.100000000000D+01
  </mgrwgt>
  </event>
  <event>
  8     66 0.58687835E-06 0.38599307E+03 0.75467711E-02 0.84407763E-01
       -1 -1    0    0    0  501 0.00000000E+00 0.00000000E+00 0.10549975E+03 0.10550023E+03 0.32000000E+00 0.0000E+00 0.9000E+01
        1 -1    0    0  501    0 0.00000000E+00 0.00000000E+00 -.19365922E+04 0.19365922E+04 0.32000000E+00 0.0000E+00 0.9000E+01
       25  2    1    2    0    0 0.30038866E+03 -.11360230E+03 -.49596432E+03 0.66508762E+03 0.30532296E+03 0.0000E+00 0.0000E+00
       23  2    1    2    0    0 -.30038866E+03 0.11360230E+03 -.13351281E+04 0.13770048E+04 0.10215850E+03 0.0000E+00 0.0000E+00
       23  1    3    3    0    0 0.18681211E+02 0.49116925E+02 -.12026419E+03 0.15981298E+03 0.91188000E+02 0.0000E+00 0.9000E+01
      -13  1    4    4    0    0 -.12684371E+03 0.11117581E+02 -.37744914E+03 0.39834757E+03 0.10565837E+00 0.0000E+00 0.9000E+01
       13  1    4    4    0    0 -.17354495E+03 0.10248472E+03 -.95767899E+03 0.97865725E+03 0.10565837E+00 0.0000E+00 0.9000E+01
       23  1    3    3    0    0 0.28170745E+03 -.16271923E+03 -.37570013E+03 0.50527465E+03 0.91188000E+02 0.0000E+00 0.9000E+01
#aMCatNLO 1  0  0  1  2 0.12919385D+04 0.00000000D+00  -5  7  0 0.00000000D+00 0.00000000D+00 0.00000000D+00 0.00000000D+00 0.00000000D+00
  <mgrwgt>
 0.1661818620D-03    5    2    0
 0.452007201124306D+03 0.000000000000000D+00 0.000000000000000D+00 0.452007201124306D+03
 0.452007201124306D+03 0.000000000000000D+00 0.000000000000000D+00 -.452007201124306D+03
 0.117407440667693D+03 0.186812117032356D+02 0.491169243274276D+02 0.520364857965116D+02
 0.135305560895225D+03 -.126843649314746D+03 0.111174954076609D+02 -.457677258944545D+02
 0.270913784328856D+03 -.173545011602174D+03 0.102484811209920D+03 -.181033894502245D+03
 0.380387616356839D+03 0.281707449213684D+03 -.162719230945008D+03 0.174765134600188D+03
 0.000000000000000D+00 -.000000000000000D+00 0.000000000000000D+00 0.000000000000000D+00
 0.180147834459546D+04 0.000000000000000D+00 0.000000000000000D+00 0.180147834459546D+04
 0.120030029459137D+04 0.000000000000000D+00 0.000000000000000D+00 -.120030029459137D+04
 0.152888387662899D+03 0.791966443616528D+02 -.779724528661519D+02 0.520364857965116D+02
 0.143727808171797D+03 -.643720042304789D+02 -.120080153146430D+03 -.457677258944545D+02
 0.233676093622377D+03 -.605744379611727D+02 -.134766402480929D+03 -.181033894502245D+03
 0.104652318033869D+04 0.601172698678740D+03 -.833633042611499D+03 0.174765134600188D+03
 0.142496316939107D+04 -.555422900848742D+03 0.116645205110501D+04 0.601178050004086D+03
0.141947777052D-04 0.000000000000D+00 0.000000000000D+00 0.270652092118D-09 0.000000000000D+00  7 -1 1 23 -13 13 23 21 0 0.16230770D-01 0.29793730D+00 0.14899065D+06 0.14899065D+06 0.14899065D+06 0.11077834D+01  1  2  2  1  7  1       -1 0.161613170538D-03 0.100000000000D+01
-.764699487277D-06 0.000000000000D+00 -.545116839586D-07 0.270652092118D-09 0.000000000000D+00  7 -1 1 23 -13 13 23 21 2 0.16230770D-01 0.29793730D+00 0.14899065D+06 0.14899065D+06 0.14899065D+06 0.11077834D+01  1  2  3  1  7  1       -1 -.106843629987D-04 0.100000000000D+01
0.916975914795D-06 0.000000000000D+00 0.000000000000D+00 0.270652092118D-09 0.000000000000D+00  7 -1 1 23 -13 13 23 21 2 0.16230770D-01 0.29793730D+00 0.14899065D+06 0.14899065D+06 0.14899065D+06 0.11077834D+01  1  2 15  1  7  1       -1 0.128119656123D-04 0.100000000000D+01
0.604860421837D-04 0.000000000000D+00 -.179742590546D-04 0.270652092118D-09 0.000000000000D+00  7 -1 1 23 -13 13 23 21 2 0.29462678D+00 0.29793730D+00 0.14899065D+06 0.14899065D+06 0.14899065D+06 0.11077834D+01  1  2  5  1  7  1       -1 0.769641500168D-06 0.100000000000D+01
0.147405351885D-04 0.000000000000D+00 -.568869019510D-05 0.270652092118D-09 0.000000000000D+00  7 21 1 23 -13 13 23 1 2 0.29462678D+00 0.29793730D+00 0.14899065D+06 0.14899065D+06 0.14899065D+06 0.11077834D+01  1  2  5  3  7  1       -1 0.167144730713D-05 0.100000000000D+01
  </mgrwgt>
  </event>
  <event>
  8     66 0.58687835E-06 0.40212394E+03 0.75467711E-02 0.93777588E-01
       -1 -1    0    0    0  501 0.00000000E+00 0.00000000E+00 0.58902792E+03 0.58902801E+03 0.32000000E+00 0.0000E+00 0.9000E+01
        1 -1    0    0  501    0 0.00000000E+00 0.00000000E+00 -.11707650E+04 0.11707651E+04 0.32000000E+00 0.0000E+00 0.9000E+01
       25  2    1    2    0    0 0.40858330E+03 0.27609256E+03 0.36791828E+03 0.68591428E+03 0.30322783E+03 0.0000E+00 0.0000E+00
       23  2    1    2    0    0 -.40858330E+03 -.27609256E+03 -.94965537E+03 0.10738788E+04 0.90569905E+02 0.0000E+00 0.0000E+00
       23  1    3    3    0    0 0.30626197E+03 0.86346713E+02 0.28744747E+03 0.43839873E+03 0.91188000E+02 0.0000E+00 0.9000E+01
      -11  1    4    4    0    0 -.12711640E+03 -.61274080E+02 -.19955119E+03 0.24440493E+03 0.51099893E-03 0.0000E+00 0.9000E+01
       11  1    4    4    0    0 -.28146689E+03 -.21481848E+03 -.75010418E+03 0.82947385E+03 0.51099893E-03 0.0000E+00 0.9000E+01
       23  1    3    3    0    0 0.10232133E+03 0.18974585E+03 0.80470811E+02 0.24751554E+03 0.91188000E+02 0.0000E+00 0.9000E+01
#aMCatNLO 1  0  0  2  1 0.17290229D+02 0.00000000D+00  -5  7  0 0.00000000D+00 0.00000000D+00 0.00000000D+00 0.00000000D+00 0.00000000D+00
  <mgrwgt>
 0.1801718186D-03    6    2    0
 0.830429644244218D+03 0.000000000000000D+00 0.000000000000000D+00 0.830429644244218D+03
 0.830429644244218D+03 0.000000000000000D+00 0.000000000000000D+00 -.830429644244218D+03
 0.565195324010867D+03 0.306261968745767D+03 0.863467127146371D+02 0.458124824303477D+03
 0.189068261316789D+03 -.127116404531961D+03 -.612740799795928D+02 -.125832087556693D+03
 0.616150274112986D+03 -.281466894843450D+03 -.214818479285901D+03 -.504252484727628D+03
 0.290445429047795D+03 0.102321330629644D+03 0.189745846550857D+03 0.171959747980844D+03
 0.000000000000000D+00 -.000000000000000D+00 0.000000000000000D+00 0.000000000000000D+00
 0.840635699616764D+03 0.000000000000000D+00 0.000000000000000D+00 0.840635699616764D+03
 0.837829980128157D+03 0.000000000000000D+00 0.000000000000000D+00 -.837829980128157D+03
 0.565296505321910D+03 0.307978984360415D+03 0.807185117206677D+02 0.458124824303477D+03
 0.189302489228747D+03 -.126541726794399D+03 -.631578146330013D+02 -.125832087556693D+03
 0.617467665672193D+03 -.279593249045964D+03 -.220960097946670D+03 -.504252484727628D+03
 0.288882625027174D+03 0.103201226697038D+03 0.186861637532112D+03 0.171959747980844D+03
 0.175163944948959D+02 -.504523521709104D+01 0.165377633268921D+02 0.280571948860642D+01
0.849654759399D-04 0.000000000000D+00 0.000000000000D+00 0.213717658648D-06 0.000000000000D+00  7 -1 1 23 -11 11 23 21 0 0.90619690D-01 0.18011770D+00 0.28104297D+06 0.28104297D+06 0.28104297D+06 0.10866555D+01  1  2  2  2  7  2        1 0.145756777935D-03 0.100000000000D+01
-.356424528596D-05 0.000000000000D+00 -.326289799533D-06 0.213717658648D-06 0.000000000000D+00  7 -1 1 23 -11 11 23 21 2 0.90619690D-01 0.18011770D+00 0.28104297D+06 0.28104297D+06 0.28104297D+06 0.10866555D+01  1  2  3  2  7  2        1 -.722000644639D-05 0.100000000000D+01
0.524208684481D-05 0.000000000000D+00 0.000000000000D+00 0.213717658648D-06 0.000000000000D+00  7 -1 1 23 -11 11 23 21 2 0.90619690D-01 0.18011770D+00 0.28104297D+06 0.28104297D+06 0.28104297D+06 0.10866555D+01  1  2 15  2  7  2        1 0.106187699711D-04 0.100000000000D+01
0.425329774344D-04 0.000000000000D+00 0.000000000000D+00 0.213717658648D-06 0.000000000000D+00  7 -1 1 23 -11 11 23 21 2 0.90619690D-01 0.18281802D+00 0.29073224D+06 0.29073224D+06 0.29073224D+06 0.10855616D+01  1  2 12  2  7  2        1 0.833800163467D-04 0.100000000000D+01
-.276891730396D-04 0.000000000000D+00 0.000000000000D+00 0.213717658648D-06 0.000000000000D+00  7 -1 1 23 -11 11 23 21 2 0.90619690D-01 0.18011770D+00 0.28104297D+06 0.28104297D+06 0.28104297D+06 0.10866555D+01  1  2  4  2  7  2        1 -.560892957139D-04 0.100000000000D+01
0.178537799386D-05 0.000000000000D+00 0.000000000000D+00 0.213717658648D-06 0.000000000000D+00  7 -1 21 23 -11 11 23 -1 2 0.90619690D-01 0.18281802D+00 0.29073224D+06 0.29073224D+06 0.29073224D+06 0.10855616D+01  1  2 12  4  7  2        1 0.372555654874D-05 0.100000000000D+01
  </mgrwgt>
  </event>
  <event>
  8     66 0.58687835E-06 0.12346111E+03 0.75467711E-02 0.10502367E+00
       -1 -1    0    0    0  501 0.00000000E+00 0.00000000E+00 0.11594690E+03 0.11594734E+03 0.32000000E+00 0.0000E+00 0.9000E+01
        1 -1    0    0  501    0 0.00000000E+00 0.00000000E+00 -.11816468E+04 0.11816468E+04 0.32000000E+00 0.0000E+00 0.9000E+01
       25  2    1    2    0    0 -.11561284E+03 -.70226806E+02 -.10841675E+04 0.11329130E+04 0.29962407E+03 0.0000E+00 0.0000E+00
       23  2    1    2    0    0 0.11561284E+03 0.70226806E+02 0.18467652E+02 0.16468112E+03 0.92090635E+02 0.0000E+00 0.0000E+00
       23  1    3    3    0    0 -.68294603E+02 -.32346529E+02 -.14424475E+03 0.18663400E+03 0.91188000E+02 0.0000E+00 0.9000E+01
      -13  1    4    4    0    0 0.69187922E+02 0.66828198E+01 0.43619877E+02 0.82062985E+02 0.10565837E+00 0.0000E+00 0.9000E+01
       13  1    4    4    0    0 0.46424916E+02 0.63543986E+02 -.25152225E+02 0.82618137E+02 0.10565837E+00 0.0000E+00 0.9000E+01
       23  1    3    3    0    0 -.47318236E+02 -.37880277E+02 -.93992279E+03 0.94627904E+03 0.91188000E+02 0.0000E+00 0.9000E+01
#aMCatNLO 1  0  0  2  1 0.64425927D+02 0.00000000D+00  -5  7  0 0.00000000D+00 0.00000000D+00 0.00000000D+00 0.00000000D+00 0.00000000D+00
  <mgrwgt>
 0.1632285123D-03    9    2    0
 0.370146718313888D+03 0.000000000000000D+00 0.000000000000000D+00 0.370146718313888D+03
 0.370146718313888D+03 0.000000000000000D+00 0.000000000000000D+00 -.370146718313888D+03
 0.119484479334539D+03 -.682946026627637D+02 -.323465288831059D+02 0.158378904591348D+02
 0.206634606765534D+03 0.691879521951833D+02 0.668274566010761D+01 0.194592468751045D+03
 0.108605574734530D+03 0.464248863196734D+02 0.635440604703343D+02 0.748468648145369D+02
 0.305568775793171D+03 -.473182358520930D+02 -.378802772473361D+02 -.285277224024716D+03
 0.000000000000000D+00 0.000000000000000D+00 -.000000000000000D+00 -.000000000000000D+00
 0.381982932974347D+03 0.000000000000000D+00 0.000000000000000D+00 0.381982932974347D+03
 0.470967072228624D+03 0.000000000000000D+00 0.000000000000000D+00 -.470967072228624D+03
 0.124801135574814D+03 -.784437283752755D+02 -.292543125223203D+02 0.158378904591348D+02
 0.201825287278504D+03 0.522180179863661D+02 0.118531130088211D+02 0.194592468751045D+03
 0.106762983869538D+03 0.374771528372650D+02 0.662702389264887D+02 0.748468648145369D+02
 0.309702157213200D+03 -.728803715867460D+02 -.300920542442579D+02 -.285277224024716D+03
 0.109858441266914D+03 0.616289291383904D+02 -.187769851687317D+02 -.889841392542771D+02
0.509995439133D-05 0.000000000000D+00 0.000000000000D+00 0.609703997089D-06 0.000000000000D+00  7 -1 1 23 -13 13 23 21 0 0.17838022D-01 0.18179185D+00 0.35368742D+05 0.35368742D+05 0.35368742D+05 0.11607597D+01  1  2  2  2  7  2        1 0.164486322072D-03 0.100000000000D+01
-.125391333309D-06 0.000000000000D+00 -.195851677115D-07 0.609703997089D-06 0.000000000000D+00  7 -1 1 23 -13 13 23 21 2 0.17838022D-01 0.18179185D+00 0.35368742D+05 0.35368742D+05 0.35368742D+05 0.11607597D+01  1  2  3  2  7  2        1 -.544898601333D-05 0.100000000000D+01
0.318058715035D-06 0.000000000000D+00 0.000000000000D+00 0.609703997089D-06 0.000000000000D+00  7 -1 1 23 -13 13 23 21 2 0.17838022D-01 0.18179185D+00 0.35368742D+05 0.35368742D+05 0.35368742D+05 0.11607597D+01  1  2 15  2  7  2        1 0.138215093812D-04 0.100000000000D+01
0.105300893649D-04 0.000000000000D+00 0.000000000000D+00 0.609703997089D-06 0.000000000000D+00  7 -1 1 23 -13 13 23 21 2 0.17838022D-01 0.23365346D+00 0.48059134D+05 0.48059134D+05 0.48059134D+05 0.11488108D+01  1  2 12  2  7  2        1 0.265001524356D-03 0.100000000000D+01
-.119757203127D-04 0.000000000000D+00 0.000000000000D+00 0.609703997089D-06 0.000000000000D+00  7 -1 1 23 -13 13 23 21 2 0.17838022D-01 0.18179185D+00 0.35368742D+05 0.35368742D+05 0.35368742D+05 0.11607597D+01  1  2  4  2  7  2        1 -.520415014033D-03 0.100000000000D+01
-.131851275166D-04 0.000000000000D+00 -.262581969445D-05 0.609703997089D-06 0.000000000000D+00  7 -1 1 23 -13 13 23 21 2 0.17838022D-01 0.23431271D+00 0.35368742D+05 0.35368742D+05 0.35368742D+05 0.11607597D+01  1  2  5  2  7  2        1 -.339426877619D-03 0.100000000000D+01
0.134968846662D-04 0.000000000000D+00 0.254346483917D-05 0.609703997089D-06 0.000000000000D+00  7 -1 1 23 -13 13 23 21 2 0.17838022D-01 0.18179185D+00 0.35368742D+05 0.35368742D+05 0.35368742D+05 0.11607597D+01  1  2  6  2  7  2        1 0.586518492381D-03 0.100000000000D+01
0.357398593868D-06 0.000000000000D+00 0.000000000000D+00 0.609703997089D-06 0.000000000000D+00  7 -1 21 23 -13 13 23 -1 2 0.17838022D-01 0.23365346D+00 0.48059134D+05 0.48059134D+05 0.48059134D+05 0.11488108D+01  1  2 12  4  7  2        1 0.745148198803D-05 0.100000000000D+01
-.406104824715D-06 0.000000000000D+00 -.898581081659D-07 0.609703997089D-06 0.000000000000D+00  7 -1 21 23 -13 13 23 -1 2 0.17838022D-01 0.23431271D+00 0.35368742D+05 0.35368742D+05 0.35368742D+05 0.11607597D+01  1  2  5  4  7  2        1 -.875994023639D-05 0.100000000000D+01
  </mgrwgt>
  </event>
  <event>
  8     66 0.58687835E-06 0.10916425E+03 0.75467711E-02 0.10284474E+00
       -1 -1    0    0    0  501 0.00000000E+00 0.00000000E+00 0.37421504E+02 0.37422872E+02 0.32000000E+00 0.0000E+00 0.9000E+01
        1 -1    0    0  501    0 0.00000000E+00 0.00000000E+00 -.14659505E+04 0.14659505E+04 0.32000000E+00 0.0000E+00 0.9000E+01
       25  2    1    2    0    0 0.91280593E+01 0.11239606E+03 -.95315049E+03 0.10056185E+04 0.30009413E+03 0.0000E+00 0.0000E+00
       23  2    1    2    0    0 -.91280593E+01 -.11239606E+03 -.47537848E+03 0.49775489E+03 0.95178991E+02 0.0000E+00 0.0000E+00
       23  1    3    3    0    0 0.10403817E+03 0.27006120E+02 -.64031498E+03 0.65564609E+03 0.91188000E+02 0.0000E+00 0.9000E+01
      -13  1    4    4    0    0 -.18325530E+02 -.50545258E+01 -.13095546E+02 0.23084145E+02 0.10565837E+00 0.0000E+00 0.9000E+01
       13  1    4    4    0    0 0.91974703E+01 -.10734153E+03 -.46228293E+03 0.47467075E+03 0.10565837E+00 0.0000E+00 0.9000E+01
       23  1    3    3    0    0 -.94910108E+02 0.85389937E+02 -.31283551E+03 0.34997239E+03 0.91188000E+02 0.0000E+00 0.9000E+01
#aMCatNLO 1  0  0  1  2 0.80289765D+02 0.00000000D+00  -5  7  0 0.00000000D+00 0.00000000D+00 0.00000000D+00 0.00000000D+00 0.00000000D+00
  <mgrwgt>
 0.2158209793D-03    9    2    0
 0.234220249963690D+03 0.000000000000000D+00 0.000000000000000D+00 0.234220249963690D+03
 0.234220249963690D+03 0.000000000000000D+00 0.000000000000000D+00 -.234220249963690D+03
 0.151507781232899D+03 0.104038166010699D+03 0.270061402835527D+02 -.555525411680820D+02
 0.341487714785139D+02 -.183255533091253D+02 -.505442355422549D+01 0.283683889556785D+02
 0.113617109399056D+03 0.919749063163822D+01 -.107341675209391D+03 -.360834931446423D+02
 0.169166837816911D+03 -.949101033332116D+02 0.853899584800641D+02 0.632676453570459D+02
 0.000000000000000D+00 0.000000000000000D+00 0.000000000000000D+00 0.000000000000000D+00
 0.309254090963916D+03 0.000000000000000D+00 0.000000000000000D+00 0.309254090963916D+03
 0.260138492878231D+03 0.000000000000000D+00 0.000000000000000D+00 -.260138492878231D+03
 0.136073065375826D+03 0.831257813048300D+02 0.143055034516106D+02 -.555525411680820D+02
 0.377810768024954D+02 -.235561682016875D+02 -.823111244420830D+01 0.283683889556785D+02
 0.123476847529961D+03 -.804357426265305D+01 -.117812623735739D+03 -.360834931446423D+02
 0.177940457347815D+03 -.120151149029744D+03 0.700604128945650D+02 0.632676453570459D+02
 0.941211367860496D+02 0.686251101892544D+02 0.416778198337721D+02 0.491155980856855D+02
0.153497479101D-05 0.000000000000D+00 0.000000000000D+00 0.290825796302D-07 0.000000000000D+00  7 -1 1 23 -13 13 23 21 0 0.57572623D-02 0.22553095D+00 0.45069388D+05 0.45069388D+05 0.45069388D+05 0.11512826D+01  1  2  2  1  7  1       -1 0.177968248206D-03 0.100000000000D+01
-.842748475248D-07 0.000000000000D+00 -.589470736561D-08 0.290825796302D-07 0.000000000000D+00  7 -1 1 23 -13 13 23 21 2 0.57572623D-02 0.22553095D+00 0.45069388D+05 0.45069388D+05 0.45069388D+05 0.11512826D+01  1  2  3  1  7  1       -1 -.129509945306D-04 0.100000000000D+01
0.100777336459D-06 0.000000000000D+00 0.000000000000D+00 0.290825796302D-07 0.000000000000D+00  7 -1 1 23 -13 13 23 21 2 0.57572623D-02 0.22553095D+00 0.45069388D+05 0.45069388D+05 0.45069388D+05 0.11512826D+01  1  2 15  1  7  1       -1 0.154870257451D-04 0.100000000000D+01
0.111081727709D-05 0.000000000000D+00 0.000000000000D+00 0.290825796302D-07 0.000000000000D+00  7 -1 1 23 -13 13 23 21 2 0.78412948D-02 0.22553095D+00 0.66012822D+05 0.66012822D+05 0.66012822D+05 0.11368312D+01  1  2 12  1  7  1       -1 0.104474162818D-03 0.100000000000D+01
-.129916685249D-05 0.000000000000D+00 0.000000000000D+00 0.290825796302D-07 0.000000000000D+00  7 -1 1 23 -13 13 23 21 2 0.57572623D-02 0.22553095D+00 0.45069388D+05 0.45069388D+05 0.45069388D+05 0.11512826D+01  1  2  4  1  7  1       -1 -.199650349956D-03 0.100000000000D+01
-.187139153959D-05 0.000000000000D+00 -.680455973687D-06 0.290825796302D-07 0.000000000000D+00  7 -1 1 23 -13 13 23 21 2 0.84998710D-02 0.22553095D+00 0.45069388D+05 0.45069388D+05 0.45069388D+05 0.11512826D+01  1  2  5  1  7  1       -1 -.160529478600D-03 0.100000000000D+01
0.202910736224D-05 0.000000000000D+00 0.631892210336D-06 0.290825796302D-07 0.000000000000D+00  7 -1 1 23 -13 13 23 21 2 0.57572623D-02 0.22553095D+00 0.45069388D+05 0.45069388D+05 0.45069388D+05 0.11512826D+01  1  2  6  1  7  1       -1 0.311824454415D-03 0.100000000000D+01
0.438590857545D-07 0.000000000000D+00 0.000000000000D+00 0.290825796302D-07 0.000000000000D+00  7 21 1 23 -13 13 23 1 2 0.78412948D-02 0.22553095D+00 0.66012822D+05 0.66012822D+05 0.66012822D+05 0.11368312D+01  1  2 12  3  7  1       -1 0.607594782083D-04 0.100000000000D+01
-.649714329486D-07 0.000000000000D+00 -.317701994596D-07 0.290825796302D-07 0.000000000000D+00  7 21 1 23 -13 13 23 1 2 0.84998710D-02 0.22553095D+00 0.45069388D+05 0.45069388D+05 0.45069388D+05 0.11512826D+01  1  2  5  3  7  1       -1 -.815615669947D-04 0.100000000000D+01
  </mgrwgt>
  </event>
  <event>
  8     66 0.58687835E-06 0.30437374E+03 0.75467711E-02 0.94170558E-01
       -1 -1    0    0    0  501 0.00000000E+00 0.00000000E+00 0.56106830E+02 0.56107742E+02 0.32000000E+00 0.0000E+00 0.9000E+01
        1 -1    0    0  501    0 0.00000000E+00 0.00000000E+00 -.41135113E+04 0.41135113E+04 0.32000000E+00 0.0000E+00 0.9000E+01
       25  2    1    2    0    0 -.26406485E+03 0.38882592E+01 -.74711630E+03 0.84755491E+03 0.30070117E+03 0.0000E+00 0.0000E+00
       23  2    1    2    0    0 0.26406485E+03 -.38882592E+01 -.33102882E+04 0.33220642E+04 0.91416931E+02 0.0000E+00 0.0000E+00
       23  1    3    3    0    0 -.85491689E+02 -.22912852E+02 -.55221492E+03 0.56664839E+03 0.91188000E+02 0.0000E+00 0.9000E+01
      -11  1    4    4    0    0 0.21238749E+03 -.40277541E+02 -.25252697E+04 0.25345054E+04 0.51099893E-03 0.0000E+00 0.9000E+01
       11  1    4    4    0    0 0.51677358E+02 0.36389281E+02 -.78501849E+03 0.78755873E+03 0.51099893E-03 0.0000E+00 0.9000E+01
       23  1    3    3    0    0 -.17857316E+03 0.26801111E+02 -.19490137E+03 0.28090651E+03 0.91188000E+02 0.0000E+00 0.9000E+01
#aMCatNLO 1  0  0  2  2 0.33926102D+03 0.00000000D+00  -5  7  0 0.00000000D+00 0.00000000D+00 0.00000000D+00 0.00000000D+00 0.00000000D+00
  <mgrwgt>
 0.1053992342D-03    3    2    0
 0.480414413912710D+03 0.000000000000000D+00 0.000000000000000D+00 0.480414413912710D+03
 0.480414413912710D+03 0.000000000000000D+00 0.000000000000000D+00 -.480414413912710D+03
 0.127128405071595D+03 -.854916891032831D+02 -.229128522095999D+02 -.354292674721498D+01
 0.335004078641659D+03 0.212387490165729D+03 -.402775405407352D+02 -.255923829401715D+03
 0.102705465332316D+03 0.516773580976738D+02 0.363892813606747D+02 -.809548236439680D+02
 0.395990878779852D+03 -.178573159160120D+03 0.268011113896604D+02 0.340421579792898D+03
 0.000000000000000D+00 -.000000000000000D+00 -.000000000000000D+00 0.000000000000000D+00
 0.103838169058554D+04 0.000000000000000D+00 0.000000000000000D+00 0.103838169058554D+04
 0.563887138234003D+03 0.000000000000000D+00 0.000000000000000D+00 -.563887138234003D+03
 0.116204195145554D+03 -.701699096747829D+02 0.158680519195833D+02 -.354292674721498D+01
 0.369602927882874D+03 0.256754061385987D+03 0.720185379312565D+02 -.255923829401715D+03
 0.127574493866200D+03 0.661772596254388D+02 0.730899331129692D+02 -.809548236439680D+02
 0.405583583340069D+03 -.128100895710175D+03 0.154551286829094D+03 0.340421579792898D+03
 0.583303628584850D+03 -.124660515626468D+03 -.315527809792903D+03 0.474494552351541D+03
0.149052316878D-03 0.000000000000D+00 0.000000000000D+00 0.600221618562D-06 0.000000000000D+00  7 -1 1 23 -11 11 23 21 0 0.86318911D-02 0.63284797D+00 0.92643375D+05 0.92643375D+05 0.92643375D+05 0.11244555D+01  1  2  2  2  7  2        1 0.102627751111D-03 0.100000000000D+01
-.618355518512D-05 0.000000000000D+00 -.572400143187D-06 0.600221618562D-06 0.000000000000D+00  7 -1 1 23 -11 11 23 21 2 0.86318911D-02 0.63284797D+00 0.92643375D+05 0.92643375D+05 0.92643375D+05 0.11244555D+01  1  2  3  2  7  2        1 -.538330375850D-05 0.100000000000D+01
0.936703124834D-05 0.000000000000D+00 0.000000000000D+00 0.600221618562D-06 0.000000000000D+00  7 -1 1 23 -11 11 23 21 2 0.86318911D-02 0.63284797D+00 0.92643375D+05 0.92643375D+05 0.92643375D+05 0.11244555D+01  1  2 15  2  7  2        1 0.815478685247D-05 0.100000000000D+01
  </mgrwgt>
  </event>
  <event>
  9     66 0.58687835E-06 0.30458387E+03 0.75467711E-02 0.97913327E-01
       21 -1    0    0  502  501 0.00000000E+00 0.00000000E+00 0.66173857E+03 0.66173900E+03 0.75000000E+00 0.0000E+00 0.9000E+01
        1 -1    0    0  501    0 0.00000000E+00 0.00000000E+00 -.32205665E+03 0.32205681E+03 0.32000000E+00 0.0000E+00 0.9000E+01
       25  2    1    2    0    0 -.89069342E+02 -.18486332E+03 0.37677378E+03 0.52370363E+03 0.30033184E+03 0.0000E+00 0.0000E+00
       23  2    1    2    0    0 0.21496171E+03 0.15607396E+03 0.73657960E+02 0.28996475E+03 0.89924669E+02 0.0000E+00 0.0000E+00
       23  1    3    3    0    0 0.74095675E+02 -.38654097E+02 0.16046450E+03 0.20260409E+03 0.91188000E+02 0.0000E+00 0.9000E+01
      -11  1    4    4    0    0 0.12980455E+03 0.94360020E+02 -.18654384E+01 0.16048836E+03 0.51099893E-03 0.0000E+00 0.9000E+01
       11  1    4    4    0    0 0.85157154E+02 0.61713940E+02 0.75523399E+02 0.12947639E+03 0.51099893E-03 0.0000E+00 0.9000E+01
       23  1    3    3    0    0 -.16316502E+03 -.14620922E+03 0.21630928E+03 0.32109954E+03 0.91188000E+02 0.0000E+00 0.9000E+01
        1  1    1    2  502    0 -.12589237E+03 0.28789362E+02 -.11074982E+03 0.17012742E+03 0.32000000E+00 0.0000E+00 0.9000E+01
#aMCatNLO 2  0  0  1  1 0.12914223D+03 0.00000000D+00  -5  7  0 0.00000000D+00 0.00000000D+00 0.00000000D+00 0.00000000D+00 0.00000000D+00
  <mgrwgt>
 0.2866641753D-04    1    2    0
 0.332599520832275D+03 0.000000000000000D+00 0.000000000000000D+00 0.332599520832275D+03
 0.332599520832275D+03 0.000000000000000D+00 0.000000000000000D+00 -.332599520832275D+03
 0.123471806654766D+03 0.497117390892872D+02 -.330779215780216D+02 0.580054290165053D+02
 0.177089435541770D+03 0.950186781754337D+02 0.102314935563685D+03 -.108920948117867D+03
 0.937896367723993D+02 0.664948763223095D+02 0.659816736578696D+02 0.462018723492307D+01
 0.270848162695615D+03 -.211225293587030D+03 -.135218687643533D+03 0.462953318664382D+02
 0.000000000000000D+00 -.000000000000000D+00 0.000000000000000D+00 -.000000000000000D+00
 0.354724038390978D+03 0.000000000000000D+00 0.000000000000000D+00 0.354724038390978D+03
 0.600797982681323D+03 0.000000000000000D+00 0.000000000000000D+00 -.600797982681323D+03
 0.136616943927133D+03 0.740956745964438D+02 -.386540972562853D+02 0.580054290165053D+02
 0.193950530240699D+03 0.129804552520154D+03 0.943600200656823D+02 -.108920948117867D+03
 0.105269641796980D+03 0.851571544865027D+02 0.617139400276842D+02 0.462018723492307D+01
 0.241781862545855D+03 -.163165016291093D+03 -.146209224805574D+03 0.462953318664382D+02
 0.277903042561633D+03 -.125892365312008D+03 0.287893619684924D+02 -.246073944290345D+03
0.342180680900D-06 0.000000000000D+00 0.000000000000D+00 0.467863850961D-06 0.353096082235D-11  7 21 1 23 -11 11 23 1 2 0.10180595D+00 0.49547209D-01 0.14280373D+06 0.14280373D+06 0.14280373D+06 0.11092408D+01  1  2  1  3  7  1       -1 0.286664175301D-04 0.100000000000D+01
  </mgrwgt>
  </event>
  <event>
  8     66 0.58687835E-06 0.11317132E+03 0.75467711E-02 0.98853838E-01
       -1 -1    0    0    0  501 0.00000000E+00 0.00000000E+00 0.55510156E+02 0.55511078E+02 0.32000000E+00 0.0000E+00 0.9000E+01
        1 -1    0    0  501    0 0.00000000E+00 0.00000000E+00 -.18346200E+04 0.18346200E+04 0.32000000E+00 0.0000E+00 0.9000E+01
       25  2    1    2    0    0 -.65523777E+02 -.12883206E+03 -.50713074E+03 0.60681834E+03 0.30025963E+03 0.0000E+00 0.0000E+00
       23  2    1    2    0    0 0.65523777E+02 0.12883206E+03 -.12719791E+04 0.12833128E+04 0.89831783E+02 0.0000E+00 0.0000E+00
       23  1    3    3    0    0 0.23656702E+02 0.31671182E+02 -.63051423E+02 0.11770062E+03 0.91188000E+02 0.0000E+00 0.9000E+01
      -11  1    4    4    0    0 -.92027868E+01 0.39934217E+02 -.15548079E+03 0.16079089E+03 0.51099893E-03 0.0000E+00 0.9000E+01
       11  1    4    4    0    0 0.74726564E+02 0.88897846E+02 -.11164983E+04 0.11225219E+04 0.51099893E-03 0.0000E+00 0.9000E+01
       23  1    3    3    0    0 -.89180480E+02 -.16050325E+03 -.44407932E+03 0.48911772E+03 0.91188000E+02 0.0000E+00 0.9000E+01
#aMCatNLO 1  0  0  1  2 0.19100025D+03 0.00000000D+00  -5  7  0 0.00000000D+00 0.00000000D+00 0.00000000D+00 0.00000000D+00 0.00000000D+00
  <mgrwgt>
 0.2010902729D-03    9    2    0
 0.319125273372945D+03 0.000000000000000D+00 0.000000000000000D+00 0.319125273372945D+03
 0.319125273372945D+03 0.000000000000000D+00 0.000000000000000D+00 -.319125273372945D+03
 0.172807060677872D+03 0.236567022405419D+02 0.316711818465622D+02 0.141365927845680D+03
 0.427707449937441D+02 -.920278677750866D+01 0.399342173799831D+02 -.122435135927497D+02
 0.212048986352860D+03 0.747265641857500D+02 0.888978464787313D+02 -.177420083727047D+03
 0.210623754721414D+03 -.891804796487832D+02 -.160503245705277D+03 0.482976694741165D+02
 0.000000000000000D+00 -.000000000000000D+00 0.000000000000000D+00 0.000000000000000D+00
 0.483204493412981D+03 0.000000000000000D+00 0.000000000000000D+00 0.483204493412981D+03
 0.393871315076531D+03 0.000000000000000D+00 0.000000000000000D+00 -.393871315076531D+03
 0.183128264314599D+03 0.715156200204135D+02 0.110408507056060D+02 0.141365927845680D+03
 0.373851427198006D+02 0.157494100136886D+01 0.352883101313482D+02 -.122435135927497D+02
 0.231345051560086D+03 0.134345144625918D+03 0.631983297806815D+02 -.177420083727047D+03
 0.214358364509946D+03 -.320375582412509D+02 -.185135591058786D+03 0.482976694741165D+02
 0.210858985385080D+03 -.175398147406449D+03 0.756081004411507D+02 0.893331783364492D+02
0.599812458876D-05 0.000000000000D+00 0.000000000000D+00 0.422148717423D-06 0.000000000000D+00  7 -1 1 23 -11 11 23 21 0 0.85400971D-02 0.28224930D+00 0.53248633D+05 0.53248633D+05 0.53248633D+05 0.11448984D+01  1  2  2  1  7  1       -1 0.221473593306D-03 0.100000000000D+01
-.290639486264D-06 0.000000000000D+00 -.230343777633D-07 0.422148717423D-06 0.000000000000D+00  7 -1 1 23 -11 11 23 21 2 0.85400971D-02 0.28224930D+00 0.53248633D+05 0.53248633D+05 0.53248633D+05 0.11448984D+01  1  2  3  1  7  1       -1 -.140667904934D-04 0.100000000000D+01
0.382401251490D-06 0.000000000000D+00 0.000000000000D+00 0.422148717423D-06 0.000000000000D+00  7 -1 1 23 -11 11 23 21 2 0.85400971D-02 0.28224930D+00 0.53248633D+05 0.53248633D+05 0.53248633D+05 0.11448984D+01  1  2 15  1  7  1       -1 0.185080092120D-04 0.100000000000D+01
0.156183724655D-06 0.000000000000D+00 0.000000000000D+00 0.422148717423D-06 0.000000000000D+00  7 -1 1 23 -11 11 23 21 2 0.13516497D-01 0.28224930D+00 0.12251726D+06 0.12251726D+06 0.12251726D+06 0.11145555D+01  1  2 12  1  7  1       -1 0.346082977203D-05 0.100000000000D+01
-.275826511936D-05 0.000000000000D+00 0.000000000000D+00 0.422148717423D-06 0.000000000000D+00  7 -1 1 23 -11 11 23 21 2 0.85400971D-02 0.28224930D+00 0.53248633D+05 0.53248633D+05 0.53248633D+05 0.11448984D+01  1  2  4  1  7  1       -1 -.133498507234D-03 0.100000000000D+01
-.159501195730D-05 0.000000000000D+00 -.201962063933D-05 0.422148717423D-06 0.000000000000D+00  7 -1 1 23 -11 11 23 21 2 0.16459759D-01 0.28224930D+00 0.53248633D+05 0.53248633D+05 0.53248633D+05 0.11448984D+01  1  2  5  1  7  1       -1 -.281360480830D-04 0.100000000000D+01
0.268871696129D-05 0.000000000000D+00 0.165123278141D-05 0.422148717423D-06 0.000000000000D+00  7 -1 1 23 -11 11 23 21 2 0.85400971D-02 0.28224930D+00 0.53248633D+05 0.53248633D+05 0.53248633D+05 0.11448984D+01  1  2  6  1  7  1       -1 0.130132414824D-03 0.100000000000D+01
0.824124811601D-08 0.000000000000D+00 0.000000000000D+00 0.422148717423D-06 0.000000000000D+00  7 21 1 23 -11 11 23 1 2 0.13516497D-01 0.28224930D+00 0.12251726D+06 0.12251726D+06 0.12251726D+06 0.11145555D+01  1  2 12  3  7  1       -1 0.240221186247D-05 0.100000000000D+01
0.359396830086D-08 0.000000000000D+00 -.143760652927D-06 0.422148717423D-06 0.000000000000D+00  7 21 1 23 -11 11 23 1 2 0.16459759D-01 0.28224930D+00 0.53248633D+05 0.53248633D+05 0.53248633D+05 0.11448984D+01  1  2  5  3  7  1       -1 0.814559783415D-06 0.100000000000D+01
  </mgrwgt>
  </event>
  <event>
  8     66 0.58687835E-06 0.11066646E+03 0.75467711E-02 0.97966322E-01
       -1 -1    0    0    0  501 0.00000000E+00 0.00000000E+00 0.61625413E+03 0.61625422E+03 0.32000000E+00 0.0000E+00 0.9000E+01
        1 -1    0    0  501    0 0.00000000E+00 0.00000000E+00 -.31190987E+03 0.31191004E+03 0.32000000E+00 0.0000E+00 0.9000E+01
       25  2    1    2    0    0 0.10135635E+02 -.29869798E+03 0.41765125E+03 0.59530977E+03 0.30106137E+03 0.0000E+00 0.0000E+00
       23  2    1    2    0    0 -.10135635E+02 0.29869798E+03 -.11330699E+03 0.33285448E+03 0.92900063E+02 0.0000E+00 0.0000E+00
       23  1    3    3    0    0 -.29696268E+02 -.15095787E+03 0.48303630E+02 0.18525290E+03 0.91188000E+02 0.0000E+00 0.9000E+01
      -11  1    4    4    0    0 -.31702602E+02 0.17428194E+03 -.25299150E+02 0.17893937E+03 0.51099893E-03 0.0000E+00 0.9000E+01
       11  1    4    4    0    0 0.21566966E+02 0.12441603E+03 -.88007836E+02 0.15391512E+03 0.51099893E-03 0.0000E+00 0.9000E+01
       23  1    3    3    0    0 0.39831904E+02 -.14774011E+03 0.36934762E+03 0.41005686E+03 0.91188000E+02 0.0000E+00 0.9000E+01
#aMCatNLO 1  0  0  1  2 0.85366021D+02 0.00000000D+00  -5  7  0 0.00000000D+00 0.00000000D+00 0.00000000D+00 0.00000000D+00 0.00000000D+00
  <mgrwgt>
 0.1264700230D-03    9    2    0
 0.438424295505068D+03 0.000000000000000D+00 0.000000000000000D+00 0.438424295505068D+03
 0.438424295505068D+03 0.000000000000000D+00 0.000000000000000D+00 -.438424295505068D+03
 0.179328783006197D+03 -.296962684283545D+02 -.150957868592051D+03 -.131686985712305D+02
 0.198192456437889D+03 -.317026015485829D+02 0.174281942723654D+03 -.888875654093704D+02
 0.193469191201083D+03 0.215669662360104D+02 0.124416033930335D+03 -.146580504885273D+03
 0.305858160364967D+03 0.398319037409270D+02 -.147740108061939D+03 0.248636768865874D+03
 0.000000000000000D+00 -.000000000000000D+00 0.000000000000000D+00 0.000000000000000D+00
 0.543174652291649D+03 0.000000000000000D+00 0.000000000000000D+00 0.543174652291649D+03
 0.458240417107044D+03 0.000000000000000D+00 0.000000000000000D+00 -.458240417107044D+03
 0.192939904571673D+03 -.233863975622234D+02 -.167899425904700D+03 -.131686985712305D+02
 0.182151964680082D+03 -.252558488079142D+02 0.156972867252276D+03 -.888875654093704D+02
 0.183765871300697D+03 0.279610160446321D+02 0.107248462106616D+03 -.146580504885273D+03
 0.322136475726096D+03 0.504762721516564D+02 -.176319484932435D+03 0.248636768865874D+03
 0.120420853120147D+03 -.297950418261509D+02 0.799975814782424D+02 0.849342351846053D+02
0.783472926206D-05 0.000000000000D+00 0.000000000000D+00 0.112022981088D-06 0.000000000000D+00  7 -1 1 23 -11 11 23 21 0 0.94808347D-01 0.47986153D-01 0.10902684D+06 0.10902684D+06 0.10902684D+06 0.11186549D+01  1  2  2  1  7  1       -1 0.928288017860D-04 0.100000000000D+01
-.392724716253D-06 0.000000000000D+00 -.300874232979D-07 0.112022981088D-06 0.000000000000D+00  7 -1 1 23 -11 11 23 21 2 0.94808347D-01 0.47986153D-01 0.10902684D+06 0.10902684D+06 0.10902684D+06 0.11186549D+01  1  2  3  1  7  1       -1 -.582289929001D-05 0.100000000000D+01
0.494042521460D-06 0.000000000000D+00 0.000000000000D+00 0.112022981088D-06 0.000000000000D+00  7 -1 1 23 -11 11 23 21 2 0.94808347D-01 0.47986153D-01 0.10902684D+06 0.10902684D+06 0.10902684D+06 0.11186549D+01  1  2 15  1  7  1       -1 0.732513062812D-05 0.100000000000D+01
0.136516996658D-04 0.000000000000D+00 0.000000000000D+00 0.112022981088D-06 0.000000000000D+00  7 -1 1 23 -11 11 23 21 2 0.11923807D+00 0.47986153D-01 0.14156486D+06 0.14156486D+06 0.14156486D+06 0.11095409D+01  1  2 12  1  7  1       -1 0.116926051586D-03 0.100000000000D+01
-.143458850034D-04 0.000000000000D+00 0.000000000000D+00 0.112022981088D-06 0.000000000000D+00  7 -1 1 23 -11 11 23 21 2 0.94808347D-01 0.47986153D-01 0.10902684D+06 0.10902684D+06 0.10902684D+06 0.11186549D+01  1  2  4  1  7  1       -1 -.212705338227D-03 0.100000000000D+01
-.204588612329D-04 0.000000000000D+00 -.455306218403D-05 0.112022981088D-06 0.000000000000D+00  7 -1 1 23 -11 11 23 21 2 0.12064712D+00 0.47986153D-01 0.10902684D+06 0.10902684D+06 0.10902684D+06 0.11186549D+01  1  2  5  1  7  1       -1 -.174718071803D-03 0.100000000000D+01
0.210703902688D-04 0.000000000000D+00 0.442395192986D-05 0.112022981088D-06 0.000000000000D+00  7 -1 1 23 -11 11 23 21 2 0.94808347D-01 0.47986153D-01 0.10902684D+06 0.10902684D+06 0.10902684D+06 0.11186549D+01  1  2  6  1  7  1       -1 0.312409062784D-03 0.100000000000D+01
0.433238137737D-06 0.000000000000D+00 0.000000000000D+00 0.112022981088D-06 0.000000000000D+00  7 21 1 23 -11 11 23 1 2 0.11923807D+00 0.47986153D-01 0.14156486D+06 0.14156486D+06 0.14156486D+06 0.11095409D+01  1  2 12  3  7  1       -1 0.249359485183D-04 0.100000000000D+01
-.602050296985D-06 0.000000000000D+00 -.149972720961D-06 0.112022981088D-06 0.000000000000D+00  7 21 1 23 -11 11 23 1 2 0.12064712D+00 0.47986153D-01 0.10902684D+06 0.10902684D+06 0.10902684D+06 0.11186549D+01  1  2  5  3  7  1       -1 -.347086629952D-04 0.100000000000D+01
  </mgrwgt>
  </event>
  <event>
  8     66 0.58687835E-06 0.16371337E+03 0.75467711E-02 0.95189148E-01
       -1 -1    0    0    0  501 0.00000000E+00 0.00000000E+00 0.19145894E+03 0.19145921E+03 0.32000000E+00 0.0000E+00 0.9000E+01
        1 -1    0    0  501    0 0.00000000E+00 0.00000000E+00 -.16453874E+04 0.16453874E+04 0.32000000E+00 0.0000E+00 0.9000E+01
       25  2    1    2    0    0 -.27158133E+02 0.25297606E+03 -.15114219E+04 0.15618074E+04 0.30018653E+03 0.0000E+00 0.0000E+00
       23  2    1    2    0    0 0.27158133E+02 -.25297606E+03 0.57493436E+02 0.27503918E+03 0.87215855E+02 0.0000E+00 0.0000E+00
       23  1    3    3    0    0 -.90227432E+02 0.25163527E+03 -.10640319E+04 0.11008817E+04 0.91188000E+02 0.0000E+00 0.9000E+01
      -13  1    4    4    0    0 0.44496226E+02 -.18607094E+03 0.10785157E+02 0.19162109E+03 0.10565837E+00 0.0000E+00 0.9000E+01
       13  1    4    4    0    0 -.17338094E+02 -.66905114E+02 0.46708279E+02 0.83418093E+02 0.10565837E+00 0.0000E+00 0.9000E+01
       23  1    3    3    0    0 0.63069299E+02 0.13407863E+01 -.44738994E+03 0.46092574E+03 0.91188000E+02 0.0000E+00 0.9000E+01
#aMCatNLO 1  0  0  1  2 0.25515305D+03 0.00000000D+00  -5  7  0 0.00000000D+00 0.00000000D+00 0.00000000D+00 0.00000000D+00 0.00000000D+00
  <mgrwgt>
 0.1590849677D-03    7    2    0
 0.561270343611244D+03 0.000000000000000D+00 0.000000000000000D+00 0.561270343611244D+03
 0.561270343611244D+03 0.000000000000000D+00 0.000000000000000D+00 -.561270343611244D+03
 0.423258180764409D+03 -.902274316796843D+02 0.251635270204371D+03 -.315231561874217D+03
 0.327524523187143D+03 0.444963170535334D+02 -.186071117510042D+03 0.265838165593657D+03
 0.196996440158071D+03 -.173381843073858D+02 -.669049389930098D+02 0.184474155203967D+03
 0.174761543112866D+03 0.630692989335367D+02 0.134078629868091D+01 -.135080758923407D+03
 0.000000000000000D+00 0.000000000000000D+00 -.000000000000000D+00 0.000000000000000D+00
 0.108642021821979D+04 0.000000000000000D+00 0.000000000000000D+00 0.108642021821979D+04
 0.607448012836259D+03 0.000000000000000D+00 0.000000000000000D+00 -.607448012836259D+03
 0.464177712273927D+03 -.188303201829239D+03 0.268917578092349D+03 -.315231561874217D+03
 0.318578551337127D+03 -.269083411612835D+02 -.173488628623923D+03 0.265838165593657D+03
 0.203263336717285D+03 -.615732509582722D+02 -.591101081174521D+02 0.184474155203967D+03
 0.165154007399558D+03 0.255032283431557D+02 0.796044778178196D+01 -.135080758923407D+03
 0.542694623328154D+03 0.251281565605639D+03 -.442792891327554D+02 0.478972205383531D+03
0.481148530615D-04 0.000000000000D+00 0.000000000000D+00 0.238752168245D-06 0.000000000000D+00  7 -1 1 23 -13 13 23 21 0 0.29455245D-01 0.25313654D+00 0.10685112D+06 0.10685112D+06 0.10685112D+06 0.11193680D+01  1  2  2  1  7  1       -1 0.327671755486D-03 0.100000000000D+01
-.172320570720D-05 0.000000000000D+00 -.184773704688D-06 0.238752168245D-06 0.000000000000D+00  7 -1 1 23 -13 13 23 21 2 0.29455245D-01 0.25313654D+00 0.10685112D+06 0.10685112D+06 0.10685112D+06 0.11193680D+01  1  2  3  1  7  1       -1 -.147042457813D-04 0.100000000000D+01
0.297898427011D-05 0.000000000000D+00 0.000000000000D+00 0.238752168245D-06 0.000000000000D+00  7 -1 1 23 -13 13 23 21 2 0.29455245D-01 0.25313654D+00 0.10685112D+06 0.10685112D+06 0.10685112D+06 0.11193680D+01  1  2 15  1  7  1       -1 0.254199000754D-04 0.100000000000D+01
0.717534704666D-05 0.000000000000D+00 0.000000000000D+00 0.238752168245D-06 0.000000000000D+00  7 -1 1 23 -13 13 23 21 2 0.57170497D-01 0.25313654D+00 0.22648600D+06 0.22648600D+06 0.22648600D+06 0.10937011D+01  1  2 12  1  7  1       -1 0.176268933816D-04 0.100000000000D+01
-.560439009155D-04 0.000000000000D+00 -.154668654982D-04 0.238752168245D-06 0.000000000000D+00  7 -1 1 23 -13 13 23 21 2 0.60254799D-01 0.25313654D+00 0.10685112D+06 0.10685112D+06 0.10685112D+06 0.11193680D+01  1  2  5  1  7  1       -1 -.136325147207D-03 0.100000000000D+01
0.515879710076D-06 0.000000000000D+00 0.000000000000D+00 0.238752168245D-06 0.000000000000D+00  7 21 1 23 -13 13 23 1 2 0.57170497D-01 0.25313654D+00 0.22648600D+06 0.22648600D+06 0.22648600D+06 0.10937011D+01  1  2 12  3  7  1       -1 0.109505700112D-04 0.100000000000D+01
-.339406653753D-05 0.000000000000D+00 -.119704908962D-05 0.238752168245D-06 0.000000000000D+00  7 21 1 23 -13 13 23 1 2 0.60254799D-01 0.25313654D+00 0.10685112D+06 0.10685112D+06 0.10685112D+06 0.11193680D+01  1  2  5  3  7  1       -1 -.715547582348D-04 0.100000000000D+01
  </mgrwgt>
  </event>
  <event>
  8     66 0.58687835E-06 0.78093765E+02 0.75467711E-02 0.10218318E+00
       -3 -1    0    0    0  501 0.00000000E+00 0.00000000E+00 0.12735300E+03 0.12735399E+03 0.50000000E+00 0.0000E+00 0.9000E+01
        3 -1    0    0  501    0 0.00000000E+00 0.00000000E+00 -.59945913E+03 0.59945934E+03 0.50000000E+00 0.0000E+00 0.9000E+01
       25  2    1    2    0    0 -.16457409E+03 0.21897244E+02 -.20834255E+03 0.40214381E+03 0.30124558E+03 0.0000E+00 0.0000E+00
       23  2    1    2    0    0 0.16457409E+03 -.21897244E+02 -.26376358E+03 0.32466952E+03 0.90966750E+02 0.0000E+00 0.0000E+00
       23  1    3    3    0    0 -.54342478E+02 -.10299614E+03 -.12925593E+03 0.19642723E+03 0.91188000E+02 0.0000E+00 0.9000E+01
      -11  1    4    4    0    0 0.57127877E+02 -.42187830E+02 -.15474478E+03 0.17026260E+03 0.51099893E-03 0.0000E+00 0.9000E+01
       11  1    4    4    0    0 0.10744622E+03 0.20290586E+02 -.10901880E+03 0.15440692E+03 0.51099893E-03 0.0000E+00 0.9000E+01
       23  1    3    3    0    0 -.11023162E+03 0.12489338E+03 -.79086622E+02 0.20571658E+03 0.91188000E+02 0.0000E+00 0.9000E+01
#aMCatNLO 1  0  0  1  2 0.21710688D+02 0.00000000D+00  -5  7  0 0.00000000D+00 0.00000000D+00 0.00000000D+00 0.00000000D+00 0.00000000D+00
  <mgrwgt>
 0.9274819686D-05    9    2    0
 0.276303010998148D+03 0.000000000000000D+00 0.000000000000000D+00 0.276303010998148D+03
 0.276303010998148D+03 0.000000000000000D+00 0.000000000000000D+00 -.276303010998148D+03
 0.147923489372748D+03 -.543424777262675D+02 -.102996138709203D+03 -.219040858615347D+01
 0.917347398707236D+02 0.571278770775348D+02 -.421878301562019D+02 -.580676772953325D+02
 0.109945529686033D+03 0.107446216540512D+03 0.202905863441685D+02 -.114726699107839D+02
 0.203002263066791D+03 -.110231615891779D+03 0.124893382521236D+03 0.717307557922698D+02
 0.000000000000000D+00 0.000000000000000D+00 0.000000000000000D+00 0.000000000000000D+00
 0.317831569760336D+03 0.000000000000000D+00 0.000000000000000D+00 0.317831569760336D+03
 0.279368338867862D+03 0.000000000000000D+00 0.000000000000000D+00 -.279368338867862D+03
 0.150691668218788D+03 -.601541248051919D+02 -.103775772248191D+03 -.219040858615347D+01
 0.898013830914740D+02 0.535948217321807D+02 -.426617901893788D+02 -.580676772953325D+02
 0.105740508857118D+03 0.103248535665990D+03 0.197274666723608D+02 -.114726699107839D+02
 0.206798780208151D+03 -.118207162261554D+03 0.123823461489008D+03 0.717307557922698D+02
 0.441675682526674D+02 0.215179296685746D+02 0.288663427620154D+01 0.384632308924740D+02
0.103836941135D-05 0.000000000000D+00 0.000000000000D+00 0.114034431989D-06 0.000000000000D+00  7 -3 3 23 -11 11 23 21 0 0.19592861D-01 0.92224574D-01 0.67126695D+05 0.67126695D+05 0.67126695D+05 0.11362103D+01  1  2  2  1  7  1       -3 0.110936911329D-04 0.100000000000D+01
-.573969327300D-07 0.000000000000D+00 -.398761194852D-08 0.114034431989D-06 0.000000000000D+00  7 -3 3 23 -11 11 23 21 2 0.19592861D-01 0.92224574D-01 0.67126695D+05 0.67126695D+05 0.67126695D+05 0.11362103D+01  1  2  3  1  7  1       -3 -.791644698177D-06 0.100000000000D+01
0.687548472414D-07 0.000000000000D+00 0.000000000000D+00 0.114034431989D-06 0.000000000000D+00  7 -3 3 23 -11 11 23 21 2 0.19592861D-01 0.92224574D-01 0.67126695D+05 0.67126695D+05 0.67126695D+05 0.11362103D+01  1  2 15  1  7  1       -3 0.948298240058D-06 0.100000000000D+01
0.705355728267D-05 0.000000000000D+00 0.000000000000D+00 0.114034431989D-06 0.000000000000D+00  7 -3 3 23 -11 11 23 21 2 0.22636039D-01 0.92224574D-01 0.72890263D+05 0.72890263D+05 0.72890263D+05 0.11331689D+01  1  2 12  1  7  1       -3 0.749786031320D-04 0.100000000000D+01
-.713665854657D-05 0.000000000000D+00 0.000000000000D+00 0.114034431989D-06 0.000000000000D+00  7 -3 3 23 -11 11 23 21 2 0.19592861D-01 0.92224574D-01 0.67126695D+05 0.67126695D+05 0.67126695D+05 0.11362103D+01  1  2  4  1  7  1       -3 -.984320525919D-04 0.100000000000D+01
-.980321880363D-05 0.000000000000D+00 -.995794616523D-06 0.114034431989D-06 0.000000000000D+00  7 -3 3 23 -11 11 23 21 2 0.22731954D-01 0.92224574D-01 0.67126695D+05 0.67126695D+05 0.67126695D+05 0.11362103D+01  1  2  5  1  7  1       -3 -.103896612631D-03 0.100000000000D+01
0.985309791381D-05 0.000000000000D+00 0.984899411953D-06 0.114034431989D-06 0.000000000000D+00  7 -3 3 23 -11 11 23 21 2 0.19592861D-01 0.92224574D-01 0.67126695D+05 0.67126695D+05 0.67126695D+05 0.11362103D+01  1  2  6  1  7  1       -3 0.135898424412D-03 0.100000000000D+01
0.155982460045D-06 0.000000000000D+00 0.000000000000D+00 0.114034431989D-06 0.000000000000D+00  7 21 3 23 -11 11 23 3 2 0.22636039D-01 0.92224574D-01 0.72890263D+05 0.72890263D+05 0.72890263D+05 0.11331689D+01  1  2 12  3  7  1       -3 0.277876464225D-04 0.100000000000D+01
-.215139680018D-06 0.000000000000D+00 -.225438911342D-07 0.114034431989D-06 0.000000000000D+00  7 21 3 23 -11 11 23 3 2 0.22731954D-01 0.92224574D-01 0.67126695D+05 0.67126695D+05 0.67126695D+05 0.11362103D+01  1  2  5  3  7  1       -3 -.383115337318D-04 0.100000000000D+01
  </mgrwgt>
  </event>
  <event>
  8     66 0.58687835E-06 0.18723588E+03 0.75467711E-02 0.92698584E-01
       -1 -1    0    0    0  501 0.00000000E+00 0.00000000E+00 0.32647308E+03 0.32647324E+03 0.32000000E+00 0.0000E+00 0.9000E+01
        1 -1    0    0  501    0 0.00000000E+00 0.00000000E+00 -.10094377E+04 0.10094377E+04 0.32000000E+00 0.0000E+00 0.9000E+01
       25  2    1    2    0    0 -.27938804E+03 0.43890468E+03 -.48505399E+03 0.77159492E+03 0.29897550E+03 0.0000E+00 0.0000E+00
       23  2    1    2    0    0 0.27938804E+03 -.43890468E+03 -.19791059E+03 0.56431604E+03 0.92676831E+02 0.0000E+00 0.0000E+00
       23  1    3    3    0    0 -.12832022E+03 0.45011407E+02 -.91866738E+02 0.18774146E+03 0.91188000E+02 0.0000E+00 0.9000E+01
      -11  1    4    4    0    0 0.23669037E+03 -.33352672E+03 -.11907559E+03 0.42595939E+03 0.51099893E-03 0.0000E+00 0.9000E+01
       11  1    4    4    0    0 0.42697674E+02 -.10537796E+03 -.78835005E+02 0.13835665E+03 0.51099893E-03 0.0000E+00 0.9000E+01
       23  1    3    3    0    0 -.15106782E+03 0.39389327E+03 -.39318725E+03 0.58385346E+03 0.91188000E+02 0.0000E+00 0.9000E+01
#aMCatNLO 1  0  0  2  1 0.69384983D+02 0.00000000D+00  -5  7  0 0.00000000D+00 0.00000000D+00 0.00000000D+00 0.00000000D+00 0.00000000D+00
  <mgrwgt>
 0.2031425022D-03    6    2    0
 0.574068258200016D+03 0.000000000000000D+00 0.000000000000000D+00 0.574068258200016D+03
 0.574068258200016D+03 0.000000000000000D+00 0.000000000000000D+00 -.574068258200016D+03
 0.163799460684420D+03 -.128320221973946D+03 0.450114072420057D+02 0.478600325514773D+01
 0.424792171522542D+03 0.236690367417689D+03 -.333526722593476D+03 0.114830241115181D+03
 0.114089785987660D+03 0.426976740705834D+02 -.105377955355704D+03 -.942732309426431D+01
 0.445455098205410D+03 -.151067819514326D+03 0.393893270707175D+03 -.110188921276064D+03
 0.000000000000000D+00 -.000000000000000D+00 -.000000000000000D+00 0.000000000000000D+00
 0.612962807346398D+03 0.000000000000000D+00 0.000000000000000D+00 0.612962807346398D+03
 0.606916303140342D+03 0.000000000000000D+00 0.000000000000000D+00 -.606916303140342D+03
 0.165600348502940D+03 -.126799240809490D+03 0.548385884507788D+02 0.478600325514773D+01
 0.407836198719636D+03 0.240534972158824D+03 -.308686423219528D+03 0.114830241115181D+03
 0.108399254794918D+03 0.437250020498046D+02 -.987403069425779D+02 -.942732309426431D+01
 0.468395364397136D+03 -.146848177298451D+03 0.421156717264329D+03 -.110188921276064D+03
 0.696479440721100D+02 -.106125561006876D+02 -.685685755530014D+02 0.604650420605633D+01
0.230907570294D-04 0.000000000000D+00 0.000000000000D+00 0.275202882353D-06 0.000000000000D+00  7 -1 1 23 -11 11 23 21 0 0.50226644D-01 0.15529812D+00 0.31249112D+06 0.31249112D+06 0.31249112D+06 0.10832436D+01  1  2  2  2  7  2        1 0.164687264461D-03 0.100000000000D+01
-.128171767805D-05 0.000000000000D+00 -.886745869290D-07 0.275202882353D-06 0.000000000000D+00  7 -1 1 23 -11 11 23 21 2 0.50226644D-01 0.15529812D+00 0.31249112D+06 0.31249112D+06 0.31249112D+06 0.10832436D+01  1  2  3  2  7  2        1 -.107267077219D-04 0.100000000000D+01
0.147821412799D-05 0.000000000000D+00 0.000000000000D+00 0.275202882353D-06 0.000000000000D+00  7 -1 1 23 -11 11 23 21 2 0.50226644D-01 0.15529812D+00 0.31249112D+06 0.31249112D+06 0.31249112D+06 0.10832436D+01  1  2 15  2  7  2        1 0.123711884238D-04 0.100000000000D+01
0.329156516413D-04 0.000000000000D+00 0.000000000000D+00 0.275202882353D-06 0.000000000000D+00  7 -1 1 23 -11 11 23 21 2 0.50226644D-01 0.16912960D+00 0.35372246D+06 0.35372246D+06 0.35372246D+06 0.10792983D+01  1  2 12  2  7  2        1 0.233095542924D-03 0.100000000000D+01
-.239140865981D-04 0.000000000000D+00 0.000000000000D+00 0.275202882353D-06 0.000000000000D+00  7 -1 1 23 -11 11 23 21 2 0.50226644D-01 0.15529812D+00 0.31249112D+06 0.31249112D+06 0.31249112D+06 0.10832436D+01  1  2  4  2  7  2        1 -.200137223483D-03 0.100000000000D+01
0.465427611066D-06 0.000000000000D+00 0.000000000000D+00 0.275202882353D-06 0.000000000000D+00  7 -1 21 23 -11 11 23 -1 2 0.50226644D-01 0.16912960D+00 0.35372246D+06 0.35372246D+06 0.35372246D+06 0.10792983D+01  1  2 12  4  7  2        1 0.385243761193D-05 0.100000000000D+01
  </mgrwgt>
  </event>
  <event>
  7     66 0.58687835E-06 0.53127350E+03 0.75467711E-02 0.91598595E-01
       -1 -1    0    0    0  501 0.00000000E+00 0.00000000E+00 0.76415249E+03 0.76415255E+03 0.32000000E+00 0.0000E+00 0.9000E+01
        1 -1    0    0  501    0 0.00000000E+00 0.00000000E+00 -.39317285E+03 0.39317298E+03 0.32000000E+00 0.0000E+00 0.9000E+01
       25  2    1    2    0    0 -.22330502E+03 -.42205993E+03 0.10732503E+03 0.57379977E+03 0.29954599E+03 0.0000E+00 0.0000E+00
       23  1    3    3    0    0 0.13257974E+02 -.39297373E+02 0.47293449E+02 0.11077896E+03 0.91188000E+02 0.0000E+00 0.9000E+01
      -11  1    1    2    0    0 0.24868690E+03 0.38532125E+03 0.27840935E+03 0.53649735E+03 0.51099893E-03 0.0000E+00 0.9000E+01
       11  1    1    2    0    0 -.25381878E+02 0.36738673E+02 -.14754746E+02 0.47028421E+02 0.51099893E-03 0.0000E+00 0.9000E+01
       23  1    3    3    0    0 -.23656299E+03 -.38276255E+03 0.60031581E+02 0.46302080E+03 0.91188000E+02 0.0000E+00 0.9000E+01
#aMCatNLO 1  0  0  2  1 0.23312361D+03 0.00000000D+00  -5  7  0 0.00000000D+00 0.00000000D+00 0.00000000D+00 0.00000000D+00 0.00000000D+00
  <mgrwgt>
 0.5205129983D-03    4    2    0
 0.548127839417334D+03 0.000000000000000D+00 0.000000000000000D+00 0.548127839417334D+03
 0.548127839417334D+03 0.000000000000000D+00 0.000000000000000D+00 -.548127839417334D+03
 0.100945811379744D+03 0.132579737311279D+02 -.392973735584407D+02 0.124397771309563D+02
 0.472168943699088D+03 0.248686896151235D+03 0.385321253510540D+03 0.112364899633485D+03
 0.546413599378614D+02 -.253818756808465D+02 0.367386738761931D+02 -.314914027093063D+02
 0.468499563817974D+03 -.236562994201517D+03 -.382762553828293D+03 -.933132740551351D+02
 0.000000000000000D+00 -.000000000000000D+00 0.000000000000000D+00 0.000000000000000D+00
 0.779205901315858D+03 0.000000000000000D+00 0.000000000000000D+00 0.779205901315858D+03
 0.622474649622667D+03 0.000000000000000D+00 0.000000000000000D+00 -.622474649622667D+03
 0.111983227353442D+03 0.223856737602963D+02 -.597421578093926D+02 0.124397771309563D+02
 0.429464562151155D+03 0.287337519976955D+03 0.298749207676828D+03 0.112364899633485D+03
 0.465288103820724D+02 -.210449802903715D+02 0.270246286847575D+02 -.314914027093063D+02
 0.532792391626958D+03 -.193640278421199D+03 -.478903494129710D+03 -.933132740551351D+02
 0.280911559424898D+03 -.950379350256808D+02 0.212871815577517D+03 0.156731251693190D+03
0.122371252528D-03 0.000000000000D+00 0.000000000000D+00 0.416735406491D-09 0.000000000000D+00  7 -1 1 23 -11 11 23 21 0 0.11756194D+00 0.60488147D-01 0.28225153D+06 0.28225153D+06 0.28225153D+06 0.10865168D+01  1  2  2  2  7  2        1 0.630232708090D-03 0.100000000000D+01
-.679034028809D-05 0.000000000000D+00 -.469937830798D-06 0.416735406491D-09 0.000000000000D+00  7 -1 1 23 -11 11 23 21 2 0.11756194D+00 0.60488147D-01 0.28225153D+06 0.28225153D+06 0.28225153D+06 0.10865168D+01  1  2  3  2  7  2        1 -.412843982492D-04 0.100000000000D+01
0.787566024561D-05 0.000000000000D+00 0.000000000000D+00 0.416735406491D-09 0.000000000000D+00  7 -1 1 23 -11 11 23 21 2 0.11756194D+00 0.60488147D-01 0.28225153D+06 0.28225153D+06 0.28225153D+06 0.10865168D+01  1  2 15  2  7  2        1 0.478830044240D-04 0.100000000000D+01
-.191317054521D-04 0.000000000000D+00 0.000000000000D+00 0.416735406491D-09 0.000000000000D+00  7 -1 1 23 -11 11 23 21 2 0.11756194D+00 0.60488147D-01 0.28225153D+06 0.28225153D+06 0.28225153D+06 0.10865168D+01  1  2  4  2  7  2        1 -.116318315955D-03 0.100000000000D+01
  </mgrwgt>
  </event>
  <event>
  8     66 0.58687835E-06 0.48662376E+03 0.75467711E-02 0.85089592E-01
       -1 -1    0    0    0  501 0.00000000E+00 0.00000000E+00 0.33734530E+03 0.33734545E+03 0.32000000E+00 0.0000E+00 0.9000E+01
        1 -1    0    0  501    0 0.00000000E+00 0.00000000E+00 -.78810935E+03 0.78810942E+03 0.32000000E+00 0.0000E+00 0.9000E+01
       25  2    1    2    0    0 -.77896688E+02 -.43265032E+03 -.42502013E+03 0.68037808E+03 0.29835889E+03 0.0000E+00 0.0000E+00
       23  2    1    2    0    0 0.77896688E+02 0.43265032E+03 -.25743921E+02 0.44507679E+03 0.64625065E+02 0.0000E+00 0.0000E+00
       23  1    3    3    0    0 0.74342759E+02 -.10768882E+03 -.10471164E+03 0.19079703E+03 0.91188000E+02 0.0000E+00 0.9000E+01
      -13  1    4    4    0    0 0.87641761E+02 0.39430945E+03 -.31233158E+02 0.40513768E+03 0.10565837E+00 0.0000E+00 0.9000E+01
       13  1    4    4    0    0 -.97450735E+01 0.38340875E+02 0.54892366E+01 0.39939104E+02 0.10565837E+00 0.0000E+00 0.9000E+01
       23  1    3    3    0    0 -.15223945E+03 -.32496150E+03 -.32030849E+03 0.48958105E+03 0.91188000E+02 0.0000E+00 0.9000E+01
#aMCatNLO 1  0  0  1  2 0.10937504D+04 0.00000000D+00  -5  7  0 0.00000000D+00 0.00000000D+00 0.00000000D+00 0.00000000D+00 0.00000000D+00
  <mgrwgt>
 0.1009330337D-02    3    2    0
 0.515621089937326D+03 0.000000000000000D+00 0.000000000000000D+00 0.515621089937326D+03
 0.515621089937326D+03 0.000000000000000D+00 0.000000000000000D+00 -.515621089937326D+03
 0.162457671880036D+03 0.743427584984292D+02 -.107688820778426D+03 -.308790535294992D+02
 0.428499197631664D+03 0.876420214278249D+02 0.394310400848729D+03 0.143002609184376D+03
 0.459862446614930D+02 -.974533364087928D+01 0.383399234865173D+02 0.234481009325411D+02
 0.394299065701459D+03 -.152239446285375D+03 -.324961503556820D+03 -.135571656587418D+03
 0.000000000000000D+00 -.000000000000000D+00 0.000000000000000D+00 -.000000000000000D+00
 0.867113133985463D+03 0.000000000000000D+00 0.000000000000000D+00 0.867113133985463D+03
 0.334122379684194D+04 0.000000000000000D+00 0.000000000000000D+00 -.334122379684194D+04
 0.358037423601567D+03 0.275814150139705D+03 -.206998995145102D+03 -.308790535294992D+02
 0.523097428255303D+03 0.455982661258823D+03 0.212746294550794D+03 0.143002609184376D+03
 0.397847498650718D+02 0.234545980774669D+02 0.219748654946549D+02 0.234481009325411D+02
 0.582327024299841D+03 0.225789509556526D+03 -.511301217669462D+03 -.135571656587418D+03
 0.270509030480562D+04 -.981040919032522D+03 0.483579052769116D+03 -.247411066285648D+04
0.971813721212D-04 0.000000000000D+00 0.000000000000D+00 0.333471195780D-09 0.000000000000D+00  7 -1 1 23 -13 13 23 21 0 0.51899294D-01 0.12124761D+00 0.23680268D+06 0.23680268D+06 0.23680268D+06 0.10922355D+01  1  2  2  1  7  1       -1 0.996616183317D-03 0.100000000000D+01
-.537697320885D-05 0.000000000000D+00 -.373202057388D-06 0.333471195780D-09 0.000000000000D+00  7 -1 1 23 -13 13 23 21 2 0.51899294D-01 0.12124761D+00 0.23680268D+06 0.23680268D+06 0.23680268D+06 0.10922355D+01  1  2  3  1  7  1       -1 -.657832494747D-04 0.100000000000D+01
0.641619922221D-05 0.000000000000D+00 0.000000000000D+00 0.333471195780D-09 0.000000000000D+00  7 -1 1 23 -13 13 23 21 2 0.51899294D-01 0.12124761D+00 0.23680268D+06 0.23680268D+06 0.23680268D+06 0.10922355D+01  1  2 15  1  7  1       -1 0.784974032266D-04 0.100000000000D+01
  </mgrwgt>
  </event>
  <event>
  8     66 0.58687835E-06 0.80047670E+02 0.75467711E-02 0.10634786E+00
       -1 -1    0    0    0  501 0.00000000E+00 0.00000000E+00 0.44063877E+03 0.44063889E+03 0.32000000E+00 0.0000E+00 0.9000E+01
        1 -1    0    0  501    0 0.00000000E+00 0.00000000E+00 -.16876768E+03 0.16876799E+03 0.32000000E+00 0.0000E+00 0.9000E+01
       25  2    1    2    0    0 0.75846213E+02 0.57055238E+02 0.96637766E+01 0.31573464E+03 0.30097679E+03 0.0000E+00 0.0000E+00
       23  2    1    2    0    0 -.75846213E+02 -.57055238E+02 0.26220731E+03 0.29367223E+03 0.92101885E+02 0.0000E+00 0.0000E+00
       23  1    3    3    0    0 0.72041121E+02 -.46200239E+02 0.91953590E+02 0.15522596E+03 0.91188000E+02 0.0000E+00 0.9000E+01
      -13  1    4    4    0    0 0.20693976E+01 -.79812202E+01 -.59349941E+01 0.10159606E+02 0.10565837E+00 0.0000E+00 0.9000E+01
       13  1    4    4    0    0 -.77915611E+02 -.49074018E+02 0.26814230E+03 0.28351262E+03 0.10565837E+00 0.0000E+00 0.9000E+01
       23  1    3    3    0    0 0.38050916E+01 0.10325548E+03 -.82289813E+02 0.16050868E+03 0.91188000E+02 0.0000E+00 0.9000E+01
#aMCatNLO 1  0  0  1  2 0.33907243D+02 0.00000000D+00  -5  7  0 0.00000000D+00 0.00000000D+00 0.00000000D+00 0.00000000D+00 0.00000000D+00
  <mgrwgt>
 0.1483864501D-03    9    2    0
 0.272700774566787D+03 0.000000000000000D+00 0.000000000000000D+00 0.272700774566787D+03
 0.272700774566787D+03 0.000000000000000D+00 0.000000000000000D+00 -.272700774566787D+03
 0.127605515322161D+03 0.720411220123704D+02 -.462002381895473D+02 0.253679113657814D+02
 0.143101252243925D+02 0.206950182645180D+01 -.798116568093625D+01 -.116960608967956D+02
 0.183121085688959D+03 -.779157164743433D+02 -.490740737398818D+02 0.158285212312350D+03
 0.220364822898061D+03 0.380509263552111D+01 0.103255477610365D+03 -.171957062781335D+03
 0.000000000000000D+00 0.000000000000000D+00 0.000000000000000D+00 0.000000000000000D+00
 0.328226386117213D+03 0.000000000000000D+00 0.000000000000000D+00 0.328226386117213D+03
 0.278453261614528D+03 0.000000000000000D+00 0.000000000000000D+00 -.278453261614528D+03
 0.128939854116379D+03 0.692025289599822D+02 -.536443258325954D+02 0.253679113657814D+02
 0.147555325984636D+02 0.174789955181470D+01 -.882455375186389D+01 -.116960608967956D+02
 0.188051197683627D+03 -.820226199321073D+02 -.598442506257202D+02 0.158285212312350D+03
 0.214707943395114D+03 -.100884937553894D+01 0.906311226649698D+02 -.171957062781335D+03
 0.602251199381575D+02 0.120810407958493D+02 0.316820075452097D+02 0.497731245026847D+02
0.222223753384D-05 0.000000000000D+00 0.000000000000D+00 0.941008106839D-07 0.000000000000D+00  7 -1 1 23 -13 13 23 21 0 0.67790612D-01 0.25964291D-01 0.32977684D+05 0.32977684D+05 0.32977684D+05 0.11635418D+01  1  2  2  1  7  1       -1 0.116745481757D-03 0.100000000000D+01
-.986437043954D-07 0.000000000000D+00 -.853397725853D-08 0.941008106839D-07 0.000000000000D+00  7 -1 1 23 -13 13 23 21 2 0.67790612D-01 0.25964291D-01 0.32977684D+05 0.32977684D+05 0.32977684D+05 0.11635418D+01  1  2  3  1  7  1       -1 -.701589293368D-05 0.100000000000D+01
0.139780696008D-06 0.000000000000D+00 0.000000000000D+00 0.941008106839D-07 0.000000000000D+00  7 -1 1 23 -13 13 23 21 2 0.67790612D-01 0.25964291D-01 0.32977684D+05 0.32977684D+05 0.32977684D+05 0.11635418D+01  1  2 15  1  7  1       -1 0.994170285267D-05 0.100000000000D+01
0.803874446740D-05 0.000000000000D+00 0.000000000000D+00 0.941008106839D-07 0.000000000000D+00  7 -1 1 23 -13 13 23 21 2 0.82210944D-01 0.25964291D-01 0.39885393D+05 0.39885393D+05 0.39885393D+05 0.11560306D+01  1  2 12  1  7  1       -1 0.387112718034D-03 0.100000000000D+01
-.820605890923D-05 0.000000000000D+00 0.000000000000D+00 0.941008106839D-07 0.000000000000D+00  7 -1 1 23 -13 13 23 21 2 0.67790612D-01 0.25964291D-01 0.32977684D+05 0.32977684D+05 0.32977684D+05 0.11635418D+01  1  2  4  1  7  1       -1 -.583644248435D-03 0.100000000000D+01
-.104992406347D-04 0.000000000000D+00 -.157255936191D-05 0.941008106839D-07 0.000000000000D+00  7 -1 1 23 -13 13 23 21 2 0.82615789D-01 0.25964291D-01 0.32977684D+05 0.32977684D+05 0.32977684D+05 0.11635418D+01  1  2  5  1  7  1       -1 -.508263655553D-03 0.100000000000D+01
0.106319031079D-04 0.000000000000D+00 0.154229684114D-05 0.941008106839D-07 0.000000000000D+00  7 -1 1 23 -13 13 23 21 2 0.67790612D-01 0.25964291D-01 0.32977684D+05 0.32977684D+05 0.32977684D+05 0.11635418D+01  1  2  6  1  7  1       -1 0.756178960873D-03 0.100000000000D+01
0.223700674735D-06 0.000000000000D+00 0.000000000000D+00 0.941008106839D-07 0.000000000000D+00  7 21 1 23 -13 13 23 1 2 0.82210944D-01 0.25964291D-01 0.39885393D+05 0.39885393D+05 0.39885393D+05 0.11560306D+01  1  2 12  3  7  1       -1 0.857728037630D-04 0.100000000000D+01
-.280122214051D-06 0.000000000000D+00 -.446171241281D-07 0.941008106839D-07 0.000000000000D+00  7 21 1 23 -13 13 23 1 2 0.82615789D-01 0.25964291D-01 0.32977684D+05 0.32977684D+05 0.32977684D+05 0.11635418D+01  1  2  5  3  7  1       -1 -.108441420304D-03 0.100000000000D+01
  </mgrwgt>
  </event>
  <event>
  8     66 0.58687835E-06 0.12905989E+03 0.75467711E-02 0.10078696E+00
       -3 -1    0    0    0  501 0.00000000E+00 0.00000000E+00 0.11078159E+04 0.11078160E+04 0.50000000E+00 0.0000E+00 0.9000E+01
        3 -1    0    0  501    0 0.00000000E+00 0.00000000E+00 -.90940774E+02 0.90942149E+02 0.50000000E+00 0.0000E+00 0.9000E+01
       25  2    1    2    0    0 -.43897177E+02 0.15397730E+03 0.28718086E+03 0.44603766E+03 0.30139803E+03 0.0000E+00 0.0000E+00
       23  2    1    2    0    0 0.43897177E+02 -.15397730E+03 0.72969427E+03 0.75272051E+03 0.92187130E+02 0.0000E+00 0.0000E+00
       23  1    3    3    0    0 -.14242127E+03 0.73231498E+02 0.16512268E+03 0.24744175E+03 0.91188000E+02 0.0000E+00 0.9000E+01
      -13  1    4    4    0    0 0.17760542E+02 -.15710969E+03 0.60910519E+03 0.62929169E+03 0.10565837E+00 0.0000E+00 0.9000E+01
       13  1    4    4    0    0 0.26136635E+02 0.31323861E+01 0.12058908E+03 0.12342882E+03 0.10565837E+00 0.0000E+00 0.9000E+01
       23  1    3    3    0    0 0.98524093E+02 0.80745807E+02 0.12205819E+03 0.19859591E+03 0.91188000E+02 0.0000E+00 0.9000E+01
#aMCatNLO 1  0  0  1  2 0.71488738D+02 0.00000000D+00  -5  7  0 0.00000000D+00 0.00000000D+00 0.00000000D+00 0.00000000D+00 0.00000000D+00
  <mgrwgt>
 0.7329055687D-04    9    2    0
 0.317405934465829D+03 0.000000000000000D+00 0.000000000000000D+00 0.317405934465829D+03
 0.317405934465829D+03 0.000000000000000D+00 0.000000000000000D+00 -.317405934465829D+03
 0.202758771806508D+03 -.142421265895573D+03 0.732314991853709D+02 -.845529345927692D+02
 0.212637457912351D+03 0.177605320315009D+02 -.157109902912407D+03 0.142182032677266D+03
 0.399128040727266D+02 0.261366454184590D+02 0.313259576522417D+01 0.300015756084461D+02
 0.179502835140072D+03 0.985240884456133D+02 0.807458079618121D+02 -.876306736929425D+02
 0.000000000000000D+00 -.000000000000000D+00 -.000000000000000D+00 0.000000000000000D+00
 0.440708591786690D+03 0.000000000000000D+00 0.000000000000000D+00 0.440708591786690D+03
 0.329945628407999D+03 0.000000000000000D+00 0.000000000000000D+00 -.329945628407999D+03
 0.195868005174348D+03 -.124283567493914D+03 0.863331929776434D+02 -.845529345927692D+02
 0.205242744666897D+03 0.367742699941438D+02 -.143375405452120D+03 0.142182032677266D+03
 0.427576370440616D+02 0.298981878292953D+02 0.584973085932816D+01 0.300015756084461D+02
 0.194956118439024D+03 0.115562139966535D+03 0.930531762342744D+02 -.876306736929425D+02
 0.131829714870359D+03 -.579510302960606D+02 -.418606946191261D+02 0.110762963378692D+03
0.189951878975D-04 0.000000000000D+00 0.000000000000D+00 0.739004595292D-07 0.000000000000D+00  7 -3 3 23 -13 13 23 21 0 0.17043333D+00 0.13991003D-01 0.69006347D+05 0.69006347D+05 0.69006347D+05 0.11351878D+01  1  2  2  1  7  1       -3 0.540534276104D-04 0.100000000000D+01
-.100935614156D-05 0.000000000000D+00 -.729465230742D-07 0.739004595292D-07 0.000000000000D+00  7 -3 3 23 -13 13 23 21 2 0.17043333D+00 0.13991003D-01 0.69006347D+05 0.69006347D+05 0.69006347D+05 0.11351878D+01  1  2  3  1  7  1       -3 -.370134463125D-05 0.100000000000D+01
0.122757958020D-05 0.000000000000D+00 0.000000000000D+00 0.739004595292D-07 0.000000000000D+00  7 -3 3 23 -13 13 23 21 2 0.17043333D+00 0.13991003D-01 0.69006347D+05 0.69006347D+05 0.69006347D+05 0.11351878D+01  1  2 15  1  7  1       -3 0.450157769049D-05 0.100000000000D+01
0.361791592128D-04 0.000000000000D+00 0.000000000000D+00 0.739004595292D-07 0.000000000000D+00  7 -3 3 23 -13 13 23 21 2 0.23901825D+00 0.13991003D-01 0.90240048D+05 0.90240048D+05 0.90240048D+05 0.11254005D+01  1  2 12  1  7  1       -3 0.252098871325D-04 0.100000000000D+01
-.374138843731D-04 0.000000000000D+00 0.000000000000D+00 0.739004595292D-07 0.000000000000D+00  7 -3 3 23 -13 13 23 21 2 0.17043333D+00 0.13991003D-01 0.69006347D+05 0.69006347D+05 0.69006347D+05 0.11351878D+01  1  2  4  1  7  1       -3 -.137198035814D-03 0.100000000000D+01
-.446034156280D-04 0.000000000000D+00 -.767548563357D-05 0.739004595292D-07 0.000000000000D+00  7 -3 3 23 -13 13 23 21 2 0.24025097D+00 0.13991003D-01 0.69006347D+05 0.69006347D+05 0.69006347D+05 0.11351878D+01  1  2  5  1  7  1       -3 -.308690729547D-04 0.100000000000D+01
0.449918871993D-04 0.000000000000D+00 0.724428800824D-05 0.739004595292D-07 0.000000000000D+00  7 -3 3 23 -13 13 23 21 2 0.17043333D+00 0.13991003D-01 0.69006347D+05 0.69006347D+05 0.69006347D+05 0.11351878D+01  1  2  6  1  7  1       -3 0.164986839905D-03 0.100000000000D+01
0.152470787151D-05 0.000000000000D+00 0.000000000000D+00 0.739004595292D-07 0.000000000000D+00  7 21 3 23 -13 13 23 3 2 0.23901825D+00 0.13991003D-01 0.90240048D+05 0.90240048D+05 0.90240048D+05 0.11254005D+01  1  2 12  3  7  1       -3 0.297026594078D-04 0.100000000000D+01
-.168924936829D-05 0.000000000000D+00 -.327008511642D-06 0.739004595292D-07 0.000000000000D+00  7 21 3 23 -13 13 23 3 2 0.24025097D+00 0.13991003D-01 0.69006347D+05 0.69006347D+05 0.69006347D+05 0.11351878D+01  1  2  5  3  7  1       -3 -.333953814782D-04 0.100000000000D+01
  </mgrwgt>
  </event>
  <event>
  8     66 0.58687835E-06 0.40436004E+03 0.75467711E-02 0.85087556E-01
       -1 -1    0    0    0  501 0.00000000E+00 0.00000000E+00 0.12045331E+03 0.12045374E+03 0.32000000E+00 0.0000E+00 0.9000E+01
        1 -1    0    0  501    0 0.00000000E+00 0.00000000E+00 -.14798568E+04 0.14798568E+04 0.32000000E+00 0.0000E+00 0.9000E+01
       25  2    1    2    0    0 -.25423527E+03 0.25810621E+03 -.79485096E+03 0.92333922E+03 0.29918703E+03 0.0000E+00 0.0000E+00
       23  2    1    2    0    0 0.25423527E+03 -.25810621E+03 -.56455249E+03 0.67697131E+03 0.91193483E+02 0.0000E+00 0.0000E+00
       23  1    3    3    0    0 -.23789837E+03 0.24306132E+03 -.48337841E+03 0.59803376E+03 0.91188000E+02 0.0000E+00 0.9000E+01
      -13  1    4    4    0    0 0.18261957E+03 -.17348852E+03 -.31076408E+03 0.40002812E+03 0.10565837E+00 0.0000E+00 0.9000E+01
       13  1    4    4    0    0 0.71615709E+02 -.84617691E+02 -.25378841E+03 0.27694319E+03 0.10565837E+00 0.0000E+00 0.9000E+01
       23  1    3    3    0    0 -.16336908E+02 0.15044886E+02 -.31147254E+03 0.32530545E+03 0.91188000E+02 0.0000E+00 0.9000E+01
#aMCatNLO 1  0  0  2  2 0.11479977D+04 0.00000000D+00  -5  7  0 0.00000000D+00 0.00000000D+00 0.00000000D+00 0.00000000D+00 0.00000000D+00
  <mgrwgt>
 0.2239389151D-03    5    2    0
 0.422201390656281D+03 0.000000000000000D+00 0.000000000000000D+00 0.422201390656281D+03
 0.422201390656281D+03 0.000000000000000D+00 0.000000000000000D+00 -.422201390656281D+03
 0.355201868015006D+03 -.237898367008712D+03 0.243061321773785D+03 0.466762951563095D+02
 0.257833836216467D+03 0.182619714238048D+03 -.173488636304557D+03 0.550456187439010D+02
 0.116288231554316D+03 0.716155604453552D+02 -.846175719615554D+02 -.351287747503237D+02
 0.115078845526772D+03 -.163369076746909D+02 0.150448864923275D+02 -.665931391498868D+02
 0.000000000000000D+00 0.000000000000000D+00 0.000000000000000D+00 -.000000000000000D+00
 0.110146705362185D+04 0.000000000000000D+00 0.000000000000000D+00 0.110146705362185D+04
 0.155971182630907D+04 0.000000000000000D+00 0.000000000000000D+00 -.155971182630907D+04
 0.370928570977949D+03 -.339099691453006D+03 -.110024888778405D+03 0.466762951563095D+02
 0.593475076809904D+03 0.639721753344525D+02 -.587443790872455D+03 0.550456187439010D+02
 0.280021812114630D+03 0.163815430345211D+02 -.277326214938852D+03 -.351287747503237D+02
 0.180676188390414D+03 -.575565006516722D+02 -.128768151179498D+03 -.665931391498868D+02
 0.123607723163802D+04 0.316302473735705D+03 0.110356304576921D+04 -.458244772687218D+03
0.120265776989D-04 0.000000000000D+00 0.000000000000D+00 0.521816954868D-06 0.000000000000D+00  7 -1 1 23 -13 13 23 21 0 0.18531314D-01 0.22767031D+00 0.16350704D+06 0.16350704D+06 0.16350704D+06 0.11046090D+01  1  2  2  2  7  2        1 0.221302202638D-03 0.100000000000D+01
-.666628768955D-06 0.000000000000D+00 -.461852250343D-07 0.521816954868D-06 0.000000000000D+00  7 -1 1 23 -13 13 23 21 2 0.18531314D-01 0.22767031D+00 0.16350704D+06 0.16350704D+06 0.16350704D+06 0.11046090D+01  1  2  3  2  7  2        1 -.149673491528D-04 0.100000000000D+01
0.783998596757D-06 0.000000000000D+00 0.000000000000D+00 0.521816954868D-06 0.000000000000D+00  7 -1 1 23 -13 13 23 21 2 0.18531314D-01 0.22767031D+00 0.16350704D+06 0.16350704D+06 0.16350704D+06 0.11046090D+01  1  2 15  2  7  2        1 0.176025717452D-04 0.100000000000D+01
0.299673958592D-05 0.000000000000D+00 -.358230188126D-05 0.521816954868D-06 0.000000000000D+00  7 -1 1 23 -13 13 23 21 2 0.18531314D-01 0.90451998D+00 0.16350704D+06 0.16350704D+06 0.16350704D+06 0.11046090D+01  1  2  5  2  7  2        1 0.148605998610D-08 0.100000000000D+01
0.538743383890D-06 0.000000000000D+00 -.589235143960D-06 0.521816954868D-06 0.000000000000D+00  7 -1 21 23 -13 13 23 -1 2 0.18531314D-01 0.90451998D+00 0.16350704D+06 0.16350704D+06 0.16350704D+06 0.11046090D+01  1  2  5  4  7  2        1 0.381088381519D-11 0.100000000000D+01
  </mgrwgt>
  </event>
  <event>
  8     66 0.58687835E-06 0.10557163E+03 0.75467711E-02 0.10772648E+00
       -3 -1    0    0    0  501 0.00000000E+00 0.00000000E+00 0.69527505E+03 0.69527523E+03 0.50000000E+00 0.0000E+00 0.9000E+01
        3 -1    0    0  501    0 0.00000000E+00 0.00000000E+00 -.66885444E+02 0.66887313E+02 0.50000000E+00 0.0000E+00 0.9000E+01
       25  2    1    2    0    0 0.46123923E+02 -.48090914E+01 0.55816405E+03 0.63496388E+03 0.29913455E+03 0.0000E+00 0.0000E+00
       23  2    1    2    0    0 -.46123923E+02 0.48090914E+01 0.70225560E+02 0.12719867E+03 0.95379916E+02 0.0000E+00 0.0000E+00
       23  1    3    3    0    0 0.82024409E+02 0.31653979E+02 0.49899106E+03 0.51481774E+03 0.91188000E+02 0.0000E+00 0.9000E+01
      -11  1    4    4    0    0 -.47588535E+01 -.15603750E+02 -.20033717E+02 0.25835509E+02 0.51099893E-03 0.0000E+00 0.9000E+01
       11  1    4    4    0    0 -.41365069E+02 0.20412841E+02 0.90259278E+02 0.10136316E+03 0.51099893E-03 0.0000E+00 0.9000E+01
       23  1    3    3    0    0 -.35900486E+02 -.36463070E+02 0.59172992E+02 0.12014614E+03 0.91188000E+02 0.0000E+00 0.9000E+01
#aMCatNLO 1  0  0  2  1 0.68794072D+02 0.00000000D+00  -5  7  0 0.00000000D+00 0.00000000D+00 0.00000000D+00 0.00000000D+00 0.00000000D+00
  <mgrwgt>
 0.4449888092D-04    9    2    0
 0.215649163017700D+03 0.000000000000000D+00 0.000000000000000D+00 0.215649163017700D+03
 0.215649163017700D+03 0.000000000000000D+00 0.000000000000000D+00 -.215649163017700D+03
 0.182736636306770D+03 0.820244121192969D+02 0.316539783343091D+02 0.131709712537866D+03
 0.748434090357177D+02 -.475885938467705D+01 -.156037472290222D+02 -.730439060145157D+02
 0.476171818252889D+02 -.413650687573571D+02 0.204128392223301D+02 0.118170675958565D+02
 0.126101098867625D+03 -.359004839772628D+02 -.364630703276170D+02 -.704828741192072D+02
 0.000000000000000D+00 0.000000000000000D+00 -.000000000000000D+00 -.000000000000000D+00
 0.235841660244731D+03 0.000000000000000D+00 0.000000000000000D+00 0.235841660244731D+03
 0.286113828185106D+03 0.000000000000000D+00 0.000000000000000D+00 -.286113828185106D+03
 0.185608505006038D+03 0.726141161690651D+02 0.592874990428383D+02 0.131709712537866D+03
 0.736781860449055D+02 -.855321421104424D+01 -.446154902139380D+01 -.730439060145157D+02
 0.534281456854083D+02 -.439465238374344D+02 0.279933332674402D+02 0.118170675958565D+02
 0.124035515717151D+03 -.422908480875168D+02 -.176976393667133D+02 -.704828741192072D+02
 0.852051359763340D+02 0.221764699669303D+02 -.651216439221714D+02 -.502721679403755D+02
0.242740308156D-05 0.000000000000D+00 0.000000000000D+00 0.501280382183D-08 0.000000000000D+00  7 -3 3 23 -11 11 23 21 0 0.10696555D+00 0.10290226D-01 0.21561213D+05 0.21561213D+05 0.21561213D+05 0.11808839D+01  1  2  2  2  7  2        3 0.465302796077D-04 0.100000000000D+01
-.110636898363D-06 0.000000000000D+00 -.932186698310D-08 0.501280382183D-08 0.000000000000D+00  7 -3 3 23 -11 11 23 21 2 0.10696555D+00 0.10290226D-01 0.21561213D+05 0.21561213D+05 0.21561213D+05 0.11808839D+01  1  2  3  2  7  2        3 -.295738715512D-05 0.100000000000D+01
0.151617512122D-06 0.000000000000D+00 0.000000000000D+00 0.501280382183D-08 0.000000000000D+00  7 -3 3 23 -11 11 23 21 2 0.10696555D+00 0.10290226D-01 0.21561213D+05 0.21561213D+05 0.21561213D+05 0.11808839D+01  1  2 15  2  7  2        3 0.405282224534D-05 0.100000000000D+01
0.171196775747D-05 0.000000000000D+00 0.000000000000D+00 0.501280382183D-08 0.000000000000D+00  7 -3 3 23 -11 11 23 21 2 0.10696555D+00 0.14014102D-01 0.33012744D+05 0.33012744D+05 0.33012744D+05 0.11634994D+01  1  2 12  2  7  2        3 0.270458850939D-04 0.100000000000D+01
-.249268104283D-05 0.000000000000D+00 0.000000000000D+00 0.501280382183D-08 0.000000000000D+00  7 -3 3 23 -11 11 23 21 2 0.10696555D+00 0.10290226D-01 0.21561213D+05 0.21561213D+05 0.21561213D+05 0.11808839D+01  1  2  4  2  7  2        3 -.666307805707D-04 0.100000000000D+01
-.290185860525D-05 0.000000000000D+00 -.113645809259D-05 0.501280382183D-08 0.000000000000D+00  7 -3 3 23 -11 11 23 21 2 0.10696555D+00 0.14886027D-01 0.21561213D+05 0.21561213D+05 0.21561213D+05 0.11808839D+01  1  2  5  2  7  2        3 -.423621682924D-04 0.100000000000D+01
0.317581881481D-05 0.000000000000D+00 0.106316082784D-05 0.501280382183D-08 0.000000000000D+00  7 -3 3 23 -11 11 23 21 2 0.10696555D+00 0.10290226D-01 0.21561213D+05 0.21561213D+05 0.21561213D+05 0.11808839D+01  1  2  6  2  7  2        3 0.848914413622D-04 0.100000000000D+01
0.675832748281D-07 0.000000000000D+00 0.000000000000D+00 0.501280382183D-08 0.000000000000D+00  7 -3 21 23 -11 11 23 -3 2 0.10696555D+00 0.14014102D-01 0.33012744D+05 0.33012744D+05 0.33012744D+05 0.11634994D+01  1  2 12  4  7  2        3 0.191137688200D-04 0.100000000000D+01
-.955889008960D-07 0.000000000000D+00 -.510290353695D-07 0.501280382183D-08 0.000000000000D+00  7 -3 21 23 -11 11 23 -3 2 0.10696555D+00 0.14886027D-01 0.21561213D+05 0.21561213D+05 0.21561213D+05 0.11808839D+01  1  2  5  4  7  2        3 -.251849801928D-04 0.100000000000D+01
  </mgrwgt>
  </event>
  <event>
  8     66 0.58687835E-06 0.18574967E+03 0.75467711E-02 0.93107596E-01
       -1 -1    0    0    0  501 0.00000000E+00 0.00000000E+00 0.65509204E+03 0.65509212E+03 0.32000000E+00 0.0000E+00 0.9000E+01
        1 -1    0    0  501    0 0.00000000E+00 0.00000000E+00 -.77538716E+02 0.77539376E+02 0.32000000E+00 0.0000E+00 0.9000E+01
       25  2    1    2    0    0 0.10847102E+01 0.13244472E+02 0.24478592E+03 0.38721769E+03 0.29973455E+03 0.0000E+00 0.0000E+00
       23  2    1    2    0    0 -.10847102E+01 -.13244472E+02 0.33276740E+03 0.34541381E+03 0.91651295E+02 0.0000E+00 0.0000E+00
       23  1    3    3    0    0 0.11164449E+03 0.20227466E+02 0.17511090E+03 0.22771193E+03 0.91188000E+02 0.0000E+00 0.9000E+01
      -11  1    4    4    0    0 0.34248109E+02 -.27925801E+02 0.25434651E+03 0.25815679E+03 0.51099893E-03 0.0000E+00 0.9000E+01
       11  1    4    4    0    0 -.35332819E+02 0.14681329E+02 0.78420896E+02 0.87257014E+02 0.51099893E-03 0.0000E+00 0.9000E+01
       23  1    3    3    0    0 -.11055978E+03 -.69829939E+01 0.69675021E+02 0.15950576E+03 0.91188000E+02 0.0000E+00 0.9000E+01
#aMCatNLO 1  0  0  1  2 0.51681755D+03 0.00000000D+00  -5  7  0 0.00000000D+00 0.00000000D+00 0.00000000D+00 0.00000000D+00 0.00000000D+00
  <mgrwgt>
 0.1976541905D-03    3    2    0
 0.225378051523534D+03 0.000000000000000D+00 0.000000000000000D+00 0.225378051523534D+03
 0.225378051523534D+03 0.000000000000000D+00 0.000000000000000D+00 -.225378051523534D+03
 0.145739674032989D+03 0.111644493862006D+03 0.202274655166916D+02 -.715247316033926D+01
 0.936983995410167D+02 0.342481091415252D+02 -.279258010982856D+02 0.826232820081433D+02
 0.413416197632296D+02 -.353328193716209D+02 0.146813294265160D+02 0.156582235956057D+02
 0.169976409709833D+03 -.110559783631911D+03 -.698299384492211D+01 -.911290324434097D+02
 0.000000000000000D+00 -.000000000000000D+00 -.000000000000000D+00 -.000000000000000D+00
 0.412025558889378D+03 0.000000000000000D+00 0.000000000000000D+00 0.412025558889378D+03
 0.130867780967728D+04 0.000000000000000D+00 0.000000000000000D+00 -.130867780967728D+04
 0.334961932173859D+03 0.279684719915993D+03 0.160029822954497D+03 -.715247316033926D+01
 0.152259443896595D+03 0.120228291186564D+03 0.436060721031129D+02 0.826232820081433D+02
 0.425194177244112D+02 -.601727826547953D+01 0.390706191367475D+02 0.156582235956057D+02
 0.156029900707146D+03 0.340316841598079D+01 0.878293599051152D+02 -.911290324434097D+02
 0.103493267406465D+04 -.397298901253058D+03 -.330535874099473D+03 -.896652250787900D+03
0.302924077732D-05 0.000000000000D+00 0.000000000000D+00 0.221079254241D-06 0.000000000000D+00  7 -1 1 23 -11 11 23 21 0 0.10078345D+00 0.11929090D-01 0.34502939D+05 0.34502939D+05 0.34502939D+05 0.11617424D+01  1  2  2  1  7  1       -1 0.195164675336D-03 0.100000000000D+01
-.160639367247D-06 0.000000000000D+00 -.116330822023D-07 0.221079254241D-06 0.000000000000D+00  7 -1 1 23 -11 11 23 21 2 0.10078345D+00 0.11929090D-01 0.34502939D+05 0.34502939D+05 0.34502939D+05 0.11617424D+01  1  2  3  1  7  1       -1 -.139681571205D-04 0.100000000000D+01
0.189269782168D-06 0.000000000000D+00 0.000000000000D+00 0.221079254241D-06 0.000000000000D+00  7 -1 1 23 -11 11 23 21 2 0.10078345D+00 0.11929090D-01 0.34502939D+05 0.34502939D+05 0.34502939D+05 0.11617424D+01  1  2 15  1  7  1       -1 0.164576722430D-04 0.100000000000D+01
  </mgrwgt>
  </event>
  <event>
  8     66 0.58687835E-06 0.39015023E+03 0.75467711E-02 0.94070901E-01
       -1 -1    0    0    0  501 0.00000000E+00 0.00000000E+00 0.10440084E+03 0.10440133E+03 0.32000000E+00 0.0000E+00 0.9000E+01
        1 -1    0    0  501    0 0.00000000E+00 0.00000000E+00 -.24747563E+04 0.24747564E+04 0.32000000E+00 0.0000E+00 0.9000E+01
       25  2    1    2    0    0 -.29484805E+03 -.26540477E+03 -.68677826E+03 0.84773910E+03 0.29936957E+03 0.0000E+00 0.0000E+00
       23  2    1    2    0    0 0.29484805E+03 0.26540477E+03 -.16835772E+04 0.17314186E+04 0.77478649E+02 0.0000E+00 0.0000E+00
       23  1    3    3    0    0 -.28275678E+03 -.13259424E+03 -.53448997E+03 0.62572151E+03 0.91188000E+02 0.0000E+00 0.9000E+01
      -13  1    4    4    0    0 0.10469597E+03 0.11361399E+03 -.51010802E+03 0.53299117E+03 0.10565837E+00 0.0000E+00 0.9000E+01
       13  1    4    4    0    0 0.19015208E+03 0.15179078E+03 -.11734692E+04 0.11984274E+04 0.10565837E+00 0.0000E+00 0.9000E+01
       23  1    3    3    0    0 -.12091266E+02 -.13281053E+03 -.15228830E+03 0.22201759E+03 0.91188000E+02 0.0000E+00 0.9000E+01
#aMCatNLO 1  0  0  2  1 0.15354195D+03 0.00000000D+00  -5  7  0 0.00000000D+00 0.00000000D+00 0.00000000D+00 0.00000000D+00 0.00000000D+00
  <mgrwgt>
 0.4721517253D-03    9    2    0
 0.508298432383119D+03 0.000000000000000D+00 0.000000000000000D+00 0.508298432383119D+03
 0.508298432383119D+03 0.000000000000000D+00 0.000000000000000D+00 -.508298432383119D+03
 0.341239700434847D+03 -.282756781762911D+03 -.132594244935153D+03 0.102940032961053D+03
 0.162828216891296D+03 0.104695806300876D+03 0.113613919098829D+03 -.514168624676105D+02
 0.304343196132539D+03 0.190152241078650D+03 0.151790854001687D+03 -.182828999030173D+03
 0.208185751307556D+03 -.120912656166156D+02 -.132810528165363D+03 0.131305828536730D+03
 0.000000000000000D+00 -.000000000000000D+00 -.000000000000000D+00 -.000000000000000D+00
 0.547028803522868D+03 0.000000000000000D+00 0.000000000000000D+00 0.547028803522868D+03
 0.692849674159819D+03 0.000000000000000D+00 0.000000000000000D+00 -.692849674159819D+03
 0.318764321520133D+03 -.275147833415617D+03 -.836209346447396D+02 0.102940032961053D+03
 0.184058890295237D+03 0.108694942659328D+03 0.139353474269523D+03 -.514168624676105D+02
 0.334858131284952D+03 0.197521362662840D+03 0.199220572464517D+03 -.182828999030173D+03
 0.190445261421818D+03 -.749559243192406D+01 -.103231495874089D+03 0.131305828536730D+03
 0.211751873160546D+03 -.235728794746272D+02 -.151721616215211D+03 -.145820870636952D+03
0.690289259775D-04 0.000000000000D+00 0.000000000000D+00 0.743008763668D-08 0.000000000000D+00  7 -1 1 23 -13 13 23 21 0 0.16061707D-01 0.38073178D+00 0.19567443D+06 0.19567443D+06 0.19567443D+06 0.10985554D+01  1  2  2  2  7  2        1 0.344327771510D-03 0.100000000000D+01
-.374489712283D-05 0.000000000000D+00 -.265089251487D-06 0.743008763668D-08 0.000000000000D+00  7 -1 1 23 -13 13 23 21 2 0.16061707D-01 0.38073178D+00 0.19567443D+06 0.19567443D+06 0.19567443D+06 0.10985554D+01  1  2  3  2  7  2        1 -.225436786405D-04 0.100000000000D+01
0.448362988693D-05 0.000000000000D+00 0.000000000000D+00 0.743008763668D-08 0.000000000000D+00  7 -1 1 23 -13 13 23 21 2 0.16061707D-01 0.38073178D+00 0.19567443D+06 0.19567443D+06 0.19567443D+06 0.10985554D+01  1  2 15  2  7  2        1 0.269907311199D-04 0.100000000000D+01
0.543274105315D-04 0.000000000000D+00 0.000000000000D+00 0.743008763668D-08 0.000000000000D+00  7 -1 1 23 -13 13 23 21 2 0.16061707D-01 0.52945698D+00 0.27585752D+06 0.27585752D+06 0.27585752D+06 0.10872579D+01  1  2 12  2  7  2        1 0.603610487188D-04 0.100000000000D+01
-.612555884584D-04 0.000000000000D+00 0.000000000000D+00 0.743008763668D-08 0.000000000000D+00  7 -1 1 23 -13 13 23 21 2 0.16061707D-01 0.38073178D+00 0.19567443D+06 0.19567443D+06 0.19567443D+06 0.10985554D+01  1  2  4  2  7  2        1 -.368748794920D-03 0.100000000000D+01
-.847748914684D-04 0.000000000000D+00 -.220556354935D-04 0.743008763668D-08 0.000000000000D+00  7 -1 1 23 -13 13 23 21 2 0.16061707D-01 0.52814153D+00 0.19567443D+06 0.19567443D+06 0.19567443D+06 0.10985554D+01  1  2  5  2  7  2        1 -.999402858915D-04 0.100000000000D+01
0.883499027673D-04 0.000000000000D+00 0.209250103726D-04 0.743008763668D-08 0.000000000000D+00  7 -1 1 23 -13 13 23 21 2 0.16061707D-01 0.38073178D+00 0.19567443D+06 0.19567443D+06 0.19567443D+06 0.10985554D+01  1  2  6  2  7  2        1 0.531852211311D-03 0.100000000000D+01
0.224823403472D-05 0.000000000000D+00 0.000000000000D+00 0.743008763668D-08 0.000000000000D+00  7 -1 21 23 -13 13 23 -1 2 0.16061707D-01 0.52945698D+00 0.27585752D+06 0.27585752D+06 0.27585752D+06 0.10872579D+01  1  2 12  4  7  2        1 0.354687270191D-06 0.100000000000D+01
-.292440328606D-05 0.000000000000D+00 -.907764826072D-06 0.743008763668D-08 0.000000000000D+00  7 -1 21 23 -13 13 23 -1 2 0.16061707D-01 0.52814153D+00 0.19567443D+06 0.19567443D+06 0.19567443D+06 0.10985554D+01  1  2  5  4  7  2        1 -.501965137086D-06 0.100000000000D+01
  </mgrwgt>
  </event>
  <event>
  9     66 -.58687835E-06 0.39451741E+03 0.75467711E-02 0.96852512E-01
       -1 -1    0    0    0  502 0.00000000E+00 0.00000000E+00 0.40589462E+03 0.40589475E+03 0.32000000E+00 0.0000E+00 0.9000E+01
        1 -1    0    0  501    0 0.00000000E+00 0.00000000E+00 -.53904782E+03 0.53904792E+03 0.32000000E+00 0.0000E+00 0.9000E+01
       25  2    1    2    0    0 -.28979457E+03 -.20687802E+03 0.91978658E+02 0.47455493E+03 0.29993816E+03 0.0000E+00 0.0000E+00
       23  2    1    2    0    0 0.26863502E+03 0.23468452E+03 -.23115578E+03 0.43492256E+03 0.92103415E+02 0.0000E+00 0.0000E+00
       23  1    3    3    0    0 -.12111618E+03 -.17617966E+03 -.45219058E+02 0.23678771E+03 0.91188000E+02 0.0000E+00 0.9000E+01
      -11  1    4    4    0    0 0.10881750E+03 0.50150920E+02 -.10885002E+03 0.16187863E+03 0.51099893E-03 0.0000E+00 0.9000E+01
       11  1    4    4    0    0 0.15981751E+03 0.18453360E+03 -.12230577E+03 0.27304393E+03 0.51099893E-03 0.0000E+00 0.9000E+01
       23  1    3    3    0    0 -.16867839E+03 -.30698353E+02 0.13719772E+03 0.23776722E+03 0.91188000E+02 0.0000E+00 0.9000E+01
       21  1    1    2  501  502 0.21159555E+02 -.27806509E+02 0.60239302E+01 0.35465179E+02 0.75000000E+00 0.0000E+00 0.9000E+01
#aMCatNLO 2  0  0  1  2 0.34941790D+02 0.00000000D+00  -5  7  0 0.00000000D+00 0.00000000D+00 0.00000000D+00 0.00000000D+00 0.00000000D+00
  <mgrwgt>
 -.2903483205D-04    3    2    0
 0.449042898818958D+03 0.000000000000000D+00 0.000000000000000D+00 0.449042898818958D+03
 0.449042898818958D+03 0.000000000000000D+00 0.000000000000000D+00 -.449042898818958D+03
 0.235384868190350D+03 -.115605147728829D+03 -.183421907946246D+03 -.909056285071534D+01
 0.148074431725113D+03 0.112291711250238D+03 0.455853441221653D+02 -.850798760957736D+02
 0.255605395558142D+03 0.165858131190298D+03 0.176595414688178D+03 -.814816425190793D+02
 0.259021102164310D+03 -.162544694711706D+03 -.387588508640964D+02 0.175652081465568D+03
 0.000000000000000D+00 0.000000000000000D+00 -.000000000000000D+00 0.000000000000000D+00
 0.473582933801740D+03 0.000000000000000D+00 0.000000000000000D+00 0.473582933801740D+03
 0.461995386460201D+03 0.000000000000000D+00 0.000000000000000D+00 -.461995386460201D+03
 0.232607595055317D+03 -.121116184354600D+03 -.176179662526235D+03 -.909056285071534D+01
 0.146952201124521D+03 0.108817504490718D+03 0.501509203831978D+02 -.850798760957736D+02
 0.257358788285799D+03 0.159817511678465D+03 0.184533603447263D+03 -.814816425190793D+02
 0.261846695569307D+03 -.168678386460900D+03 -.306983526321252D+02 0.175652081465568D+03
 0.368130402269966D+02 0.211595546463170D+02 -.278065086721003D+02 0.115875473415389D+02
-.182850500544D-04 0.000000000000D+00 0.000000000000D+00 0.682411879033D-06 0.000000000000D+00  7 -1 1 23 -11 11 23 21 2 0.63262609D-01 0.80604755D-01 0.17036251D+06 0.17036251D+06 0.17036251D+06 0.11032156D+01  1  2 13  1  7  1       -1 -.291920466491D-03 0.100000000000D+01
-.128332098056D-05 0.000000000000D+00 0.000000000000D+00 0.682411879033D-06 0.000000000000D+00  7 -1 1 23 -11 11 23 21 2 0.59209077D-01 0.80604755D-01 0.15564399D+06 0.15564399D+06 0.15564399D+06 0.11062882D+01  1  2  8  1  7  1       -1 -.233956537722D-04 0.100000000000D+01
0.182092161071D-04 0.000000000000D+00 0.000000000000D+00 0.682411879033D-06 0.363148274721D-08  7 -1 1 23 -11 11 23 21 2 0.62444832D-01 0.82929771D-01 0.17036251D+06 0.17036251D+06 0.17036251D+06 0.11032156D+01  1  2  1  1  7  1       -1 0.286281288212D-03 0.100000000000D+01
  </mgrwgt>
  </event>
  <event>
  8     66 0.58687835E-06 0.15411578E+03 0.75467711E-02 0.10450266E+00
       -1 -1    0    0    0  501 0.00000000E+00 0.00000000E+00 0.87532834E+02 0.87533419E+02 0.32000000E+00 0.0000E+00 0.9000E+01
        1 -1    0    0  501    0 0.00000000E+00 0.00000000E+00 -.82384211E+03 0.82384217E+03 0.32000000E+00 0.0000E+00 0.9000E+01
       25  2    1    2    0    0 0.11364174E+03 0.21617024E+02 -.66878952E+03 0.74195014E+03 0.29971461E+03 0.0000E+00 0.0000E+00
       23  2    1    2    0    0 -.11364174E+03 -.21617024E+02 -.67519754E+02 0.16942545E+03 0.10375127E+03 0.0000E+00 0.0000E+00
       23  1    3    3    0    0 -.24173731E+02 0.34573849E+01 -.48510161E+03 0.49420153E+03 0.91188000E+02 0.0000E+00 0.9000E+01
      -13  1    4    4    0    0 -.12980845E+03 -.22895937E+02 -.40467258E+02 0.13788426E+03 0.10565837E+00 0.0000E+00 0.9000E+01
       13  1    4    4    0    0 0.16166713E+02 0.12789138E+01 -.27052495E+02 0.31541194E+02 0.10565837E+00 0.0000E+00 0.9000E+01
       23  1    3    3    0    0 0.13781547E+03 0.18159639E+02 -.18368791E+03 0.24774861E+03 0.91188000E+02 0.0000E+00 0.9000E+01
#aMCatNLO 1  0  0  2  1 0.40179629D+02 0.00000000D+00  -5  7  0 0.00000000D+00 0.00000000D+00 0.00000000D+00 0.00000000D+00 0.00000000D+00
  <mgrwgt>
 0.2994570224D-03    9    2    0
 0.268539623146889D+03 0.000000000000000D+00 0.000000000000000D+00 0.268539623146889D+03
 0.268539623146889D+03 0.000000000000000D+00 0.000000000000000D+00 -.268539623146889D+03
 0.173565462015039D+03 -.241736872270025D+02 0.345739314061894D+01 -.145648197857084D+03
 0.178498863476483D+03 -.129808604774481D+03 -.228959680821744D+02 0.120363387433551D+03
 0.164346923758613D+02 0.161667812461514D+02 0.127892828146581D+01 -.266432732207410D+01
 0.168580228426394D+03 0.137815510755332D+03 0.181596466600897D+02 0.279491377456074D+02
 0.000000000000000D+00 0.000000000000000D+00 -.000000000000000D+00 -.000000000000000D+00
 0.286086929480807D+03 0.000000000000000D+00 0.000000000000000D+00 0.286086929480807D+03
 0.293318355585832D+03 0.000000000000000D+00 0.000000000000000D+00 -.293318355585832D+03
 0.175859348072240D+03 -.367082757599093D+02 0.709675363187812D+01 -.145648197857084D+03
 0.187846086828516D+03 -.142950153630254D+03 -.190803794352798D+02 0.120363387433551D+03
 0.153458044161761D+02 0.150267492874589D+02 0.160993135016217D+01 -.266432732207410D+01
 0.159528856278288D+03 0.126045561249873D+03 0.215769977045080D+02 0.279491377456074D+02
 0.408251894714180D+02 0.385861188528318D+02 -.112033032512684D+02 -.723142610502505D+01
0.167587151188D-05 0.000000000000D+00 0.000000000000D+00 0.603039262204D-08 0.000000000000D+00  7 -1 1 23 -13 13 23 21 0 0.13466640D-01 0.12674499D+00 0.41754427D+05 0.41754427D+05 0.41754427D+05 0.11542441D+01  1  2  2  2  7  2        1 0.154605650603D-03 0.100000000000D+01
-.846537407099D-07 0.000000000000D+00 -.643578787273D-08 0.603039262204D-08 0.000000000000D+00  7 -1 1 23 -13 13 23 21 2 0.13466640D-01 0.12674499D+00 0.41754427D+05 0.41754427D+05 0.41754427D+05 0.11542441D+01  1  2  3  2  7  2        1 -.104046168372D-04 0.100000000000D+01
0.108586521079D-06 0.000000000000D+00 0.000000000000D+00 0.603039262204D-08 0.000000000000D+00  7 -1 1 23 -13 13 23 21 2 0.13466640D-01 0.12674499D+00 0.41754427D+05 0.41754427D+05 0.41754427D+05 0.11542441D+01  1  2 15  2  7  2        1 0.133461455576D-04 0.100000000000D+01
0.230044193748D-05 0.000000000000D+00 0.000000000000D+00 0.603039262204D-08 0.000000000000D+00  7 -1 1 23 -13 13 23 21 2 0.13466640D-01 0.14225599D+00 0.51785118D+05 0.51785118D+05 0.51785118D+05 0.11459577D+01  1  2 12  2  7  2        1 0.231254758632D-03 0.100000000000D+01
-.203731254724D-05 0.000000000000D+00 0.000000000000D+00 0.603039262204D-08 0.000000000000D+00  7 -1 1 23 -13 13 23 21 2 0.13466640D-01 0.12674499D+00 0.41754427D+05 0.41754427D+05 0.41754427D+05 0.11542441D+01  1  2  4  2  7  2        1 -.250401887193D-03 0.100000000000D+01
-.636912196309D-05 0.000000000000D+00 -.160652972095D-05 0.603039262204D-08 0.000000000000D+00  7 -1 1 23 -13 13 23 21 2 0.13466640D-01 0.14494764D+00 0.41754427D+05 0.41754427D+05 0.41754427D+05 0.11542441D+01  1  2  5  2  7  2        1 -.630502904880D-03 0.100000000000D+01
0.654009195012D-05 0.000000000000D+00 0.159217194049D-05 0.603039262204D-08 0.000000000000D+00  7 -1 1 23 -13 13 23 21 2 0.13466640D-01 0.12674499D+00 0.41754427D+05 0.41754427D+05 0.41754427D+05 0.11542441D+01  1  2  6  2  7  2        1 0.803829225389D-03 0.100000000000D+01
0.422484045219D-07 0.000000000000D+00 0.000000000000D+00 0.603039262204D-08 0.000000000000D+00  7 -1 21 23 -13 13 23 -1 2 0.13466640D-01 0.14225599D+00 0.51785118D+05 0.51785118D+05 0.51785118D+05 0.11459577D+01  1  2 12  4  7  2        1 0.666481625505D-05 0.100000000000D+01
-.123528218491D-06 0.000000000000D+00 -.334580680939D-07 0.603039262204D-08 0.000000000000D+00  7 -1 21 23 -13 13 23 -1 2 0.13466640D-01 0.14494764D+00 0.41754427D+05 0.41754427D+05 0.41754427D+05 0.11542441D+01  1  2  5  4  7  2        1 -.189341651129D-04 0.100000000000D+01
  </mgrwgt>
  </event>
  <event>
  7     66 0.58687835E-06 0.71366277E+03 0.75467711E-02 0.84146043E-01
       -1 -1    0    0    0  501 0.00000000E+00 0.00000000E+00 0.55065711E+03 0.55065720E+03 0.32000000E+00 0.0000E+00 0.9000E+01
        1 -1    0    0  501    0 0.00000000E+00 0.00000000E+00 -.16518595E+04 0.16518595E+04 0.32000000E+00 0.0000E+00 0.9000E+01
       23  2    1    2    0    0 -.34029224E+03 0.57704937E+03 -.12463143E+04 0.14179058E+04 0.91502423E+02 0.0000E+00 0.0000E+00
       23  1    1    2    0    0 0.26276434E+03 -.57238551E+03 0.17722146E+03 0.66060047E+03 0.91188000E+02 0.0000E+00 0.9000E+01
      -13  1    3    3    0    0 -.21524882E+03 0.40252404E+03 -.92450629E+03 0.10310526E+04 0.10565837E+00 0.0000E+00 0.9000E+01
       13  1    3    3    0    0 -.12504342E+03 0.17452532E+03 -.32180801E+03 0.38685314E+03 0.10565837E+00 0.0000E+00 0.9000E+01
       23  1    1    2    0    0 0.77527896E+02 -.46638541E+01 -.32109558E+02 0.12401049E+03 0.91188000E+02 0.0000E+00 0.9000E+01
#aMCatNLO 1  0  0  1  2 0.10539761D+04 0.00000000D+00  -5  7  0 0.00000000D+00 0.00000000D+00 0.00000000D+00 0.00000000D+00 0.00000000D+00
  <mgrwgt>
 0.8269478687D-03    3    2    0
 0.953733880552332D+03 0.000000000000000D+00 0.000000000000000D+00 0.953733880552332D+03
 0.953733880552332D+03 0.000000000000000D+00 0.000000000000000D+00 -.953733880552332D+03
 0.865094623236328D+03 0.262764370048393D+03 -.572385426008968D+03 0.586006199398955D+03
 0.656809658661712D+03 -.215248955175354D+03 0.402524374188361D+03 -.472272107149577D+03
 0.260908101346969D+03 -.125043307714199D+03 0.174525031432044D+03 -.148250537766365D+03
 0.124655377859655D+03 0.775278928411602D+02 -.466397961143636D+01 0.345164455169865D+02
 0.000000000000000D+00 0.000000000000000D+00 0.000000000000000D+00 -.000000000000000D+00
 0.154499920509942D+04 0.000000000000000D+00 0.000000000000000D+00 0.154499920509942D+04
 0.169953434923121D+04 0.000000000000000D+00 0.000000000000000D+00 -.169953434923121D+04
 0.105401655456240D+04 -.140018320075917D+03 -.860015843026573D+03 0.586006199398955D+03
 0.717942648985640D+03 -.503781708845177D+03 0.196480772275688D+03 -.472272107149577D+03
 0.298274385243960D+03 -.242404421976396D+03 0.907164987801857D+02 -.148250537766365D+03
 0.109055035790683D+03 0.284767955367698D+02 -.396917698287335D+02 0.345164455169865D+02
 0.106524492974794D+04 0.857727655360721D+03 0.612510341799433D+03 -.154535144131793D+03
0.910694964898D-03 0.000000000000D+00 0.000000000000D+00 0.115956793256D-08 0.000000000000D+00  7 -1 1 23 -13 13 23 21 0 0.84716488D-01 0.25413224D+00 0.50931455D+06 0.50931455D+06 0.50931455D+06 0.10679443D+01  1  2  2  1  7  1       -1 0.813533426529D-03 0.100000000000D+01
-.454216650450D-04 0.000000000000D+00 -.349730845670D-05 0.115956793256D-08 0.000000000000D+00  7 -1 1 23 -13 13 23 21 2 0.84716488D-01 0.25413224D+00 0.50931455D+06 0.50931455D+06 0.50931455D+06 0.10679443D+01  1  2  3  1  7  1       -1 -.462767382165D-04 0.100000000000D+01
0.585882433440D-04 0.000000000000D+00 0.000000000000D+00 0.115956793256D-08 0.000000000000D+00  7 -1 1 23 -13 13 23 21 2 0.84716488D-01 0.25413224D+00 0.50931455D+06 0.50931455D+06 0.50931455D+06 0.10679443D+01  1  2 15  1  7  1       -1 0.596911803456D-04 0.100000000000D+01
  </mgrwgt>
  </event>
  <event>
  8     66 0.58687835E-06 0.87060625E+02 0.75467711E-02 0.10722830E+00
       -1 -1    0    0    0  501 0.00000000E+00 0.00000000E+00 0.42269925E+03 0.42269938E+03 0.32000000E+00 0.0000E+00 0.9000E+01
        1 -1    0    0  501    0 0.00000000E+00 0.00000000E+00 -.13389260E+03 0.13389298E+03 0.32000000E+00 0.0000E+00 0.9000E+01
       25  2    1    2    0    0 -.15033716E+02 -.55550523E+02 0.59277639E+02 0.30328718E+03 0.29181741E+03 0.0000E+00 0.0000E+00
       23  2    1    2    0    0 0.15033716E+02 0.55550523E+02 0.22952902E+03 0.25330518E+03 0.90377389E+02 0.0000E+00 0.0000E+00
       23  1    3    3    0    0 -.98545714E+02 0.32097767E+02 0.62851289E+02 0.15168078E+03 0.91188000E+02 0.0000E+00 0.9000E+01
      -13  1    4    4    0    0 -.10244152E+01 0.44922350E+02 0.22969357E+03 0.23404746E+03 0.10565837E+00 0.0000E+00 0.9000E+01
       13  1    4    4    0    0 0.16058131E+02 0.10628172E+02 -.16455167E+00 0.19257722E+02 0.10565837E+00 0.0000E+00 0.9000E+01
       23  1    3    3    0    0 0.83511998E+02 -.87648289E+02 -.35736501E+01 0.15160639E+03 0.91188000E+02 0.0000E+00 0.9000E+01
#aMCatNLO 1  0  0  2  1 0.25218467D+02 0.00000000D+00  -5  7  0 0.00000000D+00 0.00000000D+00 0.00000000D+00 0.00000000D+00 0.00000000D+00
  <mgrwgt>
 0.2657836839D-03    9    2    0
 0.237900068718471D+03 0.000000000000000D+00 0.000000000000000D+00 0.237900068718471D+03
 0.237900068718471D+03 0.000000000000000D+00 0.000000000000000D+00 -.237900068718471D+03
 0.139286401523112D+03 -.985456982904710D+02 0.320977508622399D+02 -.185453509884962D+02
 0.134367509332900D+03 -.102443557215190D+01 0.449224067942025D+02 0.126631573724335D+03
 0.226274657342370D+02 0.160581544749300D+02 0.106281271421987D+02 -.118819524432062D+02
 0.179518760846693D+03 0.835119793876928D+02 -.876482847986412D+02 -.962042702926324D+02
 0.000000000000000D+00 -.000000000000000D+00 0.000000000000000D+00 -.000000000000000D+00
 0.244180983566322D+03 0.000000000000000D+00 0.000000000000000D+00 0.244180983566322D+03
 0.264968989687638D+03 0.000000000000000D+00 0.000000000000000D+00 -.264968989687638D+03
 0.136583372453723D+03 -.968022809035774D+02 0.250030929168945D+02 -.185453509884962D+02
 0.132230956521223D+03 0.660389822051167D+00 0.380661829436415D+02 0.126631573724335D+03
 0.223152950410095D+02 0.163421797576605D+02 0.947231543356757D+01 -.118819524432062D+02
 0.185338362175034D+03 0.858177711489224D+02 -.970314674846114D+02 -.962042702926324D+02
 0.326819870629713D+02 -.601805982505670D+01 0.244898761905078D+02 -.207880061213157D+02
0.282946536632D-05 0.000000000000D+00 0.000000000000D+00 0.149744915647D-08 0.000000000000D+00  7 -1 1 23 -13 13 23 21 0 0.65030693D-01 0.20598900D-01 0.31293846D+05 0.31293846D+05 0.31293846D+05 0.11656383D+01  1  2  2  2  7  2        1 0.216200357178D-03 0.100000000000D+01
-.140417375854D-06 0.000000000000D+00 -.108658920220D-07 0.149744915647D-08 0.000000000000D+00  7 -1 1 23 -13 13 23 21 2 0.65030693D-01 0.20598900D-01 0.31293846D+05 0.31293846D+05 0.31293846D+05 0.11656383D+01  1  2  3  2  7  2        1 -.145780864029D-04 0.100000000000D+01
0.178375677651D-06 0.000000000000D+00 0.000000000000D+00 0.149744915647D-08 0.000000000000D+00  7 -1 1 23 -13 13 23 21 2 0.65030693D-01 0.20598900D-01 0.31293846D+05 0.31293846D+05 0.31293846D+05 0.11656383D+01  1  2 15  2  7  2        1 0.185189049800D-04 0.100000000000D+01
0.869512357904D-05 0.000000000000D+00 0.000000000000D+00 0.149744915647D-08 0.000000000000D+00  7 -1 1 23 -13 13 23 21 2 0.65030693D-01 0.23193799D-01 0.35327446D+05 0.35327446D+05 0.35327446D+05 0.11608060D+01  1  2 12  2  7  2        1 0.768827596004D-03 0.100000000000D+01
-.879214966037D-05 0.000000000000D+00 0.000000000000D+00 0.149744915647D-08 0.000000000000D+00  7 -1 1 23 -13 13 23 21 2 0.65030693D-01 0.20598900D-01 0.31293846D+05 0.31293846D+05 0.31293846D+05 0.11656383D+01  1  2  4  2  7  2        1 -.912798125139D-03 0.100000000000D+01
-.165911062843D-04 0.000000000000D+00 -.310749283073D-05 0.149744915647D-08 0.000000000000D+00  7 -1 1 23 -13 13 23 21 2 0.65030693D-01 0.23484912D-01 0.31293846D+05 0.31293846D+05 0.31293846D+05 0.11656383D+01  1  2  5  2  7  2        1 -.145612091141D-02 0.100000000000D+01
0.168797736784D-04 0.000000000000D+00 0.308096994987D-05 0.149744915647D-08 0.000000000000D+00  7 -1 1 23 -13 13 23 21 2 0.65030693D-01 0.20598900D-01 0.31293846D+05 0.31293846D+05 0.31293846D+05 0.11656383D+01  1  2  6  2  7  2        1 0.175245262668D-02 0.100000000000D+01
0.163412669083D-06 0.000000000000D+00 0.000000000000D+00 0.149744915647D-08 0.000000000000D+00  7 -1 21 23 -13 13 23 -1 2 0.65030693D-01 0.23193799D-01 0.35327446D+05 0.35327446D+05 0.35327446D+05 0.11608060D+01  1  2 12  4  7  2        1 0.112641829668D-03 0.100000000000D+01
-.322063691087D-06 0.000000000000D+00 -.634885435290D-07 0.149744915647D-08 0.000000000000D+00  7 -1 21 23 -13 13 23 -1 2 0.65030693D-01 0.23484912D-01 0.31293846D+05 0.31293846D+05 0.31293846D+05 0.11656383D+01  1  2  5  4  7  2        1 -.219360507647D-03 0.100000000000D+01
  </mgrwgt>
  </event>
  <event>
  7     66 0.58687835E-06 0.41552245E+03 0.75467711E-02 0.94311462E-01
       -1 -1    0    0    0  501 0.00000000E+00 0.00000000E+00 0.16315231E+03 0.16315262E+03 0.32000000E+00 0.0000E+00 0.9000E+01
        1 -1    0    0  501    0 0.00000000E+00 0.00000000E+00 -.15694704E+04 0.15694705E+04 0.32000000E+00 0.0000E+00 0.9000E+01
       25  2    1    2    0    0 -.19935672E+03 -.26538204E+03 -.35729630E+03 0.57191099E+03 0.29874875E+03 0.0000E+00 0.0000E+00
       23  1    3    3    0    0 -.77472634E+02 -.32398407E+02 -.65089537E+01 0.12413414E+03 0.91188000E+02 0.0000E+00 0.9000E+01
      -13  1    1    2    0    0 0.15544661E+03 0.32174710E+03 -.54530311E+03 0.65195118E+03 0.10565837E+00 0.0000E+00 0.9000E+01
       13  1    1    2    0    0 0.43910102E+02 -.56365061E+02 -.50371872E+03 0.50876093E+03 0.10565837E+00 0.0000E+00 0.9000E+01
       23  1    3    3    0    0 -.12188408E+03 -.23298363E+03 -.35078734E+03 0.44777685E+03 0.91188000E+02 0.0000E+00 0.9000E+01
#aMCatNLO 1  0  0  1  1 0.17608341D+03 0.00000000D+00  -5  7  0 0.00000000D+00 0.00000000D+00 0.00000000D+00 0.00000000D+00 0.00000000D+00
  <mgrwgt>
 0.2140611473D-02    4    2    0
 0.506026706672611D+03 0.000000000000000D+00 0.000000000000000D+00 0.506026706672611D+03
 0.506026706672611D+03 0.000000000000000D+00 0.000000000000000D+00 -.506026706672611D+03
 0.203473783554719D+03 -.774743742906612D+02 -.324007236094398D+02 0.161351305194373D+03
 0.358394995457655D+03 0.155448481234610D+03 0.321744362456744D+03 -.276280234227604D+02
 0.171035501173167D+03 0.439123611442410D+02 -.563568312645211D+02 -.155398696166076D+03
 0.279149133159682D+03 -.121886468088190D+03 -.232986807582783D+03 0.216754143944627D+02
 0.000000000000000D+00 0.000000000000000D+00 0.000000000000000D+00 -.000000000000000D+00
 0.545142991486567D+03 0.000000000000000D+00 0.000000000000000D+00 0.545142991486567D+03
 0.759590817973714D+03 0.000000000000000D+00 0.000000000000000D+00 -.759590817973714D+03
 0.220976722478970D+03 -.113021235276594D+03 -.413209053890725D+02 0.161351305194373D+03
 0.323921490502685D+03 0.983058723083353D+02 0.307404911803519D+03 -.276280234227604D+02
 0.168581104722852D+03 0.154701656310096D+02 -.634941578006188D+02 -.155398696166076D+03
 0.313777941703928D+03 -.171542896824547D+03 -.245447665126041D+03 0.216754143944627D+02
 0.277476550051846D+03 0.170788094161797D+03 0.428578165122125D+02 -.214447826487147D+03
0.238361103545D-03 0.000000000000D+00 0.000000000000D+00 0.264136540996D-10 0.000000000000D+00  7 -1 1 23 -13 13 23 21 0 0.25100382D-01 0.24145702D+00 0.17265891D+06 0.17265891D+06 0.17265891D+06 0.11027625D+01  1  2  2  1  7  1       -1 0.233119144584D-02 0.100000000000D+01
-.126170970402D-04 0.000000000000D+00 -.915369399533D-06 0.264136540996D-10 0.000000000000D+00  7 -1 1 23 -13 13 23 21 2 0.25100382D-01 0.24145702D+00 0.17265891D+06 0.17265891D+06 0.17265891D+06 0.11027625D+01  1  2  3  1  7  1       -1 -.150060345645D-03 0.100000000000D+01
0.154540580075D-04 0.000000000000D+00 0.000000000000D+00 0.264136540996D-10 0.000000000000D+00  7 -1 1 23 -13 13 23 21 2 0.25100382D-01 0.24145702D+00 0.17265891D+06 0.17265891D+06 0.17265891D+06 0.11027625D+01  1  2 15  1  7  1       -1 0.183801494024D-03 0.100000000000D+01
-.188609545370D-04 0.000000000000D+00 0.000000000000D+00 0.264136540996D-10 0.000000000000D+00  7 -1 1 23 -13 13 23 21 2 0.25100382D-01 0.24145702D+00 0.17265891D+06 0.17265891D+06 0.17265891D+06 0.11027625D+01  1  2  4  1  7  1       -1 -.224321121413D-03 0.100000000000D+01
  </mgrwgt>
  </event>
  <event>
  7     66 0.58687835E-06 0.40386162E+03 0.75467711E-02 0.89914997E-01
       -1 -1    0    0    0  501 0.00000000E+00 0.00000000E+00 0.19420795E+03 0.19420821E+03 0.32000000E+00 0.0000E+00 0.9000E+01
        1 -1    0    0  501    0 0.00000000E+00 0.00000000E+00 -.91427340E+03 0.91427345E+03 0.32000000E+00 0.0000E+00 0.9000E+01
       23  2    1    2    0    0 0.34078952E+03 -.10302452E+03 -.31746377E+03 0.48506483E+03 0.88051683E+02 0.0000E+00 0.0000E+00
       23  1    1    2    0    0 -.32838339E+03 0.11023645E+03 -.39118345E+03 0.53040312E+03 0.91188000E+02 0.0000E+00 0.9000E+01
      -13  1    3    3    0    0 0.15856434E+02 -.11670065E+02 0.26632659E+01 0.19867588E+02 0.10565837E+00 0.0000E+00 0.9000E+01
       13  1    3    3    0    0 0.32493308E+03 -.91354458E+02 -.32012703E+03 0.46519724E+03 0.10565837E+00 0.0000E+00 0.9000E+01
       23  1    1    2    0    0 -.12406129E+02 -.72119291E+01 -.11418231E+02 0.93013716E+02 0.91188000E+02 0.0000E+00 0.9000E+01
#aMCatNLO 1  0  0  2  1 0.56661160D+03 0.00000000D+00  -5  7  0 0.00000000D+00 0.00000000D+00 0.00000000D+00 0.00000000D+00 0.00000000D+00
  <mgrwgt>
 0.3716340684D-03    5    2    0
 0.421377903340619D+03 0.000000000000000D+00 0.000000000000000D+00 0.421377903340619D+03
 0.421377903340619D+03 0.000000000000000D+00 0.000000000000000D+00 -.421377903340619D+03
 0.363408287538341D+03 -.328383387538922D+03 0.110236452136521D+03 -.613400971336407D+02
 0.284070506160711D+02 0.158559888340856D+02 -.116699504763250D+02 0.204782909120242D+02
 0.338354919892685D+03 0.324933528220858D+03 -.913545725883825D+02 -.235922894337051D+02
 0.112585548634141D+03 -.124061295160225D+02 -.721192907181392D+01 0.644540956553215D+02
 0.000000000000000D+00 0.000000000000000D+00 -.000000000000000D+00 -.000000000000000D+00
 0.632856681030658D+03 0.000000000000000D+00 0.000000000000000D+00 0.632856681030658D+03
 0.114936900194204D+04 0.000000000000000D+00 0.000000000000000D+00 -.114936900194204D+04
 0.587621154814380D+03 -.434416324286005D+03 0.380135791420458D+03 -.613400971336407D+02
 0.230297501987010D+02 0.101211558159063D+02 0.292766126579134D+01 0.204782909120242D+02
 0.270668907081503D+03 0.257031755628764D+03 0.814845858943089D+02 -.235922894337051D+02
 0.134202742560642D+03 -.399212474554229D+02 0.628258571103933D+02 0.644540956553215D+02
 0.766703128317468D+03 0.207184660296758D+03 -.527373895690951D+03 -.516512320911378D+03
0.173180091812D-04 0.000000000000D+00 0.000000000000D+00 0.546016279704D-09 0.000000000000D+00  7 -1 1 23 -13 13 23 21 0 0.29878170D-01 0.14065747D+00 0.16310421D+06 0.16310421D+06 0.16310421D+06 0.11046929D+01  1  2  2  2  7  2        1 0.369444372966D-03 0.100000000000D+01
-.960002889269D-06 0.000000000000D+00 -.665057151925D-07 0.546016279704D-09 0.000000000000D+00  7 -1 1 23 -13 13 23 21 2 0.29878170D-01 0.14065747D+00 0.16310421D+06 0.16310421D+06 0.16310421D+06 0.11046929D+01  1  2  3  2  7  2        1 -.249923292706D-04 0.100000000000D+01
0.111615690951D-05 0.000000000000D+00 0.000000000000D+00 0.546016279704D-09 0.000000000000D+00  7 -1 1 23 -13 13 23 21 2 0.29878170D-01 0.14065747D+00 0.16310421D+06 0.16310421D+06 0.16310421D+06 0.11046929D+01  1  2 15  2  7  2        1 0.290575802552D-04 0.100000000000D+01
-.164879758730D-05 0.000000000000D+00 -.517113520112D-05 0.546016279704D-09 0.000000000000D+00  7 -1 1 23 -13 13 23 21 2 0.29878170D-01 0.44462152D+00 0.16310421D+06 0.16310421D+06 0.16310421D+06 0.11046929D+01  1  2  5  2  7  2        1 -.187921193759D-05 0.100000000000D+01
0.126939269188D-07 0.000000000000D+00 -.683839517703D-06 0.546016279704D-09 0.000000000000D+00  7 -1 21 23 -13 13 23 -1 2 0.29878170D-01 0.44462152D+00 0.16310421D+06 0.16310421D+06 0.16310421D+06 0.11046929D+01  1  2  5  4  7  2        1 0.365642575461D-08 0.100000000000D+01
  </mgrwgt>
  </event>
  <event>
  8     66 0.58687835E-06 0.32729931E+03 0.75467711E-02 0.92550216E-01
       -1 -1    0    0    0  501 0.00000000E+00 0.00000000E+00 0.49971630E+02 0.49972654E+02 0.32000000E+00 0.0000E+00 0.9000E+01
        1 -1    0    0  501    0 0.00000000E+00 0.00000000E+00 -.26968820E+04 0.26968821E+04 0.32000000E+00 0.0000E+00 0.9000E+01
       25  2    1    2    0    0 -.13207699E+03 0.24788815E+03 -.11540445E+04 0.12249268E+04 0.29955613E+03 0.0000E+00 0.0000E+00
       23  2    1    2    0    0 0.13207699E+03 -.24788815E+03 -.14928659E+04 0.15219280E+04 0.93398887E+02 0.0000E+00 0.0000E+00
       23  1    3    3    0    0 0.10198950E+02 0.41742669E+02 -.11826440E+03 0.15539687E+03 0.91188000E+02 0.0000E+00 0.9000E+01
      -13  1    4    4    0    0 -.41202280E+01 0.30012409E+00 -.23282544E+01 0.47432357E+01 0.10565837E+00 0.0000E+00 0.9000E+01
       13  1    4    4    0    0 0.13619722E+03 -.24818828E+03 -.14905376E+04 0.15171847E+04 0.10565837E+00 0.0000E+00 0.9000E+01
       23  1    3    3    0    0 -.14227594E+03 0.20614548E+03 -.10357801E+04 0.10695299E+04 0.91188000E+02 0.0000E+00 0.9000E+01
#aMCatNLO 1  0  0  2  1 0.42258781D+03 0.00000000D+00  -5  7  0 0.00000000D+00 0.00000000D+00 0.00000000D+00 0.00000000D+00 0.00000000D+00
  <mgrwgt>
 0.3637176973D-03    3    2    0
 0.367109009089779D+03 0.000000000000000D+00 0.000000000000000D+00 0.367109009089779D+03
 0.367109009089779D+03 0.000000000000000D+00 0.000000000000000D+00 -.367109009089779D+03
 0.155018487415709D+03 0.101989499229862D+02 0.417426695482561D+02 0.117766765499049D+03
 0.935147639381503D+01 -.412040705611569D+01 0.300441620108884D+00 0.838940351091170D+01
 0.302589638950193D+03 0.136197399895011D+03 -.248188594979088D+03 -.106832481877719D+03
 0.267258415419841D+03 -.142275942761882D+03 0.206145483810723D+03 -.193236871322416D+02
 0.000000000000000D+00 -.000000000000000D+00 -.000000000000000D+00 0.000000000000000D+00
 0.656023456932011D+03 0.000000000000000D+00 0.000000000000000D+00 0.656023456932011D+03
 0.615636039059124D+03 0.000000000000000D+00 0.000000000000000D+00 -.615636039059124D+03
 0.200418934498333D+03 0.750754484307820D+02 0.111117793121787D+03 0.117766765499049D+03
 0.929626649628878D+01 -.716712933902099D+00 0.394015254419173D+01 0.838940351091170D+01
 0.298337973392519D+03 0.245882190920964D+03 -.130898110649882D+03 -.106832481877719D+03
 0.339092950512526D+03 -.316011767924604D+02 0.324494589298862D+03 -.193236871322416D+02
 0.424513371091468D+03 -.288639749625384D+03 -.308654424314959D+03 0.403874178728866D+02
0.318840736291D-04 0.000000000000D+00 0.000000000000D+00 0.203213399638D-06 0.000000000000D+00  7 -1 1 23 -13 13 23 21 0 0.76880233D-02 0.41490501D+00 0.10712484D+06 0.10712484D+06 0.10712484D+06 0.11192774D+01  1  2  2  2  7  2        1 0.358786118139D-03 0.100000000000D+01
-.174296191679D-05 0.000000000000D+00 -.122443238005D-06 0.203213399638D-06 0.000000000000D+00  7 -1 1 23 -13 13 23 21 2 0.76880233D-02 0.41490501D+00 0.10712484D+06 0.10712484D+06 0.10712484D+06 0.11192774D+01  1  2  3  2  7  2        1 -.245711351047D-04 0.100000000000D+01
0.209278517669D-05 0.000000000000D+00 0.000000000000D+00 0.203213399638D-06 0.000000000000D+00  7 -1 1 23 -13 13 23 21 2 0.76880233D-02 0.41490501D+00 0.10712484D+06 0.10712484D+06 0.10712484D+06 0.11192774D+01  1  2 15  2  7  2        1 0.295027142166D-04 0.100000000000D+01
  </mgrwgt>
  </event>
  <event>
  8     66 0.58687835E-06 0.22085347E+03 0.75467711E-02 0.93140936E-01
       -1 -1    0    0    0  501 0.00000000E+00 0.00000000E+00 0.10179145E+04 0.10179145E+04 0.32000000E+00 0.0000E+00 0.9000E+01
        1 -1    0    0  501    0 0.00000000E+00 0.00000000E+00 -.64643254E+02 0.64644046E+02 0.32000000E+00 0.0000E+00 0.9000E+01
       25  2    1    2    0    0 0.13693839E+03 0.60415181E+02 0.66497416E+03 0.74498154E+03 0.30067381E+03 0.0000E+00 0.0000E+00
       23  2    1    2    0    0 -.13693839E+03 -.60415181E+02 0.28829705E+03 0.33757703E+03 0.91874602E+02 0.0000E+00 0.0000E+00
       23  1    3    3    0    0 0.13451350E+03 0.87604399E+02 0.60484748E+03 0.63239556E+03 0.91188000E+02 0.0000E+00 0.9000E+01
      -13  1    4    4    0    0 -.13634285E+03 -.69337378E+02 0.29055081E+03 0.32835472E+03 0.10565837E+00 0.0000E+00 0.9000E+01
       13  1    4    4    0    0 -.59554109E+00 0.89221971E+01 -.22537535E+01 0.92223012E+01 0.10565837E+00 0.0000E+00 0.9000E+01
       23  1    3    3    0    0 0.24248869E+01 -.27189218E+02 0.60126674E+02 0.11258598E+03 0.91188000E+02 0.0000E+00 0.9000E+01
#aMCatNLO 1  0  0  2  1 0.48279972D+03 0.00000000D+00  -5  7  0 0.00000000D+00 0.00000000D+00 0.00000000D+00 0.00000000D+00 0.00000000D+00
  <mgrwgt>
 0.2922686008D-03    3    2    0
 0.256518536181477D+03 0.000000000000000D+00 0.000000000000000D+00 0.256518536181477D+03
 0.256518536181477D+03 0.000000000000000D+00 0.000000000000000D+00 -.256518536181477D+03
 0.210553073855246D+03 0.134513502091638D+03 0.876043979954646D+02 0.101237012859863D+03
 0.152990096078942D+03 -.136343030663657D+03 -.693374832149028D+02 0.297672792109067D+01
 0.236474747697940D+02 -.595363004533368D+00 0.892229963436144D+01 -.218915777210221D+02
 0.125846427658971D+03 0.242489157655265D+01 -.271892144149232D+02 -.823221630599312D+02
 0.000000000000000D+00 -.000000000000000D+00 -.000000000000000D+00 0.000000000000000D+00
 0.757373390667310D+03 0.000000000000000D+00 0.000000000000000D+00 0.757373390667310D+03
 0.496083846183647D+03 0.000000000000000D+00 0.000000000000000D+00 -.496083846183647D+03
 0.386434753788913D+03 0.163477318246274D+03 0.322556663608297D+03 0.101237012859863D+03
 0.129622580279801D+03 -.122631626139169D+03 0.418883835894898D+02 0.297672792109067D+01
 0.407368267656052D+02 0.252834402358968D+01 0.342615725896194D+02 -.218915777210221D+02
 0.147693317579077D+03 0.156961083839803D+02 0.804658832316313D+02 -.823221630599312D+02
 0.548969758437561D+03 -.590701445146750D+02 -.479172503019038D+03 0.261289544483663D+03
0.105957383058D-04 0.000000000000D+00 0.000000000000D+00 0.112953228800D-06 0.000000000000D+00  7 -1 1 23 -13 13 23 21 0 0.15660229D+00 0.99451808D-02 0.48776256D+05 0.48776256D+05 0.48776256D+05 0.11482432D+01  1  2  2  2  7  2        1 0.288369839878D-03 0.100000000000D+01
-.572612572632D-06 0.000000000000D+00 -.406904250163D-07 0.112953228800D-06 0.000000000000D+00  7 -1 1 23 -13 13 23 21 2 0.15660229D+00 0.99451808D-02 0.48776256D+05 0.48776256D+05 0.48776256D+05 0.11482432D+01  1  2  3  2  7  2        1 -.205469439140D-04 0.100000000000D+01
0.681265202916D-06 0.000000000000D+00 0.000000000000D+00 0.112953228800D-06 0.000000000000D+00  7 -1 1 23 -13 13 23 21 2 0.15660229D+00 0.99451808D-02 0.48776256D+05 0.48776256D+05 0.48776256D+05 0.11482432D+01  1  2 15  2  7  2        1 0.244457047991D-04 0.100000000000D+01
  </mgrwgt>
  </event>
  <event>
  8     66 0.58687835E-06 0.88507166E+03 0.75467711E-02 0.88111156E-01
       -1 -1    0    0    0  501 0.00000000E+00 0.00000000E+00 0.66009337E+03 0.66009345E+03 0.32000000E+00 0.0000E+00 0.9000E+01
        1 -1    0    0  501    0 0.00000000E+00 0.00000000E+00 -.12321462E+04 0.12321462E+04 0.32000000E+00 0.0000E+00 0.9000E+01
       25  2    1    2    0    0 -.81577188E+03 0.28585211E+03 -.15219738E+03 0.92698946E+03 0.29824523E+03 0.0000E+00 0.0000E+00
       23  2    1    2    0    0 0.81577188E+03 -.28585211E+03 -.41985540E+03 0.96525019E+03 0.90742329E+02 0.0000E+00 0.0000E+00
       23  1    3    3    0    0 -.39060486E+03 0.24204844E+03 -.14313216E+03 0.48985883E+03 0.91188000E+02 0.0000E+00 0.9000E+01
      -13  1    4    4    0    0 0.58979837E+02 -.15372054E+02 -.59146036E+01 0.61236549E+02 0.10565837E+00 0.0000E+00 0.9000E+01
       13  1    4    4    0    0 0.75679205E+03 -.27048005E+03 -.41394080E+03 0.90401364E+03 0.10565837E+00 0.0000E+00 0.9000E+01
       23  1    3    3    0    0 -.42516702E+03 0.43803669E+02 -.90652256E+01 0.43713063E+03 0.91188000E+02 0.0000E+00 0.9000E+01
#aMCatNLO 1  0  0  1  1 0.82870457D+02 0.00000000D+00  -5  7  0 0.00000000D+00 0.00000000D+00 0.00000000D+00 0.00000000D+00 0.00000000D+00
  <mgrwgt>
 0.2367760411D-03    4    2    0
 0.901849000771576D+03 0.000000000000000D+00 0.000000000000000D+00 0.901849000771576D+03
 0.901849000771576D+03 0.000000000000000D+00 0.000000000000000D+00 -.901849000771576D+03
 0.468510327608348D+03 -.390604860853257D+03 0.242048438324263D+03 0.520306777528427D+01
 0.623657147472308D+02 0.589788912669864D+02 -.153717085097690D+02 0.132167824503798D+02
 0.817108130556002D+03 0.756792992816181D+03 -.270480398519818D+03 -.147548016122253D+03
 0.455713828631572D+03 -.425167023229910D+03 0.438036687053241D+02 0.129128165896589D+03
 0.000000000000000D+00 -.000000000000000D+00 -.000000000000000D+00 -.000000000000000D+00
 0.916587017646104D+03 0.000000000000000D+00 0.000000000000000D+00 0.916587017646104D+03
 0.102733226933198D+04 0.000000000000000D+00 0.000000000000000D+00 -.102733226933198D+04
 0.460112608917078D+03 -.372785504907518D+03 0.253756294418588D+03 0.520306777528427D+01
 0.643083815671378D+02 0.614096419221193D+02 -.137746317715220D+02 0.132167824503798D+02
 0.840205736976708D+03 0.788595207211052D+03 -.249585381284078D+03 -.147548016122253D+03
 0.440974001774580D+03 -.407960470393723D+03 0.551088946124168D+02 0.129128165896589D+03
 0.138318557742585D+03 -.692588738319303D+02 -.455051759754047D+02 -.110745251685881D+03
0.257086599993D-03 0.000000000000D+00 0.000000000000D+00 0.698782365012D-06 0.000000000000D+00  7 -1 1 23 -13 13 23 21 0 0.10155284D+00 0.18956096D+00 0.78335184D+06 0.78335184D+06 0.78335184D+06 0.10549967D+01  1  2  2  1  7  1       -1 0.292528600755D-03 0.100000000000D+01
-.142764652461D-04 0.000000000000D+00 -.987280236430D-06 0.698782365012D-06 0.000000000000D+00  7 -1 1 23 -13 13 23 21 2 0.10155284D+00 0.18956096D+00 0.78335184D+06 0.78335184D+06 0.78335184D+06 0.10549967D+01  1  2  3  1  7  1       -1 -.180805558658D-04 0.100000000000D+01
0.165326810178D-04 0.000000000000D+00 0.000000000000D+00 0.698782365012D-06 0.000000000000D+00  7 -1 1 23 -13 13 23 21 2 0.10155284D+00 0.18956096D+00 0.78335184D+06 0.78335184D+06 0.78335184D+06 0.10549967D+01  1  2 15  1  7  1       -1 0.209379603144D-04 0.100000000000D+01
-.462786167583D-04 0.000000000000D+00 0.000000000000D+00 0.698782365012D-06 0.000000000000D+00  7 -1 1 23 -13 13 23 21 2 0.10155284D+00 0.18956096D+00 0.78335184D+06 0.78335184D+06 0.78335184D+06 0.10549967D+01  1  2  4  1  7  1       -1 -.586099641097D-04 0.100000000000D+01
  </mgrwgt>
  </event>
  <event>
  8     66 0.58687835E-06 0.18030390E+03 0.75467711E-02 0.91134799E-01
       -1 -1    0    0    0  501 0.00000000E+00 0.00000000E+00 0.13981601E+03 0.13981638E+03 0.32000000E+00 0.0000E+00 0.9000E+01
        1 -1    0    0  501    0 0.00000000E+00 0.00000000E+00 -.12852171E+04 0.12852172E+04 0.32000000E+00 0.0000E+00 0.9000E+01
       25  2    1    2    0    0 0.39388353E+02 -.42199832E+02 -.31941528E+02 0.30622825E+03 0.29903714E+03 0.0000E+00 0.0000E+00
       23  2    1    2    0    0 -.39388353E+02 0.42199832E+02 -.11134596E+04 0.11188053E+04 0.92740429E+02 0.0000E+00 0.0000E+00
       23  1    3    3    0    0 0.83558936E+02 0.76499800E+02 0.62365498E+01 0.14556257E+03 0.91188000E+02 0.0000E+00 0.9000E+01
      -11  1    4    4    0    0 -.39477821E+02 0.37612864E+02 -.27608300E+03 0.28141615E+03 0.51099893E-03 0.0000E+00 0.9000E+01
       11  1    4    4    0    0 0.89468201E-01 0.45869677E+01 -.83737657E+03 0.83738914E+03 0.51099893E-03 0.0000E+00 0.9000E+01
       23  1    3    3    0    0 -.44170583E+02 -.11869963E+03 -.38178078E+02 0.16066568E+03 0.91188000E+02 0.0000E+00 0.9000E+01
#aMCatNLO 1  0  0  1  1 0.64313916D+03 0.00000000D+00  -5  7  0 0.00000000D+00 0.00000000D+00 0.00000000D+00 0.00000000D+00 0.00000000D+00
  <mgrwgt>
 0.2565019531D-03    3    2    0
 0.423903554846751D+03 0.000000000000000D+00 0.000000000000000D+00 0.423903554846751D+03
 0.423903554846751D+03 0.000000000000000D+00 0.000000000000000D+00 -.423903554846751D+03
 0.253093999210335D+03 0.835589361366478D+02 0.764998002861505D+02 0.207140063339209D+03
 0.100024730585916D+03 -.394778210395708D+02 0.376128639547755D+02 -.838553566558045D+02
 0.276213252146943D+03 0.894681999797662D-01 0.458696768895451D+01 -.276175148021056D+03
 0.218475127750308D+03 -.441705832970568D+02 -.118699631929881D+03 0.152890441337652D+03
 0.000000000000000D+00 -.000000000000000D+00 0.000000000000000D+00 -.000000000000000D+00
 0.707268075327763D+03 0.000000000000000D+00 0.000000000000000D+00 0.707268075327763D+03
 0.112231027973816D+04 0.000000000000000D+00 0.000000000000000D+00 -.112231027973816D+04
 0.323832658386233D+03 0.224520706724746D+03 -.568839670306468D+02 0.207140063339209D+03
 0.841847129126445D+02 0.553048109501889D+01 -.497582427039291D+01 -.838553566558045D+02
 0.344353294487931D+03 0.151713869724105D+03 -.138886215203586D+03 -.276175148021056D+03
 0.311774471902698D+03 0.853864781361928D+02 -.241291799042739D+03 0.152890441337652D+03
 0.765433217376418D+03 -.467151535680063D+03 0.442037805547365D+03 -.415042204410399D+03
0.116625610111D-04 0.000000000000D+00 0.000000000000D+00 0.217434642522D-06 0.000000000000D+00  7 -1 1 23 -11 11 23 21 0 0.21510187D-01 0.19772574D+00 0.32509495D+05 0.32509495D+05 0.32509495D+05 0.11641126D+01  1  2  2  1  7  1       -1 0.238348776961D-03 0.100000000000D+01
-.722214480514D-07 0.000000000000D+00 -.447873051056D-07 0.217434642522D-06 0.000000000000D+00  7 -1 1 23 -11 11 23 21 2 0.21510187D-01 0.19772574D+00 0.32509495D+05 0.32509495D+05 0.32509495D+05 0.11641126D+01  1  2  3  1  7  1       -1 -.200020818573D-05 0.100000000000D+01
0.727677552283D-06 0.000000000000D+00 0.000000000000D+00 0.217434642522D-06 0.000000000000D+00  7 -1 1 23 -11 11 23 21 2 0.21510187D-01 0.19772574D+00 0.32509495D+05 0.32509495D+05 0.32509495D+05 0.11641126D+01  1  2 15  1  7  1       -1 0.201533842912D-04 0.100000000000D+01
  </mgrwgt>
  </event>
  <event>
  8     66 0.58687835E-06 0.25046025E+03 0.75467711E-02 0.89555890E-01
       -1 -1    0    0    0  501 0.00000000E+00 0.00000000E+00 0.23908015E+03 0.23908037E+03 0.32000000E+00 0.0000E+00 0.9000E+01
        1 -1    0    0  501    0 0.00000000E+00 0.00000000E+00 -.47831575E+03 0.47831586E+03 0.32000000E+00 0.0000E+00 0.9000E+01
       25  2    1    2    0    0 -.12168243E+03 0.11473821E+03 -.35416294E+03 0.49342887E+03 0.30011529E+03 0.0000E+00 0.0000E+00
       23  2    1    2    0    0 0.12168243E+03 -.11473821E+03 0.11492734E+03 0.22396735E+03 0.94771355E+02 0.0000E+00 0.0000E+00
       23  1    3    3    0    0 -.32668215E+02 0.15968820E+03 -.11675846E+03 0.22026194E+03 0.91188000E+02 0.0000E+00 0.9000E+01
      -13  1    4    4    0    0 0.18581749E+02 -.58925609E+02 0.81084398E+02 0.10194214E+03 0.10565837E+00 0.0000E+00 0.9000E+01
       13  1    4    4    0    0 0.10310068E+03 -.55812606E+02 0.33842947E+02 0.12202522E+03 0.10565837E+00 0.0000E+00 0.9000E+01
       23  1    3    3    0    0 -.89014214E+02 -.44949985E+02 -.23740448E+03 0.27316693E+03 0.91188000E+02 0.0000E+00 0.9000E+01
#aMCatNLO 1  0  0  1  1 0.73788298D+03 0.00000000D+00  -5  7  0 0.00000000D+00 0.00000000D+00 0.00000000D+00 0.00000000D+00 0.00000000D+00
  <mgrwgt>
 0.2070702980D-03    3    2    0
 0.338165518375232D+03 0.000000000000000D+00 0.000000000000000D+00 0.338165518375232D+03
 0.338165518375232D+03 0.000000000000000D+00 0.000000000000000D+00 -.338165518375232D+03
 0.192335260085095D+03 -.326682160983844D+02 0.159688200469074D+03 -.459354679512361D+02
 0.136813438011075D+03 0.185816542765517D+02 -.589256128032897D+02 0.122067240079039D+03
 0.141405413635495D+03 0.103100776549095D+03 -.558126041217139D+02 0.790612047818146D+02
 0.205776925018799D+03 -.890142147272619D+02 -.449499835440708D+02 -.155192976909618D+03
 0.000000000000000D+00 -.000000000000000D+00 -.000000000000000D+00 -.000000000000000D+00
 0.656329898427045D+03 0.000000000000000D+00 0.000000000000000D+00 0.656329898427045D+03
 0.137382769448977D+04 0.000000000000000D+00 0.000000000000000D+00 -.137382769448977D+04
 0.327162169658091D+03 0.173793692761767D+03 0.257692683349215D+03 -.459354679512361D+02
 0.193224947998247D+03 0.149747568237461D+03 0.333695001137119D+01 0.122067240079039D+03
 0.284779695216395D+03 0.272477920811062D+03 0.245882772164174D+02 0.790612047818146D+02
 0.195780219558314D+03 0.705751303572892D+02 0.308047710474214D+02 -.155192976909618D+03
 0.102921056048577D+04 -.666594312167579D+03 -.316422681624425D+03 -.717497796062722D+03
0.508045718798D-05 0.000000000000D+00 0.000000000000D+00 0.871119147010D-07 0.000000000000D+00  7 -1 1 23 -13 13 23 21 0 0.36781587D-01 0.73587063D-01 0.62730339D+05 0.62730339D+05 0.62730339D+05 0.11387302D+01  1  2  2  1  7  1       -1 0.203548685342D-03 0.100000000000D+01
-.251313691167D-06 0.000000000000D+00 -.195102933169D-07 0.871119147010D-07 0.000000000000D+00  7 -1 1 23 -13 13 23 21 2 0.36781587D-01 0.73587063D-01 0.62730339D+05 0.62730339D+05 0.62730339D+05 0.11387302D+01  1  2  3  1  7  1       -1 -.130563965853D-04 0.100000000000D+01
0.319098816028D-06 0.000000000000D+00 0.000000000000D+00 0.871119147010D-07 0.000000000000D+00  7 -1 1 23 -13 13 23 21 2 0.36781587D-01 0.73587063D-01 0.62730339D+05 0.62730339D+05 0.62730339D+05 0.11387302D+01  1  2 15  1  7  1       -1 0.165780092307D-04 0.100000000000D+01
  </mgrwgt>
  </event>
  <event>
  8     66 0.58687835E-06 0.36522285E+03 0.75467711E-02 0.96182725E-01
       -1 -1    0    0    0  501 0.00000000E+00 0.00000000E+00 0.10086325E+03 0.10086376E+03 0.32000000E+00 0.0000E+00 0.9000E+01
        1 -1    0    0  501    0 0.00000000E+00 0.00000000E+00 -.16175954E+04 0.16175955E+04 0.32000000E+00 0.0000E+00 0.9000E+01
       25  2    1    2    0    0 -.14214748E+03 -.28276617E+03 -.60015530E+03 0.74266797E+03 0.30200448E+03 0.0000E+00 0.0000E+00
       23  2    1    2    0    0 0.14214748E+03 0.28276617E+03 -.91657687E+03 0.97579125E+03 0.10905407E+03 0.0000E+00 0.0000E+00
       23  1    3    3    0    0 0.16053962E+02 -.62533512E+02 -.33297744E+03 0.35122272E+03 0.91188000E+02 0.0000E+00 0.9000E+01
      -11  1    4    4    0    0 0.84667602E+02 0.63171494E+02 -.24214311E+03 0.26418275E+03 0.51099893E-03 0.0000E+00 0.9000E+01
       11  1    4    4    0    0 0.57479883E+02 0.21959468E+03 -.67443376E+03 0.71160850E+03 0.51099893E-03 0.0000E+00 0.9000E+01
       23  1    3    3    0    0 -.15820145E+03 -.22023266E+03 -.26717786E+03 0.39144525E+03 0.91188000E+02 0.0000E+00 0.9000E+01
#aMCatNLO 1  0  0  2  1 0.13466425D+03 0.00000000D+00  -5  7  0 0.00000000D+00 0.00000000D+00 0.00000000D+00 0.00000000D+00 0.00000000D+00
  <mgrwgt>
 0.1188931324D-03    3    2    0
 0.403926231787716D+03 0.000000000000000D+00 0.000000000000000D+00 0.403926231787716D+03
 0.403926231787716D+03 0.000000000000000D+00 0.000000000000000D+00 -.403926231787716D+03
 0.121958307863415D+03 0.160539617438496D+02 -.625335124060482D+02 -.488917953382473D+02
 0.107347620159157D+03 0.846676017440316D+02 0.631714941186991D+02 -.190858874449109D+02
 0.247489254694027D+03 0.574798830865740D+02 0.219594678877435D+03 -.986162828242621D+02
 0.331057280858833D+03 -.158201446574455D+03 -.220232660590086D+03 0.166593965607420D+03
 0.000000000000000D+00 -.000000000000000D+00 -.000000000000000D+00 0.000000000000000D+00
 0.921833281501425D+03 0.000000000000000D+00 0.000000000000000D+00 0.921833281501425D+03
 0.418348665995937D+03 0.000000000000000D+00 0.000000000000000D+00 -.418348665995937D+03
 0.125062651787463D+03 0.363571832966068D+02 -.601095924079680D+02 -.488917953382473D+02
 0.124091211728099D+03 0.103690092330901D+03 0.654425127955623D+02 -.190858874449109D+02
 0.264757499950252D+03 0.995826235338731D+02 0.224621155797810D+03 -.986162828242621D+02
 0.305088064690685D+03 -.105915195607325D+03 -.213990415288544D+03 0.166593965607420D+03
 0.521182519340862D+03 -.133714703554056D+03 -.159636608968598D+02 0.503484615505488D+03
0.591163498147D-05 0.000000000000D+00 0.000000000000D+00 0.293161119820D-09 0.000000000000D+00  7 -1 1 23 -11 11 23 21 0 0.15517465D-01 0.24886088D+00 0.13338773D+06 0.13338773D+06 0.13338773D+06 0.11115972D+01  1  2  2  2  7  2        1 0.117562407114D-03 0.100000000000D+01
-.324372932647D-06 0.000000000000D+00 -.227022348981D-07 0.293161119820D-09 0.000000000000D+00  7 -1 1 23 -11 11 23 21 2 0.15517465D-01 0.24886088D+00 0.13338773D+06 0.13338773D+06 0.13338773D+06 0.11115972D+01  1  2  3  2  7  2        1 -.797077116354D-05 0.100000000000D+01
0.378527198887D-06 0.000000000000D+00 0.000000000000D+00 0.293161119820D-09 0.000000000000D+00  7 -1 1 23 -11 11 23 21 2 0.15517465D-01 0.24886088D+00 0.13338773D+06 0.13338773D+06 0.13338773D+06 0.11115972D+01  1  2 15  2  7  2        1 0.930149645004D-05 0.100000000000D+01
  </mgrwgt>
  </event>
  <event>
  8     66 0.58687835E-06 0.27697480E+03 0.75467711E-02 0.97741926E-01
       21 -1    0    0  502  501 0.00000000E+00 0.00000000E+00 0.16365460E+03 0.16365632E+03 0.75000000E+00 0.0000E+00 0.9000E+01
        1 -1    0    0  501    0 0.00000000E+00 0.00000000E+00 -.12327118E+04 0.12327118E+04 0.32000000E+00 0.0000E+00 0.9000E+01
       25  2    1    2    0    0 -.59938959E+02 0.17484079E+03 -.72700367E+03 0.80805579E+03 0.30042943E+03 0.0000E+00 0.0000E+00
       23  1    3    3    0    0 -.13968314E+03 0.41240616E+02 -.37737918E+03 0.41465946E+03 0.91188000E+02 0.0000E+00 0.9000E+01
      -13  1    1    2    0    0 -.11423629E+03 -.10115835E+03 -.17497370E+03 0.23216104E+03 0.10565837E+00 0.0000E+00 0.9000E+01
       13  1    1    2    0    0 0.49471579E+02 0.60799107E+02 -.15336774E+03 0.17223717E+03 0.10565837E+00 0.0000E+00 0.9000E+01
       23  1    3    3    0    0 0.79744180E+02 0.13360017E+03 -.34962449E+03 0.39339633E+03 0.91188000E+02 0.0000E+00 0.9000E+01
        1  1    1    2  502    0 0.12470367E+03 -.13448155E+03 -.13712086E+02 0.18391415E+03 0.32000000E+00 0.0000E+00 0.9000E+01
#aMCatNLO 2  0  0  1  2 0.18340199D+03 0.00000000D+00  -5  7  0 0.00000000D+00 0.00000000D+00 0.00000000D+00 0.00000000D+00 0.00000000D+00
  <mgrwgt>
 0.1403625761D-03    2    2    0
 0.284013693728995D+03 0.000000000000000D+00 0.000000000000000D+00 0.284013693728995D+03
 0.284013693728995D+03 0.000000000000000D+00 0.000000000000000D+00 -.284013693728995D+03
 0.143525917025074D+03 -.105573514363124D+03 0.451368882988868D+01 -.334409508246180D+02
 0.169362649329923D+03 -.787201229658227D+02 -.139473357580090D+03 0.550820456558456D+02
 0.790893348478685D+02 0.663312815816957D+02 0.425041677519641D+02 -.697708349677424D+01
 0.176049486255124D+03 0.117962355747251D+03 0.924555009982372D+02 -.146640113344534D+02
 0.000000000000000D+00 0.000000000000000D+00 -.000000000000000D+00 0.000000000000000D+00
 0.621773722789621D+03 0.000000000000000D+00 0.000000000000000D+00 0.621773722789621D+03
 0.324459026836301D+03 0.000000000000000D+00 0.000000000000000D+00 -.324459026836301D+03
 0.175067699321363D+03 -.139678422120110D+03 0.412927257959228D+02 -.334409508246180D+02
 0.162233224956740D+03 -.114216900443141D+03 -.101193315882983D+03 0.550820456558456D+02
 0.786103206198672D+02 0.494498001988825D+02 0.607093079694371D+02 -.697708349677424D+01
 0.180990258132727D+03 0.797418550116544D+02 0.133672830170661D+03 -.146640113344534D+02
 0.349331246595224D+03 0.124703667352714D+03 -.134481548053038D+03 0.297314695953320D+03
-.141060424740D-06 0.000000000000D+00 0.000000000000D+00 0.855744493015D-10 0.000000000000D+00  7 21 1 23 -13 13 23 1 2 0.25061947D-01 0.16600755D+00 0.14689497D+06 0.14689497D+06 0.14689497D+06 0.11082695D+01  1  2 13  3  7  1       -1 -.420939942771D-04 0.100000000000D+01
0.793980534319D-06 0.000000000000D+00 0.000000000000D+00 0.855744493015D-10 0.243775063492D-14  7 21 1 23 -13 13 23 1 2 0.25177761D-01 0.18964806D+00 0.14689497D+06 0.14689497D+06 0.14689497D+06 0.11082695D+01  1  2  1  3  7  1       -1 0.182456570427D-03 0.100000000000D+01
  </mgrwgt>
  </event>
  <event>
  8     66 0.58687835E-06 0.37253057E+03 0.75467711E-02 0.96931250E-01
       -1 -1    0    0    0  501 0.00000000E+00 0.00000000E+00 0.19839643E+03 0.19839669E+03 0.32000000E+00 0.0000E+00 0.9000E+01
        1 -1    0    0  501    0 0.00000000E+00 0.00000000E+00 -.14523594E+04 0.14523594E+04 0.32000000E+00 0.0000E+00 0.9000E+01
       25  2    1    2    0    0 0.29555968E+03 -.22219732E+03 -.17718955E+03 0.50858929E+03 0.30089824E+03 0.0000E+00 0.0000E+00
       23  2    1    2    0    0 -.29555968E+03 0.22219732E+03 -.10767734E+04 0.11421668E+04 0.91525495E+02 0.0000E+00 0.0000E+00
       23  1    3    3    0    0 0.13028420E+03 -.17288588E+02 -.16486667E+03 0.22971534E+03 0.91188000E+02 0.0000E+00 0.9000E+01
      -11  1    4    4    0    0 -.21090368E+03 0.10314568E+03 -.67422733E+03 0.71393409E+03 0.51099893E-03 0.0000E+00 0.9000E+01
       11  1    4    4    0    0 -.84655997E+02 0.11905164E+03 -.40254607E+03 0.42823273E+03 0.51099893E-03 0.0000E+00 0.9000E+01
       23  1    3    3    0    0 0.16527548E+03 -.20490874E+03 -.12322886E+02 0.27887395E+03 0.91188000E+02 0.0000E+00 0.9000E+01
#aMCatNLO 1  0  0  1  1 0.62830572D+00 0.00000000D+00  -5  7  0 0.00000000D+00 0.00000000D+00 0.00000000D+00 0.00000000D+00 0.00000000D+00
  <mgrwgt>
 0.1288050706D-04   10    2    0
 0.536789679495135D+03 0.000000000000000D+00 0.000000000000000D+00 0.536789679495135D+03
 0.536789679495135D+03 0.000000000000000D+00 0.000000000000000D+00 -.536789679495135D+03
 0.160646999671429D+03 0.130284195173709D+03 -.172885884011404D+02 0.148101437692916D+02
 0.310247178216227D+03 -.210903681030821D+03 0.103145679590184D+03 -.202814983915539D+03
 0.188276659861020D+03 -.846559970803402D+02 0.119051644837427D+03 -.118777812188383D+03
 0.414408521241594D+03 0.165275482937452D+03 -.204908736026471D+03 0.306782652334630D+03
 0.000000000000000D+00 0.000000000000000D+00 -.000000000000000D+00 0.000000000000000D+00
 0.537363941133047D+03 0.000000000000000D+00 0.000000000000000D+00 0.537363941133047D+03
 0.536961657917460D+03 0.000000000000000D+00 0.000000000000000D+00 -.536961657917460D+03
 0.160570557609097D+03 0.130190227141795D+03 -.172863248030637D+02 0.148101437692916D+02
 0.310372079354590D+03 -.211085235148520D+03 0.103150053051491D+03 -.202814983915539D+03
 0.188327900035117D+03 -.847661678617967D+02 0.119054298743909D+03 -.118777812188383D+03
 0.414309005847479D+03 0.165033052368923D+03 -.204902896110943D+03 0.306782652334630D+03
 0.746056204224948D+00 0.628123499598339D+00 -.151308813932028D-01 0.402283215587150D+00
0.363156683177D-05 0.000000000000D+00 0.000000000000D+00 0.312414464224D-06 0.000000000000D+00  7 -1 1 23 -11 11 23 21 0 0.30522550D-01 0.22343993D+00 0.16786292D+06 0.16786292D+06 0.16786292D+06 0.11037164D+01  1  2  2  1  7  1       -1 0.307417568952D-04 0.100000000000D+01
-.183850596404D-06 0.000000000000D+00 -.139461728475D-07 0.312414464224D-06 0.000000000000D+00  7 -1 1 23 -11 11 23 21 2 0.30522550D-01 0.22343993D+00 0.16786292D+06 0.16786292D+06 0.16786292D+06 0.11037164D+01  1  2  3  1  7  1       -1 -.189589671922D-05 0.100000000000D+01
0.230264470633D-06 0.000000000000D+00 0.000000000000D+00 0.312414464224D-06 0.000000000000D+00  7 -1 1 23 -11 11 23 21 2 0.30522550D-01 0.22343993D+00 0.16786292D+06 0.16786292D+06 0.16786292D+06 0.11037164D+01  1  2 15  1  7  1       -1 0.237452400463D-05 0.100000000000D+01
-.832855795685D-03 0.000000000000D+00 0.000000000000D+00 0.312414464224D-06 0.000000000000D+00  7 -1 1 23 -11 11 23 21 2 0.30522550D-01 0.22343993D+00 0.16786292D+06 0.16786292D+06 0.16786292D+06 0.11037164D+01  1  2  4  1  7  1       -1 -.858854200915D-02 0.100000000000D+01
-.485736624618D-02 0.000000000000D+00 -.343921960265D-03 0.312414464224D-06 0.000000000000D+00  7 -1 1 23 -11 11 23 21 2 0.30564351D-01 0.22343993D+00 0.16786292D+06 0.16786292D+06 0.16786292D+06 0.11037164D+01  1  2  5  1  7  1       -1 -.499747880472D-01 0.100000000000D+01
0.485783270364D-02 0.000000000000D+00 0.343921638181D-03 0.312414464224D-06 0.000000000000D+00  7 -1 1 23 -11 11 23 21 2 0.30522550D-01 0.22343993D+00 0.16786292D+06 0.16786292D+06 0.16786292D+06 0.11037164D+01  1  2  6  1  7  1       -1 0.500947468515D-01 0.100000000000D+01
0.832857126719D-03 0.000000000000D+00 0.000000000000D+00 0.312414464224D-06 0.514117290256D-05  7 -1 1 23 -11 11 23 21 2 0.30555204D-01 0.22351151D+00 0.16812300D+06 0.16812300D+06 0.16812300D+06 0.11036639D+01  1  2 11  1  7  1       -1 0.856565674006D-02 0.100000000000D+01
0.681283170668D-14 0.000000000000D+00 0.000000000000D+00 0.312414464224D-06 0.000000000000D+00  7 21 1 23 -11 11 23 1 2 0.30560090D-01 0.22343993D+00 0.16812300D+06 0.16812300D+06 0.16812300D+06 0.11036639D+01  1  2 12  3  7  1       -1 0.749034005749D-12 0.100000000000D+01
-.124364676629D-05 0.000000000000D+00 -.880724962999D-07 0.312414464224D-06 0.000000000000D+00  7 21 1 23 -11 11 23 1 2 0.30564351D-01 0.22343993D+00 0.16786292D+06 0.16786292D+06 0.16786292D+06 0.11037164D+01  1  2  5  3  7  1       -1 -.136720956859D-03 0.100000000000D+01
0.193880924324D-06 0.000000000000D+00 0.000000000000D+00 0.312414464224D-06 0.102820894961D-08  7 21 1 23 -11 11 23 1 2 0.30555204D-01 0.22351151D+00 0.16812300D+06 0.16812300D+06 0.16812300D+06 0.11036639D+01  1  2 11  3  7  1       -1 0.213075437960D-04 0.100000000000D+01
  </mgrwgt>
  </event>
  <event>
  8     66 0.58687835E-06 0.27560699E+03 0.75467711E-02 0.93672139E-01
       -1 -1    0    0    0  501 0.00000000E+00 0.00000000E+00 0.10383018E+04 0.10383019E+04 0.32000000E+00 0.0000E+00 0.9000E+01
        1 -1    0    0  501    0 0.00000000E+00 0.00000000E+00 -.27093623E+03 0.27093642E+03 0.32000000E+00 0.0000E+00 0.9000E+01
       25  2    1    2    0    0 -.29897400E+02 -.44441483E+03 0.63809059E+03 0.83717387E+03 0.30871037E+03 0.0000E+00 0.0000E+00
       23  2    1    2    0    0 0.29897400E+02 0.44441483E+03 0.12927498E+03 0.47206441E+03 0.87945396E+02 0.0000E+00 0.0000E+00
       23  1    3    3    0    0 0.56798772E+02 -.60225724E+02 0.24025172E+03 0.26998033E+03 0.91188000E+02 0.0000E+00 0.9000E+01
      -11  1    4    4    0    0 0.55109634E+02 0.30844122E+03 0.67054882E+02 0.32042069E+03 0.51099893E-03 0.0000E+00 0.9000E+01
       11  1    4    4    0    0 -.25212233E+02 0.13597360E+03 0.62220096E+02 0.15164372E+03 0.51099893E-03 0.0000E+00 0.9000E+01
       23  1    3    3    0    0 -.86696172E+02 -.38418910E+03 0.39783887E+03 0.56719354E+03 0.91188000E+02 0.0000E+00 0.9000E+01
#aMCatNLO 1  0  0  1  2 0.10513739D+03 0.00000000D+00  -5  7  0 0.00000000D+00 0.00000000D+00 0.00000000D+00 0.00000000D+00 0.00000000D+00
  <mgrwgt>
 0.1314252932D-03    9    2    0
 0.530390174602380D+03 0.000000000000000D+00 0.000000000000000D+00 0.530390174602380D+03
 0.530390174602380D+03 0.000000000000000D+00 0.000000000000000D+00 -.530390174602380D+03
 0.159418192481217D+03 0.567987718719712D+02 -.602257238841380D+02 0.101220899257246D+03
 0.346962895529410D+03 0.551096337454618D+02 0.308441223136970D+03 -.149030839131916D+03
 0.142152145325328D+03 -.252122333547440D+02 0.135973602264243D+03 -.329052457390072D+02
 0.412247115868807D+03 -.866961722626890D+02 -.384189101517075D+03 0.807151856136771D+02
 0.000000000000000D+00 0.000000000000000D+00 -.000000000000000D+00 0.000000000000000D+00
 0.604279296152367D+03 0.000000000000000D+00 0.000000000000000D+00 0.604279296152367D+03
 0.571752492237795D+03 0.000000000000000D+00 0.000000000000000D+00 -.571752492237795D+03
 0.152113202407516D+03 0.444847228201433D+02 -.509766023959965D+02 0.101220899257246D+03
 0.362655174415948D+03 0.270602240720274D+02 0.329509224137156D+03 -.149030839131916D+03
 0.152940363065525D+03 -.368764947510945D+02 0.144734666173459D+03 -.329052457390072D+02
 0.398269130922795D+03 -.118733831978686D+03 -.360125513199225D+03 0.807151856136771D+02
 0.110053917578377D+03 0.840653798376101D+02 -.631417747153936D+02 0.325268039145724D+02
0.182280353985D-04 0.000000000000D+00 0.000000000000D+00 0.618772610371D-09 0.000000000000D+00  7 -1 1 23 -11 11 23 21 0 0.15973876D+00 0.41682516D-01 0.23963260D+06 0.23963260D+06 0.23963260D+06 0.10918456D+01  1  2  2  1  7  1       -1 0.679876174747D-04 0.100000000000D+01
-.100475272785D-05 0.000000000000D+00 -.700004554821D-07 0.618772610371D-09 0.000000000000D+00  7 -1 1 23 -11 11 23 21 2 0.15973876D+00 0.41682516D-01 0.23963260D+06 0.23963260D+06 0.23963260D+06 0.10918456D+01  1  2  3  1  7  1       -1 -.446757244652D-05 0.100000000000D+01
0.116613866969D-05 0.000000000000D+00 0.000000000000D+00 0.618772610371D-09 0.000000000000D+00  7 -1 1 23 -11 11 23 21 2 0.15973876D+00 0.41682516D-01 0.23963260D+06 0.23963260D+06 0.23963260D+06 0.10918456D+01  1  2 15  1  7  1       -1 0.518516530995D-05 0.100000000000D+01
0.199663854620D-04 0.000000000000D+00 0.000000000000D+00 0.618772610371D-09 0.000000000000D+00  7 -1 1 23 -11 11 23 21 2 0.18752741D+00 0.41682516D-01 0.29629792D+06 0.29629792D+06 0.29629792D+06 0.10849511D+01  1  2 12  1  7  1       -1 0.515623663924D-04 0.100000000000D+01
-.188643155881D-04 0.000000000000D+00 0.000000000000D+00 0.618772610371D-09 0.000000000000D+00  7 -1 1 23 -11 11 23 21 2 0.15973876D+00 0.41682516D-01 0.23963260D+06 0.23963260D+06 0.23963260D+06 0.10918456D+01  1  2  4  1  7  1       -1 -.838790422833D-04 0.100000000000D+01
-.503848910174D-04 0.000000000000D+00 -.127525776749D-04 0.618772610371D-09 0.000000000000D+00  7 -1 1 23 -11 11 23 21 2 0.19084751D+00 0.41682516D-01 0.23963260D+06 0.23963260D+06 0.23963260D+06 0.10918456D+01  1  2  5  1  7  1       -1 -.125193256020D-03 0.100000000000D+01
0.520274778438D-04 0.000000000000D+00 0.125533281072D-04 0.618772610371D-09 0.000000000000D+00  7 -1 1 23 -11 11 23 21 2 0.15973876D+00 0.41682516D-01 0.23963260D+06 0.23963260D+06 0.23963260D+06 0.10918456D+01  1  2  6  1  7  1       -1 0.231337044463D-03 0.100000000000D+01
0.480656965343D-06 0.000000000000D+00 0.000000000000D+00 0.618772610371D-09 0.000000000000D+00  7 21 1 23 -11 11 23 1 2 0.18752741D+00 0.41682516D-01 0.29629792D+06 0.29629792D+06 0.29629792D+06 0.10849511D+01  1  2 12  3  7  1       -1 0.782520199114D-05 0.100000000000D+01
-.119701809082D-05 0.000000000000D+00 -.333308789438D-06 0.618772610371D-09 0.000000000000D+00  7 21 1 23 -11 11 23 1 2 0.19084751D+00 0.41682516D-01 0.23963260D+06 0.23963260D+06 0.23963260D+06 0.10918456D+01  1  2  5  3  7  1       -1 -.189322316506D-04 0.100000000000D+01
  </mgrwgt>
  </event>
  <event>
  8     66 0.58687835E-06 0.18376942E+03 0.75467711E-02 0.10677980E+00
       -1 -1    0    0    0  501 0.00000000E+00 0.00000000E+00 0.30605401E+03 0.30605418E+03 0.32000000E+00 0.0000E+00 0.9000E+01
        1 -1    0    0  501    0 0.00000000E+00 0.00000000E+00 -.24201424E+03 0.24201445E+03 0.32000000E+00 0.0000E+00 0.9000E+01
       25  2    1    2    0    0 0.61648655E+02 0.88971646E+01 -.12390215E+03 0.33011607E+03 0.29957497E+03 0.0000E+00 0.0000E+00
       23  2    1    2    0    0 -.61648655E+02 -.88971646E+01 0.18794192E+03 0.21795255E+03 0.91112192E+02 0.0000E+00 0.0000E+00
       23  1    3    3    0    0 0.11310489E+03 0.45350756E+02 0.14379357E+02 0.15287715E+03 0.91188000E+02 0.0000E+00 0.9000E+01
      -11  1    4    4    0    0 0.17619723E+02 -.17380828E+02 0.80144030E+02 0.83878563E+02 0.51099893E-03 0.0000E+00 0.9000E+01
       11  1    4    4    0    0 -.79268378E+02 0.84836635E+01 0.10779790E+03 0.13407399E+03 0.51099893E-03 0.0000E+00 0.9000E+01
       23  1    3    3    0    0 -.51456234E+02 -.36453592E+02 -.13828151E+03 0.17723892E+03 0.91188000E+02 0.0000E+00 0.9000E+01
#aMCatNLO 1  0  0  2  2 0.20605694D+02 0.00000000D+00  -5  7  0 0.00000000D+00 0.00000000D+00 0.00000000D+00 0.00000000D+00 0.00000000D+00
  <mgrwgt>
 0.1005456318D-03    4    2    0
 0.272157181706023D+03 0.000000000000000D+00 0.000000000000000D+00 0.272157181706023D+03
 0.272157181706023D+03 0.000000000000000D+00 0.000000000000000D+00 -.272157181706023D+03
 0.152239820540061D+03 0.113104888801002D+03 0.453507564310348D+02 -.350779624778481D+01
 0.750279725179023D+02 0.176197229487890D+02 -.173808280811815D+02 0.708283053486912D+02
 0.122316070062872D+03 -.792683776401147D+02 0.848366345592681D+01 0.927673043496265D+02
 0.194730500291210D+03 -.514562341096760D+02 -.364535918057802D+02 -.160087813450533D+03
 0.000000000000000D+00 0.000000000000000D+00 -.000000000000000D+00 0.000000000000000D+00
 0.315702768633702D+03 0.000000000000000D+00 0.000000000000000D+00 0.315702768633702D+03
 0.274800731548057D+03 0.000000000000000D+00 0.000000000000000D+00 -.274800731548057D+03
 0.151544314689877D+03 0.110068016262969D+03 0.502310176309755D+02 -.350779624778481D+01
 0.741706636513122D+02 0.161282124044637D+02 -.149839671831312D+02 0.708283053486912D+02
 0.124261789506826D+03 -.817333698611445D+02 0.124449116623599D+02 0.927673043496265D+02
 0.194727482937800D+03 -.553495719006388D+02 -.301969889613919D+02 -.160087813450533D+03
 0.457992493959439D+02 0.108867130943504D+02 -.174949731488122D+02 0.409020370856453D+02
0.184513777784D-05 0.000000000000D+00 0.000000000000D+00 0.235903071269D-06 0.000000000000D+00  7 -1 1 23 -11 11 23 21 0 0.47085262D-01 0.37232989D-01 0.33771198D+05 0.33771198D+05 0.33771198D+05 0.11625945D+01  1  2  2  2  7  2        1 0.118478169134D-03 0.100000000000D+01
-.832875773309D-07 0.000000000000D+00 -.708581490285D-08 0.235903071269D-06 0.000000000000D+00  7 -1 1 23 -11 11 23 21 2 0.47085262D-01 0.37232989D-01 0.33771198D+05 0.33771198D+05 0.33771198D+05 0.11625945D+01  1  2  3  2  7  2        1 -.722846801391D-05 0.100000000000D+01
0.115556223472D-06 0.000000000000D+00 0.000000000000D+00 0.235903071269D-06 0.000000000000D+00  7 -1 1 23 -11 11 23 21 2 0.47085262D-01 0.37232989D-01 0.33771198D+05 0.33771198D+05 0.33771198D+05 0.11625945D+01  1  2 15  2  7  2        1 0.100290402476D-04 0.100000000000D+01
-.238890240751D-06 0.000000000000D+00 0.000000000000D+00 0.235903071269D-06 0.000000000000D+00  7 -1 1 23 -11 11 23 21 2 0.47085262D-01 0.37232989D-01 0.33771198D+05 0.33771198D+05 0.33771198D+05 0.11625945D+01  1  2  4  2  7  2        1 -.207331095397D-04 0.100000000000D+01
  </mgrwgt>
  </event>
  <event>
  8     66 0.58687835E-06 0.23927097E+03 0.75467711E-02 0.98439315E-01
       -1 -1    0    0    0  501 0.00000000E+00 0.00000000E+00 0.42432463E+02 0.42433670E+02 0.32000000E+00 0.0000E+00 0.9000E+01
        1 -1    0    0  501    0 0.00000000E+00 0.00000000E+00 -.15725478E+04 0.15725478E+04 0.32000000E+00 0.0000E+00 0.9000E+01
       25  2    1    2    0    0 -.97010562E+02 0.78631577E+02 -.71717189E+03 0.78748093E+03 0.30032770E+03 0.0000E+00 0.0000E+00
       23  2    1    2    0    0 0.97010562E+02 -.78631577E+02 -.81294344E+03 0.82750056E+03 0.91028398E+02 0.0000E+00 0.0000E+00
       23  1    3    3    0    0 0.30941792E+00 0.14809498E+03 -.41470134E+03 0.44969398E+03 0.91188000E+02 0.0000E+00 0.9000E+01
      -13  1    4    4    0    0 0.62207736E+01 0.19556595E+02 -.12616976E+03 0.12782792E+03 0.10565837E+00 0.0000E+00 0.9000E+01
       13  1    4    4    0    0 0.90789788E+02 -.98188172E+02 -.68677368E+03 0.69967264E+03 0.10565837E+00 0.0000E+00 0.9000E+01
       23  1    3    3    0    0 -.97319980E+02 -.69463407E+02 -.30247055E+03 0.33778696E+03 0.91188000E+02 0.0000E+00 0.9000E+01
#aMCatNLO 1  0  0  1  2 0.20482620D+03 0.00000000D+00  -5  7  0 0.00000000D+00 0.00000000D+00 0.00000000D+00 0.00000000D+00 0.00000000D+00
  <mgrwgt>
 0.2534713887D-03    5    2    0
 0.258317783168084D+03 0.000000000000000D+00 0.000000000000000D+00 0.258317783168084D+03
 0.258317783168084D+03 0.000000000000000D+00 0.000000000000000D+00 -.258317783168084D+03
 0.177507278111797D+03 0.309416042925477D+00 0.148094982711435D+03 0.355156697257845D+02
 0.259087031730224D+02 0.622066003559016D+01 0.195567528086800D+02 -.158144778102085D+02
 0.153136027858714D+03 0.907899037787482D+02 -.981883308716441D+02 -.746115814122116D+02
 0.160083557192635D+03 -.973199798572638D+02 -.694634046484704D+02 0.549103894966355D+02
 0.000000000000000D+00 0.000000000000000D+00 0.000000000000000D+00 0.000000000000000D+00
 0.401465689334478D+03 0.000000000000000D+00 0.000000000000000D+00 0.401465689334478D+03
 0.362745434262175D+03 0.000000000000000D+00 0.000000000000000D+00 -.362745434262175D+03
 0.154630514470921D+03 -.496180453154731D+02 0.108958852070598D+03 0.355156697257845D+02
 0.211463217987772D+02 -.852723341620400D+00 0.140122118207840D+02 -.158144778102085D+02
 0.160418629257266D+03 0.436558877874629D+02 -.135134791942851D+03 -.746115814122116D+02
 0.219561749626982D+03 -.154388843471793D+03 -.114197393543073D+03 0.549103894966355D+02
 0.208453908442707D+03 0.161203724341423D+03 0.126361121594542D+03 0.387202550723025D+02
0.304293174209D-05 0.000000000000D+00 0.000000000000D+00 0.331410058449D-06 0.000000000000D+00  7 -1 1 23 -13 13 23 21 0 0.65281666D-02 0.24193052D+00 0.57250597D+05 0.57250597D+05 0.57250597D+05 0.11421581D+01  1  2  2  1  7  1       -1 0.248715056780D-03 0.100000000000D+01
-.167845924738D-06 0.000000000000D+00 -.116856591120D-07 0.331410058449D-06 0.000000000000D+00  7 -1 1 23 -13 13 23 21 2 0.65281666D-02 0.24193052D+00 0.57250597D+05 0.57250597D+05 0.57250597D+05 0.11421581D+01  1  2  3  1  7  1       -1 -.178967076795D-04 0.100000000000D+01
0.200632163472D-06 0.000000000000D+00 0.000000000000D+00 0.331410058449D-06 0.000000000000D+00  7 -1 1 23 -13 13 23 21 2 0.65281666D-02 0.24193052D+00 0.57250597D+05 0.57250597D+05 0.57250597D+05 0.11421581D+01  1  2 15  1  7  1       -1 0.213925669411D-04 0.100000000000D+01
-.351682545261D-06 0.000000000000D+00 -.977324205826D-06 0.331410058449D-06 0.000000000000D+00  7 -1 1 23 -13 13 23 21 2 0.14971502D-01 0.24193052D+00 0.57250597D+05 0.57250597D+05 0.57250597D+05 0.11421581D+01  1  2  5  1  7  1       -1 -.105694863786D-04 0.100000000000D+01
0.300701887007D-07 0.000000000000D+00 -.882557868840D-07 0.331410058449D-06 0.000000000000D+00  7 21 1 23 -13 13 23 1 2 0.14971502D-01 0.24193052D+00 0.57250597D+05 0.57250597D+05 0.57250597D+05 0.11421581D+01  1  2  5  3  7  1       -1 0.118299589879D-04 0.100000000000D+01
  </mgrwgt>
  </event>
  <event>
  8     66 0.58687835E-06 0.16848086E+03 0.75467711E-02 0.10022381E+00
       -1 -1    0    0    0  501 0.00000000E+00 0.00000000E+00 0.64505018E+02 0.64505812E+02 0.32000000E+00 0.0000E+00 0.9000E+01
        1 -1    0    0  501    0 0.00000000E+00 0.00000000E+00 -.13499933E+04 0.13499934E+04 0.32000000E+00 0.0000E+00 0.9000E+01
       25  2    1    2    0    0 0.32843234E+02 0.12300486E+02 -.12808110E+04 0.13168290E+04 0.30386131E+03 0.0000E+00 0.0000E+00
       23  2    1    2    0    0 -.32843234E+02 -.12300486E+02 -.46772761E+01 0.97670191E+02 0.91036308E+02 0.0000E+00 0.0000E+00
       23  1    3    3    0    0 -.69827179E+02 0.13899662E+02 -.97198656E+03 0.97884736E+03 0.91188000E+02 0.0000E+00 0.9000E+01
      -11  1    4    4    0    0 -.41142688E+02 -.38569379E+02 0.20837655E+02 0.60120925E+02 0.51099893E-03 0.0000E+00 0.9000E+01
       11  1    4    4    0    0 0.82994537E+01 0.26268893E+02 -.25514931E+02 0.37549266E+02 0.51099893E-03 0.0000E+00 0.9000E+01
       23  1    3    3    0    0 0.10267041E+03 -.15991758E+01 -.30882447E+03 0.33798162E+03 0.91188000E+02 0.0000E+00 0.9000E+01
#aMCatNLO 1  0  0  1  2 0.21241827D+03 0.00000000D+00  -5  7  0 0.00000000D+00 0.00000000D+00 0.00000000D+00 0.00000000D+00 0.00000000D+00
  <mgrwgt>
 0.2200358888D-03    5    2    0
 0.295096479114486D+03 0.000000000000000D+00 0.000000000000000D+00 0.295096479114486D+03
 0.295096479114486D+03 0.000000000000000D+00 0.000000000000000D+00 -.295096479114486D+03
 0.228910608544213D+03 -.698271786554659D+02 0.138996616515677D+02 -.197524124822947D+03
 0.189476270689455D+03 -.411426879736626D+02 -.385693786932697D+02 0.180889301529694D+03
 0.344196924150587D+02 0.829945373594435D+01 0.262688928704165D+02 0.206344265971883D+02
 0.137386386580246D+03 0.102670412893184D+03 -.159917582871450D+01 -.399960330393448D+01
 0.000000000000000D+00 0.000000000000000D+00 0.000000000000000D+00 0.000000000000000D+00
 0.464695488148272D+03 0.000000000000000D+00 0.000000000000000D+00 0.464695488148272D+03
 0.388298627282148D+03 0.000000000000000D+00 0.000000000000000D+00 -.388298627282148D+03
 0.239326668904892D+03 -.732064831732803D+02 -.677276460497529D+02 -.197524124822947D+03
 0.215857075630509D+03 -.440680099725904D+02 -.109230710832213D+03 0.180889301529694D+03
 0.270111592280018D+02 0.785610254523709D+01 0.155597176916690D+02 0.206344265971883D+02
 0.145060424962884D+03 0.100631972486453D+03 -.508378287627369D+02 -.399960330393448D+01
 0.225738786704133D+03 0.878641811418052D+01 0.212236467953034D+03 0.763968608661242D+02
0.301209930270D-05 0.000000000000D+00 0.000000000000D+00 0.237483127490D-07 0.000000000000D+00  7 -1 1 23 -11 11 23 21 0 0.99239129D-02 0.20769134D+00 0.28385801D+05 0.28385801D+05 0.28385801D+05 0.11695711D+01  1  2  2  1  7  1       -1 0.184917229125D-03 0.100000000000D+01
-.103424438718D-06 0.000000000000D+00 -.115672544263D-07 0.237483127490D-07 0.000000000000D+00  7 -1 1 23 -11 11 23 21 2 0.99239129D-02 0.20769134D+00 0.28385801D+05 0.28385801D+05 0.28385801D+05 0.11695711D+01  1  2  3  1  7  1       -1 -.868529423495D-05 0.100000000000D+01
0.188176194938D-06 0.000000000000D+00 0.000000000000D+00 0.237483127490D-07 0.000000000000D+00  7 -1 1 23 -11 11 23 21 2 0.99239129D-02 0.20769134D+00 0.28385801D+05 0.28385801D+05 0.28385801D+05 0.11695711D+01  1  2 15  1  7  1       -1 0.158025089747D-04 0.100000000000D+01
0.153469946729D-06 0.000000000000D+00 -.978476556652D-06 0.237483127490D-07 0.000000000000D+00  7 -1 1 23 -11 11 23 21 2 0.20939295D-01 0.20769134D+00 0.28385801D+05 0.28385801D+05 0.28385801D+05 0.11695711D+01  1  2  5  1  7  1       -1 0.406797617593D-05 0.100000000000D+01
0.731337032901D-07 0.000000000000D+00 -.790255411618D-07 0.237483127490D-07 0.000000000000D+00  7 21 1 23 -11 11 23 1 2 0.20939295D-01 0.20769134D+00 0.28385801D+05 0.28385801D+05 0.28385801D+05 0.11695711D+01  1  2  5  3  7  1       -1 0.239334687611D-04 0.100000000000D+01
  </mgrwgt>
  </event>
  <event>
  8     66 0.58687835E-06 0.14930896E+03 0.75467711E-02 0.10445447E+00
       -1 -1    0    0    0  501 0.00000000E+00 0.00000000E+00 0.85806450E+02 0.85807047E+02 0.32000000E+00 0.0000E+00 0.9000E+01
        1 -1    0    0  501    0 0.00000000E+00 0.00000000E+00 -.82253318E+03 0.82253325E+03 0.32000000E+00 0.0000E+00 0.9000E+01
       25  2    1    2    0    0 -.46795861E+02 0.63944661E+02 -.72222063E+03 0.78615261E+03 0.30025744E+03 0.0000E+00 0.0000E+00
       23  2    1    2    0    0 0.46795861E+02 -.63944661E+02 -.14506109E+02 0.12218768E+03 0.91872900E+02 0.0000E+00 0.0000E+00
       23  1    3    3    0    0 -.11305854E+03 -.24778544E+02 -.50325224E+03 0.52437990E+03 0.91188000E+02 0.0000E+00 0.9000E+01
      -13  1    4    4    0    0 -.87982835E+01 -.28731776E+02 -.41350255E+02 0.51115355E+02 0.10565837E+00 0.0000E+00 0.9000E+01
       13  1    4    4    0    0 0.55594144E+02 -.35212885E+02 0.26844146E+02 0.71072326E+02 0.10565837E+00 0.0000E+00 0.9000E+01
       23  1    3    3    0    0 0.66262677E+02 0.88723205E+02 -.21896838E+03 0.26177271E+03 0.91188000E+02 0.0000E+00 0.9000E+01
#aMCatNLO 1  0  0  1  2 0.64374266D+02 0.00000000D+00  -5  7  0 0.00000000D+00 0.00000000D+00 0.00000000D+00 0.00000000D+00 0.00000000D+00
  <mgrwgt>
 0.1144207249D-03    9    2    0
 0.265666995066620D+03 0.000000000000000D+00 0.000000000000000D+00 0.265666995066620D+03
 0.265666995066620D+03 0.000000000000000D+00 0.000000000000000D+00 -.265666995066620D+03
 0.198662262986949D+03 -.113058538765133D+03 -.247785430737050D+02 -.133248767373411D+03
 0.300492846398126D+02 -.879836645948089D+01 -.287317654029175D+02 0.184151678979575D+00
 0.158722666495364D+03 0.555942282631947D+02 -.352128970635393D+02 0.144437593872270D+03
 0.143899776011114D+03 0.662626769614187D+02 0.887232055401618D+02 -.113729781778391D+02
 0.000000000000000D+00 -.000000000000000D+00 -.000000000000000D+00 0.000000000000000D+00
 0.422864215695240D+03 0.000000000000000D+00 0.000000000000000D+00 0.422864215695240D+03
 0.274282711885128D+03 0.000000000000000D+00 0.000000000000000D+00 -.274282711885128D+03
 0.186605882539349D+03 -.925111540500939D+02 -.138908755690897D+02 -.133248767373411D+03
 0.276972565069507D+02 -.571858836029631D+01 -.270998496921373D+02 0.184151678979575D+00
 0.163837501524871D+03 0.727972281556602D+02 -.260973553287311D+02 0.144437593872270D+03
 0.157078805221447D+03 0.823146728800634D+02 0.972288522086515D+02 -.113729781778391D+02
 0.161927481787750D+03 -.568821586253334D+02 -.301407716186934D+02 0.148581503810112D+03
0.134278461397D-05 0.000000000000D+00 0.000000000000D+00 0.314291670114D-06 0.000000000000D+00  7 -1 1 23 -13 13 23 21 0 0.13201043D-01 0.12654362D+00 0.37375379D+05 0.37375379D+05 0.37375379D+05 0.11585809D+01  1  2  2  1  7  1       -1 0.128089760252D-03 0.100000000000D+01
-.654351080373D-07 0.000000000000D+00 -.515664648095D-08 0.314291670114D-06 0.000000000000D+00  7 -1 1 23 -13 13 23 21 2 0.13201043D-01 0.12654362D+00 0.37375379D+05 0.37375379D+05 0.37375379D+05 0.11585809D+01  1  2  3  1  7  1       -1 -.837860228419D-05 0.100000000000D+01
0.839513674664D-07 0.000000000000D+00 0.000000000000D+00 0.314291670114D-06 0.000000000000D+00  7 -1 1 23 -13 13 23 21 2 0.13201043D-01 0.12654362D+00 0.37375379D+05 0.37375379D+05 0.37375379D+05 0.11585809D+01  1  2 15  1  7  1       -1 0.107495065006D-04 0.100000000000D+01
0.371408872626D-05 0.000000000000D+00 0.000000000000D+00 0.314291670114D-06 0.000000000000D+00  7 -1 1 23 -13 13 23 21 2 0.21120298D-01 0.12654362D+00 0.52146029D+05 0.52146029D+05 0.52146029D+05 0.11456935D+01  1  2 12  1  7  1       -1 0.222139173268D-03 0.100000000000D+01
-.385542992434D-05 0.000000000000D+00 0.000000000000D+00 0.314291670114D-06 0.000000000000D+00  7 -1 1 23 -13 13 23 21 2 0.13201043D-01 0.12654362D+00 0.37375379D+05 0.37375379D+05 0.37375379D+05 0.11585809D+01  1  2  4  1  7  1       -1 -.493666396214D-03 0.100000000000D+01
-.411192965937D-05 0.000000000000D+00 -.513034307007D-06 0.314291670114D-06 0.000000000000D+00  7 -1 1 23 -13 13 23 21 2 0.21545403D-01 0.12654362D+00 0.37375379D+05 0.37375379D+05 0.37375379D+05 0.11585809D+01  1  2  5  1  7  1       -1 -.244567615561D-03 0.100000000000D+01
0.393726280059D-05 0.000000000000D+00 0.457085522658D-06 0.314291670114D-06 0.000000000000D+00  7 -1 1 23 -13 13 23 21 2 0.13201043D-01 0.12654362D+00 0.37375379D+05 0.37375379D+05 0.37375379D+05 0.11585809D+01  1  2  6  1  7  1       -1 0.504144641677D-03 0.100000000000D+01
0.199506693601D-06 0.000000000000D+00 0.000000000000D+00 0.314291670114D-06 0.000000000000D+00  7 21 1 23 -13 13 23 1 2 0.21120298D-01 0.12654362D+00 0.52146029D+05 0.52146029D+05 0.52146029D+05 0.11456935D+01  1  2 12  3  7  1       -1 0.144872305915D-03 0.100000000000D+01
-.205521496495D-06 0.000000000000D+00 -.284628732594D-07 0.314291670114D-06 0.000000000000D+00  7 21 1 23 -13 13 23 1 2 0.21545403D-01 0.12654362D+00 0.37375379D+05 0.37375379D+05 0.37375379D+05 0.11585809D+01  1  2  5  3  7  1       -1 -.148962048614D-03 0.100000000000D+01
  </mgrwgt>
  </event>
  <event>
  8     66 0.58687835E-06 0.29666079E+03 0.75467711E-02 0.92353173E-01
       -1 -1    0    0    0  501 0.00000000E+00 0.00000000E+00 0.15635857E+03 0.15635890E+03 0.32000000E+00 0.0000E+00 0.9000E+01
        1 -1    0    0  501    0 0.00000000E+00 0.00000000E+00 -.12215337E+04 0.12215338E+04 0.32000000E+00 0.0000E+00 0.9000E+01
       25  2    1    2    0    0 0.27846825E+02 -.24664863E+03 -.13639793E+03 0.41226898E+03 0.29958358E+03 0.0000E+00 0.0000E+00
       23  2    1    2    0    0 -.27846825E+02 0.24664863E+03 -.92877724E+03 0.96562371E+03 0.90504065E+02 0.0000E+00 0.0000E+00
       23  1    3    3    0    0 0.74828200E+02 -.63449456E+02 -.15094376E+03 0.20180278E+03 0.91188000E+02 0.0000E+00 0.9000E+01
      -13  1    4    4    0    0 -.44629735E+01 0.52593477E+01 -.13728187E+01 0.70338229E+01 0.10565837E+00 0.0000E+00 0.9000E+01
       13  1    4    4    0    0 -.23383851E+02 0.24138929E+03 -.92740442E+03 0.95858988E+03 0.10565837E+00 0.0000E+00 0.9000E+01
       23  1    3    3    0    0 -.46981376E+02 -.18319918E+03 0.14545831E+02 0.21046620E+03 0.91188000E+02 0.0000E+00 0.9000E+01
#aMCatNLO 1  0  0  2  2 0.46692096D+03 0.00000000D+00  -5  7  0 0.00000000D+00 0.00000000D+00 0.00000000D+00 0.00000000D+00 0.00000000D+00
  <mgrwgt>
 0.2561713293D-03    5    2    0
 0.437032641251848D+03 0.000000000000000D+00 0.000000000000000D+00 0.437032641251848D+03
 0.437032641251848D+03 0.000000000000000D+00 0.000000000000000D+00 -.437032641251848D+03
 0.134178803189618D+03 0.748282002562512D+02 -.634494562040079D+02 0.797538934625585D+01
 0.941476384446427D+01 -.446294771225539D+01 0.525902584423258D+01 0.640800461410569D+01
 0.380962702407309D+03 -.233838769524599D+02 0.241389607955541D+03 -.293797263593830D+03
 0.349509013062305D+03 -.469813755915359D+02 -.183199177595766D+03 0.279413869633468D+03
 0.000000000000000D+00 0.000000000000000D+00 0.000000000000000D+00 -.000000000000000D+00
 0.684338651866404D+03 0.000000000000000D+00 0.000000000000000D+00 0.684338651866404D+03
 0.784077988595653D+03 0.000000000000000D+00 0.000000000000000D+00 -.784077988595653D+03
 0.129161921858052D+03 0.144685460062557D+02 -.899700230927282D+02 0.797538934625585D+01
 0.117264869511087D+02 -.930867975086139D+01 0.312992881325224D+01 0.640800461410569D+01
 0.391477558382764D+03 -.200432934068959D+03 0.163598550001572D+03 -.293797263593830D+03
 0.458595839076216D+03 -.232205022499910D+03 -.264581951871790D+03 0.279413869633468D+03
 0.477454834193915D+03 0.427478090313474D+03 0.187823496149694D+03 -.997393367292488D+02
0.135568151681D-04 0.000000000000D+00 0.000000000000D+00 0.155046543966D-05 0.000000000000D+00  7 -1 1 23 -13 13 23 21 0 0.24055194D-01 0.18792830D+00 0.88007626D+05 0.88007626D+05 0.88007626D+05 0.11263034D+01  1  2  2  2  7  2        1 0.249352968610D-03 0.100000000000D+01
-.615711883850D-06 0.000000000000D+00 -.520617398371D-07 0.155046543966D-05 0.000000000000D+00  7 -1 1 23 -13 13 23 21 2 0.24055194D-01 0.18792830D+00 0.88007626D+05 0.88007626D+05 0.88007626D+05 0.11263034D+01  1  2  3  2  7  2        1 -.143663093450D-04 0.100000000000D+01
0.845657724677D-06 0.000000000000D+00 0.000000000000D+00 0.155046543966D-05 0.000000000000D+00  7 -1 1 23 -13 13 23 21 2 0.24055194D-01 0.18792830D+00 0.88007626D+05 0.88007626D+05 0.88007626D+05 0.11263034D+01  1  2 15  2  7  2        1 0.197315997812D-04 0.100000000000D+01
0.522223172828D-06 0.000000000000D+00 -.365630870517D-05 0.155046543966D-05 0.000000000000D+00  7 -1 1 23 -13 13 23 21 2 0.24055194D-01 0.41593430D+00 0.88007626D+05 0.88007626D+05 0.88007626D+05 0.11263034D+01  1  2  5  2  7  2        1 0.125023773575D-05 0.100000000000D+01
0.275579844916D-06 0.000000000000D+00 -.314993158875D-06 0.155046543966D-05 0.000000000000D+00  7 -1 21 23 -13 13 23 -1 2 0.24055194D-01 0.41593430D+00 0.88007626D+05 0.88007626D+05 0.88007626D+05 0.11263034D+01  1  2  5  4  7  2        1 0.202832554936D-06 0.100000000000D+01
  </mgrwgt>
  </event>
  <event>
  8     66 0.58687835E-06 0.17829377E+03 0.75467711E-02 0.96402560E-01
       -3 -1    0    0    0  501 0.00000000E+00 0.00000000E+00 0.20814287E+03 0.20814347E+03 0.50000000E+00 0.0000E+00 0.9000E+01
        3 -1    0    0  501    0 0.00000000E+00 0.00000000E+00 -.37506029E+03 0.37506062E+03 0.50000000E+00 0.0000E+00 0.9000E+01
       25  2    1    2    0    0 0.57290943E+02 -.44100095E+02 -.28114271E+03 0.42005567E+03 0.30360908E+03 0.0000E+00 0.0000E+00
       23  2    1    2    0    0 -.57290943E+02 0.44100095E+02 0.11422530E+03 0.16314842E+03 0.91339569E+02 0.0000E+00 0.0000E+00
       23  1    3    3    0    0 0.13051376E+03 -.25920806E+01 -.67424338E+02 0.17292152E+03 0.91188000E+02 0.0000E+00 0.9000E+01
      -13  1    4    4    0    0 -.54455971E+02 0.37629675E+02 0.12999014E+03 0.14587286E+03 0.10565837E+00 0.0000E+00 0.9000E+01
       13  1    4    4    0    0 -.28349717E+01 0.64704208E+01 -.15764840E+02 0.17275554E+02 0.10565837E+00 0.0000E+00 0.9000E+01
       23  1    3    3    0    0 -.73222814E+02 -.41508015E+02 -.21371837E+03 0.24713415E+03 0.91188000E+02 0.0000E+00 0.9000E+01
#aMCatNLO 1  0  0  1  1 0.33214467D+03 0.00000000D+00  -5  7  0 0.00000000D+00 0.00000000D+00 0.00000000D+00 0.00000000D+00 0.00000000D+00
  <mgrwgt>
 0.3555410479D-04    5    2    0
 0.279403647174418D+03 0.000000000000000D+00 0.000000000000000D+00 0.279403647174418D+03
 0.279403647174418D+03 0.000000000000000D+00 0.000000000000000D+00 -.279403647174418D+03
 0.160331198093260D+03 0.130513757408539D+03 -.259208076061881D+01 -.187158217146759D+02
 0.191070166148694D+03 -.544560406064738D+02 0.376297167673964D+02 0.179238256099420D+03
 0.133205378431664D+02 -.283490268061038D+01 0.647037892115381D+01 -.112931063857287D+02
 0.194085392263715D+03 -.732228141214549D+02 -.415080149279314D+02 -.149229327999015D+03
 0.000000000000000D+00 0.000000000000000D+00 -.000000000000000D+00 0.000000000000000D+00
 0.163016089346146D+04 0.000000000000000D+00 0.000000000000000D+00 0.163016089346146D+04
 0.346164991538684D+03 0.000000000000000D+00 0.000000000000000D+00 -.346164991538684D+03
 0.114791438630506D+03 0.612243473061637D+02 0.276246330896878D+02 -.187158217146759D+02
 0.260883602784638D+03 -.168280226125523D+03 0.872677904353870D+02 0.179238256099420D+03
 0.185777811567237D+02 -.108684681228423D+02 0.997377067765705D+01 -.112931063857287D+02
 0.255813074779974D+03 -.186529373547604D+03 0.790432497342011D+01 -.149229327999015D+03
 0.132625998764830D+04 0.304453720489806D+03 -.132770519176152D+03 0.128399590192277D+04
0.326658323098D-05 0.000000000000D+00 0.000000000000D+00 0.265582869195D-07 0.000000000000D+00  7 -3 3 23 -13 13 23 21 0 0.32022052D-01 0.57701654D-01 0.31788667D+05 0.31788667D+05 0.31788667D+05 0.11650095D+01  1  2  2  1  7  1       -3 0.390120112221D-04 0.100000000000D+01
-.136949129270D-06 0.000000000000D+00 -.125445397181D-07 0.265582869195D-07 0.000000000000D+00  7 -3 3 23 -13 13 23 21 2 0.32022052D-01 0.57701654D-01 0.31788667D+05 0.31788667D+05 0.31788667D+05 0.11650095D+01  1  2  3  1  7  1       -3 -.221984598669D-05 0.100000000000D+01
0.205093949471D-06 0.000000000000D+00 0.000000000000D+00 0.265582869195D-07 0.000000000000D+00  7 -3 3 23 -13 13 23 21 2 0.32022052D-01 0.57701654D-01 0.31788667D+05 0.31788667D+05 0.31788667D+05 0.11650095D+01  1  2 15  1  7  1       -3 0.332442406210D-05 0.100000000000D+01
-.534271668544D-05 0.000000000000D+00 -.164259526781D-05 0.265582869195D-07 0.000000000000D+00  7 -3 3 23 -13 13 23 21 2 0.20516192D+00 0.57701654D-01 0.31788667D+05 0.31788667D+05 0.31788667D+05 0.11650095D+01  1  2  5  1  7  1       -3 -.726899765391D-06 0.100000000000D+01
-.134194808683D-05 0.000000000000D+00 -.373780523170D-06 0.265582869195D-07 0.000000000000D+00  7 21 3 23 -13 13 23 3 2 0.20516192D+00 0.57701654D-01 0.31788667D+05 0.31788667D+05 0.31788667D+05 0.11650095D+01  1  2  5  3  7  1       -3 -.383558474111D-05 0.100000000000D+01
  </mgrwgt>
  </event>
  <event>
  8     66 0.58687835E-06 0.35047247E+03 0.75467711E-02 0.92439208E-01
       -1 -1    0    0    0  501 0.00000000E+00 0.00000000E+00 0.14180978E+03 0.14181014E+03 0.32000000E+00 0.0000E+00 0.9000E+01
        1 -1    0    0  501    0 0.00000000E+00 0.00000000E+00 -.98664332E+03 0.98664338E+03 0.32000000E+00 0.0000E+00 0.9000E+01
       25  2    1    2    0    0 -.28156938E+03 -.52642906E+02 -.62838344E+03 0.75286199E+03 0.29980464E+03 0.0000E+00 0.0000E+00
       23  2    1    2    0    0 0.28156938E+03 0.52642906E+02 -.21645010E+03 0.37559154E+03 0.11029852E+03 0.0000E+00 0.0000E+00
       23  1    3    3    0    0 -.33984780E+00 0.32994874E+02 -.22858744E+03 0.24830676E+03 0.91188000E+02 0.0000E+00 0.9000E+01
      -11  1    4    4    0    0 0.27493303E+01 0.14497682E+02 -.41934699E+02 0.44455153E+02 0.51099893E-03 0.0000E+00 0.9000E+01
       11  1    4    4    0    0 0.27882005E+03 0.38145223E+02 -.17451540E+03 0.33113638E+03 0.51099893E-03 0.0000E+00 0.9000E+01
       23  1    3    3    0    0 -.28122954E+03 -.85637780E+02 -.39979600E+03 0.50455522E+03 0.91188000E+02 0.0000E+00 0.9000E+01
#aMCatNLO 1  0  0  2  2 0.41763740D+03 0.00000000D+00  -5  7  0 0.00000000D+00 0.00000000D+00 0.00000000D+00 0.00000000D+00 0.00000000D+00
  <mgrwgt>
 0.2398573149D-03    5    2    0
 0.374053351286768D+03 0.000000000000000D+00 0.000000000000000D+00 0.374053351286768D+03
 0.374053351286768D+03 0.000000000000000D+00 0.000000000000000D+00 -.374053351286768D+03
 0.116406255872707D+03 -.339847839060567D+00 0.329948741843366D+02 -.643924517572388D+02
 0.197000416590007D+02 0.274933044412001D+01 0.144976824100777D+02 -.130518208772540D+02
 0.302410812727671D+03 0.278820053088830D+03 0.381452233642262D+02 0.110709618302321D+03
 0.309589592314156D+03 -.281229535693890D+03 -.856377799586404D+02 -.332653456678282D+02
 0.000000000000000D+00 0.000000000000000D+00 0.000000000000000D+00 -.000000000000000D+00
 0.469768413880101D+03 0.000000000000000D+00 0.000000000000000D+00 0.469768413880101D+03
 0.148230420720449D+04 0.000000000000000D+00 0.000000000000000D+00 -.148230420720449D+04
 0.120037109849114D+03 -.425209223026616D+02 -.117999881419815D+02 -.643924517572388D+02
 0.156174789984419D+02 -.355125220988451D+01 0.780667853806236D+01 -.130518208772540D+02
 0.224131950454404D+03 0.184885763859570D+03 -.616097877931174D+02 0.110709618302321D+03
 0.497000853628621D+03 -.425123831725734D+03 -.238448614254744D+03 -.332653456678282D+02
 0.109528522815401D+04 0.286310242378710D+03 0.304051711651780D+03 -.101253579332439D+04
0.752189092545D-05 0.000000000000D+00 0.000000000000D+00 0.482019764248D-08 0.000000000000D+00  7 -1 1 23 -11 11 23 21 0 0.21816922D-01 0.15179131D+00 0.12283095D+06 0.12283095D+06 0.12283095D+06 0.11144662D+01  1  2  2  2  7  2        1 0.237975636430D-03 0.100000000000D+01
-.415728484321D-06 0.000000000000D+00 -.288860417131D-07 0.482019764248D-08 0.000000000000D+00  7 -1 1 23 -11 11 23 21 2 0.21816922D-01 0.15179131D+00 0.12283095D+06 0.12283095D+06 0.12283095D+06 0.11144662D+01  1  2  3  2  7  2        1 -.163361238429D-04 0.100000000000D+01
0.498400607300D-06 0.000000000000D+00 0.000000000000D+00 0.482019764248D-08 0.000000000000D+00  7 -1 1 23 -11 11 23 21 2 0.21816922D-01 0.15179131D+00 0.12283095D+06 0.12283095D+06 0.12283095D+06 0.11144662D+01  1  2 15  2  7  2        1 0.195847394425D-04 0.100000000000D+01
-.581752629562D-05 0.000000000000D+00 -.250064693738D-05 0.482019764248D-08 0.000000000000D+00  7 -1 1 23 -11 11 23 21 2 0.21816922D-01 0.62087024D+00 0.12283095D+06 0.12283095D+06 0.12283095D+06 0.11144662D+01  1  2  5  2  7  2        1 -.134866252990D-05 0.100000000000D+01
-.960804328088D-06 0.000000000000D+00 -.421557055484D-06 0.482019764248D-08 0.000000000000D+00  7 -1 21 23 -11 11 23 -1 2 0.21816922D-01 0.62087024D+00 0.12283095D+06 0.12283095D+06 0.12283095D+06 0.11144662D+01  1  2  5  4  7  2        1 -.182745537908D-07 0.100000000000D+01
  </mgrwgt>
  </event>
  <event>
  9     66 0.58687835E-06 0.29057046E+03 0.75467711E-02 0.95418159E-01
       -1 -1    0    0    0  502 0.00000000E+00 0.00000000E+00 0.64150529E+03 0.64150537E+03 0.32000000E+00 0.0000E+00 0.9000E+01
        1 -1    0    0  501    0 0.00000000E+00 0.00000000E+00 -.54291577E+03 0.54291587E+03 0.32000000E+00 0.0000E+00 0.9000E+01
       25  2    1    2    0    0 -.21989273E+03 -.65455833E+02 -.24354982E+03 0.44939684E+03 0.30000621E+03 0.0000E+00 0.0000E+00
       23  2    1    2    0    0 0.88346909E+02 0.32493558E+03 0.11980948E+03 0.36887529E+03 0.91248872E+02 0.0000E+00 0.0000E+00
       23  1    3    3    0    0 -.54977180E+02 -.19175356E+02 0.31593210E+02 0.11271010E+03 0.91188000E+02 0.0000E+00 0.9000E+01
      -11  1    4    4    0    0 0.87979272E+02 0.25121913E+03 0.12677878E+03 0.29482921E+03 0.51099893E-03 0.0000E+00 0.9000E+01
       11  1    4    4    0    0 0.36763671E+00 0.73716455E+02 -.69692977E+01 0.74046080E+02 0.51099893E-03 0.0000E+00 0.9000E+01
       23  1    3    3    0    0 -.16491555E+03 -.46280477E+02 -.27514303E+03 0.33668674E+03 0.91188000E+02 0.0000E+00 0.9000E+01
       21  1    1    2  501  502 0.13154583E+03 -.25947975E+03 0.22232985E+03 0.36614911E+03 0.75000000E+00 0.0000E+00 0.9000E+01
#aMCatNLO 2  0  0  1  2 0.29091931D+03 0.00000000D+00  -5  7  0 0.00000000D+00 0.00000000D+00 0.00000000D+00 0.00000000D+00 0.00000000D+00
  <mgrwgt>
 0.2422853914D-04    1    2    0
 0.377367049241803D+03 0.000000000000000D+00 0.000000000000000D+00 0.377367049241803D+03
 0.377367049241803D+03 0.000000000000000D+00 0.000000000000000D+00 -.377367049241803D+03
 0.124388823417190D+03 -.345130412269457D+02 -.595417414789309D+02 0.492032423122305D+02
 0.269399781376044D+03 0.137368286202466D+03 0.153797190505600D+03 0.173356916054254D+03
 0.538572384664339D+02 0.111109596105911D+02 0.525247926280084D+02 0.427725041900295D+01
 0.307088255223939D+03 -.113966204586111D+03 -.146780241654677D+03 -.226837408785488D+03
 0.000000000000000D+00 0.000000000000000D+00 -.000000000000000D+00 0.000000000000000D+00
 0.747106067269865D+03 0.000000000000000D+00 0.000000000000000D+00 0.747106067269865D+03
 0.466176065499035D+03 0.000000000000000D+00 0.000000000000000D+00 -.466176065499035D+03
 0.118854511714793D+03 -.549771795751003D+02 -.191753561347104D+02 0.492032423122305D+02
 0.317653934289509D+03 0.879792723219433D+02 0.251219125998526D+03 0.173356916054254D+03
 0.738413554632518D+02 0.367636708757095D+00 0.737164550745207D+02 0.427725041900295D+01
 0.298512117044276D+03 -.164915554524379D+03 -.462804767656704D+02 -.226837408785488D+03
 0.404420214257070D+03 0.131545825068779D+03 -.259479748172665D+03 0.280930001770830D+03
0.404261958972D-05 0.000000000000D+00 0.000000000000D+00 0.162303008162D-05 0.153147842166D-09  7 -1 1 23 -11 11 23 21 2 0.98693067D-01 0.83525460D-01 0.21764777D+06 0.21764777D+06 0.21764777D+06 0.10950160D+01  1  2  1  1  7  1       -1 0.242285391449D-04 0.100000000000D+01
  </mgrwgt>
  </event>
  <event>
  8     66 0.58687835E-06 0.59608014E+02 0.75467711E-02 0.10796275E+00
       -1 -1    0    0    0  501 0.00000000E+00 0.00000000E+00 0.48285690E+03 0.48285701E+03 0.32000000E+00 0.0000E+00 0.9000E+01
        1 -1    0    0  501    0 0.00000000E+00 0.00000000E+00 -.13472248E+03 0.13472286E+03 0.32000000E+00 0.0000E+00 0.9000E+01
       25  2    1    2    0    0 -.42358907E+02 0.50973687E+02 0.39479978E+03 0.49995191E+03 0.29948698E+03 0.0000E+00 0.0000E+00
       23  2    1    2    0    0 0.42358907E+02 -.50973687E+02 -.46665352E+02 0.11762796E+03 0.85241349E+02 0.0000E+00 0.0000E+00
       23  1    3    3    0    0 -.84748549E+02 -.16655417E+02 0.34812480E+03 0.37008897E+03 0.91188000E+02 0.0000E+00 0.9000E+01
      -13  1    4    4    0    0 0.45154768E+02 -.65556726E+02 -.58378503E+02 0.98715238E+02 0.10565837E+00 0.0000E+00 0.9000E+01
       13  1    4    4    0    0 -.27958617E+01 0.14583039E+02 0.11713151E+02 0.18912719E+02 0.10565837E+00 0.0000E+00 0.9000E+01
       23  1    3    3    0    0 0.42389642E+02 0.67629104E+02 0.46674978E+02 0.12986294E+03 0.91188000E+02 0.0000E+00 0.9000E+01
#aMCatNLO 1  0  0  2  1 0.16675929D+02 0.00000000D+00  -5  7  0 0.00000000D+00 0.00000000D+00 0.00000000D+00 0.00000000D+00 0.00000000D+00
  <mgrwgt>
 0.4933783872D-03    6    2    0
 0.255052598406089D+03 0.000000000000000D+00 0.000000000000000D+00 0.255052598406089D+03
 0.255052598406089D+03 0.000000000000000D+00 0.000000000000000D+00 -.255052598406089D+03
 0.210476723165749D+03 -.847485490756560D+02 -.166554161851910D+02 0.168894879116747D+03
 0.159355804506848D+03 0.451548425470843D+02 -.655568487036728D+02 -.138049310800947D+03
 0.149032974582202D+02 -.279593491813863D+01 0.145831609691103D+02 0.127375005819149D+01
 0.125369371681361D+03 0.423896414467103D+02 0.676291039197535D+02 -.321193183739916D+02
 0.000000000000000D+00 0.000000000000000D+00 -.000000000000000D+00 0.000000000000000D+00
 0.264726712277168D+03 0.000000000000000D+00 0.000000000000000D+00 0.264726712277168D+03
 0.262477869386144D+03 0.000000000000000D+00 0.000000000000000D+00 -.262477869386144D+03
 0.212960005268377D+03 -.911742684034219D+02 -.140884736273079D+02 0.168894879116747D+03
 0.157275059719877D+03 0.403499191018442D+02 -.636373807266541D+02 -.138049310800947D+03
 0.151729974021934D+02 -.325234744972707D+01 0.147654883773778D+02 0.127375005819149D+01
 0.124969639325835D+03 0.385907073592697D+02 0.691466998629044D+02 -.321193183739916D+02
 0.168268799470300D+02 0.154859893920350D+02 -.618633388632016D+01 0.224884289102308D+01
0.438357461169D-05 0.000000000000D+00 0.000000000000D+00 0.897225453548D-08 0.000000000000D+00  7 -1 1 23 -13 13 23 21 0 0.74285714D-01 0.20726572D-01 0.29110410D+05 0.29110410D+05 0.29110410D+05 0.11685508D+01  1  2  2  2  7  2        1 0.258083782046D-03 0.100000000000D+01
-.195670557747D-06 0.000000000000D+00 -.168340807306D-07 0.897225453548D-08 0.000000000000D+00  7 -1 1 23 -13 13 23 21 2 0.74285714D-01 0.20726572D-01 0.29110410D+05 0.29110410D+05 0.29110410D+05 0.11685508D+01  1  2  3  2  7  2        1 -.157308786902D-04 0.100000000000D+01
0.275654675728D-06 0.000000000000D+00 0.000000000000D+00 0.897225453548D-08 0.000000000000D+00  7 -1 1 23 -13 13 23 21 2 0.74285714D-01 0.20726572D-01 0.29110410D+05 0.29110410D+05 0.29110410D+05 0.11685508D+01  1  2 15  2  7  2        1 0.221611790460D-04 0.100000000000D+01
0.848757514316D-05 0.000000000000D+00 0.000000000000D+00 0.897225453548D-08 0.000000000000D+00  7 -1 1 23 -13 13 23 21 2 0.74285714D-01 0.21710220D-01 0.31975737D+05 0.31975737D+05 0.31975737D+05 0.11647746D+01  1  2 12  2  7  2        1 0.638611982339D-03 0.100000000000D+01
-.578788835082D-05 0.000000000000D+00 0.000000000000D+00 0.897225453548D-08 0.000000000000D+00  7 -1 1 23 -13 13 23 21 2 0.74285714D-01 0.20726572D-01 0.29110410D+05 0.29110410D+05 0.29110410D+05 0.11685508D+01  1  2  4  2  7  2        1 -.465315633418D-03 0.100000000000D+01
0.911074790290D-07 0.000000000000D+00 0.000000000000D+00 0.897225453548D-08 0.000000000000D+00  7 -1 21 23 -13 13 23 -1 2 0.74285714D-01 0.21710220D-01 0.31975737D+05 0.31975737D+05 0.31975737D+05 0.11647746D+01  1  2 12  4  7  2        1 0.555679559127D-04 0.100000000000D+01
  </mgrwgt>
  </event>
  <event>
  8     66 0.58687835E-06 0.27932960E+03 0.75467711E-02 0.95692263E-01
       -1 -1    0    0    0  501 0.00000000E+00 0.00000000E+00 0.19393153E+03 0.19393180E+03 0.32000000E+00 0.0000E+00 0.9000E+01
        1 -1    0    0  501    0 0.00000000E+00 0.00000000E+00 -.62716436E+03 0.62716444E+03 0.32000000E+00 0.0000E+00 0.9000E+01
       25  2    1    2    0    0 0.17841119E+03 -.56604243E+02 -.14777254E+02 0.35375133E+03 0.29981169E+03 0.0000E+00 0.0000E+00
       23  2    1    2    0    0 -.17841119E+03 0.56604243E+02 -.41845557E+03 0.46734490E+03 0.90948347E+02 0.0000E+00 0.0000E+00
       23  1    3    3    0    0 0.16470697E+03 0.66226094E+02 -.15299373E+02 0.20015895E+03 0.91188000E+02 0.0000E+00 0.9000E+01
      -13  1    4    4    0    0 0.47681533E+01 -.95991743E+01 -.92878510E+01 0.14182904E+02 0.10565837E+00 0.0000E+00 0.9000E+01
       13  1    4    4    0    0 -.18317934E+03 0.66203417E+02 -.40916772E+03 0.45316200E+03 0.10565837E+00 0.0000E+00 0.9000E+01
       23  1    3    3    0    0 0.13704214E+02 -.12283034E+03 0.52211898E+00 0.15359239E+03 0.91188000E+02 0.0000E+00 0.9000E+01
#aMCatNLO 1  0  0  2  2 0.28013820D+03 0.00000000D+00  -5  7  0 0.00000000D+00 0.00000000D+00 0.00000000D+00 0.00000000D+00 0.00000000D+00
  <mgrwgt>
 0.3648344856D-03    3    2    0
 0.348750752122570D+03 0.000000000000000D+00 0.000000000000000D+00 0.348750752122570D+03
 0.348750752122570D+03 0.000000000000000D+00 0.000000000000000D+00 -.348750752122570D+03
 0.226123623565451D+03 0.164706971445619D+03 0.662260939580726D+02 0.106312557238731D+03
 0.109268217461778D+02 0.476840687963889D+01 -.959927646473045D+01 -.212405759258745D+01
 0.279318360846761D+03 -.183179592358801D+03 0.662035193012253D+02 -.200202591595406D+03
 0.181132698086749D+03 0.137042140335434D+02 -.122830336794567D+03 0.960140919492625D+02
 0.000000000000000D+00 0.000000000000000D+00 0.000000000000000D+00 0.000000000000000D+00
 0.172425113483008D+04 0.000000000000000D+00 0.000000000000000D+00 0.172425113483008D+04
 0.390377519306032D+03 0.000000000000000D+00 0.000000000000000D+00 -.390377519306032D+03
 0.173184310833524D+03 0.895855705986121D+02 0.484728778675793D+02 0.106312557238731D+03
 0.107980798616156D+02 0.681322949044662D+00 -.105651647919143D+02 -.212405759258745D+01
 0.366487591055173D+03 -.304674417787776D+03 0.374910104103147D+02 -.200202591595406D+03
 0.201185365610246D+03 -.582208994938456D+02 -.139828183857957D+03 0.960140919492625D+02
 0.136297330677555D+04 0.272628423733965D+03 0.644294603719773D+02 0.133387361552405D+04
0.923965570323D-05 0.000000000000D+00 0.000000000000D+00 0.145248684765D-05 0.000000000000D+00  7 -1 1 23 -13 13 23 21 0 0.29835647D-01 0.96486851D-01 0.78025028D+05 0.78025028D+05 0.78025028D+05 0.11306743D+01  1  2  2  2  7  2        1 0.359071395030D-03 0.100000000000D+01
-.482565001131D-06 0.000000000000D+00 -.354827107576D-07 0.145248684765D-05 0.000000000000D+00  7 -1 1 23 -13 13 23 21 2 0.29835647D-01 0.96486851D-01 0.78025028D+05 0.78025028D+05 0.78025028D+05 0.11306743D+01  1  2  3  2  7  2        1 -.239748471593D-04 0.100000000000D+01
0.598564314869D-06 0.000000000000D+00 0.000000000000D+00 0.145248684765D-05 0.000000000000D+00  7 -1 1 23 -13 13 23 21 2 0.29835647D-01 0.96486851D-01 0.78025028D+05 0.78025028D+05 0.78025028D+05 0.11306743D+01  1  2 15  2  7  2        1 0.297379377500D-04 0.100000000000D+01
  </mgrwgt>
  </event>
  <event>
  8     66 0.58687835E-06 0.23388555E+03 0.75467711E-02 0.10301571E+00
       -1 -1    0    0    0  501 0.00000000E+00 0.00000000E+00 0.91470096E+02 0.91470655E+02 0.32000000E+00 0.0000E+00 0.9000E+01
        1 -1    0    0  501    0 0.00000000E+00 0.00000000E+00 -.10128410E+04 0.10128410E+04 0.32000000E+00 0.0000E+00 0.9000E+01
       25  2    1    2    0    0 0.15157996E+03 -.86564776E+02 -.80248833E+03 0.87429159E+03 0.29988052E+03 0.0000E+00 0.0000E+00
       23  2    1    2    0    0 -.15157996E+03 0.86564776E+02 -.11888254E+03 0.23002008E+03 0.91138549E+02 0.0000E+00 0.0000E+00
       23  1    3    3    0    0 0.14861980E+03 -.97370407E+02 -.73126103E+03 0.75804141E+03 0.91188000E+02 0.0000E+00 0.9000E+01
      -13  1    4    4    0    0 -.13979247E+03 0.71372579E+02 -.13334957E+03 0.20595654E+03 0.10565837E+00 0.0000E+00 0.9000E+01
       13  1    4    4    0    0 -.11787493E+02 0.15192197E+02 0.14467028E+02 0.24063539E+02 0.10565837E+00 0.0000E+00 0.9000E+01
       23  1    3    3    0    0 0.29601553E+01 0.10805631E+02 -.71227304E+02 0.11625018E+03 0.91188000E+02 0.0000E+00 0.9000E+01
#aMCatNLO 1  0  0  2  2 0.37578309D+02 0.00000000D+00  -5  7  0 0.00000000D+00 0.00000000D+00 0.00000000D+00 0.00000000D+00 0.00000000D+00
  <mgrwgt>
 0.1763046512D-03    4    2    0
 0.304376407238891D+03 0.000000000000000D+00 0.000000000000000D+00 0.304376407238891D+03
 0.304376407238891D+03 0.000000000000000D+00 0.000000000000000D+00 -.304376407238891D+03
 0.268337767015140D+03 0.148619803531626D+03 -.973704072737189D+02 -.179223501941690D+03
 0.171787117747501D+03 -.139792637593812D+03 0.713726540780484D+02 0.698196000304651D+02
 0.655488698768901D+02 -.117873214799892D+02 0.151921218959445D+02 0.626650845907321D+02
 0.103079059838252D+03 0.296015554217519D+01 0.108056312997259D+02 0.467388173204923D+02
 0.000000000000000D+00 0.000000000000000D+00 -.000000000000000D+00 0.000000000000000D+00
 0.357391118377375D+03 0.000000000000000D+00 0.000000000000000D+00 0.357391118377375D+03
 0.311688500942767D+03 0.000000000000000D+00 0.000000000000000D+00 -.311688500942767D+03
 0.262729881325506D+03 0.148426300163063D+03 -.809957342640703D+02 -.179223501941690D+03
 0.176621606436986D+03 -.139919586132245D+03 0.821153136056165D+02 0.698196000304651D+02
 0.666199832765945D+02 -.118354794093682D+02 0.192673498997795D+02 0.626650845907321D+02
 0.103940095026205D+03 0.288472465507738D+01 0.171887558945513D+02 0.467388173204923D+02
 0.591680532548506D+02 0.444040723473419D+00 -.375756851358770D+02 0.457026174346083D+02
0.376398535867D-05 0.000000000000D+00 0.000000000000D+00 0.631401298512D-06 0.000000000000D+00  7 -1 1 23 -13 13 23 21 0 0.14072369D-01 0.15582173D+00 0.54702449D+05 0.54702449D+05 0.54702449D+05 0.11438775D+01  1  2  2  2  7  2        1 0.230630785680D-03 0.100000000000D+01
-.191466256441D-06 0.000000000000D+00 -.144546948574D-07 0.631401298512D-06 0.000000000000D+00  7 -1 1 23 -13 13 23 21 2 0.14072369D-01 0.15582173D+00 0.54702449D+05 0.54702449D+05 0.54702449D+05 0.11438775D+01  1  2  3  2  7  2        1 -.153504326530D-04 0.100000000000D+01
0.241391038512D-06 0.000000000000D+00 0.000000000000D+00 0.631401298512D-06 0.000000000000D+00  7 -1 1 23 -13 13 23 21 2 0.14072369D-01 0.15582173D+00 0.54702449D+05 0.54702449D+05 0.54702449D+05 0.11438775D+01  1  2 15  2  7  2        1 0.193530544159D-04 0.100000000000D+01
-.727535753984D-06 0.000000000000D+00 0.000000000000D+00 0.631401298512D-06 0.000000000000D+00  7 -1 1 23 -13 13 23 21 2 0.14072369D-01 0.15582173D+00 0.54702449D+05 0.54702449D+05 0.54702449D+05 0.11438775D+01  1  2  4  2  7  2        1 -.583287562089D-04 0.100000000000D+01
  </mgrwgt>
  </event>
  <event>
  8     66 0.58687835E-06 0.29865230E+03 0.75467711E-02 0.91195491E-01
       -1 -1    0    0    0  501 0.00000000E+00 0.00000000E+00 0.21296921E+03 0.21296945E+03 0.32000000E+00 0.0000E+00 0.9000E+01
        1 -1    0    0  501    0 0.00000000E+00 0.00000000E+00 -.23152717E+04 0.23152717E+04 0.32000000E+00 0.0000E+00 0.9000E+01
       25  2    1    2    0    0 -.60794774E+03 -.11291080E+03 -.64472976E+03 0.94243961E+03 0.30027762E+03 0.0000E+00 0.0000E+00
       23  2    1    2    0    0 0.60794774E+03 0.11291080E+03 -.14575727E+04 0.15858015E+04 0.88876469E+02 0.0000E+00 0.0000E+00
       23  1    3    3    0    0 -.18160535E+03 -.54052014E+02 -.76400240E+02 0.22372834E+03 0.91188000E+02 0.0000E+00 0.9000E+01
      -11  1    4    4    0    0 0.44999487E+03 0.77177230E+02 -.97091627E+03 0.10729073E+04 0.51099893E-03 0.0000E+00 0.9000E+01
       11  1    4    4    0    0 0.15795287E+03 0.35733568E+02 -.48665642E+03 0.51289420E+03 0.51099893E-03 0.0000E+00 0.9000E+01
       23  1    3    3    0    0 -.42634239E+03 -.58858784E+02 -.56832952E+03 0.71871127E+03 0.91188000E+02 0.0000E+00 0.9000E+01
#aMCatNLO 1  0  0  2  1 0.98383436D+02 0.00000000D+00  -5  7  0 0.00000000D+00 0.00000000D+00 0.00000000D+00 0.00000000D+00 0.00000000D+00
  <mgrwgt>
 0.2328584073D-03    9    2    0
 0.702197913692408D+03 0.000000000000000D+00 0.000000000000000D+00 0.702197913692408D+03
 0.702197913692408D+03 0.000000000000000D+00 0.000000000000000D+00 -.702197913692408D+03
 0.288396458571204D+03 -.181605347960311D+03 -.540520144062726D+02 0.197370573549481D+03
 0.478076585788204D+03 0.449994872344607D+03 0.771772299399031D+02 -.141793906502607D+03
 0.194831998919006D+03 0.157952867625124D+03 0.357335684491795D+02 -.108321334452929D+03
 0.443090784106401D+03 -.426342392009421D+03 -.588587839828100D+02 0.527446674060557D+02
 0.000000000000000D+00 -.000000000000000D+00 -.000000000000000D+00 -.000000000000000D+00
 0.719973107393178D+03 0.000000000000000D+00 0.000000000000000D+00 0.719973107393178D+03
 0.854646699159997D+03 0.000000000000000D+00 0.000000000000000D+00 -.854646699159997D+03
 0.276060156554491D+03 -.164053207367452D+03 -.450040058449347D+02 0.197370573549481D+03
 0.509745565545478D+03 0.480711835909801D+03 0.930116148028676D+02 -.141793906502607D+03
 0.206291809492668D+03 0.170426069801729D+03 0.421634189556832D+02 -.108321334452929D+03
 0.415740151000472D+03 -.399636493071315D+03 -.450920755319603D+02 0.527446674060557D+02
 0.166782123960066D+03 -.874482052727621D+02 -.450789523816558D+02 -.134673591766820D+03
0.734386060772D-04 0.000000000000D+00 0.000000000000D+00 0.839871275125D-06 0.000000000000D+00  7 -1 1 23 -11 11 23 21 0 0.32764514D-01 0.35619566D+00 0.40241838D+06 0.40241838D+06 0.40241838D+06 0.10752390D+01  1  2  2  2  7  2        1 0.140471512802D-03 0.100000000000D+01
-.402872512030D-05 0.000000000000D+00 -.282023584166D-06 0.839871275125D-06 0.000000000000D+00  7 -1 1 23 -11 11 23 21 2 0.32764514D-01 0.35619566D+00 0.40241838D+06 0.40241838D+06 0.40241838D+06 0.10752390D+01  1  2  3  2  7  2        1 -.890925631327D-05 0.100000000000D+01
0.472666733850D-05 0.000000000000D+00 0.000000000000D+00 0.839871275125D-06 0.000000000000D+00  7 -1 1 23 -11 11 23 21 2 0.32764514D-01 0.35619566D+00 0.40241838D+06 0.40241838D+06 0.40241838D+06 0.10752390D+01  1  2 15  2  7  2        1 0.104527088766D-04 0.100000000000D+01
0.166360504583D-03 0.000000000000D+00 0.000000000000D+00 0.839871275125D-06 0.000000000000D+00  7 -1 1 23 -11 11 23 21 2 0.32764514D-01 0.43736699D+00 0.46851901D+06 0.46851901D+06 0.46851901D+06 0.10705122D+01  1  2 12  2  7  2        1 0.153621271532D-03 0.100000000000D+01
-.168495330440D-03 0.000000000000D+00 0.000000000000D+00 0.839871275125D-06 0.000000000000D+00  7 -1 1 23 -11 11 23 21 2 0.32764514D-01 0.35619566D+00 0.40241838D+06 0.40241838D+06 0.40241838D+06 0.10752390D+01  1  2  4  2  7  2        1 -.372616160610D-03 0.100000000000D+01
-.240663016377D-03 0.000000000000D+00 -.358177863521D-04 0.839871275125D-06 0.000000000000D+00  7 -1 1 23 -11 11 23 21 2 0.32764514D-01 0.43656433D+00 0.40241838D+06 0.40241838D+06 0.40241838D+06 0.10752390D+01  1  2  5  2  7  2        1 -.228458061584D-03 0.100000000000D+01
0.243619464203D-03 0.000000000000D+00 0.350890370736D-04 0.839871275125D-06 0.000000000000D+00  7 -1 1 23 -11 11 23 21 2 0.32764514D-01 0.35619566D+00 0.40241838D+06 0.40241838D+06 0.40241838D+06 0.10752390D+01  1  2  6  2  7  2        1 0.538748160938D-03 0.100000000000D+01
0.485679753656D-05 0.000000000000D+00 0.000000000000D+00 0.839871275125D-06 0.000000000000D+00  7 -1 21 23 -11 11 23 -1 2 0.32764514D-01 0.43736699D+00 0.46851901D+06 0.46851901D+06 0.46851901D+06 0.10705122D+01  1  2 12  4  7  2        1 0.111799331846D-05 0.100000000000D+01
-.655312972855D-05 0.000000000000D+00 -.103852468474D-05 0.839871275125D-06 0.000000000000D+00  7 -1 21 23 -11 11 23 -1 2 0.32764514D-01 0.43656433D+00 0.40241838D+06 0.40241838D+06 0.40241838D+06 0.10752390D+01  1  2  5  4  7  2        1 -.156976162248D-05 0.100000000000D+01
  </mgrwgt>
  </event>
  <event>
  8     66 0.58687835E-06 0.15724539E+03 0.75467711E-02 0.10104133E+00
       -1 -1    0    0    0  501 0.00000000E+00 0.00000000E+00 0.21967773E+03 0.21967796E+03 0.32000000E+00 0.0000E+00 0.9000E+01
        1 -1    0    0  501    0 0.00000000E+00 0.00000000E+00 -.75550424E+03 0.75550430E+03 0.32000000E+00 0.0000E+00 0.9000E+01
       25  2    1    2    0    0 0.12774908E+03 0.23153183E+02 0.82119758E+02 0.33692832E+03 0.29986854E+03 0.0000E+00 0.0000E+00
       23  2    1    2    0    0 -.12774908E+03 -.23153183E+02 -.61794626E+03 0.63825395E+03 0.93030188E+02 0.0000E+00 0.0000E+00
       23  1    3    3    0    0 0.14922178E+03 0.76957900E+02 -.15009792E+02 0.19165126E+03 0.91188000E+02 0.0000E+00 0.9000E+01
      -11  1    4    4    0    0 -.51828469E+02 -.46945953E+02 -.40369959E+03 0.40971145E+03 0.51099893E-03 0.0000E+00 0.9000E+01
       11  1    4    4    0    0 -.75920611E+02 0.23792770E+02 -.21424667E+03 0.22854250E+03 0.51099893E-03 0.0000E+00 0.9000E+01
       23  1    3    3    0    0 -.21472705E+02 -.53804717E+02 0.97129550E+02 0.14527706E+03 0.91188000E+02 0.0000E+00 0.9000E+01
#aMCatNLO 1  0  0  2  1 0.12788624D+03 0.00000000D+00  -5  7  0 0.00000000D+00 0.00000000D+00 0.00000000D+00 0.00000000D+00 0.00000000D+00
  <mgrwgt>
 0.1428289741D-03    9    2    0
 0.407391215704126D+03 0.000000000000000D+00 0.000000000000000D+00 0.407391215704126D+03
 0.407391215704126D+03 0.000000000000000D+00 0.000000000000000D+00 -.407391215704126D+03
 0.219509229375257D+03 0.149221784171463D+03 0.769579004149078D+02 0.108071231737839D+03
 0.224882609427829D+03 -.518284685954547D+02 -.469459531110301D+02 -.213733655170674D+03
 0.132638528543623D+03 -.759206109380642D+02 0.237927700930318D+02 -.106127019087076D+03
 0.237752064061543D+03 -.214727046379436D+02 -.538047173969095D+02 0.211789442519911D+03
 0.000000000000000D+00 -.000000000000000D+00 0.000000000000000D+00 -.000000000000000D+00
 0.462683867421026D+03 0.000000000000000D+00 0.000000000000000D+00 0.462683867421026D+03
 0.493657499269364D+03 0.000000000000000D+00 0.000000000000000D+00 -.493657499269364D+03
 0.232524713022547D+03 0.176371876707597D+03 0.544615534071920D+02 0.108071231737839D+03
 0.226073178006561D+03 -.247431322740189D+02 -.693886436431804D+02 -.213733655170674D+03
 0.122703999301739D+03 -.605842111477334D+02 0.110851533114993D+02 -.106127019087076D+03
 0.243455831780537D+03 0.742963581890113D+01 -.777529628545250D+02 0.211789442519911D+03
 0.131583644579005D+03 -.984741691047459D+02 0.815948997790141D+02 -.309736318483379D+02
0.563697072319D-05 0.000000000000D+00 0.000000000000D+00 0.385769021876D-06 0.000000000000D+00  7 -1 1 23 -11 11 23 21 0 0.33796597D-01 0.11623144D+00 0.50307601D+05 0.50307601D+05 0.50307601D+05 0.11470612D+01  1  2  2  2  7  2        1 0.135936559321D-03 0.100000000000D+01
-.177540304177D-06 0.000000000000D+00 -.216474518255D-07 0.385769021876D-06 0.000000000000D+00  7 -1 1 23 -11 11 23 21 2 0.33796597D-01 0.11623144D+00 0.50307601D+05 0.50307601D+05 0.50307601D+05 0.11470612D+01  1  2  3  2  7  2        1 -.563327058428D-05 0.100000000000D+01
0.356215955235D-06 0.000000000000D+00 0.000000000000D+00 0.385769021876D-06 0.000000000000D+00  7 -1 1 23 -11 11 23 21 2 0.33796597D-01 0.11623144D+00 0.50307601D+05 0.50307601D+05 0.50307601D+05 0.11470612D+01  1  2 15  2  7  2        1 0.113025651926D-04 0.100000000000D+01
0.188094256204D-05 0.000000000000D+00 0.000000000000D+00 0.385769021876D-06 0.000000000000D+00  7 -1 1 23 -11 11 23 21 2 0.33796597D-01 0.14735150D+00 0.86758319D+05 0.86758319D+05 0.86758319D+05 0.11268198D+01  1  2 12  2  7  2        1 0.388868590030D-04 0.100000000000D+01
-.374998512528D-05 0.000000000000D+00 0.000000000000D+00 0.385769021876D-06 0.000000000000D+00  7 -1 1 23 -11 11 23 21 2 0.33796597D-01 0.11623144D+00 0.50307601D+05 0.50307601D+05 0.50307601D+05 0.11470612D+01  1  2  4  2  7  2        1 -.118985269264D-03 0.100000000000D+01
-.530977389497D-05 0.000000000000D+00 -.287194594419D-05 0.385769021876D-06 0.000000000000D+00  7 -1 1 23 -11 11 23 21 2 0.33796597D-01 0.15426686D+00 0.50307601D+05 0.50307601D+05 0.50307601D+05 0.11470612D+01  1  2  5  2  7  2        1 -.106730821264D-03 0.100000000000D+01
0.599244572495D-05 0.000000000000D+00 0.276058046980D-05 0.385769021876D-06 0.000000000000D+00  7 -1 1 23 -11 11 23 21 2 0.33796597D-01 0.11623144D+00 0.50307601D+05 0.50307601D+05 0.50307601D+05 0.11470612D+01  1  2  6  2  7  2        1 0.190137492367D-03 0.100000000000D+01
0.612337272260D-07 0.000000000000D+00 0.000000000000D+00 0.385769021876D-06 0.000000000000D+00  7 -1 21 23 -11 11 23 -1 2 0.33796597D-01 0.14735150D+00 0.86758319D+05 0.86758319D+05 0.86758319D+05 0.11268198D+01  1  2 12  4  7  2        1 0.186225714347D-05 0.100000000000D+01
-.138007951217D-06 0.000000000000D+00 -.106450878771D-06 0.385769021876D-06 0.000000000000D+00  7 -1 21 23 -11 11 23 -1 2 0.33796597D-01 0.15426686D+00 0.50307601D+05 0.50307601D+05 0.50307601D+05 0.11470612D+01  1  2  5  4  7  2        1 -.394739778743D-05 0.100000000000D+01
  </mgrwgt>
  </event>
  <event>
  8     66 0.58687835E-06 0.80095192E+02 0.75467711E-02 0.10662275E+00
       -1 -1    0    0    0  501 0.00000000E+00 0.00000000E+00 0.52191058E+02 0.52192039E+02 0.32000000E+00 0.0000E+00 0.9000E+01
        1 -1    0    0  501    0 0.00000000E+00 0.00000000E+00 -.95198850E+03 0.95198856E+03 0.32000000E+00 0.0000E+00 0.9000E+01
       25  2    1    2    0    0 0.94612062E+02 0.96719791E+00 -.63497399E+03 0.70892093E+03 0.30070673E+03 0.0000E+00 0.0000E+00
       23  2    1    2    0    0 -.94612062E+02 -.96719791E+00 -.26482346E+03 0.29525967E+03 0.89969056E+02 0.0000E+00 0.0000E+00
       23  1    3    3    0    0 0.26875321E+02 0.10148981E+03 -.44264513E+03 0.46397460E+03 0.91188000E+02 0.0000E+00 0.9000E+01
      -11  1    4    4    0    0 -.26008667E+02 -.36429728E+01 -.19703391E+03 0.19877647E+03 0.51099893E-03 0.0000E+00 0.9000E+01
       11  1    4    4    0    0 -.68603395E+02 0.26757749E+01 -.67789546E+02 0.96483201E+02 0.51099893E-03 0.0000E+00 0.9000E+01
       23  1    3    3    0    0 0.67736741E+02 -.10052262E+03 -.19232886E+03 0.24494633E+03 0.91188000E+02 0.0000E+00 0.9000E+01
#aMCatNLO 1  0  0  2  1 0.62087560D+01 0.00000000D+00  -5  7  0 0.00000000D+00 0.00000000D+00 0.00000000D+00 0.00000000D+00 0.00000000D+00
  <mgrwgt>
 0.3549920501D-03   11    2    0
 0.222903132377788D+03 0.000000000000000D+00 0.000000000000000D+00 0.222903132377788D+03
 0.222903132377788D+03 0.000000000000000D+00 0.000000000000000D+00 -.222903132377788D+03
 0.151687709643176D+03 0.268753206748861D+02 0.101489814487927D+03 -.605924467786269D+02
 0.500595516630740D+02 -.260086667682795D+02 -.364297280904339D+01 -.426173288083279D+02
 0.805051458263385D+02 -.686033952882823D+02 0.267577490136354D+01 0.420415614376649D+02
 0.163553857622988D+03 0.677367413816757D+02 -.100522616580247D+03 0.611682141492899D+02
 0.000000000000000D+00 -.000000000000000D+00 0.000000000000000D+00 -.000000000000000D+00
 0.224284130597624D+03 0.000000000000000D+00 0.000000000000000D+00 0.224284130597624D+03
 0.230014119823499D+03 0.000000000000000D+00 0.000000000000000D+00 -.230014119823499D+03
 0.150354326114896D+03 0.271662271119114D+02 0.994068585930958D+02 -.605924467786269D+02
 0.500645523552720D+02 -.259122340108747D+02 -.433345316604483D+01 -.426173288083279D+02
 0.803438908347050D+02 -.684484763875519D+02 0.156652052804397D+01 0.420415614376649D+02
 0.165086728111163D+03 0.680532657410017D+02 -.102789002593762D+03 0.611682141492899D+02
 0.844875300508741D+01 -.858782454486486D+00 0.614907663866662D+01 -.572998922587504D+01
0.779942026764D-06 0.000000000000D+00 0.000000000000D+00 0.394219552273D-07 0.000000000000D+00  7 -1 1 23 -11 11 23 21 0 0.80294731D-02 0.14645985D+00 0.37184017D+05 0.37184017D+05 0.37184017D+05 0.11587830D+01  1  2  2  2  7  2        1 0.125142511360D-03 0.100000000000D+01
-.422236700775D-07 0.000000000000D+00 -.299518274622D-08 0.394219552273D-07 0.000000000000D+00  7 -1 1 23 -11 11 23 21 2 0.80294731D-02 0.14645985D+00 0.37184017D+05 0.37184017D+05 0.37184017D+05 0.11587830D+01  1  2  3  2  7  2        1 -.909709552756D-05 0.100000000000D+01
0.501703380210D-07 0.000000000000D+00 0.000000000000D+00 0.394219552273D-07 0.000000000000D+00  7 -1 1 23 -11 11 23 21 2 0.80294731D-02 0.14645985D+00 0.37184017D+05 0.37184017D+05 0.37184017D+05 0.11587830D+01  1  2 15  2  7  2        1 0.108092062293D-04 0.100000000000D+01
0.187452244394D-05 0.000000000000D+00 0.000000000000D+00 0.394219552273D-07 0.000000000000D+00  7 -1 1 23 -11 11 23 21 2 0.80294731D-02 0.15157696D+00 0.38394082D+05 0.38394082D+05 0.38394082D+05 0.11575236D+01  1  2 12  2  7  2        1 0.380425952717D-03 0.100000000000D+01
-.334995710154D-05 0.000000000000D+00 0.000000000000D+00 0.394219552273D-07 0.000000000000D+00  7 -1 1 23 -11 11 23 21 2 0.80294731D-02 0.14645985D+00 0.37184017D+05 0.37184017D+05 0.37184017D+05 0.11587830D+01  1  2  4  2  7  2        1 -.721748718432D-03 0.100000000000D+01
-.233669114184D-04 0.000000000000D+00 -.266248045882D-05 0.394219552273D-07 0.000000000000D+00  7 -1 1 23 -11 11 23 21 2 0.80294731D-02 0.15164328D+00 0.37184017D+05 0.37184017D+05 0.37184017D+05 0.11587830D+01  1  2  5  2  7  2        1 -.474865521238D-02 0.100000000000D+01
0.234469385194D-04 0.000000000000D+00 0.266087097490D-05 0.394219552273D-07 0.000000000000D+00  7 -1 1 23 -11 11 23 21 2 0.80294731D-02 0.14645985D+00 0.37184017D+05 0.37184017D+05 0.37184017D+05 0.11587830D+01  1  2  6  2  7  2        1 0.505164612996D-02 0.100000000000D+01
0.145157159022D-05 0.000000000000D+00 0.000000000000D+00 0.394219552273D-07 0.731024041736D-08  7 -1 1 23 -11 11 23 21 2 0.80792198D-02 0.15113217D+00 0.38394082D+05 0.38394082D+05 0.38394082D+05 0.11575236D+01  1  2 11  2  7  2        1 0.293321996781D-03 0.100000000000D+01
0.450693214215D-07 0.000000000000D+00 0.000000000000D+00 0.394219552273D-07 0.000000000000D+00  7 -1 21 23 -11 11 23 -1 2 0.80294731D-02 0.15157696D+00 0.38394082D+05 0.38394082D+05 0.38394082D+05 0.11575236D+01  1  2 12  4  7  2        1 0.134592709761D-04 0.100000000000D+01
-.143578975668D-06 0.000000000000D+00 -.164914277648D-07 0.394219552273D-07 0.000000000000D+00  7 -1 21 23 -11 11 23 -1 2 0.80294731D-02 0.15164328D+00 0.37184017D+05 0.37184017D+05 0.37184017D+05 0.11587830D+01  1  2  5  4  7  2        1 -.429728424994D-04 0.100000000000D+01
0.891644647473D-08 0.000000000000D+00 0.000000000000D+00 0.394219552273D-07 0.413022881536D-10  7 -1 21 23 -11 11 23 -1 2 0.80792198D-02 0.15113217D+00 0.38394082D+05 0.38394082D+05 0.38394082D+05 0.11575236D+01  1  2 11  4  7  2        1 0.266085086156D-05 0.100000000000D+01
  </mgrwgt>
  </event>
  <event>
  8     66 0.58687835E-06 0.48452847E+03 0.75467711E-02 0.81086172E-01
       -1 -1    0    0    0  501 0.00000000E+00 0.00000000E+00 0.39916975E+03 0.39916988E+03 0.32000000E+00 0.0000E+00 0.9000E+01
        1 -1    0    0  501    0 0.00000000E+00 0.00000000E+00 -.96417568E+03 0.96417573E+03 0.32000000E+00 0.0000E+00 0.9000E+01
       25  2    1    2    0    0 -.20917510E+03 -.38460471E+03 0.12092776E+03 0.54420725E+03 0.29977157E+03 0.0000E+00 0.0000E+00
       23  2    1    2    0    0 0.20917510E+03 0.38460471E+03 -.68593369E+03 0.81913837E+03 0.93849020E+02 0.0000E+00 0.0000E+00
       23  1    3    3    0    0 0.15848020E+02 -.35075231E+02 -.85941323E+01 0.99350602E+02 0.91188000E+02 0.0000E+00 0.9000E+01
      -13  1    4    4    0    0 0.17287611E+02 0.98464566E+02 -.11569685E+03 0.15290488E+03 0.10565837E+00 0.0000E+00 0.9000E+01
       13  1    4    4    0    0 0.19188749E+03 0.28614015E+03 -.57023684E+03 0.66623349E+03 0.10565837E+00 0.0000E+00 0.9000E+01
       23  1    3    3    0    0 -.22502312E+03 -.34952948E+03 0.12952189E+03 0.44485665E+03 0.91188000E+02 0.0000E+00 0.9000E+01
#aMCatNLO 1  0  0  2  2 0.19360416D+04 0.00000000D+00  -5  7  0 0.00000000D+00 0.00000000D+00 0.00000000D+00 0.00000000D+00 0.00000000D+00
  <mgrwgt>
 0.2081967197D-03    5    2    0
 0.620378830581546D+03 0.000000000000000D+00 0.000000000000000D+00 0.620378830581546D+03
 0.620378830581546D+03 0.000000000000000D+00 0.000000000000000D+00 -.620378830581546D+03
 0.105253004335648D+03 0.158480199342294D+02 -.350752311937797D+02 0.357982122255730D+02
 0.115326500133794D+03 0.172873901282807D+02 0.984643277705036D+02 -.574989037492488D+02
 0.472388676263680D+03 0.191887706652012D+03 0.286140387102054D+03 -.323193205942003D+03
 0.547789480429970D+03 -.225023116714522D+03 -.349529483678778D+03 0.344893897465679D+03
 0.000000000000000D+00 0.000000000000000D+00 -.000000000000000D+00 -.000000000000000D+00
 0.154572539945792D+04 0.000000000000000D+00 0.000000000000000D+00 0.154572539945792D+04
 0.351624857679780D+04 0.000000000000000D+00 0.000000000000000D+00 -.351624857679780D+04
 0.139091954221484D+03 0.870240478252947D+01 0.983568835293456D+02 0.357982122255730D+02
 0.365714190059027D+03 0.321985354097557D+01 0.361151460500079D+03 -.574989037492488D+02
 0.130531705095202D+04 0.139900544507694D+03 0.125691152941862D+04 -.323193205942003D+03
 0.489384726656410D+03 -.255354201803703D+03 0.216851540120646D+03 0.344893897465679D+03
 0.276246605436678D+04 0.103531398972504D+03 -.193327141356869D+04 -.197052317733988D+04
0.381126735346D-04 0.000000000000D+00 0.000000000000D+00 0.678880233863D-06 0.000000000000D+00  7 -1 1 23 -13 13 23 21 0 0.61410745D-01 0.14833473D+00 0.23476783D+06 0.23476783D+06 0.23476783D+06 0.10925189D+01  1  2  2  2  7  2        1 0.204950898933D-03 0.100000000000D+01
-.196011224697D-05 0.000000000000D+00 -.146362701670D-06 0.678880233863D-06 0.000000000000D+00  7 -1 1 23 -13 13 23 21 2 0.61410745D-01 0.14833473D+00 0.23476783D+06 0.23476783D+06 0.23476783D+06 0.10925189D+01  1  2  3  2  7  2        1 -.125811201188D-04 0.100000000000D+01
0.246550716481D-05 0.000000000000D+00 0.000000000000D+00 0.678880233863D-06 0.000000000000D+00  7 -1 1 23 -13 13 23 21 2 0.61410745D-01 0.14833473D+00 0.23476783D+06 0.23476783D+06 0.23476783D+06 0.10925189D+01  1  2 15  2  7  2        1 0.158250334092D-04 0.100000000000D+01
0.245990350078D-04 0.000000000000D+00 -.165067551234D-04 0.678880233863D-06 0.000000000000D+00  7 -1 1 23 -13 13 23 21 2 0.61410745D-01 0.89713915D+00 0.23476783D+06 0.23476783D+06 0.23476783D+06 0.10925189D+01  1  2  5  2  7  2        1 0.190229433511D-08 0.100000000000D+01
0.434502041464D-05 0.000000000000D+00 -.364101116351D-05 0.678880233863D-06 0.000000000000D+00  7 -1 21 23 -13 13 23 -1 2 0.61410745D-01 0.89713915D+00 0.23476783D+06 0.23476783D+06 0.23476783D+06 0.10925189D+01  1  2  5  4  7  2        1 0.517795516878D-11 0.100000000000D+01
  </mgrwgt>
  </event>
  <event>
  8     66 0.58687835E-06 0.31226545E+03 0.75467711E-02 0.94478387E-01
       -1 -1    0    0    0  501 0.00000000E+00 0.00000000E+00 0.98211628E+02 0.98212150E+02 0.32000000E+00 0.0000E+00 0.9000E+01
        1 -1    0    0  501    0 0.00000000E+00 0.00000000E+00 -.14101929E+04 0.14101929E+04 0.32000000E+00 0.0000E+00 0.9000E+01
       25  2    1    2    0    0 0.34090716E+02 0.23291230E+03 -.36113495E+03 0.52461847E+03 0.29899125E+03 0.0000E+00 0.0000E+00
       23  2    1    2    0    0 -.34090716E+02 -.23291230E+03 -.95084629E+03 0.98378658E+03 0.91197899E+02 0.0000E+00 0.0000E+00
       23  1    3    3    0    0 -.45744187E+02 0.23055413E+03 -.19383077E+03 0.31801471E+03 0.91188000E+02 0.0000E+00 0.9000E+01
      -13  1    4    4    0    0 0.12372648E+02 0.12774750E+01 -.29659168E+02 0.32161962E+02 0.10565837E+00 0.0000E+00 0.9000E+01
       13  1    4    4    0    0 -.46463364E+02 -.23418978E+03 -.92118712E+03 0.95162462E+03 0.10565837E+00 0.0000E+00 0.9000E+01
       23  1    3    3    0    0 0.79834903E+02 0.23581694E+01 -.16730418E+03 0.20660376E+03 0.91188000E+02 0.0000E+00 0.9000E+01
#aMCatNLO 1  0  0  1  2 0.31701409D+03 0.00000000D+00  -5  7  0 0.00000000D+00 0.00000000D+00 0.00000000D+00 0.00000000D+00 0.00000000D+00
  <mgrwgt>
 0.2312552804D-03    5    2    0
 0.372152868977859D+03 0.000000000000000D+00 0.000000000000000D+00 0.372152868977859D+03
 0.372152868977859D+03 0.000000000000000D+00 0.000000000000000D+00 -.372152868977859D+03
 0.302822690010769D+03 -.457441870814657D+02 0.230554131418656D+03 0.167745617157061D+03
 0.128988682752802D+02 0.123727268640650D+02 0.127779099417081D+01 -.341521344947746D+01
 0.304788000313894D+03 -.464634429532310D+02 -.234190092001822D+03 -.189451509396078D+03
 0.123796179355775D+03 0.798349031706318D+02 0.235816958899521D+01 0.251211056884939D+02
 0.000000000000000D+00 0.000000000000000D+00 -.000000000000000D+00 0.000000000000000D+00
 0.957613719018816D+03 0.000000000000000D+00 0.000000000000000D+00 0.957613719018816D+03
 0.449926383714909D+03 0.000000000000000D+00 0.000000000000000D+00 -.449926383714909D+03
 0.407848961605423D+03 -.155860476803468D+03 0.324952987113234D+03 0.167745617157061D+03
 0.103734477009166D+02 0.876675625484065D+01 0.436906386613572D+01 -.341521344947746D+01
 0.281387187440055D+03 -.137289405485676D+03 -.156328161200604D+03 -.189451509396078D+03
 0.109395325211529D+03 0.437026285551378D+02 0.333331087733415D+02 0.251211056884939D+02
 0.598535180775802D+03 0.240680497479166D+03 -.206326998552108D+03 0.507687335303907D+03
0.987491789254D-05 0.000000000000D+00 0.000000000000D+00 0.386277795937D-06 0.000000000000D+00  7 -1 1 23 -13 13 23 21 0 0.15109524D-01 0.21695279D+00 0.97509712D+05 0.97509712D+05 0.97509712D+05 0.11226219D+01  1  2  2  1  7  1       -1 0.283385567184D-03 0.100000000000D+01
-.528073446997D-06 0.000000000000D+00 -.379222848329D-07 0.386277795937D-06 0.000000000000D+00  7 -1 1 23 -13 13 23 21 2 0.15109524D-01 0.21695279D+00 0.97509712D+05 0.97509712D+05 0.97509712D+05 0.11226219D+01  1  2  3  1  7  1       -1 -.190987782775D-04 0.100000000000D+01
0.643167861269D-06 0.000000000000D+00 0.000000000000D+00 0.386277795937D-06 0.000000000000D+00  7 -1 1 23 -13 13 23 21 2 0.15109524D-01 0.21695279D+00 0.97509712D+05 0.97509712D+05 0.97509712D+05 0.11226219D+01  1  2 15  1  7  1       -1 0.232613861716D-04 0.100000000000D+01
-.514656905502D-05 0.000000000000D+00 -.327134104062D-05 0.386277795937D-06 0.000000000000D+00  7 -1 1 23 -13 13 23 21 2 0.46363884D-01 0.21695279D+00 0.97509712D+05 0.97509712D+05 0.97509712D+05 0.11226219D+01  1  2  5  1  7  1       -1 -.291496558183D-04 0.100000000000D+01
-.503063012924D-06 0.000000000000D+00 -.419109800828D-06 0.386277795937D-06 0.000000000000D+00  7 21 1 23 -13 13 23 1 2 0.46363884D-01 0.21695279D+00 0.97509712D+05 0.97509712D+05 0.97509712D+05 0.11226219D+01  1  2  5  3  7  1       -1 -.271432388624D-04 0.100000000000D+01
  </mgrwgt>
  </event>
  <event>
  8     66 0.58687835E-06 0.77432872E+03 0.75467711E-02 0.87684630E-01
       -1 -1    0    0    0  501 0.00000000E+00 0.00000000E+00 0.42455748E+03 0.42455760E+03 0.32000000E+00 0.0000E+00 0.9000E+01
        1 -1    0    0  501    0 0.00000000E+00 0.00000000E+00 -.18106018E+04 0.18106018E+04 0.32000000E+00 0.0000E+00 0.9000E+01
       25  2    1    2    0    0 -.69554441E+03 -.29783581E+03 -.12012440E+04 0.14510685E+04 0.30020699E+03 0.0000E+00 0.0000E+00
       23  2    1    2    0    0 0.69554441E+03 0.29783581E+03 -.18480025E+03 0.78409094E+03 0.90328687E+02 0.0000E+00 0.0000E+00
       23  1    3    3    0    0 -.13393276E+03 -.92849028E+02 -.15535466E+03 0.24291819E+03 0.91188000E+02 0.0000E+00 0.9000E+01
      -13  1    4    4    0    0 0.39947344E+03 0.15600222E+03 -.60706518E+02 0.43312933E+03 0.10565837E+00 0.0000E+00 0.9000E+01
       13  1    4    4    0    0 0.29607097E+03 0.14183359E+03 -.12409374E+03 0.35096161E+03 0.10565837E+00 0.0000E+00 0.9000E+01
       23  1    3    3    0    0 -.56161165E+03 -.20498678E+03 -.10458894E+04 0.12081503E+04 0.91188000E+02 0.0000E+00 0.9000E+01
#aMCatNLO 1  0  0  2  2 0.35577248D+03 0.00000000D+00  -5  7  0 0.00000000D+00 0.00000000D+00 0.00000000D+00 0.00000000D+00 0.00000000D+00
  <mgrwgt>
 0.2096405853D-03    3    2    0
 0.876758058992767D+03 0.000000000000000D+00 0.000000000000000D+00 0.876758058992767D+03
 0.876758058992767D+03 0.000000000000000D+00 0.000000000000000D+00 -.876758058992767D+03
 0.186843128467647D+03 -.133932757562172D+03 -.928490275469043D+02 -.601480232131154D+01
 0.504113728308372D+03 0.399473585918723D+03 0.156002241394330D+03 0.264980765155036D+03
 0.349272726836642D+03 0.296070826412303D+03 0.141833569945704D+03 0.119233979619472D+03
 0.713286534372872D+03 -.561611654768854D+03 -.204986783793130D+03 -.378199942453196D+03
 0.000000000000000D+00 -.000000000000000D+00 -.000000000000000D+00 0.000000000000000D+00
 0.181933103715742D+04 0.000000000000000D+00 0.000000000000000D+00 0.181933103715742D+04
 0.928841786936497D+03 0.000000000000000D+00 0.000000000000000D+00 -.928841786936497D+03
 0.159570198584180D+03 -.113823688119025D+03 -.644622921420971D+02 -.601480232131154D+01
 0.587063358491076D+03 0.462815709618074D+03 0.245418418036201D+03 0.264980765155036D+03
 0.414594526816304D+03 0.340412826126288D+03 0.204428441218075D+03 0.119233979619472D+03
 0.628015564860185D+03 -.483749935973952D+03 -.950741885910851D+02 -.378199942453196D+03
 0.958929175342177D+03 -.205654911651384D+03 -.290310378521094D+03 0.890489250220927D+03
0.177192996702D-03 0.000000000000D+00 0.000000000000D+00 0.490951198821D-05 0.000000000000D+00  7 -1 1 23 -13 13 23 21 0 0.65316547D-01 0.27855413D+00 0.59958496D+06 0.59958496D+06 0.59958496D+06 0.10629798D+01  1  2  2  2  7  2        1 0.207334027264D-03 0.100000000000D+01
-.965932399334D-05 0.000000000000D+00 -.680467763322D-06 0.490951198821D-05 0.000000000000D+00  7 -1 1 23 -13 13 23 21 2 0.65316547D-01 0.27855413D+00 0.59958496D+06 0.59958496D+06 0.59958496D+06 0.10629798D+01  1  2  3  2  7  2        1 -.127708786402D-04 0.100000000000D+01
0.114039017683D-04 0.000000000000D+00 0.000000000000D+00 0.490951198821D-05 0.000000000000D+00  7 -1 1 23 -13 13 23 21 2 0.65316547D-01 0.27855413D+00 0.59958496D+06 0.59958496D+06 0.59958496D+06 0.10629798D+01  1  2 15  2  7  2        1 0.150774366414D-04 0.100000000000D+01
  </mgrwgt>
  </event>
  <event>
  8     66 0.58687835E-06 0.72267165E+02 0.75467711E-02 0.10207792E+00
       -1 -1    0    0    0  501 0.00000000E+00 0.00000000E+00 0.70627187E+02 0.70627912E+02 0.32000000E+00 0.0000E+00 0.9000E+01
        1 -1    0    0  501    0 0.00000000E+00 0.00000000E+00 -.75525604E+03 0.75525610E+03 0.32000000E+00 0.0000E+00 0.9000E+01
       25  2    1    2    0    0 -.25150998E+02 -.50079266E+02 -.30622184E+03 0.43273195E+03 0.30057381E+03 0.0000E+00 0.0000E+00
       23  2    1    2    0    0 0.25150998E+02 0.50079266E+02 -.37840701E+03 0.39315207E+03 0.90753393E+02 0.0000E+00 0.0000E+00
       23  1    3    3    0    0 -.46401870E+02 -.12889170E+03 -.98942342E+02 0.19201834E+03 0.91188000E+02 0.0000E+00 0.9000E+01
      -13  1    4    4    0    0 0.12091700E+02 0.13595590E+02 -.66366879E+01 0.19367656E+02 0.10565837E+00 0.0000E+00 0.9000E+01
       13  1    4    4    0    0 0.13059298E+02 0.36483676E+02 -.37177032E+03 0.37378442E+03 0.10565837E+00 0.0000E+00 0.9000E+01
       23  1    3    3    0    0 0.21250872E+02 0.78812436E+02 -.20727949E+03 0.24071361E+03 0.91188000E+02 0.0000E+00 0.9000E+01
#aMCatNLO 1  0  0  2  1 0.16493238D+03 0.00000000D+00  -5  7  0 0.00000000D+00 0.00000000D+00 0.00000000D+00 0.00000000D+00 0.00000000D+00
  <mgrwgt>
 0.1563994227D-03    7    2    0
 0.230958733711262D+03 0.000000000000000D+00 0.000000000000000D+00 0.230958733711262D+03
 0.230958733711262D+03 0.000000000000000D+00 0.000000000000000D+00 -.230958733711262D+03
 0.196671703063041D+03 -.464018697336696D+02 -.128891696555582D+03 0.107695424628720D+03
 0.247916811052621D+02 0.120916995839872D+02 0.135955605447362D+02 0.168398036410769D+02
 0.117289240263119D+03 0.130593025738532D+02 0.364837137130323D+02 -.110703022232863D+03
 0.123164842991101D+03 0.212508675758293D+02 0.788124222978136D+02 -.138322060369343D+02
 0.000000000000000D+00 0.000000000000000D+00 0.000000000000000D+00 -.000000000000000D+00
 0.280125801875030D+03 0.000000000000000D+00 0.000000000000000D+00 0.280125801875030D+03
 0.440180347861654D+03 0.000000000000000D+00 0.000000000000000D+00 -.440180347861654D+03
 0.228537028057111D+03 -.119862336503150D+03 -.133972525732786D+03 0.107695424628720D+03
 0.216825284671318D+02 0.406266142445320D+01 0.130402391162208D+02 0.168398036410769D+02
 0.118991045635185D+03 -.277612611168089D+02 0.336603949927710D+02 -.110703022232863D+03
 0.121269201897390D+03 -.209783664865984D+02 0.758916741186790D+02 -.138322060369343D+02
 0.229826345679866D+03 0.164539302682105D+03 0.113802175051148D+02 -.160054545986623D+03
0.121762029095D-05 0.000000000000D+00 0.000000000000D+00 0.210164874278D-06 0.000000000000D+00  7 -1 1 23 -13 13 23 21 0 0.10865782D-01 0.11619330D+00 0.29566012D+05 0.29566012D+05 0.29566012D+05 0.11679235D+01  1  2  2  2  7  2        1 0.178262613729D-03 0.100000000000D+01
-.604856504883D-07 0.000000000000D+00 -.467598252403D-08 0.210164874278D-06 0.000000000000D+00  7 -1 1 23 -13 13 23 21 2 0.10865782D-01 0.11619330D+00 0.29566012D+05 0.29566012D+05 0.29566012D+05 0.11679235D+01  1  2  3  2  7  2        1 -.120789608661D-04 0.100000000000D+01
0.765908420021D-07 0.000000000000D+00 0.000000000000D+00 0.210164874278D-06 0.000000000000D+00  7 -1 1 23 -13 13 23 21 2 0.10865782D-01 0.11619330D+00 0.29566012D+05 0.29566012D+05 0.29566012D+05 0.11679235D+01  1  2 15  2  7  2        1 0.152951613445D-04 0.100000000000D+01
0.180548877769D-08 0.000000000000D+00 0.000000000000D+00 0.210164874278D-06 0.000000000000D+00  7 -1 1 23 -13 13 23 21 2 0.10865782D-01 0.22411844D+00 0.74057759D+05 0.74057759D+05 0.74057759D+05 0.11325851D+01  1  2 12  2  7  2        1 0.103813855349D-06 0.100000000000D+01
-.478763494632D-06 0.000000000000D+00 -.361602844444D-06 0.210164874278D-06 0.000000000000D+00  7 -1 1 23 -13 13 23 21 2 0.10865782D-01 0.24389244D+00 0.29566012D+05 0.29566012D+05 0.29566012D+05 0.11679235D+01  1  2  5  2  7  2        1 -.245337955102D-04 0.100000000000D+01
0.128659940212D-09 0.000000000000D+00 0.000000000000D+00 0.210164874278D-06 0.000000000000D+00  7 -1 21 23 -13 13 23 -1 2 0.10865782D-01 0.22411844D+00 0.74057759D+05 0.74057759D+05 0.74057759D+05 0.11325851D+01  1  2 12  4  7  2        1 0.635688631574D-08 0.100000000000D+01
-.160028482455D-07 0.000000000000D+00 -.289971183232D-07 0.210164874278D-06 0.000000000000D+00  7 -1 21 23 -13 13 23 -1 2 0.10865782D-01 0.24389244D+00 0.29566012D+05 0.29566012D+05 0.29566012D+05 0.11679235D+01  1  2  5  4  7  2        1 -.655766772779D-06 0.100000000000D+01
  </mgrwgt>
  </event>
  <event>
  8     66 0.58687835E-06 0.20312134E+03 0.75467711E-02 0.10172938E+00
       -1 -1    0    0    0  501 0.00000000E+00 0.00000000E+00 0.22860089E+03 0.22860112E+03 0.32000000E+00 0.0000E+00 0.9000E+01
        1 -1    0    0  501    0 0.00000000E+00 0.00000000E+00 -.33109905E+03 0.33109921E+03 0.32000000E+00 0.0000E+00 0.9000E+01
       25  2    1    2    0    0 0.26804282E+02 0.84147818E+02 0.92677845E+02 0.32648080E+03 0.30033515E+03 0.0000E+00 0.0000E+00
       23  2    1    2    0    0 -.26804282E+02 -.84147818E+02 -.19517600E+03 0.23321952E+03 0.92186482E+02 0.0000E+00 0.0000E+00
       23  1    3    3    0    0 0.12561230E+03 0.88170388E+02 0.54650817E+02 0.18669342E+03 0.91188000E+02 0.0000E+00 0.9000E+01
      -13  1    4    4    0    0 -.29672339E+02 -.44652850E+02 -.18460671E+03 0.19223417E+03 0.10565837E+00 0.0000E+00 0.9000E+01
       13  1    4    4    0    0 0.28680572E+01 -.39494968E+02 -.10569291E+02 0.40985355E+02 0.10565837E+00 0.0000E+00 0.9000E+01
       23  1    3    3    0    0 -.98808023E+02 -.40225701E+01 0.38027028E+02 0.13978738E+03 0.91188000E+02 0.0000E+00 0.9000E+01
#aMCatNLO 1  0  0  1  1 0.12109811D+03 0.00000000D+00  -5  7  0 0.00000000D+00 0.00000000D+00 0.00000000D+00 0.00000000D+00 0.00000000D+00
  <mgrwgt>
 0.1591659911D-03    3    2    0
 0.275117509405636D+03 0.000000000000000D+00 0.000000000000000D+00 0.275117509405636D+03
 0.275117509405636D+03 0.000000000000000D+00 0.000000000000000D+00 -.275117509405636D+03
 0.200085361611383D+03 0.125612303051545D+03 0.881703884143898D+02 0.903683158861567D+02
 0.161152527906819D+03 -.296723815731034D+02 -.446528582677654D+02 -.151973054424319D+03
 0.397213824568099D+02 0.286809961451556D+01 -.394949610303340D+02 -.311613255394921D+01
 0.149275746836261D+03 -.988080210929576D+02 -.402256911629044D+01 0.647208710921120D+02
 0.000000000000000D+00 0.000000000000000D+00 0.000000000000000D+00 -.000000000000000D+00
 0.292296916715505D+03 0.000000000000000D+00 0.000000000000000D+00 0.292296916715505D+03
 0.627723748121925D+03 0.000000000000000D+00 0.000000000000000D+00 -.627723748121925D+03
 0.181417197812484D+03 0.119180079968851D+03 0.471871204954520D+02 0.903683158861567D+02
 0.175730349131152D+03 -.353523062926666D+02 -.808428152310947D+02 -.151973054424319D+03
 0.491612360287432D+02 0.136951771473352D+01 -.490432591393460D+02 -.311613255394921D+01
 0.157094562217689D+03 -.103973496723646D+03 -.369346850332257D+02 0.647208710921120D+02
 0.356617319647362D+03 0.187762053327283D+02 0.119633638908214D+03 -.335426831406420D+03
0.221085933742D-05 0.000000000000D+00 0.000000000000D+00 0.295769592309D-06 0.000000000000D+00  7 -1 1 23 -13 13 23 21 0 0.35169397D-01 0.50938345D-01 0.41258279D+05 0.41258279D+05 0.41258279D+05 0.11547096D+01  1  2  2  1  7  1       -1 0.156168447373D-03 0.100000000000D+01
-.109079203812D-06 0.000000000000D+00 -.849028198831D-08 0.295769592309D-06 0.000000000000D+00  7 -1 1 23 -13 13 23 21 2 0.35169397D-01 0.50938345D-01 0.41258279D+05 0.41258279D+05 0.41258279D+05 0.11547096D+01  1  2  3  1  7  1       -1 -.102735291669D-04 0.100000000000D+01
0.140905626381D-06 0.000000000000D+00 0.000000000000D+00 0.295769592309D-06 0.000000000000D+00  7 -1 1 23 -13 13 23 21 2 0.35169397D-01 0.50938345D-01 0.41258279D+05 0.41258279D+05 0.41258279D+05 0.11547096D+01  1  2 15  1  7  1       -1 0.132710728701D-04 0.100000000000D+01
  </mgrwgt>
  </event>
  <event>
  9     66 0.58687835E-06 0.33921815E+03 0.75467711E-02 0.98993478E-01
       21 -1    0    0  502  501 0.00000000E+00 0.00000000E+00 0.51290899E+03 0.51290954E+03 0.75000000E+00 0.0000E+00 0.9000E+01
        1 -1    0    0  501    0 0.00000000E+00 0.00000000E+00 -.63778389E+03 0.63778397E+03 0.32000000E+00 0.0000E+00 0.9000E+01
       25  2    1    2    0    0 0.20449380E+03 0.23318343E+03 -.48024516E+03 0.64617075E+03 0.30117934E+03 0.0000E+00 0.0000E+00
       23  2    1    2    0    0 -.19689342E+03 -.24397604E+03 0.36359174E+03 0.48896829E+03 0.92734596E+02 0.0000E+00 0.0000E+00
       23  1    3    3    0    0 0.83373448E+02 0.68343695E+02 -.37105391E+03 0.39701164E+03 0.91188000E+02 0.0000E+00 0.9000E+01
      -13  1    4    4    0    0 -.44948077E+02 -.65914674E+02 0.15979088E+03 0.17860070E+03 0.10565837E+00 0.0000E+00 0.9000E+01
       13  1    4    4    0    0 -.15194535E+03 -.17806137E+03 0.20380087E+03 0.31036760E+03 0.10565837E+00 0.0000E+00 0.9000E+01
       23  1    3    3    0    0 0.12112036E+03 0.16483974E+03 -.10919126E+03 0.24915911E+03 0.91188000E+02 0.0000E+00 0.9000E+01
        1  1    1    2  502    0 -.76003811E+01 0.10792610E+02 -.82214757E+01 0.15554462E+02 0.32000000E+00 0.0000E+00 0.9000E+01
#aMCatNLO 2  0  0  1  1 0.13200236D+02 0.00000000D+00  -5  7  0 0.00000000D+00 0.00000000D+00 0.00000000D+00 0.00000000D+00 0.00000000D+00
  <mgrwgt>
 0.2331681774D-04    1    2    0
 0.564525992141739D+03 0.000000000000000D+00 0.000000000000000D+00 0.564525992141739D+03
 0.564525992141739D+03 0.000000000000000D+00 0.000000000000000D+00 -.564525992141739D+03
 0.360906896193902D+03 0.809444250657467D+02 0.717929290674633D+02 -.332012517479396D+03
 0.195745465805863D+03 -.462666396953817D+02 -.640419601625919D+02 0.179093028265717D+03
 0.332418475694692D+03 -.154185341923671D+03 -.174880896509973D+03 0.236950617966975D+03
 0.239981146589021D+03 0.119507556553306D+03 0.167129927605101D+03 -.840311287532960D+02
 0.000000000000000D+00 -.000000000000000D+00 0.000000000000000D+00 -.000000000000000D+00
 0.568627651273706D+03 0.000000000000000D+00 0.000000000000000D+00 0.568627651273706D+03
 0.575285892395417D+03 0.000000000000000D+00 0.000000000000000D+00 -.575285892395417D+03
 0.360790182133302D+03 0.833734475910411D+02 0.683436950534497D+02 -.332012517479396D+03
 0.196059569998701D+03 -.449479378659397D+02 -.659145287193213D+02 0.179093028265717D+03
 0.333074959293678D+03 -.151945484520106D+03 -.178061514335647D+03 0.236950617966975D+03
 0.239204435058348D+03 0.121120355893322D+03 0.164839737916272D+03 -.840311287532960D+02
 0.147843971850956D+02 -.760038109831753D+01 0.107926100852464D+02 -.665824112171068D+01
0.369368442949D-06 0.000000000000D+00 0.000000000000D+00 0.209729154391D-06 0.108438334260D-10  7 21 1 23 -13 13 23 1 2 0.78908884D-01 0.98120348D-01 0.11979188D+06 0.11979188D+06 0.11979188D+06 0.11153424D+01  1  2  1  3  7  1       -1 0.233168177399D-04 0.100000000000D+01
  </mgrwgt>
  </event>
  <event>
  8     66 0.58687835E-06 0.34077373E+03 0.75467711E-02 0.97482702E-01
       -1 -1    0    0    0  501 0.00000000E+00 0.00000000E+00 0.38234524E+03 0.38234538E+03 0.32000000E+00 0.0000E+00 0.9000E+01
        1 -1    0    0  501    0 0.00000000E+00 0.00000000E+00 -.35965776E+03 0.35965791E+03 0.32000000E+00 0.0000E+00 0.9000E+01
       25  2    1    2    0    0 -.27170910E+03 -.50033827E+02 0.13548625E+03 0.42959476E+03 0.29977644E+03 0.0000E+00 0.0000E+00
       23  2    1    2    0    0 0.27170910E+03 0.50033827E+02 -.11279878E+03 0.31240852E+03 0.92446182E+02 0.0000E+00 0.0000E+00
       23  1    3    3    0    0 -.27562893E+02 0.65487660E+02 0.76096551E+02 0.13839900E+03 0.91188000E+02 0.0000E+00 0.9000E+01
      -11  1    4    4    0    0 0.26167239E+03 0.58040744E+02 -.12404118E+03 0.29534282E+03 0.51099893E-03 0.0000E+00 0.9000E+01
       11  1    4    4    0    0 0.10036710E+02 -.80069175E+01 0.11242402E+02 0.17065693E+02 0.51099893E-03 0.0000E+00 0.9000E+01
       23  1    3    3    0    0 -.24414621E+03 -.11552149E+03 0.59389703E+02 0.29119577E+03 0.91188000E+02 0.0000E+00 0.9000E+01
#aMCatNLO 1  0  0  2  1 0.93874497D+02 0.00000000D+00  -5  7  0 0.00000000D+00 0.00000000D+00 0.00000000D+00 0.00000000D+00 0.00000000D+00
  <mgrwgt>
 0.2810733491D-03    4    2    0
 0.370828177269446D+03 0.000000000000000D+00 0.000000000000000D+00 0.370828177269446D+03
 0.370828177269446D+03 0.000000000000000D+00 0.000000000000000D+00 -.370828177269446D+03
 0.136135923742831D+03 -.275628934882526D+02 0.654876596257861D+02 0.718984821022421D+02
 0.299275432060720D+03 0.261672393843980D+03 0.580407441992880D+02 -.133133821953267D+03
 0.167297674354699D+02 0.100367096452968D+02 -.800691749553756D+01 0.107256165398810D+02
 0.289515231299871D+03 -.244146210001024D+03 -.115521486329536D+03 0.505097233111438D+02
 0.000000000000000D+00 -.000000000000000D+00 0.000000000000000D+00 0.000000000000000D+00
 0.680402252506096D+03 0.000000000000000D+00 0.000000000000000D+00 0.680402252506096D+03
 0.380972135555810D+03 0.000000000000000D+00 0.000000000000000D+00 -.380972135555810D+03
 0.129885989891238D+03 -.133164330215885D+02 0.566427392434539D+02 0.718984821022421D+02
 0.325927145431048D+03 0.295154311488347D+03 0.372534829349764D+02 -.133133821953267D+03
 0.184771089791344D+02 0.119221685014621D+02 -.917750534126721D+01 0.107256165398810D+02
 0.273283544351318D+03 -.214006247475115D+03 -.134233893491437D+03 0.505097233111438D+02
 0.313800599409168D+03 -.797537994931062D+02 0.495151766542744D+02 0.299430116950287D+03
0.113958011879D-04 0.000000000000D+00 0.000000000000D+00 0.477707890261D-06 0.000000000000D+00  7 -1 1 23 -11 11 23 21 0 0.58822366D-01 0.55331985D-01 0.11612673D+06 0.11612673D+06 0.11612673D+06 0.11164322D+01  1  2  2  2  7  2        1 0.288432361622D-03 0.100000000000D+01
-.627601187317D-06 0.000000000000D+00 -.437628771449D-07 0.477707890261D-06 0.000000000000D+00  7 -1 1 23 -11 11 23 21 2 0.58822366D-01 0.55331985D-01 0.11612673D+06 0.11612673D+06 0.11612673D+06 0.11164322D+01  1  2  3  2  7  2        1 -.197991986895D-04 0.100000000000D+01
0.744236775352D-06 0.000000000000D+00 0.000000000000D+00 0.477707890261D-06 0.000000000000D+00  7 -1 1 23 -11 11 23 21 2 0.58822366D-01 0.55331985D-01 0.11612673D+06 0.11612673D+06 0.11612673D+06 0.11164322D+01  1  2 15  2  7  2        1 0.234787506542D-04 0.100000000000D+01
-.349903865158D-06 0.000000000000D+00 0.000000000000D+00 0.477707890261D-06 0.000000000000D+00  7 -1 1 23 -11 11 23 21 2 0.58822366D-01 0.55331985D-01 0.11612673D+06 0.11612673D+06 0.11612673D+06 0.11164322D+01  1  2  4  2  7  2        1 -.110385644395D-04 0.100000000000D+01
  </mgrwgt>
  </event>
  <event>
  8     66 0.58687835E-06 0.19277035E+03 0.75467711E-02 0.10225381E+00
       -1 -1    0    0    0  501 0.00000000E+00 0.00000000E+00 0.10883557E+03 0.10883604E+03 0.32000000E+00 0.0000E+00 0.9000E+01
        1 -1    0    0  501    0 0.00000000E+00 0.00000000E+00 -.99231141E+03 0.99231147E+03 0.32000000E+00 0.0000E+00 0.9000E+01
       25  2    1    2    0    0 0.11878894E+03 0.18281407E+02 -.15715619E+03 0.35926157E+03 0.29987628E+03 0.0000E+00 0.0000E+00
       23  2    1    2    0    0 -.11878894E+03 -.18281407E+02 -.72631966E+03 0.74188593E+03 0.91703140E+02 0.0000E+00 0.0000E+00
       23  1    3    3    0    0 0.17486524E+03 0.61930279E+02 -.11241265E+03 0.23529782E+03 0.91188000E+02 0.0000E+00 0.9000E+01
      -13  1    4    4    0    0 -.11855896E+03 0.94184190E+01 -.50376082E+03 0.51760980E+03 0.10565837E+00 0.0000E+00 0.9000E+01
       13  1    4    4    0    0 -.22997767E+00 -.27699826E+02 -.22255884E+03 0.22427613E+03 0.10565837E+00 0.0000E+00 0.9000E+01
       23  1    3    3    0    0 -.56076296E+02 -.43648871E+02 -.44743539E+02 0.12396375E+03 0.91188000E+02 0.0000E+00 0.9000E+01
#aMCatNLO 1  0  0  1  2 0.68834506D+02 0.00000000D+00  -5  7  0 0.00000000D+00 0.00000000D+00 0.00000000D+00 0.00000000D+00 0.00000000D+00
  <mgrwgt>
 0.1973836294D-03    6    2    0
 0.328632105859619D+03 0.000000000000000D+00 0.000000000000000D+00 0.328632105859619D+03
 0.328632105859619D+03 0.000000000000000D+00 0.000000000000000D+00 -.328632105859619D+03
 0.243104287771108D+03 0.174865236398942D+03 0.619302787455483D+02 0.127950119430731D+03
 0.190036700939230D+03 -.118559119745888D+03 0.941846803761121D+01 -.148219348564116D+03
 0.765835697350271D+02 -.229820940610750D+00 -.276998755425943D+02 -.713982298843592D+02
 0.147539653273873D+03 -.560762957124437D+02 -.436488712405652D+02 0.916674590177445D+02
 0.000000000000000D+00 -.000000000000000D+00 -.000000000000000D+00 -.000000000000000D+00
 0.361137694617575D+03 0.000000000000000D+00 0.000000000000000D+00 0.361137694617575D+03
 0.369003648826503D+03 0.000000000000000D+00 0.000000000000000D+00 -.369003648826503D+03
 0.251920793522914D+03 0.176292276366246D+03 0.877418662696644D+02 0.127950119430731D+03
 0.191375488170950D+03 -.117459598815647D+03 0.293060544933260D+02 -.148219348564116D+03
 0.741045329951149D+02 0.204577140050069D+00 -.198426996146702D+02 -.713982298843592D+02
 0.143458045614368D+03 -.552374183254203D+02 -.284756752591904D+02 0.916674590177445D+02
 0.692824831407296D+02 -.379983636522898D+01 -.687295458891299D+02 -.786595420892768D+01
0.334160217632D-05 0.000000000000D+00 0.000000000000D+00 0.597719022036D-06 0.000000000000D+00  7 -1 1 23 -13 13 23 21 0 0.16743973D-01 0.15266333D+00 0.54978365D+05 0.54978365D+05 0.54978365D+05 0.11436871D+01  1  2  2  1  7  1       -1 0.161652744420D-03 0.100000000000D+01
-.159920092500D-06 0.000000000000D+00 -.128326322211D-07 0.597719022036D-06 0.000000000000D+00  7 -1 1 23 -13 13 23 21 2 0.16743973D-01 0.15266333D+00 0.54978365D+05 0.54978365D+05 0.54978365D+05 0.11436871D+01  1  2  3  1  7  1       -1 -.101191913809D-04 0.100000000000D+01
0.213151302937D-06 0.000000000000D+00 0.000000000000D+00 0.597719022036D-06 0.000000000000D+00  7 -1 1 23 -13 13 23 21 2 0.16743973D-01 0.15266333D+00 0.54978365D+05 0.54978365D+05 0.54978365D+05 0.11436871D+01  1  2 15  1  7  1       -1 0.134874786138D-04 0.100000000000D+01
0.249101784378D-05 0.000000000000D+00 0.000000000000D+00 0.597719022036D-06 0.000000000000D+00  7 -1 1 23 -13 13 23 21 2 0.19322795D-01 0.15266333D+00 0.72118622D+05 0.72118622D+05 0.72118622D+05 0.11335604D+01  1  2 12  1  7  1       -1 0.122978474886D-03 0.100000000000D+01
-.195740921753D-05 0.000000000000D+00 0.000000000000D+00 0.597719022036D-06 0.000000000000D+00  7 -1 1 23 -13 13 23 21 2 0.16743973D-01 0.15266333D+00 0.54978365D+05 0.54978365D+05 0.54978365D+05 0.11436871D+01  1  2  4  1  7  1       -1 -.123858097962D-03 0.100000000000D+01
0.547342100958D-07 0.000000000000D+00 0.000000000000D+00 0.597719022036D-06 0.000000000000D+00  7 21 1 23 -13 13 23 1 2 0.19322795D-01 0.15266333D+00 0.72118622D+05 0.72118622D+05 0.72118622D+05 0.11335604D+01  1  2 12  3  7  1       -1 0.332422208637D-04 0.100000000000D+01
  </mgrwgt>
  </event>
  <event>
  9     66 -.58687835E-06 0.37462581E+03 0.75467711E-02 0.97618494E-01
       -1 -1    0    0    0  502 0.00000000E+00 0.00000000E+00 0.73703563E+02 0.73704258E+02 0.32000000E+00 0.0000E+00 0.9000E+01
        1 -1    0    0  501    0 0.00000000E+00 0.00000000E+00 -.32498197E+04 0.32498197E+04 0.32000000E+00 0.0000E+00 0.9000E+01
       25  2    1    2    0    0 0.33284500E+03 -.54286864E+02 -.83272454E+03 0.94748529E+03 0.30094079E+03 0.0000E+00 0.0000E+00
       23  2    1    2    0    0 -.34921103E+03 0.34614958E+02 -.22538001E+04 0.22828613E+04 0.93242473E+02 0.0000E+00 0.0000E+00
       23  1    3    3    0    0 0.11199813E+03 -.64017943E+02 -.57327317E+03 0.59464213E+03 0.91188000E+02 0.0000E+00 0.9000E+01
      -11  1    4    4    0    0 -.14945618E+03 0.26445815E+02 -.12634272E+04 0.12725112E+04 0.51099893E-03 0.0000E+00 0.9000E+01
       11  1    4    4    0    0 -.19975486E+03 0.81691427E+01 -.99037296E+03 0.10103501E+04 0.51099893E-03 0.0000E+00 0.9000E+01
       23  1    3    3    0    0 0.22084687E+03 0.97310787E+01 -.25945137E+03 0.35284316E+03 0.91188000E+02 0.0000E+00 0.9000E+01
       21  1    1    2  501  502 0.16366035E+02 0.19671907E+02 -.89591495E+02 0.93177409E+02 0.75000000E+00 0.0000E+00 0.9000E+01
#aMCatNLO 2  0  0  1  2 0.25589666D+02 0.00000000D+00  -5  7  0 0.00000000D+00 0.00000000D+00 0.00000000D+00 0.00000000D+00 0.00000000D+00
  <mgrwgt>
 -.6570034279D-04    3    2    0
 0.476405745823104D+03 0.000000000000000D+00 0.000000000000000D+00 0.476405745823104D+03
 0.476405745823104D+03 0.000000000000000D+00 0.000000000000000D+00 -.476405745823104D+03
 0.159582448854184D+03 0.114733053863163D+03 -.607305759204762D+02 -.173040497542656D+02
 0.219484455231724D+03 -.145670196478406D+03 0.309965477546106D+02 -.161222932530101D+03
 0.213958333414329D+03 -.196053108260553D+03 0.126186305185366D+02 -.847473736622535D+02
 0.359786254145973D+03 0.226990250875796D+03 0.171153976473291D+02 0.263274355946620D+03
 0.000000000000000D+00 0.000000000000000D+00 0.000000000000000D+00 -.000000000000000D+00
 0.488454574435343D+03 0.000000000000000D+00 0.000000000000000D+00 0.488454574435343D+03
 0.490361073859886D+03 0.000000000000000D+00 0.000000000000000D+00 -.490361073859886D+03
 0.158923124967978D+03 0.111998130008059D+03 -.640179431283724D+02 -.173040497542656D+02
 0.221425752558715D+03 -.149456176832765D+03 0.264458149642128D+02 -.161222932530101D+03
 0.217142477391725D+03 -.199754857894882D+03 0.816914270664487D+01 -.847473736622535D+02
 0.355663705725763D+03 0.220846869650453D+03 0.973107872082196D+01 0.263274355946620D+03
 0.256605876510476D+02 0.163660350691354D+02 0.196719067366928D+02 -.190649942454274D+01
-.390821083914D-04 0.000000000000D+00 0.000000000000D+00 0.131761956335D-06 0.000000000000D+00  7 -1 1 23 -11 11 23 21 2 0.11496574D-01 0.48573802D+00 0.14992303D+06 0.14992303D+06 0.14992303D+06 0.11075695D+01  1  2 13  1  7  1       -1 -.132188872739D-03 0.100000000000D+01
-.230737922398D-04 0.000000000000D+00 0.000000000000D+00 0.131761956335D-06 0.000000000000D+00  7 -1 1 23 -11 11 23 21 2 0.11059237D-01 0.48573802D+00 0.14034449D+06 0.14034449D+06 0.14034449D+06 0.11098394D+01  1  2  8  1  7  1       -1 -.835263650650D-04 0.100000000000D+01
0.511113293242D-04 0.000000000000D+00 0.000000000000D+00 0.131761956335D-06 0.131697041545D-08  7 -1 1 23 -11 11 23 21 2 0.11338937D-01 0.49996672D+00 0.14992303D+06 0.14992303D+06 0.14992303D+06 0.11075695D+01  1  2  1  1  7  1       -1 0.150014895009D-03 0.100000000000D+01
  </mgrwgt>
  </event>
  <event>
  8     66 0.58687835E-06 0.25368513E+03 0.75467711E-02 0.93837832E-01
       -1 -1    0    0    0  501 0.00000000E+00 0.00000000E+00 0.21819349E+04 0.21819349E+04 0.32000000E+00 0.0000E+00 0.9000E+01
        1 -1    0    0  501    0 0.00000000E+00 0.00000000E+00 -.26650123E+03 0.26650142E+03 0.32000000E+00 0.0000E+00 0.9000E+01
       25  2    1    2    0    0 0.88860637E+02 0.13991129E+03 -.15003130E+03 0.37428957E+03 0.30018646E+03 0.0000E+00 0.0000E+00
       23  2    1    2    0    0 -.88860637E+02 -.13991129E+03 0.20654650E+04 0.20741468E+04 0.92021037E+02 0.0000E+00 0.0000E+00
       23  1    3    3    0    0 0.76597105E+02 0.19374898E+03 -.14036034E+03 0.26724906E+03 0.91188000E+02 0.0000E+00 0.9000E+01
      -13  1    4    4    0    0 -.65550214E+02 -.55866095E+02 0.14471568E+04 0.14497175E+04 0.10565837E+00 0.0000E+00 0.9000E+01
       13  1    4    4    0    0 -.23310423E+02 -.84045195E+02 0.61830812E+03 0.62442927E+03 0.10565837E+00 0.0000E+00 0.9000E+01
       23  1    3    3    0    0 0.12263532E+02 -.53837696E+02 -.96709664E+01 0.10704051E+03 0.91188000E+02 0.0000E+00 0.9000E+01
#aMCatNLO 1  0  0  2  2 0.40410876D+03 0.00000000D+00  -5  7  0 0.00000000D+00 0.00000000D+00 0.00000000D+00 0.00000000D+00 0.00000000D+00
  <mgrwgt>
 0.2044568169D-03    4    2    0
 0.762553988697517D+03 0.000000000000000D+00 0.000000000000000D+00 0.762553988697517D+03
 0.762553988697517D+03 0.000000000000000D+00 0.000000000000000D+00 -.762553988697517D+03
 0.605329745893368D+03 0.765971051461742D+02 0.193748984833615D+03 -.560984014280709D+03
 0.509871176825342D+03 -.655502692148656D+02 -.558660574600136D+02 0.502544289378551D+03
 0.225916169970347D+03 -.233103674582767D+02 -.840452317974901D+02 0.208401395473104D+03
 0.183990884705976D+03 0.122635315269680D+02 -.538376955761115D+02 -.149961670570945D+03
 0.000000000000000D+00 0.000000000000000D+00 -.000000000000000D+00 0.000000000000000D+00
 0.123334587502451D+04 0.000000000000000D+00 0.000000000000000D+00 0.123334587502451D+04
 0.880720936229235D+03 0.000000000000000D+00 0.000000000000000D+00 -.880720936229235D+03
 0.642249357384599D+03 -.506482305740890D+02 0.294789209738324D+03 -.560984014280709D+03
 0.531863402482393D+03 -.171800739367126D+03 0.285030185430282D+02 0.502544289378551D+03
 0.224701062937982D+03 -.692705321741656D+02 -.475501779453012D+02 0.208401395473104D+03
 0.178924506510648D+03 -.247515889347932D+02 -.244455290565206D+02 -.149961670570945D+03
 0.536328481938126D+03 0.316471091050174D+03 -.251296521279530D+03 0.352624938795278D+03
0.150274005877D-02 0.000000000000D+00 0.000000000000D+00 0.506121163862D-05 0.000000000000D+00  7 -1 1 23 -13 13 23 21 0 0.33568231D+00 0.41000205D-01 0.64356146D+05 0.64356146D+05 0.64356146D+05 0.11377763D+01  1  2  2  2  7  2        1 0.204484187234D-03 0.100000000000D+01
0.394664579117D-04 0.000000000000D+00 -.577091750624D-05 0.506121163862D-05 0.000000000000D+00  7 -1 1 23 -13 13 23 21 2 0.33568231D+00 0.41000205D-01 0.64356146D+05 0.64356146D+05 0.64356146D+05 0.11377763D+01  1  2  3  2  7  2        1 0.695212830752D-05 0.100000000000D+01
0.918504087018D-04 0.000000000000D+00 0.000000000000D+00 0.506121163862D-05 0.000000000000D+00  7 -1 1 23 -13 13 23 21 2 0.33568231D+00 0.41000205D-01 0.64356146D+05 0.64356146D+05 0.64356146D+05 0.11377763D+01  1  2 15  2  7  2        1 0.161797095605D-04 0.100000000000D+01
-.131472245070D-03 0.000000000000D+00 0.000000000000D+00 0.506121163862D-05 0.000000000000D+00  7 -1 1 23 -13 13 23 21 2 0.33568231D+00 0.41000205D-01 0.64356146D+05 0.64356146D+05 0.64356146D+05 0.11377763D+01  1  2  4  2  7  2        1 -.231592082230D-04 0.100000000000D+01
  </mgrwgt>
  </event>
  <event>
  8     66 0.58687835E-06 0.14750946E+03 0.75467711E-02 0.10543057E+00
       -1 -1    0    0    0  501 0.00000000E+00 0.00000000E+00 0.12163834E+03 0.12163876E+03 0.32000000E+00 0.0000E+00 0.9000E+01
        1 -1    0    0  501    0 0.00000000E+00 0.00000000E+00 -.85668423E+03 0.85668429E+03 0.32000000E+00 0.0000E+00 0.9000E+01
       25  2    1    2    0    0 0.83164831E+02 0.76879299E+02 -.76584756E+03 0.82992200E+03 0.29903383E+03 0.0000E+00 0.0000E+00
       23  2    1    2    0    0 -.83164831E+02 -.76879299E+02 0.30801673E+02 0.14840105E+03 0.90814718E+02 0.0000E+00 0.0000E+00
       23  1    3    3    0    0 0.33963221E+02 0.11171225E+03 -.66463896E+03 0.68095031E+03 0.91188000E+02 0.0000E+00 0.9000E+01
      -13  1    4    4    0    0 -.92813650E+02 -.87978776E+02 0.35910538E+02 0.13283154E+03 0.10565837E+00 0.0000E+00 0.9000E+01
       13  1    4    4    0    0 0.96488198E+01 0.11099478E+02 -.51088650E+01 0.15569515E+02 0.10565837E+00 0.0000E+00 0.9000E+01
       23  1    3    3    0    0 0.49201609E+02 -.34832954E+02 -.10120860E+03 0.14897169E+03 0.91188000E+02 0.0000E+00 0.9000E+01
#aMCatNLO 1  0  0  1  2 0.23283261D+02 0.00000000D+00  -5  7  0 0.00000000D+00 0.00000000D+00 0.00000000D+00 0.00000000D+00 0.00000000D+00
  <mgrwgt>
 0.2620067725D-03    9    2    0
 0.322809363482326D+03 0.000000000000000D+00 0.000000000000000D+00 0.322809363482326D+03
 0.322809363482326D+03 0.000000000000000D+00 0.000000000000000D+00 -.322809363482326D+03
 0.275161246483842D+03 0.339632213904850D+02 0.111712252047520D+03 -.231873527074123D+03
 0.242168071930840D+03 -.928137891958469D+02 -.879789104955125D+02 0.205646995859001D+03
 0.177760782968811D+02 0.964895840043837D+01 0.110996118134772D+02 0.998424654110537D+01
 0.110513330253090D+03 0.492016094049236D+02 -.348329533654847D+02 0.162422846740165D+02
 0.000000000000000D+00 0.000000000000000D+00 -.000000000000000D+00 0.000000000000000D+00
 0.335992537037214D+03 0.000000000000000D+00 0.000000000000000D+00 0.335992537037214D+03
 0.333465848141777D+03 0.000000000000000D+00 0.000000000000000D+00 -.333465848141777D+03
 0.275257510963699D+03 0.244156606865711D+02 0.114411489603864D+03 -.231873527074123D+03
 0.244683268643588D+03 -.101258709840397D+03 -.855914057002017D+02 0.205646995859001D+03
 0.175616834712063D+02 0.903598978144391D+01 0.112729071680249D+02 0.998424654110537D+01
 0.108535965214460D+03 0.454019815446297D+02 -.337587420000170D+02 0.162422846740165D+02
 0.234199568860385D+02 0.224050778277520D+02 -.633424907167037D+01 0.252668889543631D+01
0.328070259413D-05 0.000000000000D+00 0.000000000000D+00 0.312780634608D-06 0.000000000000D+00  7 -1 1 23 -13 13 23 21 0 0.18713628D-01 0.13179761D+00 0.40011163D+05 0.40011163D+05 0.40011163D+05 0.11559075D+01  1  2  2  1  7  1       -1 0.170342084866D-03 0.100000000000D+01
-.131500225540D-06 0.000000000000D+00 -.125987617903D-07 0.312780634608D-06 0.000000000000D+00  7 -1 1 23 -13 13 23 21 2 0.18713628D-01 0.13179761D+00 0.40011163D+05 0.40011163D+05 0.40011163D+05 0.11559075D+01  1  2  3  1  7  1       -1 -.912279110364D-05 0.100000000000D+01
0.201315136906D-06 0.000000000000D+00 0.000000000000D+00 0.312780634608D-06 0.000000000000D+00  7 -1 1 23 -13 13 23 21 2 0.18713628D-01 0.13179761D+00 0.40011163D+05 0.40011163D+05 0.40011163D+05 0.11559075D+01  1  2 15  1  7  1       -1 0.139661809130D-04 0.100000000000D+01
0.735655391617D-05 0.000000000000D+00 0.000000000000D+00 0.312780634608D-06 0.000000000000D+00  7 -1 1 23 -13 13 23 21 2 0.19775442D-01 0.13179761D+00 0.45360402D+05 0.45360402D+05 0.45360402D+05 0.11510342D+01  1  2 12  1  7  1       -1 0.463137686197D-03 0.100000000000D+01
-.609172998384D-05 0.000000000000D+00 0.000000000000D+00 0.312780634608D-06 0.000000000000D+00  7 -1 1 23 -13 13 23 21 2 0.18713628D-01 0.13179761D+00 0.40011163D+05 0.40011163D+05 0.40011163D+05 0.11559075D+01  1  2  4  1  7  1       -1 -.422612051607D-03 0.100000000000D+01
-.292397994252D-04 0.000000000000D+00 -.619404951749D-05 0.312780634608D-06 0.000000000000D+00  7 -1 1 23 -13 13 23 21 2 0.20113908D-01 0.13179761D+00 0.40011163D+05 0.40011163D+05 0.40011163D+05 0.11559075D+01  1  2  5  1  7  1       -1 -.180965505655D-02 0.100000000000D+01
0.296256863615D-04 0.000000000000D+00 0.617795824334D-05 0.312780634608D-06 0.000000000000D+00  7 -1 1 23 -13 13 23 21 2 0.18713628D-01 0.13179761D+00 0.40011163D+05 0.40011163D+05 0.40011163D+05 0.11559075D+01  1  2  6  1  7  1       -1 0.205527364586D-02 0.100000000000D+01
0.831737085599D-07 0.000000000000D+00 0.000000000000D+00 0.312780634608D-06 0.000000000000D+00  7 21 1 23 -13 13 23 1 2 0.19775442D-01 0.13179761D+00 0.45360402D+05 0.45360402D+05 0.45360402D+05 0.11510342D+01  1  2 12  3  7  1       -1 0.648007004029D-04 0.100000000000D+01
-.345132390119D-06 0.000000000000D+00 -.754485877064D-07 0.312780634608D-06 0.000000000000D+00  7 21 1 23 -13 13 23 1 2 0.20113908D-01 0.13179761D+00 0.40011163D+05 0.40011163D+05 0.40011163D+05 0.11559075D+01  1  2  5  3  7  1       -1 -.264123626508D-03 0.100000000000D+01
  </mgrwgt>
  </event>
  <event>
  8     66 0.58687835E-06 0.58463053E+03 0.75467711E-02 0.88393276E-01
       -1 -1    0    0    0  501 0.00000000E+00 0.00000000E+00 0.40922018E+03 0.40922031E+03 0.32000000E+00 0.0000E+00 0.9000E+01
        1 -1    0    0  501    0 0.00000000E+00 0.00000000E+00 -.84930588E+03 0.84930594E+03 0.32000000E+00 0.0000E+00 0.9000E+01
       25  2    1    2    0    0 0.47012131E+03 0.27176928E+03 -.30553341E+03 0.69168421E+03 0.30033947E+03 0.0000E+00 0.0000E+00
       23  2    1    2    0    0 -.47012131E+03 -.27176928E+03 -.13455229E+03 0.56684204E+03 0.91285241E+02 0.0000E+00 0.0000E+00
       23  1    3    3    0    0 0.16899700E+03 -.17136853E+02 -.10922975E+03 0.22158530E+03 0.91188000E+02 0.0000E+00 0.9000E+01
      -13  1    4    4    0    0 -.33808673E+03 -.23668500E+03 -.83936306E+02 0.42115049E+03 0.10565837E+00 0.0000E+00 0.9000E+01
       13  1    4    4    0    0 -.13203458E+03 -.35084275E+02 -.50615987E+02 0.14569155E+03 0.10565837E+00 0.0000E+00 0.9000E+01
       23  1    3    3    0    0 0.30112431E+03 0.28890613E+03 -.19630366E+03 0.47009891E+03 0.91188000E+02 0.0000E+00 0.9000E+01
#aMCatNLO 1  0  0  1  1 0.52170476D+03 0.00000000D+00  -5  7  0 0.00000000D+00 0.00000000D+00 0.00000000D+00 0.00000000D+00 0.00000000D+00
  <mgrwgt>
 0.1984016246D-03    3    2    0
 0.589536448844096D+03 0.000000000000000D+00 0.000000000000000D+00 0.589536448844096D+03
 0.589536448844096D+03 0.000000000000000D+00 0.000000000000000D+00 -.589536448844096D+03
 0.195747413933008D+03 0.168996999388139D+03 -.171368530188256D+02 -.338842320833274D+02
 0.418201648648733D+03 -.338087001117366D+03 -.236685273758368D+03 0.676008860438298D+02
 0.136616505612632D+03 -.132034307060819D+03 -.350840051028875D+02 0.352066351976880D+00
 0.428507329493819D+03 0.301124308790046D+03 0.288906131880081D+03 -.340687203124793D+02
 0.000000000000000D+00 0.000000000000000D+00 0.000000000000000D+00 -.000000000000000D+00
 0.709791001656954D+03 0.000000000000000D+00 0.000000000000000D+00 0.709791001656954D+03
 0.168952575086753D+04 0.000000000000000D+00 0.000000000000000D+00 -.168952575086753D+04
 0.187100285314970D+03 0.132507602938914D+03 -.893580404913276D+02 -.338842320833274D+02
 0.618243651860661D+03 -.436871096052535D+03 -.432202474201562D+03 0.676008860438298D+02
 0.189593422687617D+03 -.163125530601675D+03 -.966209254851722D+02 0.352066351976880D+00
 0.294399196405726D+03 0.232223743706084D+03 0.152535538992518D+03 -.340687203124793D+02
 0.110998019625551D+04 0.235265280009212D+03 0.465645901185544D+03 -.979734749210577D+03
0.313894021469D-04 0.000000000000D+00 0.000000000000D+00 0.119160044774D-05 0.000000000000D+00  7 -1 1 23 -13 13 23 21 0 0.62956965D-01 0.13066246D+00 0.34179286D+06 0.34179286D+06 0.34179286D+06 0.10803860D+01  1  2  2  1  7  1       -1 0.196403994876D-03 0.100000000000D+01
-.174370761477D-05 0.000000000000D+00 -.120543569264D-06 0.119160044774D-05 0.000000000000D+00  7 -1 1 23 -13 13 23 21 2 0.62956965D-01 0.13066246D+00 0.34179286D+06 0.34179286D+06 0.34179286D+06 0.10803860D+01  1  2  3  1  7  1       -1 -.127349959703D-04 0.100000000000D+01
0.201722809260D-05 0.000000000000D+00 0.000000000000D+00 0.119160044774D-05 0.000000000000D+00  7 -1 1 23 -13 13 23 21 2 0.62956965D-01 0.13066246D+00 0.34179286D+06 0.34179286D+06 0.34179286D+06 0.10803860D+01  1  2 15  1  7  1       -1 0.147326257068D-04 0.100000000000D+01
  </mgrwgt>
  </event>
  <event>
  9     66 0.58687835E-06 0.10149459E+04 0.75467711E-02 0.86625427E-01
       -1 -1    0    0    0  502 0.00000000E+00 0.00000000E+00 0.11780066E+04 0.11780066E+04 0.32000000E+00 0.0000E+00 0.9000E+01
        1 -1    0    0  501    0 0.00000000E+00 0.00000000E+00 -.10808527E+04 0.10808527E+04 0.32000000E+00 0.0000E+00 0.9000E+01
       25  2    1    2    0    0 -.69642670E+03 -.81772782E+03 -.73231807E+02 0.11177070E+04 0.30036173E+03 0.0000E+00 0.0000E+00
       23  2    1    2    0    0 0.61435874E+03 0.71865145E+03 0.25937796E+03 0.98471878E+03 0.92182310E+02 0.0000E+00 0.0000E+00
       23  1    3    3    0    0 -.36767069E+03 -.41866351E+03 -.15704584E+03 0.58603713E+03 0.91188000E+02 0.0000E+00 0.9000E+01
      -13  1    4    4    0    0 0.45220043E+03 0.52822291E+03 0.14798336E+03 0.71091755E+03 0.10565837E+00 0.0000E+00 0.9000E+01
       13  1    4    4    0    0 0.16215831E+03 0.19042854E+03 0.11139460E+03 0.27380123E+03 0.10565837E+00 0.0000E+00 0.9000E+01
       23  1    3    3    0    0 -.32875600E+03 -.39906430E+03 0.83814031E+02 0.53166989E+03 0.91188000E+02 0.0000E+00 0.9000E+01
       21  1    1    2  501  502 0.82067957E+02 0.99076371E+02 -.88992216E+02 0.15643354E+03 0.75000000E+00 0.0000E+00 0.9000E+01
#aMCatNLO 2  0  0  1  1 0.12865177D+03 0.00000000D+00  -5  7  0 0.00000000D+00 0.00000000D+00 0.00000000D+00 0.00000000D+00 0.00000000D+00
  <mgrwgt>
 0.8211688524D-04    1    2    0
 0.104510676185897D+04 0.000000000000000D+00 0.000000000000000D+00 0.104510676185897D+04
 0.104510676185897D+04 0.000000000000000D+00 0.000000000000000D+00 -.104510676185897D+04
 0.569166455962542D+03 -.344694674706311D+03 -.390925761800252D+03 -.209756604756472D+03
 0.744685500846312D+03 0.480546435712136D+03 0.562443548676505D+03 0.853748958843518D+02
 0.280873117329840D+03 0.172863673630188D+03 0.203352580733120D+03 0.874962072711622D+02
 0.495488449579244D+03 -.308715434636012D+03 -.374870367609373D+03 0.368855016009575D+02
 0.000000000000000D+00 0.000000000000000D+00 0.000000000000000D+00 -.000000000000000D+00
 0.107793992831006D+04 0.000000000000000D+00 0.000000000000000D+00 0.107793992831006D+04
 0.118118797774039D+04 0.000000000000000D+00 0.000000000000000D+00 -.118118797774039D+04
 0.602307196998659D+03 -.367670692994389D+03 -.418663512246344D+03 -.209756604756472D+03
 0.700567168337512D+03 0.452200811656380D+03 0.528223352799256D+03 0.853748958843518D+02
 0.264978562251072D+03 0.162157928655960D+03 0.190428092307347D+03 0.874962072711622D+02
 0.526316084618031D+03 -.328756004567067D+03 -.399064304112004D+03 0.368855016009575D+02
 0.164958893845173D+03 0.820679572491159D+02 0.990763712517454D+02 -.103248049430324D+03
0.260274840164D-03 0.000000000000D+00 0.000000000000D+00 0.511969453095D-05 0.180962485756D-08  7 -1 1 23 -13 13 23 21 2 0.18123165D+00 0.16628490D+00 0.11704406D+07 0.11704406D+07 0.11704406D+07 0.10433442D+01  1  2  1  1  7  1       -1 0.821168852444D-04 0.100000000000D+01
  </mgrwgt>
  </event>
  <event>
  8     66 0.58687835E-06 0.39789085E+03 0.75467711E-02 0.93130825E-01
       -1 -1    0    0    0  501 0.00000000E+00 0.00000000E+00 0.49373341E+03 0.49373352E+03 0.32000000E+00 0.0000E+00 0.9000E+01
        1 -1    0    0  501    0 0.00000000E+00 0.00000000E+00 -.42573551E+03 0.42573563E+03 0.32000000E+00 0.0000E+00 0.9000E+01
       25  2    1    2    0    0 0.19923860E+03 0.27920208E+03 -.17747995E+03 0.48785050E+03 0.29807575E+03 0.0000E+00 0.0000E+00
       23  2    1    2    0    0 -.19923860E+03 -.27920208E+03 0.24547786E+03 0.43161865E+03 0.91572125E+02 0.0000E+00 0.0000E+00
       23  1    3    3    0    0 0.20062298E+02 -.40167347E+01 -.89857531E+02 0.12964666E+03 0.91188000E+02 0.0000E+00 0.9000E+01
      -11  1    4    4    0    0 -.15895986E+03 -.27057322E+03 0.21597143E+03 0.38094850E+03 0.51099893E-03 0.0000E+00 0.9000E+01
       11  1    4    4    0    0 -.40278739E+02 -.86288658E+01 0.29506428E+02 0.50670143E+02 0.51099893E-03 0.0000E+00 0.9000E+01
       23  1    3    3    0    0 0.17917630E+03 0.28321882E+03 -.87622423E+02 0.35820384E+03 0.91188000E+02 0.0000E+00 0.9000E+01
#aMCatNLO 1  0  0  2  1 0.29389955D+03 0.00000000D+00  -5  7  0 0.00000000D+00 0.00000000D+00 0.00000000D+00 0.00000000D+00 0.00000000D+00
  <mgrwgt>
 0.2716258228D-03    3    2    0
 0.458475678970095D+03 0.000000000000000D+00 0.000000000000000D+00 0.458475678970095D+03
 0.458475678970095D+03 0.000000000000000D+00 0.000000000000000D+00 -.458475678970095D+03
 0.136666169268269D+03 0.200622976863462D+02 -.401673472867090D+01 -.997184061852529D+02
 0.365978835814846D+03 -.158959863614509D+03 -.270573217687393D+03 0.188314640679734D+03
 0.486211810231336D+02 -.402787387887769D+02 -.862886578620600D+01 0.258299268468467D+02
 0.365685171833942D+03 0.179176304716940D+03 0.283218818202270D+03 -.114426161341327D+03
 0.000000000000000D+00 0.000000000000000D+00 -.000000000000000D+00 0.000000000000000D+00
 0.926408450377442D+03 0.000000000000000D+00 0.000000000000000D+00 0.926408450377442D+03
 0.529981002004435D+03 0.000000000000000D+00 0.000000000000000D+00 -.529981002004435D+03
 0.136972131750922D+03 -.212098616469670D+02 0.724532740332192D+01 -.997184061852529D+02
 0.410640770959188D+03 -.276095396296774D+03 -.238610081562675D+03 0.188314640679734D+03
 0.627842448555450D+02 -.570817319017110D+02 -.404378093728784D+01 0.258299268468467D+02
 0.352503024303549D+03 0.708538310285338D+02 0.312777107583686D+03 -.114426161341327D+03
 0.493489280512674D+03 0.283533158816918D+03 -.773685724870451D+02 0.396427448373007D+03
0.218974293561D-04 0.000000000000D+00 0.000000000000D+00 0.132137393124D-06 0.000000000000D+00  7 -1 1 23 -11 11 23 21 0 0.75959004D-01 0.65497788D-01 0.15831713D+06 0.15831713D+06 0.15831713D+06 0.11057072D+01  1  2  2  2  7  2        1 0.268411931235D-03 0.100000000000D+01
-.118681247668D-05 0.000000000000D+00 -.840918944532D-07 0.132137393124D-06 0.000000000000D+00  7 -1 1 23 -11 11 23 21 2 0.75959004D-01 0.65497788D-01 0.15831713D+06 0.15831713D+06 0.15831713D+06 0.11057072D+01  1  2  3  2  7  2        1 -.177857024690D-04 0.100000000000D+01
0.140127050198D-05 0.000000000000D+00 0.000000000000D+00 0.132137393124D-06 0.000000000000D+00  7 -1 1 23 -11 11 23 21 2 0.75959004D-01 0.65497788D-01 0.15831713D+06 0.15831713D+06 0.15831713D+06 0.11057072D+01  1  2 15  2  7  2        1 0.209995940526D-04 0.100000000000D+01
  </mgrwgt>
  </event>
  <event>
  8     66 0.58687835E-06 0.17608831E+03 0.75467711E-02 0.10480479E+00
       -1 -1    0    0    0  501 0.00000000E+00 0.00000000E+00 0.26523589E+03 0.26523608E+03 0.32000000E+00 0.0000E+00 0.9000E+01
        1 -1    0    0  501    0 0.00000000E+00 0.00000000E+00 -.21209040E+03 0.21209064E+03 0.32000000E+00 0.0000E+00 0.9000E+01
       25  2    1    2    0    0 -.11324975E+03 0.25069387E+02 0.59428074E+01 0.32221932E+03 0.30055947E+03 0.0000E+00 0.0000E+00
       23  2    1    2    0    0 0.11324975E+03 -.25069387E+02 0.47202677E+02 0.15510740E+03 0.91521774E+02 0.0000E+00 0.0000E+00
       23  1    3    3    0    0 -.65918923E+02 0.22894815E+01 0.12171109E+03 0.16576908E+03 0.91188000E+02 0.0000E+00 0.9000E+01
      -13  1    4    4    0    0 0.84126617E+02 -.48424379E+02 0.61746847E+02 0.11504300E+03 0.10565837E+00 0.0000E+00 0.9000E+01
       13  1    4    4    0    0 0.29123129E+02 0.23354991E+02 -.14544170E+02 0.40064402E+02 0.10565837E+00 0.0000E+00 0.9000E+01
       23  1    3    3    0    0 -.47330823E+02 0.22779906E+02 -.11576828E+03 0.15645024E+03 0.91188000E+02 0.0000E+00 0.9000E+01
#aMCatNLO 1  0  0  2  1 0.89510117D+02 0.00000000D+00  -5  7  0 0.00000000D+00 0.00000000D+00 0.00000000D+00 0.00000000D+00 0.00000000D+00
  <mgrwgt>
 0.1330313386D-03    4    2    0
 0.237179446504122D+03 0.000000000000000D+00 0.000000000000000D+00 0.237179446504122D+03
 0.237179446504122D+03 0.000000000000000D+00 0.000000000000000D+00 -.237179446504122D+03
 0.153170138042841D+03 -.659189290341527D+02 0.228948279973848D+01 0.103900398976920D+03
 0.108844963141808D+03 0.841266984707952D+02 -.484244680097247D+02 0.492442433561586D+02
 0.419444473622803D+02 0.291230602499357D+02 0.233550776974903D+02 -.191239214584746D+02
 0.170399344461316D+03 -.473308296865782D+02 0.227799075124960D+02 -.134020720874603D+03
 0.000000000000000D+00 -.000000000000000D+00 0.000000000000000D+00 0.000000000000000D+00
 0.321421741428366D+03 0.000000000000000D+00 0.000000000000000D+00 0.321421741428366D+03
 0.266385058729584D+03 0.000000000000000D+00 0.000000000000000D+00 -.266385058729584D+03
 0.146614207398883D+03 -.457246276767576D+02 -.171592535811276D+02 0.103900398976920D+03
 0.128538423471710D+03 0.100117498922529D+03 -.638248949420944D+02 0.492442433561586D+02
 0.435858096041480D+02 0.348846145492787D+02 0.178062375208068D+02 -.191239214584746D+02
 0.163991733021853D+03 -.248053232930770D+02 0.108603318926807D+01 -.134020720874603D+03
 0.105076626661357D+03 -.644721625019736D+02 0.620918778131471D+02 0.550366826987824D+02
0.178154672022D-05 0.000000000000D+00 0.000000000000D+00 0.123249369407D-06 0.000000000000D+00  7 -1 1 23 -13 13 23 21 0 0.40805555D-01 0.32629326D-01 0.31007092D+05 0.31007092D+05 0.31007092D+05 0.11660078D+01  1  2  2  2  7  2        1 0.173492563661D-03 0.100000000000D+01
-.883003268839D-07 0.000000000000D+00 -.684160849765D-08 0.123249369407D-06 0.000000000000D+00  7 -1 1 23 -13 13 23 21 2 0.40805555D-01 0.32629326D-01 0.31007092D+05 0.31007092D+05 0.31007092D+05 0.11660078D+01  1  2  3  2  7  2        1 -.116909245999D-04 0.100000000000D+01
0.116747524889D-06 0.000000000000D+00 0.000000000000D+00 0.123249369407D-06 0.000000000000D+00  7 -1 1 23 -13 13 23 21 2 0.40805555D-01 0.32629326D-01 0.31007092D+05 0.31007092D+05 0.31007092D+05 0.11660078D+01  1  2 15  2  7  2        1 0.154573211546D-04 0.100000000000D+01
-.334046585828D-06 0.000000000000D+00 0.000000000000D+00 0.123249369407D-06 0.000000000000D+00  7 -1 1 23 -13 13 23 21 2 0.40805555D-01 0.32629326D-01 0.31007092D+05 0.31007092D+05 0.31007092D+05 0.11660078D+01  1  2  4  2  7  2        1 -.442276216360D-04 0.100000000000D+01
  </mgrwgt>
  </event>
  <event>
  7     66 0.58687835E-06 0.23625270E+03 0.75467711E-02 0.98191174E-01
       -1 -1    0    0    0  501 0.00000000E+00 0.00000000E+00 0.36144286E+03 0.36144300E+03 0.32000000E+00 0.0000E+00 0.9000E+01
        1 -1    0    0  501    0 0.00000000E+00 0.00000000E+00 -.41594848E+03 0.41594860E+03 0.32000000E+00 0.0000E+00 0.9000E+01
       25  2    1    2    0    0 -.23850605E+03 -.17226863E+03 0.79523601E+02 0.42809255E+03 0.30062869E+03 0.0000E+00 0.0000E+00
       23  1    3    3    0    0 -.27370907E+02 -.37820293E+02 0.12093358E+03 0.15849203E+03 0.91188000E+02 0.0000E+00 0.9000E+01
      -11  1    1    2    0    0 0.23806119E+03 0.14716853E+03 -.15193954E+03 0.31846088E+03 0.51099893E-03 0.0000E+00 0.9000E+01
       11  1    1    2    0    0 0.44485956E+00 0.25100105E+02 0.17910323E+02 0.30838171E+02 0.51099893E-03 0.0000E+00 0.9000E+01
       23  1    3    3    0    0 -.21113515E+03 -.13444834E+03 -.41409975E+02 0.26960053E+03 0.91188000E+02 0.0000E+00 0.9000E+01
#aMCatNLO 1  0  0  2  1 0.62608166D+02 0.00000000D+00  -5  7  0 0.00000000D+00 0.00000000D+00 0.00000000D+00 0.00000000D+00 0.00000000D+00
  <mgrwgt>
 0.2653734055D-03    9    2    0
 0.387739230311837D+03 0.000000000000000D+00 0.000000000000000D+00 0.387739230311837D+03
 0.387739230311837D+03 0.000000000000000D+00 0.000000000000000D+00 -.387739230311837D+03
 0.167383024275342D+03 -.273709079403933D+02 -.378202932807863D+02 0.132371765442006D+03
 0.308567249875613D+03 0.238061193114018D+03 0.147168530284047D+03 -.129930903648680D+03
 0.321731023731543D+02 0.444860751660485D+00 0.251001044789627D+02 0.201220120855310D+02
 0.267355084099564D+03 -.211135145925285D+03 -.134448341482223D+03 -.225628738788566D+02
 0.000000000000000D+00 0.000000000000000D+00 -.000000000000000D+00 -.000000000000000D+00
 0.412423258512588D+03 0.000000000000000D+00 0.000000000000000D+00 0.412423258512588D+03
 0.430838784187920D+03 0.000000000000000D+00 0.000000000000000D+00 -.430838784187920D+03
 0.169424725288788D+03 -.406236014049756D+02 -.348844509464834D+02 0.132371765442006D+03
 0.293376152112835D+03 0.214375956061413D+03 0.152415472863898D+03 -.129930903648680D+03
 0.326810110913617D+02 -.210701546488962D+01 0.256654164473162D+02 0.201220120855310D+02
 0.282519798718499D+03 -.232771593647440D+03 -.129655263052061D+03 -.225628738788566D+02
 0.652603554890232D+02 0.611262544558918D+02 -.135411753126697D+02 -.184155256753313D+02
0.683478149731D-05 0.000000000000D+00 0.000000000000D+00 0.664822700308D-09 0.000000000000D+00  7 -1 1 23 -11 11 23 21 0 0.55606614D-01 0.63992094D-01 0.11351087D+06 0.11351087D+06 0.11351087D+06 0.11172334D+01  1  2  2  2  7  2        1 0.158090465704D-03 0.100000000000D+01
-.370595768788D-06 0.000000000000D+00 -.262473605890D-07 0.664822700308D-09 0.000000000000D+00  7 -1 1 23 -11 11 23 21 2 0.55606614D-01 0.63992094D-01 0.11351087D+06 0.11351087D+06 0.11351087D+06 0.11172334D+01  1  2  3  2  7  2        1 -.106996433448D-04 0.100000000000D+01
0.444913194404D-06 0.000000000000D+00 0.000000000000D+00 0.664822700308D-09 0.000000000000D+00  7 -1 1 23 -11 11 23 21 2 0.55606614D-01 0.63992094D-01 0.11351087D+06 0.11351087D+06 0.11351087D+06 0.11172334D+01  1  2 15  2  7  2        1 0.128452964131D-04 0.100000000000D+01
0.962919476278D-05 0.000000000000D+00 0.000000000000D+00 0.664822700308D-09 0.000000000000D+00  7 -1 1 23 -11 11 23 21 2 0.55606614D-01 0.72960831D-01 0.13644146D+06 0.13644146D+06 0.13644146D+06 0.11108135D+01  1  2 12  2  7  2        1 0.229050536679D-03 0.100000000000D+01
-.894026611909D-05 0.000000000000D+00 0.000000000000D+00 0.664822700308D-09 0.000000000000D+00  7 -1 1 23 -11 11 23 21 2 0.55606614D-01 0.63992094D-01 0.11351087D+06 0.11351087D+06 0.11351087D+06 0.11172334D+01  1  2  4  2  7  2        1 -.258118594269D-03 0.100000000000D+01
-.248443864283D-04 0.000000000000D+00 -.609959287968D-05 0.664822700308D-09 0.000000000000D+00  7 -1 1 23 -11 11 23 21 2 0.55606614D-01 0.74849785D-01 0.11351087D+06 0.11351087D+06 0.11351087D+06 0.11172334D+01  1  2  5  2  7  2        1 -.579513229629D-03 0.100000000000D+01
0.255599394272D-04 0.000000000000D+00 0.602544189056D-05 0.664822700308D-09 0.000000000000D+00  7 -1 1 23 -11 11 23 21 2 0.55606614D-01 0.63992094D-01 0.11351087D+06 0.11351087D+06 0.11351087D+06 0.11172334D+01  1  2  6  2  7  2        1 0.737952936374D-03 0.100000000000D+01
0.196785184722D-06 0.000000000000D+00 0.000000000000D+00 0.664822700308D-09 0.000000000000D+00  7 -1 21 23 -11 11 23 -1 2 0.55606614D-01 0.72960831D-01 0.13644146D+06 0.13644146D+06 0.13644146D+06 0.11108135D+01  1  2 12  4  7  2        1 0.147067091409D-04 0.100000000000D+01
-.541325773456D-06 0.000000000000D+00 -.144144819245D-06 0.664822700308D-09 0.000000000000D+00  7 -1 21 23 -11 11 23 -1 2 0.55606614D-01 0.74849785D-01 0.11351087D+06 0.11351087D+06 0.11351087D+06 0.11172334D+01  1  2  5  4  7  2        1 -.389410715399D-04 0.100000000000D+01
  </mgrwgt>
  </event>
  <event>
  9     66 0.58687835E-06 0.42259401E+03 0.75467711E-02 0.96124433E-01
       -3 -1    0    0    0  501 0.00000000E+00 0.00000000E+00 0.46347452E+03 0.46347479E+03 0.50000000E+00 0.0000E+00 0.9000E+01
        3 -1    0    0  502    0 0.00000000E+00 0.00000000E+00 -.50927368E+03 0.50927393E+03 0.50000000E+00 0.0000E+00 0.9000E+01
       25  2    1    2    0    0 -.19021040E+03 -.29381749E+03 -.22158312E+03 0.51154890E+03 0.30012410E+03 0.0000E+00 0.0000E+00
       23  2    1    2    0    0 0.21763771E+03 0.30975150E+03 0.14078776E+03 0.41396163E+03 0.90724148E+02 0.0000E+00 0.0000E+00
       23  1    3    3    0    0 -.23037455E+03 -.16311117E+03 -.14703458E+03 0.33107719E+03 0.91188000E+02 0.0000E+00 0.9000E+01
      -11  1    4    4    0    0 0.23962464E+02 0.86590196E+02 0.85945497E+01 0.90254795E+02 0.51099893E-03 0.0000E+00 0.9000E+01
       11  1    4    4    0    0 0.19367525E+03 0.22316131E+03 0.13219321E+03 0.32370684E+03 0.51099893E-03 0.0000E+00 0.9000E+01
       23  1    3    3    0    0 0.40164145E+02 -.13070632E+03 -.74548543E+02 0.18047171E+03 0.91188000E+02 0.0000E+00 0.9000E+01
       21  1    1    2  502  501 -.27427312E+02 -.15934013E+02 0.34996195E+02 0.47238188E+02 0.75000000E+00 0.0000E+00 0.9000E+01
#aMCatNLO 2  0  0  2  1 0.31719871D+02 0.00000000D+00  -5  7  0 0.00000000D+00 0.00000000D+00 0.00000000D+00 0.00000000D+00 0.00000000D+00
  <mgrwgt>
 0.3708237508D-05    1    2    0
 0.460715666353837D+03 0.000000000000000D+00 0.000000000000000D+00 0.460715666353837D+03
 0.460715666353837D+03 0.000000000000000D+00 0.000000000000000D+00 -.460715666353837D+03
 0.329328159192328D+03 -.240027612499597D+03 -.168719163601062D+03 -.118584881686109D+03
 0.891973227615053D+02 0.212761180584200D+02 0.850295521824224D+02 0.165367603792593D+02
 0.327107217392596D+03 0.183801239049442D+03 0.217424959971419D+03 0.161067138099749D+03
 0.175798633361245D+03 0.349502553917353D+02 -.133735348552780D+03 -.590190167928990D+02
 0.000000000000000D+00 -.000000000000000D+00 -.000000000000000D+00 0.000000000000000D+00
 0.505863559820609D+03 0.000000000000000D+00 0.000000000000000D+00 0.505863559820609D+03
 0.466593866398447D+03 0.000000000000000D+00 0.000000000000000D+00 -.466593866398447D+03
 0.319460972339560D+03 -.230374547290487D+03 -.163111174664189D+03 -.118584881686109D+03
 0.913538518539059D+02 0.239624643263187D+02 0.865901963741522D+02 0.165367603792593D+02
 0.336531863693267D+03 0.193675250517404D+03 0.223161308569027D+03 0.161067138099749D+03
 0.174630454523732D+03 0.401641448854379D+02 -.130706317466242D+03 -.590190167928990D+02
 0.504802838085922D+02 -.274273124386739D+02 -.159340128127481D+02 0.392696934221615D+02
0.256283700836D-05 0.000000000000D+00 0.000000000000D+00 0.104452802160D-05 0.670263919865D-08  7 -3 3 23 -11 11 23 21 2 0.71303390D-01 0.78349374D-01 0.19273856D+06 0.19273856D+06 0.19273856D+06 0.10990611D+01  1  2  1  2  7  2        3 0.370823750845D-05 0.100000000000D+01
  </mgrwgt>
  </event>
  <event>
  8     66 0.58687835E-06 0.35808250E+03 0.75467711E-02 0.95069446E-01
       -1 -1    0    0    0  501 0.00000000E+00 0.00000000E+00 0.24313020E+03 0.24313041E+03 0.32000000E+00 0.0000E+00 0.9000E+01
        1 -1    0    0  501    0 0.00000000E+00 0.00000000E+00 -.66543551E+03 0.66543558E+03 0.32000000E+00 0.0000E+00 0.9000E+01
       25  2    1    2    0    0 0.26392972E+03 -.15909383E+03 -.77191963E+02 0.43651076E+03 0.29935481E+03 0.0000E+00 0.0000E+00
       23  2    1    2    0    0 -.26392972E+03 0.15909383E+03 -.34511335E+03 0.47205523E+03 0.93611851E+02 0.0000E+00 0.0000E+00
       23  1    3    3    0    0 0.11464405E+03 -.17658547E+03 0.28783867E+02 0.23123462E+03 0.91188000E+02 0.0000E+00 0.9000E+01
      -11  1    4    4    0    0 -.14490630E+03 0.11107044E+03 -.26129877E+03 0.31876563E+03 0.51099893E-03 0.0000E+00 0.9000E+01
       11  1    4    4    0    0 -.11902341E+03 0.48023391E+02 -.83814572E+02 0.15328960E+03 0.51099893E-03 0.0000E+00 0.9000E+01
       23  1    3    3    0    0 0.14928567E+03 0.17491637E+02 -.10597583E+03 0.20527615E+03 0.91188000E+02 0.0000E+00 0.9000E+01
#aMCatNLO 1  0  0  2  2 0.21874682D+03 0.00000000D+00  -5  7  0 0.00000000D+00 0.00000000D+00 0.00000000D+00 0.00000000D+00 0.00000000D+00
  <mgrwgt>
 0.1436984400D-03    4    2    0
 0.402228290903566D+03 0.000000000000000D+00 0.000000000000000D+00 0.402228290903566D+03
 0.402228290903566D+03 0.000000000000000D+00 0.000000000000000D+00 -.402228290903566D+03
 0.276270334529053D+03 0.114644047326019D+03 -.176585468935090D+03 0.153897241594770D+03
 0.222848266725457D+03 -.144906303532170D+03 0.111070440980787D+03 -.127776642308039D+03
 0.129128632472466D+03 -.119023412080048D+03 0.480233910006363D+02 -.141910189145199D+02
 0.176209348080155D+03 0.149285668286200D+03 0.174916369536661D+02 -.119295803722113D+02
 0.000000000000000D+00 0.000000000000000D+00 -.000000000000000D+00 0.000000000000000D+00
 0.581621336120859D+03 0.000000000000000D+00 0.000000000000000D+00 0.581621336120859D+03
 0.489427057426351D+03 0.000000000000000D+00 0.000000000000000D+00 -.489427057426351D+03
 0.230957384005165D+03 0.644575342186477D+02 -.131098921408539D+03 0.153897241594770D+03
 0.280418047301330D+03 -.194700864323114D+03 0.156201742514631D+03 -.127776642308039D+03
 0.166567544033351D+03 -.148280409471462D+03 0.745404713859896D+02 -.141910189145199D+02
 0.155723962152347D+03 0.116443268677408D+03 0.472583467367346D+02 -.119295803722113D+02
 0.237381456055017D+03 0.162080470898520D+03 -.146901639228817D+03 0.921942786945074D+02
0.769873826699D-05 0.000000000000D+00 0.000000000000D+00 0.982143796070D-07 0.000000000000D+00  7 -1 1 23 -11 11 23 21 0 0.37404668D-01 0.10237472D+00 0.12822307D+06 0.12822307D+06 0.12822307D+06 0.11129684D+01  1  2  2  2  7  2        1 0.185667401434D-03 0.100000000000D+01
-.420679185101D-06 0.000000000000D+00 -.295651820696D-07 0.982143796070D-07 0.000000000000D+00  7 -1 1 23 -11 11 23 21 2 0.37404668D-01 0.10237472D+00 0.12822307D+06 0.12822307D+06 0.12822307D+06 0.11129684D+01  1  2  3  2  7  2        1 -.125670340100D-04 0.100000000000D+01
0.491623277300D-06 0.000000000000D+00 0.000000000000D+00 0.982143796070D-07 0.000000000000D+00  7 -1 1 23 -11 11 23 21 2 0.37404668D-01 0.10237472D+00 0.12822307D+06 0.12822307D+06 0.12822307D+06 0.11129684D+01  1  2 15  2  7  2        1 0.146863611624D-04 0.100000000000D+01
-.147584746596D-05 0.000000000000D+00 0.000000000000D+00 0.982143796070D-07 0.000000000000D+00  7 -1 1 23 -11 11 23 21 2 0.37404668D-01 0.10237472D+00 0.12822307D+06 0.12822307D+06 0.12822307D+06 0.11129684D+01  1  2  4  2  7  2        1 -.440882885466D-04 0.100000000000D+01
  </mgrwgt>
  </event>
  <event>
  8     66 0.58687835E-06 0.10997801E+04 0.75467711E-02 0.84450289E-01
       -1 -1    0    0    0  501 0.00000000E+00 0.00000000E+00 0.63947492E+03 0.63947500E+03 0.32000000E+00 0.0000E+00 0.9000E+01
        1 -1    0    0  501    0 0.00000000E+00 0.00000000E+00 -.25656674E+04 0.25656675E+04 0.32000000E+00 0.0000E+00 0.9000E+01
       25  2    1    2    0    0 -.27274424E+03 -.10563900E+04 -.18286994E+03 0.11463583E+04 0.30057722E+03 0.0000E+00 0.0000E+00
       23  2    1    2    0    0 0.27274424E+03 0.10563900E+04 -.17433226E+04 0.20587842E+04 0.95233117E+02 0.0000E+00 0.0000E+00
       23  1    3    3    0    0 -.10596252E+03 -.48899801E+03 -.20307244E+03 0.54763197E+03 0.91188000E+02 0.0000E+00 0.9000E+01
      -11  1    4    4    0    0 0.49228429E+02 0.11629829E+03 -.15924643E+03 0.20324408E+03 0.51099893E-03 0.0000E+00 0.9000E+01
       11  1    4    4    0    0 0.22351581E+03 0.94009172E+03 -.15840761E+04 0.18555401E+04 0.51099893E-03 0.0000E+00 0.9000E+01
       23  1    3    3    0    0 -.16678172E+03 -.56739200E+03 0.20202505E+02 0.59872633E+03 0.91188000E+02 0.0000E+00 0.9000E+01
#aMCatNLO 1  0  0  2  1 0.49626380D+03 0.00000000D+00  -5  7  0 0.00000000D+00 0.00000000D+00 0.00000000D+00 0.00000000D+00 0.00000000D+00
  <mgrwgt>
 0.2613743283D-03    3    2    0
 0.128089037013438D+04 0.000000000000000D+00 0.000000000000000D+00 0.128089037013438D+04
 0.128089037013438D+04 0.000000000000000D+00 0.000000000000000D+00 -.128089037013438D+04
 0.532474087651920D+03 -.105962515964102D+03 -.488998009167372D+03 0.157690503574721D+03
 0.134549741945848D+03 0.492284291166094D+02 0.116298285094108D+03 -.464209404102820D+02
 0.113047718609680D+04 0.223515808667883D+03 0.940091720928436D+03 -.586725581343348D+03
 0.764279724574201D+03 -.166781721820390D+03 -.567391996855172D+03 0.475456018178909D+03
 0.000000000000000D+00 -.000000000000000D+00 -.000000000000000D+00 0.000000000000000D+00
 0.334332077591370D+04 0.000000000000000D+00 0.000000000000000D+00 0.334332077591370D+04
 0.133490442927312D+04 0.000000000000000D+00 0.000000000000000D+00 -.133490442927312D+04
 0.464442140018152D+03 -.340764766328927D+02 -.425868229506827D+03 0.157690503574721D+03
 0.159082763646118D+03 0.704018008203061D+02 0.134892581048662D+03 -.464209404102820D+02
 0.130419723710112D+04 0.399076298593639D+03 0.109426762419452D+04 -.586725581343348D+03
 0.681683599592626D+03 -.625156124849303D+02 -.475826282988500D+03 0.475456018178909D+03
 0.206881946482880D+04 -.372886010296122D+03 -.327465692747853D+03 0.200841634664058D+04
0.179381072877D-02 0.000000000000D+00 0.000000000000D+00 0.925402524074D-06 0.000000000000D+00  7 -1 1 23 -11 11 23 21 0 0.98380765D-01 0.39471807D+00 0.12095163D+07 0.12095163D+07 0.12095163D+07 0.10424086D+01  1  2  2  2  7  2        1 0.258624242511D-03 0.100000000000D+01
-.968402791757D-04 0.000000000000D+00 -.688870551969D-05 0.925402524074D-06 0.000000000000D+00  7 -1 1 23 -11 11 23 21 2 0.98380765D-01 0.39471807D+00 0.12095163D+07 0.12095163D+07 0.12095163D+07 0.10424086D+01  1  2  3  2  7  2        1 -.151713649633D-04 0.100000000000D+01
0.114394340583D-03 0.000000000000D+00 0.000000000000D+00 0.925402524074D-06 0.000000000000D+00  7 -1 1 23 -11 11 23 21 2 0.98380765D-01 0.39471807D+00 0.12095163D+07 0.12095163D+07 0.12095163D+07 0.10424086D+01  1  2 15  2  7  2        1 0.179214507175D-04 0.100000000000D+01
  </mgrwgt>
  </event>
  <event>
  9     66 -.58687835E-06 0.44901528E+03 0.75467711E-02 0.95701750E-01
       -1 -1    0    0    0  502 0.00000000E+00 0.00000000E+00 0.95299129E+03 0.95299134E+03 0.32000000E+00 0.0000E+00 0.9000E+01
        1 -1    0    0  501    0 0.00000000E+00 0.00000000E+00 -.24950602E+03 0.24950623E+03 0.32000000E+00 0.0000E+00 0.9000E+01
       25  2    1    2    0    0 0.29399570E+03 0.29918873E+03 0.27764689E+03 0.58690091E+03 0.30235329E+03 0.0000E+00 0.0000E+00
       23  2    1    2    0    0 -.30416953E+03 -.29209422E+03 0.40878994E+03 0.59450044E+03 0.92105458E+02 0.0000E+00 0.0000E+00
       23  1    3    3    0    0 0.22253595E+03 0.24020747E+03 0.78136220E+02 0.34877270E+03 0.91188000E+02 0.0000E+00 0.9000E+01
      -13  1    4    4    0    0 -.23515381E+03 -.26424401E+03 0.30677412E+03 0.46822279E+03 0.10565837E+00 0.0000E+00 0.9000E+01
       13  1    4    4    0    0 -.69015725E+02 -.27850205E+02 0.10201582E+03 0.12627765E+03 0.10565837E+00 0.0000E+00 0.9000E+01
       23  1    3    3    0    0 0.71459750E+02 0.58981264E+02 0.19951067E+03 0.23812821E+03 0.91188000E+02 0.0000E+00 0.9000E+01
       21  1    1    2  501  502 0.10173839E+02 -.70945176E+01 0.17048437E+02 0.21096229E+02 0.75000000E+00 0.0000E+00 0.9000E+01
#aMCatNLO 2  0  0  1  2 0.12403192D+02 0.00000000D+00  -5  7  0 0.00000000D+00 0.00000000D+00 0.00000000D+00 0.00000000D+00 0.00000000D+00
  <mgrwgt>
 -.5599728611D-04    3    2    0
 0.480718152749187D+03 0.000000000000000D+00 0.000000000000000D+00 0.480718152749187D+03
 0.480718152749187D+03 0.000000000000000D+00 0.000000000000000D+00 -.480718152749187D+03
 0.373363103900983D+03 0.226483433153171D+03 0.237454768989286D+03 -.152987722389653D+03
 0.355780815399638D+03 -.231386649072702D+03 -.266871424738236D+03 0.426596987275064D+02
 0.818070245196986D+02 -.681471271699231D+02 -.284554409519201D+02 0.351944057981474D+02
 0.150485361678056D+03 0.730503430894540D+02 0.578720967008700D+02 0.751336178639995D+02
 0.000000000000000D+00 0.000000000000000D+00 -.000000000000000D+00 0.000000000000000D+00
 0.490565789070626D+03 0.000000000000000D+00 0.000000000000000D+00 0.490565789070626D+03
 0.484679567030340D+03 0.000000000000000D+00 0.000000000000000D+00 -.484679567030340D+03
 0.372749741057029D+03 0.222535945394101D+03 0.240207468492681D+03 -.152987722389653D+03
 0.356289668134387D+03 -.235154027608457D+03 -.264244320702094D+03 0.426596987275064D+02
 0.823249839036517D+02 -.690155066630535D+02 -.278498943497790D+02 0.351944057981474D+02
 0.150151913947360D+03 0.714597499593782D+02 0.589812641477362D+02 0.751336178639995D+02
 0.137290490585382D+02 0.101738389180309D+02 -.709451758854440D+01 0.588622204028552D+01
-.175089246218D-04 0.000000000000D+00 0.000000000000D+00 0.499347538041D-07 0.000000000000D+00  7 -1 1 23 -13 13 23 21 2 0.14719434D+00 0.38071025D-01 0.20723534D+06 0.20723534D+06 0.20723534D+06 0.10966420D+01  1  2 13  1  7  1       -1 -.112987819454D-03 0.100000000000D+01
-.110281382498D-03 0.000000000000D+00 0.000000000000D+00 0.499347538041D-07 0.000000000000D+00  7 -1 1 23 -13 13 23 21 2 0.14366790D+00 0.38071025D-01 0.20161473D+06 0.20161473D+06 0.20161473D+06 0.10975573D+01  1  2  8  1  7  1       -1 -.763615965733D-03 0.100000000000D+01
0.127114389889D-03 0.000000000000D+00 0.000000000000D+00 0.499347538041D-07 0.208219200399D-08  7 -1 1 23 -13 13 23 21 2 0.14661098D+00 0.38384754D-01 0.20723534D+06 0.20723534D+06 0.20723534D+06 0.10966420D+01  1  2  1  1  7  1       -1 0.820606499081D-03 0.100000000000D+01
  </mgrwgt>
  </event>
  <event>
  8     66 0.58687835E-06 0.37111443E+03 0.75467711E-02 0.92650441E-01
       -1 -1    0    0    0  501 0.00000000E+00 0.00000000E+00 0.19124718E+03 0.19124744E+03 0.32000000E+00 0.0000E+00 0.9000E+01
        1 -1    0    0  501    0 0.00000000E+00 0.00000000E+00 -.78757492E+03 0.78757498E+03 0.32000000E+00 0.0000E+00 0.9000E+01
       25  2    1    2    0    0 0.30489835E+03 -.10465346E+03 -.36436999E+03 0.57137533E+03 0.29964800E+03 0.0000E+00 0.0000E+00
       23  2    1    2    0    0 -.30489835E+03 0.10465346E+03 -.23195775E+03 0.40744710E+03 0.91068049E+02 0.0000E+00 0.0000E+00
       23  1    3    3    0    0 0.57179358E+02 0.37456296E+02 -.21586237E+02 0.11598996E+03 0.91188000E+02 0.0000E+00 0.9000E+01
      -13  1    4    4    0    0 -.25651631E+03 0.61832540E+02 -.21573730E+03 0.34083203E+03 0.10565837E+00 0.0000E+00 0.9000E+01
       13  1    4    4    0    0 -.48382039E+02 0.42820922E+02 -.16220454E+02 0.66615068E+02 0.10565837E+00 0.0000E+00 0.9000E+01
       23  1    3    3    0    0 0.24771899E+03 -.14210976E+03 -.34278376E+03 0.45538537E+03 0.91188000E+02 0.0000E+00 0.9000E+01
#aMCatNLO 1  0  0  1  2 0.36511126D+03 0.00000000D+00  -5  7  0 0.00000000D+00 0.00000000D+00 0.00000000D+00 0.00000000D+00 0.00000000D+00
  <mgrwgt>
 0.1505921220D-03    5    2    0
 0.388100040775006D+03 0.000000000000000D+00 0.000000000000000D+00 0.388100040775006D+03
 0.388100040775006D+03 0.000000000000000D+00 0.000000000000000D+00 -.388100040775006D+03
 0.129684473454550D+03 0.571793578017909D+02 0.374562960161884D+02 0.618898880375979D+02
 0.264060911604109D+03 -.256516590824940D+03 0.618325653814846D+02 -.102047796197731D+02
 0.715426556120025D+02 -.483817589305134D+02 0.428208961520139D+02 0.307234084623714D+02
 0.310912040879351D+03 0.247718991953662D+03 -.142109757549687D+03 -.824085168801962D+02
 0.000000000000000D+00 -.000000000000000D+00 -.000000000000000D+00 0.000000000000000D+00
 0.705487185931329D+03 0.000000000000000D+00 0.000000000000000D+00 0.705487185931329D+03
 0.549380320610592D+03 0.000000000000000D+00 0.000000000000000D+00 -.549380320610592D+03
 0.168902299987384D+03 0.794531742735788D+02 0.100347249357290D+03 0.618898880375979D+02
 0.278949464005318D+03 -.216009393171213D+03 0.176206152002620D+03 -.102047796197731D+02
 0.904511950830984D+02 -.362974282739763D+02 0.769414554392529D+02 0.307234084623714D+02
 0.319480695752145D+03 0.294744692251832D+03 -.933093506855511D+01 -.824085168801962D+02
 0.397083851713976D+03 -.121891045080222D+03 -.344163921730607D+03 0.156106865320736D+03
0.542618366892D-05 0.000000000000D+00 0.000000000000D+00 0.614648932157D-06 0.000000000000D+00  7 -1 1 23 -13 13 23 21 0 0.29422668D-01 0.12116540D+00 0.13772592D+06 0.13772592D+06 0.13772592D+06 0.11104896D+01  1  2  2  1  7  1       -1 0.151768086887D-03 0.100000000000D+01
-.300720570984D-06 0.000000000000D+00 -.208379740356D-07 0.614648932157D-06 0.000000000000D+00  7 -1 1 23 -13 13 23 21 2 0.29422668D-01 0.12116540D+00 0.13772592D+06 0.13772592D+06 0.13772592D+06 0.11104896D+01  1  2  3  1  7  1       -1 -.103723727637D-04 0.100000000000D+01
0.352024827847D-06 0.000000000000D+00 0.000000000000D+00 0.614648932157D-06 0.000000000000D+00  7 -1 1 23 -13 13 23 21 2 0.29422668D-01 0.12116540D+00 0.13772592D+06 0.13772592D+06 0.13772592D+06 0.11104896D+01  1  2 15  1  7  1       -1 0.121419453433D-04 0.100000000000D+01
-.710308714506D-06 0.000000000000D+00 -.169998709809D-05 0.614648932157D-06 0.000000000000D+00  7 -1 1 23 -13 13 23 21 2 0.73255477D-01 0.12116540D+00 0.13772592D+06 0.13772592D+06 0.13772592D+06 0.11104896D+01  1  2  5  1  7  1       -1 -.477214089821D-05 0.100000000000D+01
0.340089319082D-07 0.000000000000D+00 -.170585804979D-06 0.614648932157D-06 0.000000000000D+00  7 21 1 23 -13 13 23 1 2 0.73255477D-01 0.12116540D+00 0.13772592D+06 0.13772592D+06 0.13772592D+06 0.11104896D+01  1  2  5  3  7  1       -1 0.182660339283D-05 0.100000000000D+01
  </mgrwgt>
  </event>
  <event>
  8     66 0.58687835E-06 0.10307413E+03 0.75467711E-02 0.10298398E+00
       -1 -1    0    0    0  501 0.00000000E+00 0.00000000E+00 0.97638504E+03 0.97638510E+03 0.32000000E+00 0.0000E+00 0.9000E+01
        1 -1    0    0  501    0 0.00000000E+00 0.00000000E+00 -.17974395E+03 0.17974424E+03 0.32000000E+00 0.0000E+00 0.9000E+01
       25  2    1    2    0    0 -.12653888E+03 -.86112765E+02 -.92032369E+00 0.33877606E+03 0.30222653E+03 0.0000E+00 0.0000E+00
       23  2    1    2    0    0 0.12653888E+03 0.86112765E+02 0.79756142E+03 0.81735327E+03 0.92383253E+02 0.0000E+00 0.0000E+00
       23  1    3    3    0    0 -.17770226E+03 -.19260909E+02 0.46401425E+02 0.20595490E+03 0.91188000E+02 0.0000E+00 0.9000E+01
      -11  1    4    4    0    0 0.42643633E+02 0.42290693E+02 0.53294511E+03 0.53631845E+03 0.51099893E-03 0.0000E+00 0.9000E+01
       11  1    4    4    0    0 0.83895248E+02 0.43822072E+02 0.26461630E+03 0.28103483E+03 0.51099893E-03 0.0000E+00 0.9000E+01
       23  1    3    3    0    0 0.51163380E+02 -.66851856E+02 -.47321749E+02 0.13282116E+03 0.91188000E+02 0.0000E+00 0.9000E+01
#aMCatNLO 1  0  0  1  2 0.23820737D+02 0.00000000D+00  -5  7  0 0.00000000D+00 0.00000000D+00 0.00000000D+00 0.00000000D+00 0.00000000D+00
  <mgrwgt>
 0.1537015159D-03    6    2    0
 0.418926605956376D+03 0.000000000000000D+00 0.000000000000000D+00 0.418926605956376D+03
 0.418926605956376D+03 0.000000000000000D+00 0.000000000000000D+00 -.418926605956376D+03
 0.240072141875246D+03 -.177702259953686D+03 -.192609092109442D+02 -.131796457252420D+03
 0.233319521830056D+03 0.426436325428015D+02 0.422906930686404D+02 0.225457351067413D+03
 0.136191382113681D+03 0.838952478992415D+02 0.438220717407827D+02 0.979250017631111D+02
 0.228270166093768D+03 0.511633795116427D+02 -.668518555984788D+02 -.191585895578104D+03
 0.000000000000000D+00 -.000000000000000D+00 -.000000000000000D+00 -.000000000000000D+00
 0.428752270542830D+03 0.000000000000000D+00 0.000000000000000D+00 0.428752270542830D+03
 0.433786350252282D+03 0.000000000000000D+00 0.000000000000000D+00 -.433786350252282D+03
 0.235107232095106D+03 -.170950072651501D+03 -.191291859622806D+02 -.131796457252420D+03
 0.234649407465904D+03 0.492933611196276D+02 0.424204175285331D+02 0.225457351067413D+03
 0.138655458744965D+03 0.878007569565581D+02 0.438982613246452D+02 0.979250017631111D+02
 0.229779665086727D+03 0.576721600338748D+02 -.667248807861911D+02 -.191585895578104D+03
 0.243468574024095D+02 -.238162054585592D+02 -.464612104706585D+00 -.503407970945206D+01
0.110064549803D-04 0.000000000000D+00 0.000000000000D+00 0.575350070296D-07 0.000000000000D+00  7 -1 1 23 -11 11 23 21 0 0.15021311D+00 0.27652942D-01 0.57473830D+05 0.57473830D+05 0.57473830D+05 0.11420115D+01  1  2  2  1  7  1       -1 0.886287656700D-04 0.100000000000D+01
-.379856492012D-06 0.000000000000D+00 -.422676851906D-07 0.575350070296D-07 0.000000000000D+00  7 -1 1 23 -11 11 23 21 2 0.15021311D+00 0.27652942D-01 0.57473830D+05 0.57473830D+05 0.57473830D+05 0.11420115D+01  1  2  3  1  7  1       -1 -.398921810523D-05 0.100000000000D+01
0.683505030753D-06 0.000000000000D+00 0.000000000000D+00 0.575350070296D-07 0.000000000000D+00  7 -1 1 23 -11 11 23 21 2 0.15021311D+00 0.27652942D-01 0.57473830D+05 0.57473830D+05 0.57473830D+05 0.11420115D+01  1  2 15  1  7  1       -1 0.717810726165D-05 0.100000000000D+01
0.186682192369D-04 0.000000000000D+00 0.000000000000D+00 0.575350070296D-07 0.000000000000D+00  7 -1 1 23 -11 11 23 21 2 0.15632401D+00 0.27652942D-01 0.64660847D+05 0.64660847D+05 0.64660847D+05 0.11376005D+01  1  2 12  1  7  1       -1 0.172851032281D-03 0.100000000000D+01
-.117773023134D-04 0.000000000000D+00 0.000000000000D+00 0.575350070296D-07 0.000000000000D+00  7 -1 1 23 -11 11 23 21 2 0.15021311D+00 0.27652942D-01 0.57473830D+05 0.57473830D+05 0.57473830D+05 0.11420115D+01  1  2  4  1  7  1       -1 -.123684150745D-03 0.100000000000D+01
0.210314969392D-06 0.000000000000D+00 0.000000000000D+00 0.575350070296D-07 0.000000000000D+00  7 21 1 23 -11 11 23 1 2 0.15632401D+00 0.27652942D-01 0.64660847D+05 0.64660847D+05 0.64660847D+05 0.11376005D+01  1  2 12  3  7  1       -1 0.127169795802D-04 0.100000000000D+01
  </mgrwgt>
  </event>
  <event>
  8     66 0.58687835E-06 0.16331786E+03 0.75467711E-02 0.97182416E-01
       -1 -1    0    0    0  501 0.00000000E+00 0.00000000E+00 0.30324933E+03 0.30324950E+03 0.32000000E+00 0.0000E+00 0.9000E+01
        1 -1    0    0  501    0 0.00000000E+00 0.00000000E+00 -.48370966E+03 0.48370976E+03 0.32000000E+00 0.0000E+00 0.9000E+01
       25  2    1    2    0    0 0.24070917E+03 0.17395544E+03 0.10861116E+02 0.42215447E+03 0.29982500E+03 0.0000E+00 0.0000E+00
       23  2    1    2    0    0 -.24070917E+03 -.17395544E+03 -.19132145E+03 0.36480479E+03 0.90979331E+02 0.0000E+00 0.0000E+00
       23  1    3    3    0    0 0.56220900E+02 0.13376104E+03 0.95325141E+02 0.19609931E+03 0.91188000E+02 0.0000E+00 0.9000E+01
      -11  1    4    4    0    0 -.15592800E+03 -.16213146E+03 -.13526714E+03 0.26248306E+03 0.51099893E-03 0.0000E+00 0.9000E+01
       11  1    4    4    0    0 -.84781169E+02 -.11823979E+02 -.56054302E+02 0.10232174E+03 0.51099893E-03 0.0000E+00 0.9000E+01
       23  1    3    3    0    0 0.18448827E+03 0.40194404E+02 -.84464025E+02 0.22605516E+03 0.91188000E+02 0.0000E+00 0.9000E+01
#aMCatNLO 1  0  0  1  2 0.10548038D+03 0.00000000D+00  -5  7  0 0.00000000D+00 0.00000000D+00 0.00000000D+00 0.00000000D+00 0.00000000D+00
  <mgrwgt>
 0.9476451280D-04    9    2    0
 0.382994436285425D+03 0.000000000000000D+00 0.000000000000000D+00 0.382994436285425D+03
 0.382994436285425D+03 0.000000000000000D+00 0.000000000000000D+00 -.382994436285425D+03
 0.223925674972140D+03 0.562209001600573D+02 0.133761040561694D+03 0.144134142314631D+03
 0.237801260271838D+03 -.155928004649910D+03 -.162131464960256D+03 -.771316071569477D+02
 0.919170805059702D+02 -.847811685813172D+02 -.118239792886119D+02 -.334827814930266D+02
 0.212344856820902D+03 0.184488273071170D+03 0.401944036871736D+02 -.335197536646566D+02
 0.000000000000000D+00 -.000000000000000D+00 0.000000000000000D+00 0.000000000000000D+00
 0.537385842644002D+03 0.000000000000000D+00 0.000000000000000D+00 0.537385842644002D+03
 0.405056608693262D+03 0.000000000000000D+00 0.000000000000000D+00 -.405056608693262D+03
 0.221246320189104D+03 0.806885839029636D+02 0.115539535658490D+03 0.144134142314631D+03
 0.236159291358227D+03 -.129878035177555D+03 -.181531325259923D+03 -.771316071569477D+02
 0.843934811029305D+02 -.750907318313184D+02 -.190406142022243D+02 -.334827814930266D+02
 0.231418252747844D+03 0.208878521199343D+03 0.220305664180773D+02 -.335197536646566D+02
 0.169225105939159D+03 -.845983380934338D+02 0.630018373855793D+02 0.132329233950740D+03
0.299419186193D-05 0.000000000000D+00 0.000000000000D+00 0.355162138414D-06 0.000000000000D+00  7 -1 1 23 -11 11 23 21 0 0.46653764D-01 0.74416892D-01 0.11957769D+06 0.11957769D+06 0.11957769D+06 0.11154051D+01  1  2  2  1  7  1       -1 0.773850345749D-04 0.100000000000D+01
-.164233188846D-06 0.000000000000D+00 -.114984851386D-07 0.355162138414D-06 0.000000000000D+00  7 -1 1 23 -11 11 23 21 2 0.46653764D-01 0.74416892D-01 0.11957769D+06 0.11957769D+06 0.11957769D+06 0.11154051D+01  1  2  3  1  7  1       -1 -.528084642704D-05 0.100000000000D+01
0.196531897507D-06 0.000000000000D+00 0.000000000000D+00 0.355162138414D-06 0.000000000000D+00  7 -1 1 23 -11 11 23 21 2 0.46653764D-01 0.74416892D-01 0.11957769D+06 0.11957769D+06 0.11957769D+06 0.11154051D+01  1  2 15  1  7  1       -1 0.631939729138D-05 0.100000000000D+01
0.444104253407D-05 0.000000000000D+00 0.000000000000D+00 0.355162138414D-06 0.000000000000D+00  7 -1 1 23 -11 11 23 21 2 0.66388679D-01 0.74416892D-01 0.16119766D+06 0.16119766D+06 0.16119766D+06 0.11050929D+01  1  2 12  1  7  1       -1 0.726222206486D-04 0.100000000000D+01
-.473129884056D-05 0.000000000000D+00 0.000000000000D+00 0.355162138414D-06 0.000000000000D+00  7 -1 1 23 -11 11 23 21 2 0.46653764D-01 0.74416892D-01 0.11957769D+06 0.11957769D+06 0.11957769D+06 0.11154051D+01  1  2  4  1  7  1       -1 -.152132846917D-03 0.100000000000D+01
-.590833943399D-05 0.000000000000D+00 -.129891460367D-05 0.355162138414D-06 0.000000000000D+00  7 -1 1 23 -11 11 23 21 2 0.68091065D-01 0.74416892D-01 0.11957769D+06 0.11957769D+06 0.11957769D+06 0.11154051D+01  1  2  5  1  7  1       -1 -.945038770431D-04 0.100000000000D+01
0.604949067686D-05 0.000000000000D+00 0.121129837849D-05 0.355162138414D-06 0.000000000000D+00  7 -1 1 23 -11 11 23 21 2 0.46653764D-01 0.74416892D-01 0.11957769D+06 0.11957769D+06 0.11957769D+06 0.11154051D+01  1  2  6  1  7  1       -1 0.194518729440D-03 0.100000000000D+01
0.192943043979D-06 0.000000000000D+00 0.000000000000D+00 0.355162138414D-06 0.000000000000D+00  7 21 1 23 -11 11 23 1 2 0.66388679D-01 0.74416892D-01 0.16119766D+06 0.16119766D+06 0.16119766D+06 0.11050929D+01  1  2 12  3  7  1       -1 0.260548635161D-04 0.100000000000D+01
-.228881497540D-06 0.000000000000D+00 -.593365995866D-07 0.355162138414D-06 0.000000000000D+00  7 21 1 23 -11 11 23 1 2 0.68091065D-01 0.74416892D-01 0.11957769D+06 0.11957769D+06 0.11957769D+06 0.11154051D+01  1  2  5  3  7  1       -1 -.302181622825D-04 0.100000000000D+01
  </mgrwgt>
  </event>
  <event>
  8     66 0.58687835E-06 0.19436243E+03 0.75467711E-02 0.98654226E-01
       -1 -1    0    0    0  501 0.00000000E+00 0.00000000E+00 0.47727143E+02 0.47728216E+02 0.32000000E+00 0.0000E+00 0.9000E+01
        1 -1    0    0  501    0 0.00000000E+00 0.00000000E+00 -.13109887E+04 0.13109887E+04 0.32000000E+00 0.0000E+00 0.9000E+01
       25  2    1    2    0    0 0.61467021E+02 0.12336565E+03 -.92991186E+03 0.98685091E+03 0.30023553E+03 0.0000E+00 0.0000E+00
       23  2    1    2    0    0 -.61467021E+02 -.12336565E+03 -.33334968E+03 0.37186603E+03 0.90360690E+02 0.0000E+00 0.0000E+00
       23  1    3    3    0    0 0.24009389E+02 0.90869440E+02 -.14611384E+03 0.19620961E+03 0.91188000E+02 0.0000E+00 0.9000E+01
      -13  1    4    4    0    0 -.46754292E+02 -.22228178E+02 -.18215855E+03 0.18937213E+03 0.10565837E+00 0.0000E+00 0.9000E+01
       13  1    4    4    0    0 -.14712729E+02 -.10113747E+03 -.15119113E+03 0.18249390E+03 0.10565837E+00 0.0000E+00 0.9000E+01
       23  1    3    3    0    0 0.37457631E+02 0.32496213E+02 -.78379802E+03 0.79064130E+03 0.91188000E+02 0.0000E+00 0.9000E+01
#aMCatNLO 1  0  0  1  2 0.25016892D+03 0.00000000D+00  -5  7  0 0.00000000D+00 0.00000000D+00 0.00000000D+00 0.00000000D+00 0.00000000D+00
  <mgrwgt>
 0.1400765495D-03    5    2    0
 0.250140959786062D+03 0.000000000000000D+00 0.000000000000000D+00 0.250140959786062D+03
 0.250140959786062D+03 0.000000000000000D+00 0.000000000000000D+00 -.250140959786062D+03
 0.163934220105709D+03 0.240093902813231D+02 0.908694410413476D+02 0.986178028594193D+02
 0.543477401321254D+02 -.467543357105303D+02 -.222280718582034D+02 -.165415165931850D+02
 0.113863097912808D+03 -.147126866214225D+02 -.101137584141844D+03 0.501949299494784D+02
 0.168136861421481D+03 0.374576320506297D+02 0.324962149586998D+02 -.132271216215713D+03
 0.000000000000000D+00 0.000000000000000D+00 -.000000000000000D+00 0.000000000000000D+00
 0.962442042799236D+03 0.000000000000000D+00 0.000000000000000D+00 0.962442042799236D+03
 0.302588011184783D+03 0.000000000000000D+00 0.000000000000000D+00 -.302588011184783D+03
 0.198510782348396D+03 -.471820517447371D+02 0.138346168421500D+03 0.986178028594193D+02
 0.740480790907295D+02 -.719738406249340D+02 -.540948348004896D+01 -.165415165931850D+02
 0.105366460581554D+03 -.577737532612540D+02 -.724206700946544D+02 0.501949299494784D+02
 0.181419370636563D+03 -.312021978846978D+02 0.782846402951876D+02 -.132271216215713D+03
 0.705685361326777D+03 0.208131843515623D+03 -.138800655141984D+03 0.659854031614453D+03
0.208719704525D-05 0.000000000000D+00 0.000000000000D+00 0.262837024225D-06 0.000000000000D+00  7 -1 1 23 -13 13 23 21 0 0.73427229D-02 0.20169065D+00 0.37776756D+05 0.37776756D+05 0.37776756D+05 0.11581605D+01  1  2  2  1  7  1       -1 0.213544105033D-03 0.100000000000D+01
-.106980962354D-06 0.000000000000D+00 -.801538622536D-08 0.262837024225D-06 0.000000000000D+00  7 -1 1 23 -13 13 23 21 2 0.73427229D-02 0.20169065D+00 0.37776756D+05 0.37776756D+05 0.37776756D+05 0.11581605D+01  1  2  3  1  7  1       -1 -.146814235654D-04 0.100000000000D+01
0.135499413410D-06 0.000000000000D+00 0.000000000000D+00 0.262837024225D-06 0.000000000000D+00  7 -1 1 23 -13 13 23 21 2 0.73427229D-02 0.20169065D+00 0.37776756D+05 0.37776756D+05 0.37776756D+05 0.11581605D+01  1  2 15  1  7  1       -1 0.185951241919D-04 0.100000000000D+01
-.201451757383D-05 0.000000000000D+00 -.852704541697D-06 0.262837024225D-06 0.000000000000D+00  7 -1 1 23 -13 13 23 21 2 0.33825474D-01 0.20169065D+00 0.37776756D+05 0.37776756D+05 0.37776756D+05 0.11581605D+01  1  2  5  1  7  1       -1 -.252838539424D-04 0.100000000000D+01
-.383961750923D-06 0.000000000000D+00 -.157817647740D-06 0.262837024225D-06 0.000000000000D+00  7 21 1 23 -13 13 23 1 2 0.33825474D-01 0.20169065D+00 0.37776756D+05 0.37776756D+05 0.37776756D+05 0.11581605D+01  1  2  5  3  7  1       -1 -.520974022093D-04 0.100000000000D+01
  </mgrwgt>
  </event>
  <event>
  8     66 0.58687835E-06 0.54049890E+03 0.75467711E-02 0.85732281E-01
       -1 -1    0    0    0  501 0.00000000E+00 0.00000000E+00 0.32789171E+03 0.32789186E+03 0.32000000E+00 0.0000E+00 0.9000E+01
        1 -1    0    0  501    0 0.00000000E+00 0.00000000E+00 -.14745079E+04 0.14745080E+04 0.32000000E+00 0.0000E+00 0.9000E+01
       25  2    1    2    0    0 0.85623600E+02 -.50853231E+03 -.11309780E+04 0.12787927E+04 0.30043817E+03 0.0000E+00 0.0000E+00
       23  2    1    2    0    0 -.85623600E+02 0.50853231E+03 -.15638274E+02 0.52360715E+03 0.89349712E+02 0.0000E+00 0.0000E+00
       23  1    3    3    0    0 0.91050966E+02 -.40166573E+03 -.10053143E+04 0.10902283E+04 0.91188000E+02 0.0000E+00 0.9000E+01
      -13  1    4    4    0    0 -.87314749E+02 0.37481987E+03 -.42557305E+02 0.38720142E+03 0.10565837E+00 0.0000E+00 0.9000E+01
       13  1    4    4    0    0 0.16911494E+01 0.13371244E+03 0.26919031E+02 0.13640573E+03 0.10565837E+00 0.0000E+00 0.9000E+01
       23  1    3    3    0    0 -.54273660E+01 -.10686659E+03 -.12566363E+03 0.18856437E+03 0.91188000E+02 0.0000E+00 0.9000E+01
#aMCatNLO 1  0  0  1  2 0.96056586D+03 0.00000000D+00  -5  7  0 0.00000000D+00 0.00000000D+00 0.00000000D+00 0.00000000D+00 0.00000000D+00
  <mgrwgt>
 0.2246380793D-03    5    2    0
 0.695326611489040D+03 0.000000000000000D+00 0.000000000000000D+00 0.695326611489040D+03
 0.695326611489040D+03 0.000000000000000D+00 0.000000000000000D+00 -.695326611489040D+03
 0.584126653140780D+03 0.910509660529418D+02 -.401665725044695D+03 -.404058241433824D+03
 0.466755752067954D+03 -.873148739405459D+02 0.374820207360079D+03 0.264096302571270D+03
 0.198987740169449D+03 0.169127384051188D+01 0.133712107198114D+03 0.147357839015034D+03
 0.140783077599897D+03 -.542736595290784D+01 -.106866589513498D+03 -.739590015247910D+01
 0.000000000000000D+00 0.000000000000000D+00 -.000000000000000D+00 0.000000000000000D+00
 0.161846837139698D+04 0.000000000000000D+00 0.000000000000000D+00 0.161846837139698D+04
 0.114333340933926D+04 0.000000000000000D+00 0.000000000000000D+00 -.114333340933926D+04
 0.548730946593174D+03 -.237033562909010D+03 -.270818071755020D+03 -.404058241433824D+03
 0.719206688105978D+03 -.430778985089563D+03 0.511801591624879D+03 0.264096302571270D+03
 0.274971485488727D+03 -.135571069929572D+03 0.188455485754190D+03 0.147357839015034D+03
 0.147239734013901D+03 -.888410522810060D+02 -.735992936041002D+02 -.739590015247910D+01
 0.107165292653446D+04 0.892224670209151D+03 -.355839712019949D+03 0.475134962057727D+03
0.642277227043D-04 0.000000000000D+00 0.000000000000D+00 0.859581747101D-06 0.000000000000D+00  7 -1 1 23 -13 13 23 21 0 0.50444893D-01 0.22684739D+00 0.29213906D+06 0.29213906D+06 0.29213906D+06 0.10854061D+01  1  2  2  1  7  1       -1 0.213379728405D-03 0.100000000000D+01
-.329294230612D-05 0.000000000000D+00 -.246651366732D-06 0.859581747101D-06 0.000000000000D+00  7 -1 1 23 -13 13 23 21 2 0.50444893D-01 0.22684739D+00 0.29213906D+06 0.29213906D+06 0.29213906D+06 0.10854061D+01  1  2  3  1  7  1       -1 -.128884069106D-04 0.100000000000D+01
0.404015088056D-05 0.000000000000D+00 0.000000000000D+00 0.859581747101D-06 0.000000000000D+00  7 -1 1 23 -13 13 23 21 2 0.50444893D-01 0.22684739D+00 0.29213906D+06 0.29213906D+06 0.29213906D+06 0.10854061D+01  1  2 15  1  7  1       -1 0.158129428603D-04 0.100000000000D+01
0.196434411739D-04 0.000000000000D+00 -.218843565927D-04 0.859581747101D-06 0.000000000000D+00  7 -1 1 23 -13 13 23 21 2 0.18178593D+00 0.22684739D+00 0.29213906D+06 0.29213906D+06 0.29213906D+06 0.10854061D+01  1  2  5  1  7  1       -1 0.389435458713D-05 0.100000000000D+01
0.356928352089D-05 0.000000000000D+00 -.329781469742D-05 0.859581747101D-06 0.000000000000D+00  7 21 1 23 -13 13 23 1 2 0.18178593D+00 0.22684739D+00 0.29213906D+06 0.29213906D+06 0.29213906D+06 0.10854061D+01  1  2  5  3  7  1       -1 0.443946036120D-05 0.100000000000D+01
  </mgrwgt>
  </event>
  <event>
  8     66 0.58687835E-06 0.41347870E+03 0.75467711E-02 0.96194029E-01
       -1 -1    0    0    0  501 0.00000000E+00 0.00000000E+00 0.80047930E+02 0.80048569E+02 0.32000000E+00 0.0000E+00 0.9000E+01
        1 -1    0    0  501    0 0.00000000E+00 0.00000000E+00 -.28129240E+04 0.28129241E+04 0.32000000E+00 0.0000E+00 0.9000E+01
       25  2    1    2    0    0 0.38138620E+03 0.55303047E+01 -.20372215E+04 0.20943551E+04 0.30094145E+03 0.0000E+00 0.0000E+00
       23  2    1    2    0    0 -.38138620E+03 -.55303047E+01 -.69565460E+03 0.79861753E+03 0.91480174E+02 0.0000E+00 0.0000E+00
       23  1    3    3    0    0 0.32943856E+03 -.76686209E+02 -.15608121E+04 0.15996438E+04 0.91188000E+02 0.0000E+00 0.9000E+01
      -13  1    4    4    0    0 -.30224382E+03 -.35662454E+02 -.58330231E+03 0.65792456E+03 0.10565837E+00 0.0000E+00 0.9000E+01
       13  1    4    4    0    0 -.79142380E+02 0.30132149E+02 -.11235229E+03 0.14069297E+03 0.10565837E+00 0.0000E+00 0.9000E+01
       23  1    3    3    0    0 0.51947646E+02 0.82216514E+02 -.47640937E+03 0.49471128E+03 0.91188000E+02 0.0000E+00 0.9000E+01
#aMCatNLO 1  0  0  1  2 0.17600675D+00 0.00000000D+00  -5  7  0 0.00000000D+00 0.00000000D+00 0.00000000D+00 0.00000000D+00 0.00000000D+00
  <mgrwgt>
 0.3127683757D-04    6    2    0
 0.474520492647991D+03 0.000000000000000D+00 0.000000000000000D+00 0.474520492647991D+03
 0.474520492647991D+03 0.000000000000000D+00 0.000000000000000D+00 -.474520492647991D+03
 0.381669030826981D+03 0.329438557502863D+03 -.766862088725341D+02 -.151477588928521D+03
 0.325871167279485D+03 -.302244120534145D+03 -.356625418838288D+02 0.116484730213963D+03
 0.105343958897977D+03 -.791420828370670D+02 0.301322371884872D+02 0.626572316857862D+02
 0.136156828291538D+03 0.519476458683490D+02 0.822165135678757D+02 -.276643729712277D+02
 0.000000000000000D+00 0.000000000000000D+00 0.000000000000000D+00 -.000000000000000D+00
 0.474588626232915D+03 0.000000000000000D+00 0.000000000000000D+00 0.474588626232915D+03
 0.474634182209987D+03 0.000000000000000D+00 0.000000000000000D+00 -.474634182209987D+03
 0.381674811553974D+03 0.329428923529054D+03 -.767563341076938D+02 -.151477588928521D+03
 0.325885354320094D+03 -.302252346191981D+03 -.357224160542963D+02 0.116484730213963D+03
 0.105340422127375D+03 -.791447418325237D+02 0.301128824875731D+02 0.626572316857862D+02
 0.136140413615422D+03 0.519442092722162D+02 0.821914987487838D+02 -.276643729712277D+02
 0.181806826037218D+00 0.239552232346264D-01 0.174368925633132D+00 -.455559770727590D-01
0.743084364165D-05 0.000000000000D+00 0.000000000000D+00 0.352985289444D-06 0.000000000000D+00  7 -1 1 23 -13 13 23 21 0 0.12315117D-01 0.43275760D+00 0.19038572D+06 0.19038572D+06 0.19038572D+06 0.10994724D+01  1  2  2  1  7  1       -1 0.326475576866D-04 0.100000000000D+01
-.409291330157D-06 0.000000000000D+00 -.285363961700D-07 0.352985289444D-06 0.000000000000D+00  7 -1 1 23 -13 13 23 21 2 0.12315117D-01 0.43275760D+00 0.19038572D+06 0.19038572D+06 0.19038572D+06 0.10994724D+01  1  2  3  1  7  1       -1 -.217377101652D-05 0.100000000000D+01
0.487050109813D-06 0.000000000000D+00 0.000000000000D+00 0.352985289444D-06 0.000000000000D+00  7 -1 1 23 -13 13 23 21 2 0.12315117D-01 0.43275760D+00 0.19038572D+06 0.19038572D+06 0.19038572D+06 0.10994724D+01  1  2 15  1  7  1       -1 0.258675259967D-05 0.100000000000D+01
-.130921517541D-02 0.000000000000D+00 0.000000000000D+00 0.352985289444D-06 0.000000000000D+00  7 -1 1 23 -13 13 23 21 2 0.12315117D-01 0.43275760D+00 0.19038572D+06 0.19038572D+06 0.19038572D+06 0.10994724D+01  1  2  4  1  7  1       -1 -.695332100389D-02 0.100000000000D+01
0.130921522384D-02 0.000000000000D+00 0.000000000000D+00 0.352985289444D-06 0.734606379720D-04  7 -1 1 23 -13 13 23 21 2 0.12316885D-01 0.43286128D+00 0.19046266D+06 0.19046266D+06 0.19046266D+06 0.10994589D+01  1  2 11  1  7  1       -1 0.694370122224D-02 0.100000000000D+01
0.111183314123D-06 0.000000000000D+00 0.000000000000D+00 0.352985289444D-06 0.197716348073D-08  7 21 1 23 -13 13 23 1 2 0.12316885D-01 0.43286128D+00 0.19046266D+06 0.19046266D+06 0.19046266D+06 0.10994589D+01  1  2 11  3  7  1       -1 0.783607995195D-05 0.100000000000D+01
  </mgrwgt>
  </event>
  <event>
  8     66 0.58687835E-06 0.38237660E+03 0.75467711E-02 0.92379601E-01
       -1 -1    0    0    0  501 0.00000000E+00 0.00000000E+00 0.35077111E+03 0.35077125E+03 0.32000000E+00 0.0000E+00 0.9000E+01
        1 -1    0    0  501    0 0.00000000E+00 0.00000000E+00 -.63517640E+03 0.63517648E+03 0.32000000E+00 0.0000E+00 0.9000E+01
       25  2    1    2    0    0 0.22985932E+03 -.24853736E+03 0.10232188E+03 0.46398389E+03 0.30034174E+03 0.0000E+00 0.0000E+00
       23  2    1    2    0    0 -.22985932E+03 0.24853736E+03 -.38672717E+03 0.52196384E+03 0.91006685E+02 0.0000E+00 0.0000E+00
       23  1    3    3    0    0 0.18124649E+01 -.57554942E+02 -.48481065E+02 0.11824348E+03 0.91188000E+02 0.0000E+00 0.9000E+01
      -11  1    4    4    0    0 -.11821255E+03 0.17815504E+03 -.27959577E+03 0.35197616E+03 0.51099893E-03 0.0000E+00 0.9000E+01
       11  1    4    4    0    0 -.11164677E+03 0.70382325E+02 -.10713140E+03 0.16998768E+03 0.51099893E-03 0.0000E+00 0.9000E+01
       23  1    3    3    0    0 0.22804685E+03 -.19098242E+03 0.15080295E+03 0.34574041E+03 0.91188000E+02 0.0000E+00 0.9000E+01
#aMCatNLO 1  0  0  2  1 0.37060774D+03 0.00000000D+00  -5  7  0 0.00000000D+00 0.00000000D+00 0.00000000D+00 0.00000000D+00 0.00000000D+00
  <mgrwgt>
 0.1530597016D-03    6    2    0
 0.472018687437632D+03 0.000000000000000D+00 0.000000000000000D+00 0.472018687437632D+03
 0.472018687437632D+03 0.000000000000000D+00 0.000000000000000D+00 -.472018687437632D+03
 0.108887239141531D+03 0.181246491987622D+01 -.575549423285931D+02 -.150107657476711D+02
 0.283369694836805D+03 -.118212548385862D+03 0.178155035057507D+03 -.185970322470233D+03
 0.145259320423698D+03 -.111646770897795D+03 0.703823249209555D+02 -.606761654751765D+02
 0.406521120473230D+03 0.228046854363781D+03 -.190982417649870D+03 0.261657253693081D+03
 0.000000000000000D+00 -.000000000000000D+00 -.000000000000000D+00 -.000000000000000D+00
 0.654616833386045D+03 0.000000000000000D+00 0.000000000000000D+00 0.654616833386045D+03
 0.739841625764788D+03 0.000000000000000D+00 0.000000000000000D+00 -.739841625764788D+03
 0.108265880024371D+03 0.392189285666497D+02 -.405314937697114D+02 -.150107657476711D+02
 0.291154587318740D+03 -.192458756657657D+02 0.223194151238156D+03 -.185970322470233D+03
 0.127603748969896D+03 -.646437965678677D+02 0.917730857043254D+02 -.606761654751765D+02
 0.487153608656088D+03 0.381989894167305D+03 -.120923899318928D+03 0.261657253693081D+03
 0.380280634181738D+03 -.337319150500321D+03 -.153511843853842D+03 -.852247923787427D+02
0.813745337013D-05 0.000000000000D+00 0.000000000000D+00 0.900086172789D-06 0.000000000000D+00  7 -1 1 23 -11 11 23 21 0 0.53964803D-01 0.97719464D-01 0.14621187D+06 0.14621187D+06 0.14621187D+06 0.11084296D+01  1  2  2  2  7  2        1 0.109414310888D-03 0.100000000000D+01
-.427698921182D-06 0.000000000000D+00 -.312499635820D-07 0.900086172789D-06 0.000000000000D+00  7 -1 1 23 -11 11 23 21 2 0.53964803D-01 0.97719464D-01 0.14621187D+06 0.14621187D+06 0.14621187D+06 0.11084296D+01  1  2  3  2  7  2        1 -.706545275332D-05 0.100000000000D+01
0.519036870544D-06 0.000000000000D+00 0.000000000000D+00 0.900086172789D-06 0.000000000000D+00  7 -1 1 23 -11 11 23 21 2 0.53964803D-01 0.97719464D-01 0.14621187D+06 0.14621187D+06 0.14621187D+06 0.11084296D+01  1  2 15  2  7  2        1 0.857432718305D-05 0.100000000000D+01
-.156415938907D-05 0.000000000000D+00 -.252092378985D-05 0.900086172789D-06 0.000000000000D+00  7 -1 1 23 -11 11 23 21 2 0.53964803D-01 0.19301531D+00 0.14621187D+06 0.14621187D+06 0.14621187D+06 0.11084296D+01  1  2  5  2  7  2        1 -.823282282307D-05 0.100000000000D+01
0.303787187376D-05 0.000000000000D+00 0.203179337969D-05 0.900086172789D-06 0.000000000000D+00  7 -1 1 23 -11 11 23 21 2 0.53964803D-01 0.97719464D-01 0.14621187D+06 0.14621187D+06 0.14621187D+06 0.11084296D+01  1  2  6  2  7  2        1 0.501846956624D-04 0.100000000000D+01
0.344048578366D-07 0.000000000000D+00 -.185785659991D-06 0.900086172789D-06 0.000000000000D+00  7 -1 21 23 -11 11 23 -1 2 0.53964803D-01 0.19301531D+00 0.14621187D+06 0.14621187D+06 0.14621187D+06 0.11084296D+01  1  2  5  4  7  2        1 0.184643455442D-06 0.100000000000D+01
  </mgrwgt>
  </event>
  <event>
  8     66 0.58687835E-06 0.22060359E+03 0.75467711E-02 0.10408772E+00
       -1 -1    0    0    0  501 0.00000000E+00 0.00000000E+00 0.53235531E+03 0.53235541E+03 0.32000000E+00 0.0000E+00 0.9000E+01
        1 -1    0    0  501    0 0.00000000E+00 0.00000000E+00 -.14890961E+03 0.14890995E+03 0.32000000E+00 0.0000E+00 0.9000E+01
       25  2    1    2    0    0 0.10913174E+03 0.81792524E+02 0.39835938E+03 0.51683034E+03 0.29970595E+03 0.0000E+00 0.0000E+00
       23  2    1    2    0    0 -.10913174E+03 -.81792524E+02 -.14913674E+02 0.16443502E+03 0.90646038E+02 0.0000E+00 0.0000E+00
       23  1    3    3    0    0 -.36425118E+02 0.64205376E+02 0.29038293E+03 0.31318783E+03 0.91188000E+02 0.0000E+00 0.9000E+01
      -13  1    4    4    0    0 -.63005016E+02 -.70533883E+01 0.24760754E+02 0.68062386E+02 0.10565837E+00 0.0000E+00 0.9000E+01
       13  1    4    4    0    0 -.46126728E+02 -.74739136E+02 -.39674428E+02 0.96372636E+02 0.10565837E+00 0.0000E+00 0.9000E+01
       23  1    3    3    0    0 0.14555686E+03 0.17587149E+02 0.10797644E+03 0.20364251E+03 0.91188000E+02 0.0000E+00 0.9000E+01
#aMCatNLO 1  0  0  1  2 0.25126877D+02 0.00000000D+00  -5  7  0 0.00000000D+00 0.00000000D+00 0.00000000D+00 0.00000000D+00 0.00000000D+00
  <mgrwgt>
 0.1343417213D-03    4    2    0
 0.281554564137373D+03 0.000000000000000D+00 0.000000000000000D+00 0.281554564137373D+03
 0.281554564137373D+03 0.000000000000000D+00 0.000000000000000D+00 -.281554564137373D+03
 0.181169031262965D+03 -.364251177363031D+02 0.642053756277708D+02 0.138050161474569D+03
 0.654830121803077D+02 -.630050387561567D+02 -.705329661139595D+01 -.163902709694866D+02
 0.143610507671907D+03 -.461267061092835D+02 -.747392280896292D+02 -.113623732916399D+03
 0.172846577159566D+03 0.145556862601743D+03 0.175871490732543D+02 -.803615758868341D+01
 0.000000000000000D+00 0.000000000000000D+00 -.000000000000000D+00 -.000000000000000D+00
 0.283897782044371D+03 0.000000000000000D+00 0.000000000000000D+00 0.283897782044371D+03
 0.358342565869260D+03 0.000000000000000D+00 0.000000000000000D+00 -.358342565869260D+03
 0.183835390450707D+03 -.441007395151252D+02 0.669139531729269D+02 0.138050161474569D+03
 0.680946036215724D+02 -.658140218698362D+02 -.606206113814384D+01 -.163902709694866D+02
 0.144584573381060D+03 -.521871160908778D+02 -.726006273529596D+02 -.113623732916399D+03
 0.167154883825980D+03 0.138407024233979D+03 0.201101878852831D+02 -.803615758868341D+01
 0.785708966343112D+02 0.236948532418601D+02 -.836145256710657D+01 -.744447838248883D+02
0.336043636364D-05 0.000000000000D+00 0.000000000000D+00 0.372356882883D-06 0.000000000000D+00  7 -1 1 23 -13 13 23 21 0 0.81900852D-01 0.22909205D-01 0.48665943D+05 0.48665943D+05 0.48665943D+05 0.11483299D+01  1  2  2  1  7  1       -1 0.143020993541D-03 0.100000000000D+01
-.173181449792D-06 0.000000000000D+00 -.129049604596D-07 0.372356882883D-06 0.000000000000D+00  7 -1 1 23 -13 13 23 21 2 0.81900852D-01 0.22909205D-01 0.48665943D+05 0.48665943D+05 0.48665943D+05 0.11483299D+01  1  2  3  1  7  1       -1 -.971938595697D-05 0.100000000000D+01
0.215554154564D-06 0.000000000000D+00 0.000000000000D+00 0.372356882883D-06 0.000000000000D+00  7 -1 1 23 -13 13 23 21 2 0.81900852D-01 0.22909205D-01 0.48665943D+05 0.48665943D+05 0.48665943D+05 0.11483299D+01  1  2 15  1  7  1       -1 0.120974505373D-04 0.100000000000D+01
-.197021255479D-06 0.000000000000D+00 0.000000000000D+00 0.372356882883D-06 0.000000000000D+00  7 -1 1 23 -13 13 23 21 2 0.81900852D-01 0.22909205D-01 0.48665943D+05 0.48665943D+05 0.48665943D+05 0.11483299D+01  1  2  4  1  7  1       -1 -.110573368339D-04 0.100000000000D+01
  </mgrwgt>
  </event>
  <event>
  8     66 0.58687835E-06 0.26842454E+03 0.75467711E-02 0.97166861E-01
       -1 -1    0    0    0  501 0.00000000E+00 0.00000000E+00 0.44612110E+03 0.44612122E+03 0.32000000E+00 0.0000E+00 0.9000E+01
        1 -1    0    0  501    0 0.00000000E+00 0.00000000E+00 -.17903174E+03 0.17903202E+03 0.32000000E+00 0.0000E+00 0.9000E+01
       25  2    1    2    0    0 -.15520558E+03 0.99980597E+02 0.11071653E+03 0.36910171E+03 0.29982167E+03 0.0000E+00 0.0000E+00
       23  2    1    2    0    0 0.15520558E+03 -.99980597E+02 0.15637283E+03 0.25605153E+03 0.83815443E+02 0.0000E+00 0.0000E+00
       23  1    3    3    0    0 -.20402721E+03 0.36971649E+02 0.43736608E+02 0.23069926E+03 0.91188000E+02 0.0000E+00 0.9000E+01
      -11  1    4    4    0    0 0.24208599E+02 -.36125114E+02 0.16715586E+01 0.43518666E+02 0.51099893E-03 0.0000E+00 0.9000E+01
       11  1    4    4    0    0 0.13099698E+03 -.63855483E+02 0.15470128E+03 0.21253286E+03 0.51099893E-03 0.0000E+00 0.9000E+01
       23  1    3    3    0    0 0.48821625E+02 0.63008948E+02 0.66979921E+02 0.13840246E+03 0.91188000E+02 0.0000E+00 0.9000E+01
#aMCatNLO 1  0  0  1  2 0.22096726D+03 0.00000000D+00  -5  7  0 0.00000000D+00 0.00000000D+00 0.00000000D+00 0.00000000D+00 0.00000000D+00
  <mgrwgt>
 0.4322813505D-03    3    2    0
 0.282612740958407D+03 0.000000000000000D+00 0.000000000000000D+00 0.282612740958407D+03
 0.282612740958407D+03 0.000000000000000D+00 0.000000000000000D+00 -.282612740958407D+03
 0.234491913690590D+03 -.204027208899385D+03 0.369716489228327D+02 -.606399327747698D+02
 0.473428394915780D+02 0.242085989628716D+02 -.361251143050594D+02 -.187153494176989D+02
 0.161964640340543D+03 0.130996984477230D+03 -.638554828476497D+02 0.706739845261846D+02
 0.121426088394103D+03 0.488216254592835D+02 0.630089482298763D+02 0.868129766628412D+01
 0.000000000000000D+00 -.000000000000000D+00 0.000000000000000D+00 -.000000000000000D+00
 0.360424460055948D+03 0.000000000000000D+00 0.000000000000000D+00 0.360424460055948D+03
 0.517655816250294D+03 0.000000000000000D+00 0.000000000000000D+00 -.517655816250294D+03
 0.218988236436373D+03 -.183944868150513D+03 -.461267860106751D+02 -.606399327747698D+02
 0.667826075758499D+02 0.292626374152355D+02 -.570381488331087D+02 -.187153494176989D+02
 0.210196249408059D+03 0.147478106747394D+03 -.132052486559746D+03 0.706739845261846D+02
 0.110915412902933D+03 0.591108546523257D+02 0.204332916714146D+02 0.868129766628412D+01
 0.271197769983026D+03 -.519067306644417D+02 0.214784129732115D+03 -.157231356194346D+03
0.902526610965D-05 0.000000000000D+00 0.000000000000D+00 0.962659408346D-08 0.000000000000D+00  7 -1 1 23 -11 11 23 21 0 0.68634046D-01 0.27543375D-01 0.72051736D+05 0.72051736D+05 0.72051736D+05 0.11335946D+01  1  2  2  1  7  1       -1 0.426900456588D-03 0.100000000000D+01
-.499786287808D-06 0.000000000000D+00 -.346593982682D-07 0.962659408346D-08 0.000000000000D+00  7 -1 1 23 -11 11 23 21 2 0.68634046D-01 0.27543375D-01 0.72051736D+05 0.72051736D+05 0.72051736D+05 0.11335946D+01  1  2  3  1  7  1       -1 -.303785101186D-04 0.100000000000D+01
0.588312583918D-06 0.000000000000D+00 0.000000000000D+00 0.962659408346D-08 0.000000000000D+00  7 -1 1 23 -11 11 23 21 2 0.68634046D-01 0.27543375D-01 0.72051736D+05 0.72051736D+05 0.72051736D+05 0.11335946D+01  1  2 15  1  7  1       -1 0.357594040081D-04 0.100000000000D+01
  </mgrwgt>
  </event>
  <event>
  8     66 0.58687835E-06 0.16090423E+03 0.75467711E-02 0.92151581E-01
       -1 -1    0    0    0  501 0.00000000E+00 0.00000000E+00 0.14874036E+03 0.14874071E+03 0.32000000E+00 0.0000E+00 0.9000E+01
        1 -1    0    0  501    0 0.00000000E+00 0.00000000E+00 -.20509918E+04 0.20509918E+04 0.32000000E+00 0.0000E+00 0.9000E+01
       25  2    1    2    0    0 -.47956669E+02 0.12606408E+01 -.42867218E+01 0.29901373E+03 0.29510913E+03 0.0000E+00 0.0000E+00
       23  2    1    2    0    0 0.47956669E+02 -.12606408E+01 -.18979647E+04 0.19007188E+04 0.90335339E+02 0.0000E+00 0.0000E+00
       23  1    3    3    0    0 -.26853182E+02 -.82923314E+02 0.78284960E+02 0.14846264E+03 0.91188000E+02 0.0000E+00 0.9000E+01
      -11  1    4    4    0    0 -.26348861E+01 -.16680166E+02 -.13715294E+04 0.13716334E+04 0.51099893E-03 0.0000E+00 0.9000E+01
       11  1    4    4    0    0 0.50591555E+02 0.15419525E+02 -.52643527E+03 0.52908540E+03 0.51099893E-03 0.0000E+00 0.9000E+01
       23  1    3    3    0    0 -.21103487E+02 0.84183955E+02 -.82571682E+02 0.15055109E+03 0.91188000E+02 0.0000E+00 0.9000E+01
#aMCatNLO 1  0  0  1  2 0.55340926D+03 0.00000000D+00  -5  7  0 0.00000000D+00 0.00000000D+00 0.00000000D+00 0.00000000D+00 0.00000000D+00
  <mgrwgt>
 0.7477753097D-03    5    2    0
 0.552327494100294D+03 0.000000000000000D+00 0.000000000000000D+00 0.552327494100294D+03
 0.552327494100294D+03 0.000000000000000D+00 0.000000000000000D+00 -.552327494100294D+03
 0.430447309624494D+03 -.268531823177325D+02 -.829233142894456D+02 0.411548618714277D+03
 0.369556780205853D+03 -.263488611565015D+01 -.166801660915553D+02 -.369170750778596D+03
 0.147045112421783D+03 0.505915552265054D+02 0.154195252514425D+02 -.137204219570384D+03
 0.157605785948459D+03 -.211034867931227D+02 0.841839551295583D+02 0.948263516347034D+02
 0.000000000000000D+00 -.000000000000000D+00 0.000000000000000D+00 0.000000000000000D+00
 0.922461630775339D+03 0.000000000000000D+00 0.000000000000000D+00 0.922461630775339D+03
 0.869045541460552D+03 0.000000000000000D+00 0.000000000000000D+00 -.869045541460552D+03
 0.522127217288809D+03 -.136625255125040D+02 -.307802939428371D+03 0.411548618714277D+03
 0.421603797682117D+03 0.832061118760313D+01 -.203453892612100D+03 -.369170750778596D+03
 0.158238391514726D+03 0.548189304238799D+02 -.566504682101694D+02 -.137204219570384D+03
 0.133556574414104D+03 -.170716523679593D+02 0.154476194382545D+02 0.948263516347034D+02
 0.555981191336135D+03 -.324053637310198D+02 0.552459680812385D+03 0.534160893147865D+02
0.794464586248D-04 0.000000000000D+00 0.000000000000D+00 0.226702418402D-07 0.000000000000D+00  7 -1 1 23 -11 11 23 21 0 0.22883161D-01 0.31553722D+00 0.25890173D+05 0.25890173D+05 0.25890173D+05 0.11733196D+01  1  2  2  1  7  1       -1 0.473887857651D-03 0.100000000000D+01
0.374918741469D-05 0.000000000000D+00 -.305095319852D-06 0.226702418402D-07 0.000000000000D+00  7 -1 1 23 -11 11 23 21 2 0.22883161D-01 0.31553722D+00 0.25890173D+05 0.25890173D+05 0.25890173D+05 0.11733196D+01  1  2  3  1  7  1       -1 0.307872473000D-04 0.100000000000D+01
0.498691864805D-05 0.000000000000D+00 0.000000000000D+00 0.226702418402D-07 0.000000000000D+00  7 -1 1 23 -11 11 23 21 2 0.22883161D-01 0.31553722D+00 0.25890173D+05 0.25890173D+05 0.25890173D+05 0.11733196D+01  1  2 15  1  7  1       -1 0.409511397272D-04 0.100000000000D+01
0.714215713745D-04 0.000000000000D+00 -.258772387251D-04 0.226702418402D-07 0.000000000000D+00  7 -1 1 23 -11 11 23 21 2 0.68200791D-01 0.31553722D+00 0.25890173D+05 0.25890173D+05 0.25890173D+05 0.11733196D+01  1  2  5  1  7  1       -1 0.905205396984D-04 0.100000000000D+01
0.101731747093D-04 0.000000000000D+00 -.321134661015D-05 0.226702418402D-07 0.000000000000D+00  7 21 1 23 -11 11 23 1 2 0.68200791D-01 0.31553722D+00 0.25890173D+05 0.25890173D+05 0.25890173D+05 0.11733196D+01  1  2  5  3  7  1       -1 0.111628525316D-03 0.100000000000D+01
  </mgrwgt>
  </event>
  <event>
  8     66 0.58687835E-06 0.11506370E+03 0.75467711E-02 0.10545017E+00
       -1 -1    0    0    0  501 0.00000000E+00 0.00000000E+00 0.31471320E+02 0.31472947E+02 0.32000000E+00 0.0000E+00 0.9000E+01
        1 -1    0    0  501    0 0.00000000E+00 0.00000000E+00 -.20810459E+04 0.20810459E+04 0.32000000E+00 0.0000E+00 0.9000E+01
       25  2    1    2    0    0 -.58896237E+02 -.26836367E+02 -.78425329E+03 0.84229208E+03 0.30035607E+03 0.0000E+00 0.0000E+00
       23  2    1    2    0    0 0.58896237E+02 0.26836367E+02 -.12653212E+04 0.12702268E+04 0.90825002E+02 0.0000E+00 0.0000E+00
       23  1    3    3    0    0 0.43323496E+02 0.55318960E+02 -.52744563E+03 0.53986226E+03 0.91188000E+02 0.0000E+00 0.9000E+01
      -13  1    4    4    0    0 -.99808542E+01 0.31249200E+02 -.20003439E+03 0.20270644E+03 0.10565837E+00 0.0000E+00 0.9000E+01
       13  1    4    4    0    0 0.68877091E+02 -.44128331E+01 -.10652869E+04 0.10675203E+04 0.10565837E+00 0.0000E+00 0.9000E+01
       23  1    3    3    0    0 -.10221973E+03 -.82155327E+02 -.25680766E+03 0.30242982E+03 0.91188000E+02 0.0000E+00 0.9000E+01
#aMCatNLO 1  0  0  1  2 0.47769582D+02 0.00000000D+00  -5  7  0 0.00000000D+00 0.00000000D+00 0.00000000D+00 0.00000000D+00 0.00000000D+00
  <mgrwgt>
 0.2786680376D-03    6    2    0
 0.255919919448793D+03 0.000000000000000D+00 0.000000000000000D+00 0.255919919448793D+03
 0.255919919448793D+03 0.000000000000000D+00 0.000000000000000D+00 -.255919919448793D+03
 0.116110636604663D+03 0.433234945281516D+02 0.553189587507824D+02 -.151431903289429D+02
 0.356277336480404D+02 -.998096022988126D+01 0.312492478600423D+02 -.138996527282836D+02
 0.140223600487688D+03 0.688771983353161D+02 -.441288037044391D+01 -.122061935795089D+03
 0.219877868157195D+03 -.102219732633586D+03 -.821553262403808D+02 0.151104778852316D+03
 0.000000000000000D+00 0.000000000000000D+00 0.000000000000000D+00 -.000000000000000D+00
 0.277607937620155D+03 0.000000000000000D+00 0.000000000000000D+00 0.277607937620155D+03
 0.284757926349835D+03 0.000000000000000D+00 0.000000000000000D+00 -.284757926349835D+03
 0.110629742768284D+03 0.339859487585898D+02 0.503917425241132D+02 -.151431903289429D+02
 0.352453291417817D+02 -.128996307792521D+02 0.297091300125839D+02 -.138996527282836D+02
 0.135339898105672D+03 0.575290353497376D+02 -.104010547992856D+02 -.122061935795089D+03
 0.232849183185994D+03 -.120863785248858D+03 -.919933801406136D+02 0.151104778852316D+03
 0.483017107682588D+02 0.422484319197825D+02 0.222935624032021D+02 -.714998872968080D+01
0.342685038260D-05 0.000000000000D+00 0.000000000000D+00 0.357837816386D-06 0.000000000000D+00  7 -1 1 23 -13 13 23 21 0 0.48418686D-02 0.32016103D+00 0.35470387D+05 0.35470387D+05 0.35470387D+05 0.11606461D+01  1  2  2  1  7  1       -1 0.205703288591D-03 0.100000000000D+01
-.168615726621D-06 0.000000000000D+00 -.131600077796D-07 0.357837816386D-06 0.000000000000D+00  7 -1 1 23 -13 13 23 21 2 0.48418686D-02 0.32016103D+00 0.35470387D+05 0.35470387D+05 0.35470387D+05 0.11606461D+01  1  2  3  1  7  1       -1 -.136346445175D-04 0.100000000000D+01
0.218184841845D-06 0.000000000000D+00 0.000000000000D+00 0.357837816386D-06 0.000000000000D+00  7 -1 1 23 -13 13 23 21 2 0.48418686D-02 0.32016103D+00 0.35470387D+05 0.35470387D+05 0.35470387D+05 0.11606461D+01  1  2 15  1  7  1       -1 0.176429139634D-04 0.100000000000D+01
0.257931255600D-05 0.000000000000D+00 0.000000000000D+00 0.357837816386D-06 0.000000000000D+00  7 -1 1 23 -13 13 23 21 2 0.54999814D-02 0.32016103D+00 0.45234844D+05 0.45234844D+05 0.45234844D+05 0.11511411D+01  1  2 12  1  7  1       -1 0.169343119577D-03 0.100000000000D+01
-.189608845915D-05 0.000000000000D+00 0.000000000000D+00 0.357837816386D-06 0.000000000000D+00  7 -1 1 23 -13 13 23 21 2 0.48418686D-02 0.32016103D+00 0.35470387D+05 0.35470387D+05 0.35470387D+05 0.11606461D+01  1  2  4  1  7  1       -1 -.153321950640D-03 0.100000000000D+01
0.514670094847D-07 0.000000000000D+00 0.000000000000D+00 0.357837816386D-06 0.000000000000D+00  7 21 1 23 -13 13 23 1 2 0.54999814D-02 0.32016103D+00 0.45234844D+05 0.45234844D+05 0.45234844D+05 0.11511411D+01  1  2 12  3  7  1       -1 0.529353106696D-04 0.100000000000D+01
  </mgrwgt>
  </event>
  <event>
  8     66 0.58687835E-06 0.47575500E+03 0.75467711E-02 0.88176892E-01
       -3 -1    0    0    0  501 0.00000000E+00 0.00000000E+00 0.13324437E+03 0.13324531E+03 0.50000000E+00 0.0000E+00 0.9000E+01
        3 -1    0    0  501    0 0.00000000E+00 0.00000000E+00 -.18212353E+04 0.18212353E+04 0.50000000E+00 0.0000E+00 0.9000E+01
       25  2    1    2    0    0 -.62285396E+02 0.42529785E+03 -.71973410E+03 0.89045158E+03 0.30021509E+03 0.0000E+00 0.0000E+00
       23  2    1    2    0    0 0.62285396E+02 -.42529785E+03 -.96825677E+03 0.10640291E+04 0.99392747E+02 0.0000E+00 0.0000E+00
       23  1    3    3    0    0 0.36703759E+02 0.44959085E+02 -.81422641E+02 0.13532695E+03 0.91188000E+02 0.0000E+00 0.9000E+01
      -11  1    4    4    0    0 0.39558538E+02 -.48953682E+02 -.11277948E+03 0.12915321E+03 0.51099893E-03 0.0000E+00 0.9000E+01
       11  1    4    4    0    0 0.22726859E+02 -.37634417E+03 -.85547730E+03 0.93487584E+03 0.51099893E-03 0.0000E+00 0.9000E+01
       23  1    3    3    0    0 -.98989156E+02 0.38033876E+03 -.63831146E+03 0.75512463E+03 0.91188000E+02 0.0000E+00 0.9000E+01
#aMCatNLO 1  0  0  1  2 0.67839756D+03 0.00000000D+00  -5  7  0 0.00000000D+00 0.00000000D+00 0.00000000D+00 0.00000000D+00 0.00000000D+00
  <mgrwgt>
 0.4963136879D-05    5    2    0
 0.492615806913149D+03 0.000000000000000D+00 0.000000000000000D+00 0.492615806913149D+03
 0.492615806913149D+03 0.000000000000000D+00 0.000000000000000D+00 -.492615806913149D+03
 0.128957722507664D+03 0.367037593453123D+02 0.449590852889608D+02 0.703303458705053D+02
 0.629869320858114D+02 0.395585376324489D+02 -.489536824044771D+02 -.245207932301039D+01
 0.388902319079235D+03 0.227268587860671D+02 -.376344166285209D+03 -.953602232485657D+02
 0.404384640153589D+03 -.989891557638282D+02 0.380338763400725D+03 0.274819567010707D+02
 0.000000000000000D+00 0.000000000000000D+00 -.000000000000000D+00 0.000000000000000D+00
 0.101823985465141D+04 0.000000000000000D+00 0.000000000000000D+00 0.101823985465141D+04
 0.871954725689057D+03 0.000000000000000D+00 0.000000000000000D+00 -.871954725689057D+03
 0.150623632571094D+03 -.380822574812942D+02 0.893062789493300D+02 0.703303458705053D+02
 0.358526605899704D+02 0.131196521105453D+02 -.332757465261344D+02 -.245207932301039D+01
 0.326545243375974D+03 -.168650257292569D+03 -.262859876186169D+03 -.953602232485657D+02
 0.683182704155783D+03 -.389905657290464D+03 0.552848692123242D+03 0.274819567010707D+02
 0.693990339647641D+03 0.583518519953783D+03 -.346019348360268D+03 0.146285128962349D+03
0.200713908406D-04 0.000000000000D+00 0.000000000000D+00 0.359729188345D-07 0.000000000000D+00  7 -3 3 23 -11 11 23 21 0 0.20499212D-01 0.28019012D+00 0.22634282D+06 0.22634282D+06 0.22634282D+06 0.10937220D+01  1  2  2  1  7  1       -3 0.450439137566D-05 0.100000000000D+01
-.111343286898D-05 0.000000000000D+00 -.770794257466D-07 0.359729188345D-07 0.000000000000D+00  7 -3 3 23 -11 11 23 21 2 0.20499212D-01 0.28019012D+00 0.22634282D+06 0.22634282D+06 0.22634282D+06 0.10937220D+01  1  2  3  1  7  1       -3 -.298907319973D-06 0.100000000000D+01
0.130099818122D-05 0.000000000000D+00 0.000000000000D+00 0.359729188345D-07 0.000000000000D+00  7 -3 3 23 -11 11 23 21 2 0.20499212D-01 0.28019012D+00 0.22634282D+06 0.22634282D+06 0.22634282D+06 0.10937220D+01  1  2 15  1  7  1       -3 0.349260283643D-06 0.100000000000D+01
0.772841753444D-05 0.000000000000D+00 -.758911029035D-05 0.359729188345D-07 0.000000000000D+00  7 -3 3 23 -11 11 23 21 2 0.84914526D-01 0.28019012D+00 0.22634282D+06 0.22634282D+06 0.22634282D+06 0.10937220D+01  1  2  5  1  7  1       -3 0.113302616541D-06 0.100000000000D+01
0.136073066765D-05 0.000000000000D+00 -.129282183982D-05 0.359729188345D-07 0.000000000000D+00  7 21 3 23 -11 11 23 3 2 0.84914526D-01 0.28019012D+00 0.22634282D+06 0.22634282D+06 0.22634282D+06 0.10937220D+01  1  2  5  3  7  1       -3 0.295089923510D-06 0.100000000000D+01
  </mgrwgt>
  </event>
  <event>
  8     66 0.58687835E-06 0.21190106E+03 0.75467711E-02 0.10024309E+00
       -1 -1    0    0    0  501 0.00000000E+00 0.00000000E+00 0.22795427E+03 0.22795449E+03 0.32000000E+00 0.0000E+00 0.9000E+01
        1 -1    0    0  501    0 0.00000000E+00 0.00000000E+00 -.36604214E+03 0.36604228E+03 0.32000000E+00 0.0000E+00 0.9000E+01
       25  2    1    2    0    0 0.66047474E+02 0.17210392E+03 -.16214571E+03 0.38722538E+03 0.29944989E+03 0.0000E+00 0.0000E+00
       23  2    1    2    0    0 -.66047474E+02 -.17210392E+03 0.24057836E+02 0.20677139E+03 0.90518507E+02 0.0000E+00 0.0000E+00
       23  1    3    3    0    0 -.18675338E+02 -.38784889E+02 -.80700593E+02 0.12915445E+03 0.91188000E+02 0.0000E+00 0.9000E+01
      -11  1    4    4    0    0 -.78176266E+02 -.15271790E+03 0.43233741E+02 0.17692779E+03 0.51099893E-03 0.0000E+00 0.9000E+01
       11  1    4    4    0    0 0.12128792E+02 -.19386025E+02 -.19175905E+02 0.29843607E+02 0.51099893E-03 0.0000E+00 0.9000E+01
       23  1    3    3    0    0 0.84722812E+02 0.21088881E+03 -.81445118E+02 0.25807093E+03 0.91188000E+02 0.0000E+00 0.9000E+01
#aMCatNLO 1  0  0  1  2 0.83611538D+02 0.00000000D+00  -5  7  0 0.00000000D+00 0.00000000D+00 0.00000000D+00 0.00000000D+00 0.00000000D+00
  <mgrwgt>
 0.1945184777D-03    9    2    0
 0.288861518379169D+03 0.000000000000000D+00 0.000000000000000D+00 0.288861518379169D+03
 0.288861518379169D+03 0.000000000000000D+00 0.000000000000000D+00 -.288861518379169D+03
 0.113503445831869D+03 -.186753379434686D+02 -.387848885588798D+02 -.521032152931136D+02
 0.192245388248911D+03 -.781762662388166D+02 -.152717898261379D+03 0.867410182702463D+02
 0.261008220978110D+02 0.121287920194347D+02 -.193860245857337D+02 -.125828203949753D+02
 0.245873380579747D+03 0.847228121628505D+02 0.210888811405993D+03 -.220549825821574D+02
 0.000000000000000D+00 -.000000000000000D+00 -.000000000000000D+00 0.000000000000000D+00
 0.432406015313054D+03 0.000000000000000D+00 0.000000000000000D+00 0.432406015313054D+03
 0.304307239823857D+03 0.000000000000000D+00 0.000000000000000D+00 -.304307239823857D+03
 0.109514237579505D+03 -.482821903647517D+01 -.306604002856373D+02 -.521032152931136D+02
 0.173304911339657D+03 -.554793285455259D+02 -.139400976137274D+03 0.867410182702463D+02
 0.264669327237112D+02 0.153927123532524D+02 -.174709921046082D+02 -.125828203949753D+02
 0.274455981647427D+03 0.117029947809441D+03 0.229844302903232D+03 -.220549825821574D+02
 0.152971191846610D+03 -.721151125806928D+02 -.423119343757126D+02 0.128098775489197D+03
0.265007486886D-05 0.000000000000D+00 0.000000000000D+00 0.256371765810D-06 0.000000000000D+00  7 -1 1 23 -11 11 23 21 0 0.35069915D-01 0.56314204D-01 0.72941027D+05 0.72941027D+05 0.72941027D+05 0.11331433D+01  1  2  2  1  7  1       -1 0.164497035213D-03 0.100000000000D+01
-.146416958070D-06 0.000000000000D+00 -.101769852771D-07 0.256371765810D-06 0.000000000000D+00  7 -1 1 23 -11 11 23 21 2 0.35069915D-01 0.56314204D-01 0.72941027D+05 0.72941027D+05 0.72941027D+05 0.11331433D+01  1  2  3  1  7  1       -1 -.116697345013D-04 0.100000000000D+01
0.172933909235D-06 0.000000000000D+00 0.000000000000D+00 0.256371765810D-06 0.000000000000D+00  7 -1 1 23 -11 11 23 21 2 0.35069915D-01 0.56314204D-01 0.72941027D+05 0.72941027D+05 0.72941027D+05 0.11331433D+01  1  2 15  1  7  1       -1 0.137831903739D-04 0.100000000000D+01
0.442100866200D-05 0.000000000000D+00 0.000000000000D+00 0.256371765810D-06 0.000000000000D+00  7 -1 1 23 -11 11 23 21 2 0.53062473D-01 0.56314204D-01 0.98227519D+05 0.98227519D+05 0.98227519D+05 0.11223600D+01  1  2 12  1  7  1       -1 0.166885841486D-03 0.100000000000D+01
-.462555714791D-05 0.000000000000D+00 0.000000000000D+00 0.256371765810D-06 0.000000000000D+00  7 -1 1 23 -11 11 23 21 2 0.35069915D-01 0.56314204D-01 0.72941027D+05 0.72941027D+05 0.72941027D+05 0.11331433D+01  1  2  4  1  7  1       -1 -.368666475171D-03 0.100000000000D+01
-.545910515643D-05 0.000000000000D+00 -.105338264162D-05 0.256371765810D-06 0.000000000000D+00  7 -1 1 23 -11 11 23 21 2 0.54481422D-01 0.56314204D-01 0.72941027D+05 0.72941027D+05 0.72941027D+05 0.11331433D+01  1  2  5  1  7  1       -1 -.201149080779D-03 0.100000000000D+01
0.547756159981D-05 0.000000000000D+00 0.958835291633D-06 0.256371765810D-06 0.000000000000D+00  7 -1 1 23 -11 11 23 21 2 0.35069915D-01 0.56314204D-01 0.72941027D+05 0.72941027D+05 0.72941027D+05 0.11331433D+01  1  2  6  1  7  1       -1 0.436572992823D-03 0.100000000000D+01
0.215889275837D-06 0.000000000000D+00 0.000000000000D+00 0.256371765810D-06 0.000000000000D+00  7 21 1 23 -11 11 23 1 2 0.53062473D-01 0.56314204D-01 0.98227519D+05 0.98227519D+05 0.98227519D+05 0.11223600D+01  1  2 12  3  7  1       -1 0.741105840998D-04 0.100000000000D+01
-.238343785645D-06 0.000000000000D+00 -.538653194219D-07 0.256371765810D-06 0.000000000000D+00  7 21 1 23 -11 11 23 1 2 0.54481422D-01 0.56314204D-01 0.72941027D+05 0.72941027D+05 0.72941027D+05 0.11331433D+01  1  2  5  3  7  1       -1 -.798458758347D-04 0.100000000000D+01
  </mgrwgt>
  </event>
  <event>
  8     66 0.58687835E-06 0.28567246E+03 0.75467711E-02 0.86367897E-01
       -1 -1    0    0    0  501 0.00000000E+00 0.00000000E+00 0.31510472E+03 0.31510488E+03 0.32000000E+00 0.0000E+00 0.9000E+01
        1 -1    0    0  501    0 0.00000000E+00 0.00000000E+00 -.28275289E+03 0.28275307E+03 0.32000000E+00 0.0000E+00 0.9000E+01
       25  2    1    2    0    0 0.22845838E+02 -.19442271E+03 -.62173518E+02 0.36232901E+03 0.29848726E+03 0.0000E+00 0.0000E+00
       23  2    1    2    0    0 -.22845838E+02 0.19442271E+03 0.94525352E+02 0.23552894E+03 0.90646116E+02 0.0000E+00 0.0000E+00
       23  1    3    3    0    0 0.91970512E+02 -.20366366E+03 -.30751663E+02 0.24330716E+03 0.91188000E+02 0.0000E+00 0.9000E+01
      -11  1    4    4    0    0 -.36899493E+02 0.23624476E+02 0.12677009E+02 0.45611348E+02 0.51099893E-03 0.0000E+00 0.9000E+01
       11  1    4    4    0    0 0.14053655E+02 0.17079823E+03 0.81848343E+02 0.18991759E+03 0.51099893E-03 0.0000E+00 0.9000E+01
       23  1    3    3    0    0 -.69124674E+02 0.92409489E+01 -.31421855E+02 0.11902185E+03 0.91188000E+02 0.0000E+00 0.9000E+01
#aMCatNLO 1  0  0  2  2 0.10384323D+04 0.00000000D+00  -5  7  0 0.00000000D+00 0.00000000D+00 0.00000000D+00 0.00000000D+00 0.00000000D+00
  <mgrwgt>
 0.1232535307D-03    3    2    0
 0.298490992834553D+03 0.000000000000000D+00 0.000000000000000D+00 0.298490992834553D+03
 0.298490992834553D+03 0.000000000000000D+00 0.000000000000000D+00 -.298490992834553D+03
 0.245330679647238D+03 0.919705117294903D+02 -.203663657236609D+03 -.439821637189458D+02
 0.449912779957194D+02 -.368994931946668D+02 0.236244763069332D+02 0.102238259417891D+02
 0.185760714480003D+03 0.140536551679495D+02 0.170798232075402D+03 0.716763680752486D+02
 0.120899313546145D+03 -.691246737027730D+02 0.924094885427373D+01 -.379180302980919D+02
 0.000000000000000D+00 0.000000000000000D+00 -.000000000000000D+00 0.000000000000000D+00
 0.111875916640760D+04 0.000000000000000D+00 0.000000000000000D+00 0.111875916640760D+04
 0.111747578123151D+04 0.000000000000000D+00 0.000000000000000D+00 -.111747578123151D+04
 0.331077183761504D+03 -.241527722010774D+03 -.202550682641000D+03 -.439821637189458D+02
 0.154594144044654D+03 -.152375686279787D+03 0.240098518690765D+02 0.102238259417891D+02
 0.349261354399867D+03 -.295499573215007D+03 0.171831295655126D+03 0.716763680752486D+02
 0.362869138849086D+03 -.349023569354487D+03 0.101750478349663D+02 -.379180302980919D+02
 0.103843312658400D+04 0.103842655086006D+04 -.346551271816904D+01 0.128338517609382D+01
0.245345081438D-05 0.000000000000D+00 0.000000000000D+00 0.302789524952D-07 0.000000000000D+00  7 -1 1 23 -11 11 23 21 0 0.48477676D-01 0.43500471D-01 0.81608755D+05 0.81608755D+05 0.81608755D+05 0.11290378D+01  1  2  2  2  7  2        1 0.121752583489D-03 0.100000000000D+01
-.135983526917D-06 0.000000000000D+00 -.942189713567D-08 0.302789524952D-07 0.000000000000D+00  7 -1 1 23 -11 11 23 21 2 0.48477676D-01 0.43500471D-01 0.81608755D+05 0.81608755D+05 0.81608755D+05 0.11290378D+01  1  2  3  2  7  2        1 -.860209278107D-05 0.100000000000D+01
0.159710787168D-06 0.000000000000D+00 0.000000000000D+00 0.302789524952D-07 0.000000000000D+00  7 -1 1 23 -11 11 23 21 2 0.48477676D-01 0.43500471D-01 0.81608755D+05 0.81608755D+05 0.81608755D+05 0.11290378D+01  1  2 15  2  7  2        1 0.101030399822D-04 0.100000000000D+01
  </mgrwgt>
  </event>
  <event>
  8     66 0.58687835E-06 0.31312312E+03 0.75467711E-02 0.89869700E-01
       -1 -1    0    0    0  501 0.00000000E+00 0.00000000E+00 0.36813303E+03 0.36813317E+03 0.32000000E+00 0.0000E+00 0.9000E+01
        1 -1    0    0  501    0 0.00000000E+00 0.00000000E+00 -.16550223E+04 0.16550224E+04 0.32000000E+00 0.0000E+00 0.9000E+01
       25  2    1    2    0    0 0.48896554E+03 -.53208554E+03 -.41818301E+03 0.88737577E+03 0.30059344E+03 0.0000E+00 0.0000E+00
       23  2    1    2    0    0 -.48896554E+03 0.53208554E+03 -.86870628E+03 0.11357797E+04 0.11464166E+03 0.0000E+00 0.0000E+00
       23  1    3    3    0    0 0.54897086E+02 -.49225715E+02 -.11768602E+03 0.16613883E+03 0.91188000E+02 0.0000E+00 0.9000E+01
      -13  1    4    4    0    0 -.39849856E+01 0.35082685E+02 -.62083230E+02 0.71421380E+02 0.10565837E+00 0.0000E+00 0.9000E+01
       13  1    4    4    0    0 -.48498055E+03 0.49700285E+03 -.80662305E+03 0.10643584E+04 0.10565837E+00 0.0000E+00 0.9000E+01
       23  1    3    3    0    0 0.43406845E+03 -.48285982E+03 -.30049699E+03 0.72123694E+03 0.91188000E+02 0.0000E+00 0.9000E+01
#aMCatNLO 1  0  0  2  1 0.52462273D+02 0.00000000D+00  -5  7  0 0.00000000D+00 0.00000000D+00 0.00000000D+00 0.00000000D+00 0.00000000D+00
  <mgrwgt>
 0.3454095104D-03    9    2    0
 0.780556563600970D+03 0.000000000000000D+00 0.000000000000000D+00 0.780556563600970D+03
 0.780556563600970D+03 0.000000000000000D+00 0.000000000000000D+00 -.780556563600970D+03
 0.118297523727230D+03 0.548970862357500D+02 -.492257149258250D+02 -.155625090798526D+02
 0.413816396424764D+02 -.398458036738110D+01 0.350822921066154D+02 -.215823075536831D+02
 0.714444586933459D+03 -.484980960117811D+03 0.497003244180533D+03 -.167965208884912D+03
 0.686989376898775D+03 0.434068454249442D+03 -.482859821361324D+03 0.205110025518448D+03
 0.000000000000000D+00 0.000000000000000D+00 0.000000000000000D+00 -.000000000000000D+00
 0.783681927062446D+03 0.000000000000000D+00 0.000000000000000D+00 0.783681927062446D+03
 0.103728832674934D+04 0.000000000000000D+00 0.000000000000000D+00 -.103728832674934D+04
 0.116606924679476D+03 0.509563545141731D+02 -.494285523252541D+02 -.155625090798526D+02
 0.414781241313600D+02 -.537462683844913D+01 0.350107436148129D+02 -.215823075536831D+02
 0.730265912866017D+03 -.509217267832163D+03 0.495755752603873D+03 -.167965208884912D+03
 0.673643432058974D+03 0.411242624819449D+03 -.484034712779596D+03 0.205110025518448D+03
 0.258975860075954D+03 0.523929153369895D+02 0.269676888616373D+01 -.253606399686889D+03
0.129691895200D-03 0.000000000000D+00 0.000000000000D+00 0.995236952307D-08 0.000000000000D+00  7 -1 1 23 -13 13 23 21 0 0.56635863D-01 0.25461883D+00 0.56449120D+06 0.56449120D+06 0.56449120D+06 0.10648066D+01  1  2  2  2  7  2        1 0.254297806642D-03 0.100000000000D+01
-.719234378664D-05 0.000000000000D+00 -.498051026230D-06 0.995236952307D-08 0.000000000000D+00  7 -1 1 23 -13 13 23 21 2 0.56635863D-01 0.25461883D+00 0.56449120D+06 0.56449120D+06 0.56449120D+06 0.10648066D+01  1  2  3  2  7  2        1 -.159897490459D-04 0.100000000000D+01
0.824542517844D-05 0.000000000000D+00 0.000000000000D+00 0.995236952307D-08 0.000000000000D+00  7 -1 1 23 -13 13 23 21 2 0.56635863D-01 0.25461883D+00 0.56449120D+06 0.56449120D+06 0.56449120D+06 0.10648066D+01  1  2 15  2  7  2        1 0.183309201133D-04 0.100000000000D+01
0.203440899844D-02 0.000000000000D+00 0.000000000000D+00 0.995236952307D-08 0.000000000000D+00  7 -1 1 23 -13 13 23 21 2 0.56635863D-01 0.33875516D+00 0.60512233D+06 0.60512233D+06 0.60512233D+06 0.10627022D+01  1  2 12  2  7  2        1 0.192405631471D-02 0.100000000000D+01
-.196796444872D-02 0.000000000000D+00 0.000000000000D+00 0.995236952307D-08 0.000000000000D+00  7 -1 1 23 -13 13 23 21 2 0.56635863D-01 0.25461883D+00 0.56449120D+06 0.56449120D+06 0.56449120D+06 0.10648066D+01  1  2  4  2  7  2        1 -.437510477804D-02 0.100000000000D+01
-.211762987549D-02 0.000000000000D+00 -.553589534688D-04 0.995236952307D-08 0.000000000000D+00  7 -1 1 23 -13 13 23 21 2 0.56635863D-01 0.33875600D+00 0.56449120D+06 0.56449120D+06 0.56449120D+06 0.10648066D+01  1  2  5  2  7  2        1 -.201972388186D-02 0.100000000000D+01
0.205143442317D-02 0.000000000000D+00 0.531767747894D-04 0.995236952307D-08 0.000000000000D+00  7 -1 1 23 -13 13 23 21 2 0.56635863D-01 0.25461883D+00 0.56449120D+06 0.56449120D+06 0.56449120D+06 0.10648066D+01  1  2  6  2  7  2        1 0.456067209573D-02 0.100000000000D+01
0.758721611476D-04 0.000000000000D+00 0.000000000000D+00 0.995236952307D-08 0.000000000000D+00  7 -1 21 23 -13 13 23 -1 2 0.56635863D-01 0.33875516D+00 0.60512233D+06 0.60512233D+06 0.60512233D+06 0.10627022D+01  1  2 12  4  7  2        1 0.298061962339D-04 0.100000000000D+01
-.778275818889D-04 0.000000000000D+00 -.206459474791D-05 0.995236952307D-08 0.000000000000D+00  7 -1 21 23 -13 13 23 -1 2 0.56635863D-01 0.33875600D+00 0.56449120D+06 0.56449120D+06 0.56449120D+06 0.10648066D+01  1  2  5  4  7  2        1 -.309354140280D-04 0.100000000000D+01
  </mgrwgt>
  </event>
  <event>
  8     66 0.58687835E-06 0.13217350E+03 0.75467711E-02 0.10480284E+00
       -1 -1    0    0    0  501 0.00000000E+00 0.00000000E+00 0.25979974E+03 0.25979994E+03 0.32000000E+00 0.0000E+00 0.9000E+01
        1 -1    0    0  501    0 0.00000000E+00 0.00000000E+00 -.24449419E+03 0.24449440E+03 0.32000000E+00 0.0000E+00 0.9000E+01
       25  2    1    2    0    0 0.10434249E+03 0.21319189E+02 0.11011492E+03 0.33615131E+03 0.29921655E+03 0.0000E+00 0.0000E+00
       23  2    1    2    0    0 -.10434249E+03 -.21319189E+02 -.94809368E+02 0.16814303E+03 0.89114541E+02 0.0000E+00 0.0000E+00
       23  1    3    3    0    0 0.13431150E+03 0.11725047E+02 0.15940729E+03 0.22782228E+03 0.91188000E+02 0.0000E+00 0.9000E+01
      -13  1    4    4    0    0 -.63187657E+02 0.27115533E+02 -.23606801E+02 0.72699549E+02 0.10565837E+00 0.0000E+00 0.9000E+01
       13  1    4    4    0    0 -.41154829E+02 -.48434722E+02 -.71202567E+02 0.95443485E+02 0.10565837E+00 0.0000E+00 0.9000E+01
       23  1    3    3    0    0 -.29969014E+02 0.95941417E+01 -.49292366E+02 0.10832903E+03 0.91188000E+02 0.0000E+00 0.9000E+01
#aMCatNLO 1  0  0  1  2 0.50139006D+02 0.00000000D+00  -5  7  0 0.00000000D+00 0.00000000D+00 0.00000000D+00 0.00000000D+00 0.00000000D+00
  <mgrwgt>
 0.1448090759D-03    9    2    0
 0.252031010576275D+03 0.000000000000000D+00 0.000000000000000D+00 0.252031010576275D+03
 0.252031010576275D+03 0.000000000000000D+00 0.000000000000000D+00 -.252031010576275D+03
 0.223086970034047D+03 0.134311500595024D+03 0.117250475618997D+02 0.152563065394465D+03
 0.734498285040980D+02 -.631876883013586D+02 0.271156378830216D+02 -.258250950938928D+02
 0.976495344960383D+02 -.411547996689938D+02 -.484348272181613D+02 -.741335387246881D+02
 0.109875688118367D+03 -.299690126246719D+02 0.959414177323998D+01 -.526044315758843D+02
 0.000000000000000D+00 0.000000000000000D+00 0.000000000000000D+00 0.000000000000000D+00
 0.305222200123262D+03 0.000000000000000D+00 0.000000000000000D+00 0.305222200123262D+03
 0.265373157309221D+03 0.000000000000000D+00 0.000000000000000D+00 -.265373157309221D+03
 0.217928889673062D+03 0.125821377200807D+03 -.844048143591707D+01 0.152563065394465D+03
 0.737653385286074D+02 -.660217699020477D+02 0.203841980620409D+02 -.258250950938928D+02
 0.104160217915454D+03 -.450398973642738D+02 -.576626142120324D+02 -.741335387246881D+02
 0.110695098449670D+03 -.342152843945034D+02 -.491496860171075D+00 -.526044315758843D+02
 0.640458128656889D+02 0.194555744600181D+02 0.462103944460796D+02 0.398490428140410D+02
0.131000551892D-05 0.000000000000D+00 0.000000000000D+00 0.231763670629D-07 0.000000000000D+00  7 -1 1 23 -13 13 23 21 0 0.39969223D-01 0.37614522D-01 0.38327373D+05 0.38327373D+05 0.38327373D+05 0.11575919D+01  1  2  2  1  7  1       -1 0.110227197808D-03 0.100000000000D+01
-.671323240404D-07 0.000000000000D+00 -.503076612503D-08 0.231763670629D-07 0.000000000000D+00  7 -1 1 23 -13 13 23 21 2 0.39969223D-01 0.37614522D-01 0.38327373D+05 0.38327373D+05 0.38327373D+05 0.11575919D+01  1  2  3  1  7  1       -1 -.756934487560D-05 0.100000000000D+01
0.846702467285D-07 0.000000000000D+00 0.000000000000D+00 0.231763670629D-07 0.000000000000D+00  7 -1 1 23 -13 13 23 21 2 0.39969223D-01 0.37614522D-01 0.38327373D+05 0.38327373D+05 0.38327373D+05 0.11575919D+01  1  2 15  1  7  1       -1 0.954679146524D-05 0.100000000000D+01
0.203365482236D-05 0.000000000000D+00 0.000000000000D+00 0.231763670629D-07 0.000000000000D+00  7 -1 1 23 -13 13 23 21 2 0.49302084D-01 0.37614522D-01 0.49599931D+05 0.49599931D+05 0.49599931D+05 0.11476024D+01  1  2 12  1  7  1       -1 0.156266237544D-03 0.100000000000D+01
-.212478949251D-05 0.000000000000D+00 0.000000000000D+00 0.231763670629D-07 0.000000000000D+00  7 -1 1 23 -13 13 23 21 2 0.39969223D-01 0.37614522D-01 0.38327373D+05 0.38327373D+05 0.38327373D+05 0.11575919D+01  1  2  4  1  7  1       -1 -.239575564927D-03 0.100000000000D+01
-.335073589137D-05 0.000000000000D+00 -.828430236558D-06 0.231763670629D-07 0.000000000000D+00  7 -1 1 23 -13 13 23 21 2 0.50490343D-01 0.37614522D-01 0.38327373D+05 0.38327373D+05 0.38327373D+05 0.11575919D+01  1  2  5  1  7  1       -1 -.251442876705D-03 0.100000000000D+01
0.347122965392D-05 0.000000000000D+00 0.806316333900D-06 0.231763670629D-07 0.000000000000D+00  7 -1 1 23 -13 13 23 21 2 0.39969223D-01 0.37614522D-01 0.38327373D+05 0.38327373D+05 0.38327373D+05 0.11575919D+01  1  2  6  1  7  1       -1 0.391390209836D-03 0.100000000000D+01
0.603741070824D-07 0.000000000000D+00 0.000000000000D+00 0.231763670629D-07 0.000000000000D+00  7 21 1 23 -13 13 23 1 2 0.49302084D-01 0.37614522D-01 0.49599931D+05 0.49599931D+05 0.49599931D+05 0.11476024D+01  1  2 12  3  7  1       -1 0.441826478284D-04 0.100000000000D+01
-.954417818513D-07 0.000000000000D+00 -.266669535663D-07 0.231763670629D-07 0.000000000000D+00  7 21 1 23 -13 13 23 1 2 0.50490343D-01 0.37614522D-01 0.38327373D+05 0.38327373D+05 0.38327373D+05 0.11575919D+01  1  2  5  3  7  1       -1 -.682162220305D-04 0.100000000000D+01
  </mgrwgt>
  </event>
  <event>
  8     66 0.58687835E-06 0.22898575E+03 0.75467711E-02 0.99440960E-01
       -1 -1    0    0    0  501 0.00000000E+00 0.00000000E+00 0.24069352E+03 0.24069374E+03 0.32000000E+00 0.0000E+00 0.9000E+01
        1 -1    0    0  501    0 0.00000000E+00 0.00000000E+00 -.22030782E+03 0.22030805E+03 0.32000000E+00 0.0000E+00 0.9000E+01
       25  2    1    2    0    0 0.64845120E+02 0.81432989E+02 0.34002299E+02 0.31838149E+03 0.29895550E+03 0.0000E+00 0.0000E+00
       23  2    1    2    0    0 -.64845120E+02 -.81432989E+02 -.13616596E+02 0.14262030E+03 0.96534542E+02 0.0000E+00 0.0000E+00
       23  1    3    3    0    0 0.11051516E+03 0.13883638E+03 0.19718126E+02 0.20048241E+03 0.91188000E+02 0.0000E+00 0.9000E+01
      -13  1    4    4    0    0 0.25387142E+02 -.16958480E+02 -.80825188E+01 0.31582199E+02 0.10565837E+00 0.0000E+00 0.9000E+01
       13  1    4    4    0    0 -.90232262E+02 -.64474509E+02 -.55340776E+01 0.11103810E+03 0.10565837E+00 0.0000E+00 0.9000E+01
       23  1    3    3    0    0 -.45670042E+02 -.57403393E+02 0.14284173E+02 0.11789907E+03 0.91188000E+02 0.0000E+00 0.9000E+01
#aMCatNLO 1  0  0  1  2 0.17667499D+03 0.00000000D+00  -5  7  0 0.00000000D+00 0.00000000D+00 0.00000000D+00 0.00000000D+00 0.00000000D+00
  <mgrwgt>
 0.1346074641D-03    3    2    0
 0.230275417458899D+03 0.000000000000000D+00 0.000000000000000D+00 0.230275417458899D+03
 0.230275417458899D+03 0.000000000000000D+00 0.000000000000000D+00 -.230275417458899D+03
 0.199805962398079D+03 0.110515191543377D+03 0.138836419936897D+03 0.108633421679926D+02
 0.319707476401602D+02 0.253872162963280D+02 -.169584401225870D+02 -.948837509813429D+01
 0.111391905200710D+03 -.902323900737567D+02 -.644746167013192D+02 -.104544788028527D+02
 0.117382219678849D+03 -.456700177659485D+02 -.574033631129906D+02 0.907951173299442D+01
 0.000000000000000D+00 -.000000000000000D+00 0.000000000000000D+00 -.000000000000000D+00
 0.303639048704464D+03 0.000000000000000D+00 0.000000000000000D+00 0.303639048704464D+03
 0.383539072205354D+03 0.000000000000000D+00 0.000000000000000D+00 -.383539072205354D+03
 0.174915765447504D+03 0.130154405634837D+03 0.722640446478712D+02 0.108633421679926D+02
 0.432378015848020D+02 0.293289060623023D+02 -.303198531175938D+02 -.948837509813429D+01
 0.133235592196433D+03 -.774114313808563D+02 -.107934689476840D+03 -.104544788028527D+02
 0.141886752079092D+03 -.320816975132059D+02 -.103464613385038D+03 0.907951173299442D+01
 0.193902209601987D+03 -.499901828030770D+02 0.169455111331600D+03 -.799000235008908D+02
0.121137479141D-05 0.000000000000D+00 0.000000000000D+00 0.196225404534D-08 0.000000000000D+00  7 -1 1 23 -13 13 23 21 0 0.37029807D-01 0.33893545D-01 0.52434474D+05 0.52434474D+05 0.52434474D+05 0.11454837D+01  1  2  2  1  7  1       -1 0.132814773665D-03 0.100000000000D+01
-.672960185371D-07 0.000000000000D+00 -.465199816133D-08 0.196225404534D-08 0.000000000000D+00  7 -1 1 23 -13 13 23 21 2 0.37029807D-01 0.33893545D-01 0.52434474D+05 0.52434474D+05 0.52434474D+05 0.11454837D+01  1  2  3  1  7  1       -1 -.968133085777D-05 0.100000000000D+01
0.797572108408D-07 0.000000000000D+00 0.000000000000D+00 0.196225404534D-08 0.000000000000D+00  7 -1 1 23 -13 13 23 21 2 0.37029807D-01 0.33893545D-01 0.52434474D+05 0.52434474D+05 0.52434474D+05 0.11454837D+01  1  2 15  1  7  1       -1 0.114740212457D-04 0.100000000000D+01
  </mgrwgt>
  </event>
  <event>
  8     66 0.58687835E-06 0.36129260E+03 0.75467711E-02 0.84045602E-01
       -3 -1    0    0    0  501 0.00000000E+00 0.00000000E+00 0.28948613E+03 0.28948657E+03 0.50000000E+00 0.0000E+00 0.9000E+01
        3 -1    0    0  501    0 0.00000000E+00 0.00000000E+00 -.63724945E+03 0.63724965E+03 0.50000000E+00 0.0000E+00 0.9000E+01
       25  2    1    2    0    0 -.12586538E+03 0.29172443E+03 0.14555305E+02 0.43693513E+03 0.29959174E+03 0.0000E+00 0.0000E+00
       23  2    1    2    0    0 0.12586538E+03 -.29172443E+03 -.36231862E+03 0.48980108E+03 0.87664590E+02 0.0000E+00 0.0000E+00
       23  1    3    3    0    0 -.13719563E+03 0.25972868E+03 -.61231910E+02 0.31360202E+03 0.91188000E+02 0.0000E+00 0.9000E+01
      -13  1    4    4    0    0 0.81742470E+01 -.18891816E+02 0.80713333E+00 0.20600526E+02 0.10565837E+00 0.0000E+00 0.9000E+01
       13  1    4    4    0    0 0.11769114E+03 -.27283262E+03 -.36312575E+03 0.46920056E+03 0.10565837E+00 0.0000E+00 0.9000E+01
       23  1    3    3    0    0 0.11330247E+02 0.31995756E+02 0.75787215E+02 0.12333311E+03 0.91188000E+02 0.0000E+00 0.9000E+01
#aMCatNLO 1  0  0  2  1 0.13413943D+04 0.00000000D+00  -5  7  0 0.00000000D+00 0.00000000D+00 0.00000000D+00 0.00000000D+00 0.00000000D+00
  <mgrwgt>
 0.3467556775D-04    3    2    0
 0.429505728305711D+03 0.000000000000000D+00 0.000000000000000D+00 0.429505728305711D+03
 0.429505728305711D+03 0.000000000000000D+00 0.000000000000000D+00 -.429505728305711D+03
 0.313537299534962D+03 -.137195631239607D+03 0.259728676142477D+03 0.608995928863134D+02
 0.225509500280494D+02 0.817408790794535D+01 -.188914472885618D+02 0.921101804277080D+01
 0.359184676961852D+03 0.117691296796429D+03 -.272832985381005D+03 -.201803252973418D+03
 0.163738530086559D+03 0.113302465352318D+02 0.319957565270892D+02 0.131692642044334D+03
 0.000000000000000D+00 -.000000000000000D+00 0.000000000000000D+00 0.000000000000000D+00
 0.223901914435144D+04 0.000000000000000D+00 0.000000000000000D+00 0.223901914435144D+04
 0.110826143448579D+04 0.000000000000000D+00 0.000000000000000D+00 -.110826143448579D+04
 0.123690902214793D+03 -.118676424649848D+02 0.559873788930519D+02 0.608995928863134D+02
 0.736309280867793D+02 0.357438587792133D+02 -.637106527757162D+02 0.921101804277080D+01
 0.112521428884141D+04 0.543182461773313D+03 -.964538986316318D+03 -.201803252973418D+03
 0.270335273988673D+03 0.135754052288810D+03 -.170275642230711D+03 0.131692642044334D+03
 0.175440918570558D+04 -.702812730376352D+03 0.114253790242969D+04 0.113075770986565D+04
0.172813418690D-04 0.000000000000D+00 0.000000000000D+00 0.164367331242D-06 0.000000000000D+00  7 -3 3 23 -13 13 23 21 0 0.44536377D-01 0.98038425D-01 0.13053234D+06 0.13053234D+06 0.13053234D+06 0.11123479D+01  1  2  2  2  7  2        3 0.341951615540D-04 0.100000000000D+01
-.925159542771D-06 0.000000000000D+00 -.663649030589D-07 0.164367331242D-06 0.000000000000D+00  7 -3 3 23 -13 13 23 21 2 0.44536377D-01 0.98038425D-01 0.13053234D+06 0.13053234D+06 0.13053234D+06 0.11123479D+01  1  2  3  2  7  2        3 -.226508831681D-05 0.100000000000D+01
0.112137810729D-05 0.000000000000D+00 0.000000000000D+00 0.164367331242D-06 0.000000000000D+00  7 -3 3 23 -13 13 23 21 2 0.44536377D-01 0.98038425D-01 0.13053234D+06 0.13053234D+06 0.13053234D+06 0.11123479D+01  1  2 15  2  7  2        3 0.274549451432D-05 0.100000000000D+01
  </mgrwgt>
  </event>
  <event>
  9     66 0.58687835E-06 0.37098892E+03 0.75467711E-02 0.95195237E-01
       -1 -1    0    0    0  502 0.00000000E+00 0.00000000E+00 0.21827382E+04 0.21827382E+04 0.32000000E+00 0.0000E+00 0.9000E+01
        1 -1    0    0  501    0 0.00000000E+00 0.00000000E+00 -.79361075E+03 0.79361082E+03 0.32000000E+00 0.0000E+00 0.9000E+01
       25  2    1    2    0    0 -.12988550E+03 0.17631572E+03 0.23605168E+03 0.43980695E+03 0.29958685E+03 0.0000E+00 0.0000E+00
       23  2    1    2    0    0 0.27648237E+03 -.29786980E+03 -.62334615E+03 0.74994157E+03 0.93182678E+02 0.0000E+00 0.0000E+00
       23  1    3    3    0    0 0.19429060E+02 0.14957071E+03 0.50415994E+02 0.18331915E+03 0.91188000E+02 0.0000E+00 0.9000E+01
      -11  1    4    4    0    0 0.27390005E+03 -.29834141E+03 -.58505413E+03 0.71155967E+03 0.51099893E-03 0.0000E+00 0.9000E+01
       11  1    4    4    0    0 0.25823191E+01 0.47161086E+00 -.38292022E+02 0.38381894E+02 0.51099893E-03 0.0000E+00 0.9000E+01
       23  1    3    3    0    0 -.14931456E+03 0.26745010E+02 0.18563568E+03 0.25648780E+03 0.91188000E+02 0.0000E+00 0.9000E+01
       21  1    1    2  501  502 -.14659687E+03 0.12155408E+03 0.17764219E+04 0.17866005E+04 0.75000000E+00 0.0000E+00 0.9000E+01
#aMCatNLO 2  0  0  1  2 0.19043644D+03 0.00000000D+00  -5  7  0 0.00000000D+00 0.00000000D+00 0.00000000D+00 0.00000000D+00 0.00000000D+00
  <mgrwgt>
 0.9799572851D-05    2    2    0
 0.554355139187866D+03 0.000000000000000D+00 0.000000000000000D+00 0.554355139187866D+03
 0.554355139187866D+03 0.000000000000000D+00 0.000000000000000D+00 -.554355139187866D+03
 0.228158984726508D+03 -.940884216160488D+01 0.173482304421035D+03 0.116432962297521D+03
 0.490273553437663D+03 0.205551981623240D+03 -.241669080055956D+03 -.373781481344462D+03
 0.275214176547867D+02 -.102286278002341D+01 0.346092819306147D+01 -.272837709546337D+02
 0.362756322556776D+03 -.195120276681612D+03 0.647258474418590D+02 0.284632290001574D+03
 0.000000000000000D+00 -.000000000000000D+00 0.000000000000000D+00 0.000000000000000D+00
 0.305994270263253D+04 0.000000000000000D+00 0.000000000000000D+00 0.305994270263253D+04
 0.566103503968466D+03 0.000000000000000D+00 0.000000000000000D+00 -.566103503968466D+03
 0.211236295064567D+03 0.194290595718602D+02 0.149570712184511D+03 0.116432962297521D+03
 0.551127419024319D+03 0.273900050640443D+03 -.298341412585496D+03 -.373781481344462D+03
 0.274097600554501D+02 0.258231910919608D+01 0.471610867887298D+00 -.272837709546337D+02
 0.335172977191077D+03 -.149314558029821D+03 0.267450097017984D+02 0.284632290001574D+03
 0.250109975526558D+04 -.146596871291678D+03 0.121554079831299D+03 0.249383919866407D+04
-.397448534518D-03 0.000000000000D+00 0.000000000000D+00 0.633104556804D-06 0.000000000000D+00  7 -1 1 23 -11 11 23 21 2 0.33205512D+00 0.11956014D+00 0.22624587D+06 0.22624587D+06 0.22624587D+06 0.10937361D+01  1  2 13  1  7  1       -1 -.141420571922D-04 0.100000000000D+01
0.755528541934D-03 0.000000000000D+00 0.000000000000D+00 0.633104556804D-06 0.344660829934D-09  7 -1 1 23 -11 11 23 21 2 0.33580585D+00 0.12209396D+00 0.22624587D+06 0.22624587D+06 0.22624587D+06 0.10937361D+01  1  2  1  1  7  1       -1 0.239416300435D-04 0.100000000000D+01
  </mgrwgt>
  </event>
  <event>
  8     66 0.58687835E-06 0.24797160E+03 0.75467711E-02 0.98655782E-01
       -1 -1    0    0    0  501 0.00000000E+00 0.00000000E+00 0.26574260E+03 0.26574279E+03 0.32000000E+00 0.0000E+00 0.9000E+01
        1 -1    0    0  501    0 0.00000000E+00 0.00000000E+00 -.64148822E+03 0.64148830E+03 0.32000000E+00 0.0000E+00 0.9000E+01
       25  2    1    2    0    0 0.23486880E+03 0.18532406E+03 -.41349765E+03 0.59209889E+03 0.30015401E+03 0.0000E+00 0.0000E+00
       23  2    1    2    0    0 -.23486880E+03 -.18532406E+03 0.37752029E+02 0.31513221E+03 0.91513569E+02 0.0000E+00 0.0000E+00
       23  1    3    3    0    0 0.62078494E+02 0.15159571E+02 -.89664913E+01 0.11171035E+03 0.91188000E+02 0.0000E+00 0.9000E+01
      -13  1    4    4    0    0 -.17574075E+03 -.14684095E+03 -.11162462E+02 0.22928517E+03 0.10565837E+00 0.0000E+00 0.9000E+01
       13  1    4    4    0    0 -.59128045E+02 -.38483109E+02 0.48914491E+02 0.85847039E+02 0.10565837E+00 0.0000E+00 0.9000E+01
       23  1    3    3    0    0 0.17279030E+03 0.17016449E+03 -.40453116E+03 0.48038854E+03 0.91188000E+02 0.0000E+00 0.9000E+01
#aMCatNLO 1  0  0  2  1 0.40198890D+02 0.00000000D+00  -5  7  0 0.00000000D+00 0.00000000D+00 0.00000000D+00 0.00000000D+00 0.00000000D+00
  <mgrwgt>
 0.2618585165D-03    9    2    0
 0.412881183968173D+03 0.000000000000000D+00 0.000000000000000D+00 0.412881183968173D+03
 0.412881183968173D+03 0.000000000000000D+00 0.000000000000000D+00 -.412881183968173D+03
 0.118651542971680D+03 0.620784936011309D+02 0.151595712003159D+02 0.409803042789732D+02
 0.246827101652740D+03 -.175740906570109D+03 -.146841097056095D+03 0.920676060488761D+02
 0.116573930747921D+03 -.591278900282818D+02 -.384829643272821D+02 0.928032079586128D+02
 0.343709792564005D+03 0.172790302997259D+03 0.170164490183062D+03 -.225851118286462D+03
 0.000000000000000D+00 -.000000000000000D+00 0.000000000000000D+00 -.000000000000000D+00
 0.419110124292629D+03 0.000000000000000D+00 0.000000000000000D+00 0.419110124292629D+03
 0.483751255746490D+03 0.000000000000000D+00 0.000000000000000D+00 -.483751255746490D+03
 0.121315137617723D+03 0.674879299333653D+02 0.129655407029158D+02 0.409803042789732D+02
 0.241878191155660D+03 -.164724293096189D+03 -.151309360375106D+03 0.920676060488761D+02
 0.114748747299369D+03 -.539133106707423D+02 -.405979621641877D+02 0.928032079586128D+02
 0.348798172760168D+03 0.188401127545006D+03 0.163832846173644D+03 -.225851118286462D+03
 0.761211312061999D+02 -.372514537114403D+02 0.151089356627342D+02 -.646411314538605D+02
0.853284171347D-05 0.000000000000D+00 0.000000000000D+00 0.133461590350D-05 0.000000000000D+00  7 -1 1 23 -13 13 23 21 0 0.40883498D-01 0.98690516D-01 0.11222557D+06 0.11222557D+06 0.11222557D+06 0.11176345D+01  1  2  2  2  7  2        1 0.186747487525D-03 0.100000000000D+01
-.448863813069D-06 0.000000000000D+00 -.327683589285D-07 0.133461590350D-05 0.000000000000D+00  7 -1 1 23 -13 13 23 21 2 0.40883498D-01 0.98690516D-01 0.11222557D+06 0.11222557D+06 0.11222557D+06 0.11176345D+01  1  2  3  2  7  2        1 -.122708668502D-04 0.100000000000D+01
0.552597988741D-06 0.000000000000D+00 0.000000000000D+00 0.133461590350D-05 0.000000000000D+00  7 -1 1 23 -13 13 23 21 2 0.40883498D-01 0.98690516D-01 0.11222557D+06 0.11222557D+06 0.11222557D+06 0.11176345D+01  1  2 15  2  7  2        1 0.151067119784D-04 0.100000000000D+01
0.419284630032D-04 0.000000000000D+00 0.000000000000D+00 0.133461590350D-05 0.000000000000D+00  7 -1 1 23 -13 13 23 21 2 0.40883498D-01 0.11629199D+00 0.12650348D+06 0.12650348D+06 0.12650348D+06 0.11134384D+01  1  2 12  2  7  2        1 0.886373299626D-03 0.100000000000D+01
-.424299344731D-04 0.000000000000D+00 0.000000000000D+00 0.133461590350D-05 0.000000000000D+00  7 -1 1 23 -13 13 23 21 2 0.40883498D-01 0.98690516D-01 0.11222557D+06 0.11222557D+06 0.11222557D+06 0.11176345D+01  1  2  4  2  7  2        1 -.115993328316D-02 0.100000000000D+01
-.575954300552D-04 0.000000000000D+00 -.696049511724D-05 0.133461590350D-05 0.000000000000D+00  7 -1 1 23 -13 13 23 21 2 0.40883498D-01 0.11652413D+00 0.11222557D+06 0.11222557D+06 0.11222557D+06 0.11176345D+01  1  2  5  2  7  2        1 -.122661372488D-02 0.100000000000D+01
0.580439430857D-04 0.000000000000D+00 0.686555863676D-05 0.133461590350D-05 0.000000000000D+00  7 -1 1 23 -13 13 23 21 2 0.40883498D-01 0.98690516D-01 0.11222557D+06 0.11222557D+06 0.11222557D+06 0.11176345D+01  1  2  6  2  7  2        1 0.158678306500D-02 0.100000000000D+01
0.102804396880D-05 0.000000000000D+00 0.000000000000D+00 0.133461590350D-05 0.000000000000D+00  7 -1 21 23 -13 13 23 -1 2 0.40883498D-01 0.11629199D+00 0.12650348D+06 0.12650348D+06 0.12650348D+06 0.11134384D+01  1  2 12  4  7  2        1 0.417205281749D-04 0.100000000000D+01
-.136785813430D-05 0.000000000000D+00 -.172311665434D-06 0.133461590350D-05 0.000000000000D+00  7 -1 21 23 -13 13 23 -1 2 0.40883498D-01 0.11652413D+00 0.11222557D+06 0.11222557D+06 0.11222557D+06 0.11176345D+01  1  2  5  4  7  2        1 -.560547008842D-04 0.100000000000D+01
  </mgrwgt>
  </event>
  <event>
  8     66 0.58687835E-06 0.46433677E+03 0.75467711E-02 0.89199259E-01
       -3 -1    0    0    0  501 0.00000000E+00 0.00000000E+00 0.11574912E+04 0.11574913E+04 0.50000000E+00 0.0000E+00 0.9000E+01
        3 -1    0    0  501    0 0.00000000E+00 0.00000000E+00 -.20024583E+03 0.20024646E+03 0.50000000E+00 0.0000E+00 0.9000E+01
       25  2    1    2    0    0 0.41372881E+03 0.54737478E+02 0.65828873E+03 0.83652952E+03 0.30375957E+03 0.0000E+00 0.0000E+00
       23  2    1    2    0    0 -.41372881E+03 -.54737478E+02 0.29895665E+03 0.52120825E+03 0.90084657E+02 0.0000E+00 0.0000E+00
       23  1    3    3    0    0 0.13240782E+03 0.12734362E+03 0.20128544E+03 0.28736616E+03 0.91188000E+02 0.0000E+00 0.9000E+01
      -11  1    4    4    0    0 -.22199219E+03 -.48498861E+02 0.11197446E+03 0.25331986E+03 0.51099893E-03 0.0000E+00 0.9000E+01
       11  1    4    4    0    0 -.19173661E+03 -.62386163E+01 0.18698219E+03 0.26788839E+03 0.51099893E-03 0.0000E+00 0.9000E+01
       23  1    3    3    0    0 0.28132099E+03 -.72606141E+02 0.45700328E+03 0.54916337E+03 0.91188000E+02 0.0000E+00 0.9000E+01
#aMCatNLO 1  0  0  2  1 0.57525669D+03 0.00000000D+00  -5  7  0 0.00000000D+00 0.00000000D+00 0.00000000D+00 0.00000000D+00 0.00000000D+00
  <mgrwgt>
 0.2762893953D-04    3    2    0
 0.481438768829618D+03 0.000000000000000D+00 0.000000000000000D+00 0.481438768829618D+03
 0.481438768829618D+03 0.000000000000000D+00 0.000000000000000D+00 -.481438768829618D+03
 0.205102226458511D+03 0.132407817735128D+03 0.127343618279602D+03 -.185597422354270D+01
 0.245882682190493D+03 -.221992192867340D+03 -.484988612436924D+02 -.939447718886251D+02
 0.191856534783899D+03 -.191736613899163D+03 -.623861632618238D+01 -.266092016102964D+01
 0.320036094226333D+03 0.281320989031375D+03 -.726061407097272D+02 0.984616662731974D+02
 0.000000000000000D+00 0.000000000000000D+00 -.000000000000000D+00 0.000000000000000D+00
 0.151384505364950D+04 0.000000000000000D+00 0.000000000000000D+00 0.151384505364950D+04
 0.647622293640570D+03 0.000000000000000D+00 0.000000000000000D+00 -.647622293640570D+03
 0.249797044948684D+03 0.547840030909002D+02 0.226005709410432D+03 -.185597422354270D+01
 0.345656939701121D+03 -.322932257735742D+03 0.797988515708994D+02 -.939447718886251D+02
 0.291389190684798D+03 -.274197455186859D+03 0.985714741742675D+02 -.266092016102964D+01
 0.234786624451981D+03 0.186646280624246D+03 0.477281246373267D+02 0.984616662731974D+02
 0.103983754750348D+04 0.355699429207456D+03 -.452104159792926D+03 0.866222760008928D+03
0.469783410640D-04 0.000000000000D+00 0.000000000000D+00 0.192130785252D-07 0.000000000000D+00  7 -3 3 23 -11 11 23 21 0 0.17807563D+00 0.30807107D-01 0.21560863D+06 0.21560863D+06 0.21560863D+06 0.10953276D+01  1  2  2  2  7  2        3 0.273557073488D-04 0.100000000000D+01
-.260575658545D-05 0.000000000000D+00 -.180409199367D-06 0.192130785252D-07 0.000000000000D+00  7 -3 3 23 -11 11 23 21 2 0.17807563D+00 0.30807107D-01 0.21560863D+06 0.21560863D+06 0.21560863D+06 0.10953276D+01  1  2  3  2  7  2        3 -.182042244838D-05 0.100000000000D+01
0.299686171505D-05 0.000000000000D+00 0.000000000000D+00 0.192130785252D-07 0.000000000000D+00  7 -3 3 23 -11 11 23 21 2 0.17807563D+00 0.30807107D-01 0.21560863D+06 0.21560863D+06 0.21560863D+06 0.10953276D+01  1  2 15  2  7  2        3 0.209365463038D-05 0.100000000000D+01
  </mgrwgt>
  </event>
  <event>
  9     66 0.58687835E-06 0.28036057E+03 0.75467711E-02 0.97040281E-01
       21 -1    0    0  502  501 0.00000000E+00 0.00000000E+00 0.27572277E+03 0.27572379E+03 0.75000000E+00 0.0000E+00 0.9000E+01
        3 -1    0    0  501    0 0.00000000E+00 0.00000000E+00 -.94131263E+03 0.94131277E+03 0.50000000E+00 0.0000E+00 0.9000E+01
       25  2    1    2    0    0 -.13023968E+03 0.18641783E+03 0.31948892E+02 0.37891503E+03 0.30139989E+03 0.0000E+00 0.0000E+00
       23  2    1    2    0    0 0.23469709E+03 -.14967225E+01 -.39590385E+03 0.46921634E+03 0.91318925E+02 0.0000E+00 0.0000E+00
       23  1    3    3    0    0 0.11186926E+02 -.13113619E+02 -.49898362E+02 0.10536704E+03 0.91188000E+02 0.0000E+00 0.9000E+01
      -13  1    4    4    0    0 0.76468163E+02 0.34855019E+02 -.91578909E+02 0.12429385E+03 0.10565837E+00 0.0000E+00 0.9000E+01
       13  1    4    4    0    0 0.15822893E+03 -.36351742E+02 -.30432494E+03 0.34492249E+03 0.10565837E+00 0.0000E+00 0.9000E+01
       23  1    3    3    0    0 -.14142661E+03 0.19953145E+03 0.81847253E+02 0.27354800E+03 0.91188000E+02 0.0000E+00 0.9000E+01
        3  1    1    2  502    0 -.10445741E+03 -.18492111E+03 -.30163490E+03 0.36890518E+03 0.50000000E+00 0.0000E+00 0.9000E+01
#aMCatNLO 2  0  0  1  1 0.21238448D+03 0.00000000D+00  -5  7  0 0.00000000D+00 0.00000000D+00 0.00000000D+00 0.00000000D+00 0.00000000D+00
  <mgrwgt>
 0.3357381622D-05    1    2    0
 0.368020530905802D+03 0.000000000000000D+00 0.000000000000000D+00 0.368020530905802D+03
 0.368020530905802D+03 0.000000000000000D+00 0.000000000000000D+00 -.368020530905802D+03
 0.984466268315271D+02 -.212269856765928D+01 -.366756669246288D+02 -.518426435769793D+01
 0.783294120406260D+02 0.644772850599505D+02 0.136278385851042D+02 -.423374363586932D+02
 0.233646185254013D+03 0.125480098807233D+03 -.943273296007256D+02 -.173053863226094D+03
 0.325618837685437D+03 -.187834685299524D+03 0.117375157940250D+03 0.220575563942485D+03
 0.000000000000000D+00 -.000000000000000D+00 -.000000000000000D+00 -.000000000000000D+00
 0.436252854333493D+03 0.000000000000000D+00 0.000000000000000D+00 0.436252854333493D+03
 0.594934248456143D+03 0.000000000000000D+00 0.000000000000000D+00 -.594934248456143D+03
 0.929475242349997D+02 0.111869260410996D+02 -.131136191128278D+02 -.518426435769793D+01
 0.940994195557122D+02 0.764680538869271D+02 0.348551140873411D+02 -.423374363586932D+02
 0.237287849999300D+03 0.158229037005093D+03 -.363518366558758D+02 -.173053863226094D+03
 0.341735445314809D+03 -.141426605751193D+03 0.199531448693338D+03 0.220575563942485D+03
 0.265116863684815D+03 -.104457411181927D+03 -.184921107011976D+03 -.158681394122651D+03
0.222891694401D-06 0.000000000000D+00 0.000000000000D+00 0.145658633907D-06 0.977309858576D-12  7 21 3 23 -13 13 23 3 2 0.42418955D-01 0.14481734D+00 0.16507641D+06 0.16507641D+06 0.16507641D+06 0.11042844D+01  1  2  1  3  7  1       -3 0.335738162151D-05 0.100000000000D+01
  </mgrwgt>
  </event>
  <event>
  7     66 0.58687835E-06 0.40114539E+03 0.75467711E-02 0.95423394E-01
       -3 -1    0    0    0  501 0.00000000E+00 0.00000000E+00 0.21830484E+03 0.21830541E+03 0.50000000E+00 0.0000E+00 0.9000E+01
        3 -1    0    0  501    0 0.00000000E+00 0.00000000E+00 -.11511529E+04 0.11511531E+04 0.50000000E+00 0.0000E+00 0.9000E+01
       23  2    1    2    0    0 0.98341876E+02 0.32041115E+03 -.25130724E+02 0.34889175E+03 0.93592043E+02 0.0000E+00 0.0000E+00
       23  1    1    2    0    0 0.61990884E+02 -.24090615E+03 -.48872878E+03 0.55592240E+03 0.91188000E+02 0.0000E+00 0.9000E+01
      -11  1    3    3    0    0 0.95586686E+02 0.27763017E+03 -.52147480E+02 0.29821919E+03 0.51099893E-03 0.0000E+00 0.9000E+01
       11  1    3    3    0    0 0.27551901E+01 0.42780984E+02 0.27016755E+02 0.50672564E+02 0.51099893E-03 0.0000E+00 0.9000E+01
       23  1    1    2    0    0 -.16033276E+03 -.79505005E+02 -.41898860E+03 0.46464431E+03 0.91188000E+02 0.0000E+00 0.9000E+01
#aMCatNLO 1  0  0  2  1 0.13031919D+03 0.00000000D+00  -5  7  0 0.00000000D+00 0.00000000D+00 0.00000000D+00 0.00000000D+00 0.00000000D+00
  <mgrwgt>
 0.1436661453D-04    4    2    0
 0.501301034324036D+03 0.000000000000000D+00 0.000000000000000D+00 0.501301034324036D+03
 0.501301034324036D+03 0.000000000000000D+00 0.000000000000000D+00 -.501301034324036D+03
 0.304610304635998D+03 0.619908830480296D+02 -.240906148889316D+03 -.150311490554381D+03
 0.358819445851648D+03 0.955866857025495D+02 0.277630170152645D+03 0.206242742560070D+03
 0.943509929270827D+02 0.275519007208110D+01 0.427809838955963D+02 0.840494271897068D+02
 0.244821325233343D+03 -.160332758822660D+03 -.795050051589256D+02 -.139980679195396D+03
 0.000000000000000D+00 -.000000000000000D+00 0.000000000000000D+00 0.000000000000000D+00
 0.624368144009165D+03 0.000000000000000D+00 0.000000000000000D+00 0.624368144009165D+03
 0.541241816122839D+03 0.000000000000000D+00 0.000000000000000D+00 -.541241816122839D+03
 0.338903463139879D+03 0.644257175365698D+02 -.282482014845940D+03 -.150311490554381D+03
 0.326539348896976D+03 0.981798473628600D+02 0.233350798351254D+03 0.206242742560070D+03
 0.896144216936823D+02 0.345125184829667D+01 0.308954240180469D+02 0.840494271897068D+02
 0.255978868157927D+03 -.158437903352899D+03 -.111860492724404D+03 -.139980679195396D+03
 0.154573858243539D+03 -.761891339482744D+01 0.130096285201043D+03 0.831263278863254D+02
0.289720333733D-04 0.000000000000D+00 0.000000000000D+00 0.354689150902D-09 0.000000000000D+00  7 -3 3 23 -11 11 23 21 0 0.33585412D-01 0.17710051D+00 0.16091762D+06 0.16091762D+06 0.16091762D+06 0.11051521D+01  1  2  2  2  7  2        3 0.196939923132D-04 0.100000000000D+01
-.151234060862D-05 0.000000000000D+00 -.111260236665D-06 0.354689150902D-09 0.000000000000D+00  7 -3 3 23 -11 11 23 21 2 0.33585412D-01 0.17710051D+00 0.16091762D+06 0.16091762D+06 0.16091762D+06 0.11051521D+01  1  2  3  2  7  2        3 -.125559182095D-05 0.100000000000D+01
0.186631996476D-05 0.000000000000D+00 0.000000000000D+00 0.354689150902D-09 0.000000000000D+00  7 -3 3 23 -11 11 23 21 2 0.33585412D-01 0.17710051D+00 0.16091762D+06 0.16091762D+06 0.16091762D+06 0.11051521D+01  1  2 15  2  7  2        3 0.154947640080D-05 0.100000000000D+01
-.677072214567D-05 0.000000000000D+00 0.000000000000D+00 0.354689150902D-09 0.000000000000D+00  7 -3 3 23 -11 11 23 21 2 0.33585412D-01 0.17710051D+00 0.16091762D+06 0.16091762D+06 0.16091762D+06 0.11051521D+01  1  2  4  2  7  2        3 -.562126236616D-05 0.100000000000D+01
  </mgrwgt>
  </event>
  <event>
  8     66 0.58687835E-06 0.20943442E+03 0.75467711E-02 0.90468802E-01
       -1 -1    0    0    0  501 0.00000000E+00 0.00000000E+00 0.16765211E+03 0.16765242E+03 0.32000000E+00 0.0000E+00 0.9000E+01
        1 -1    0    0  501    0 0.00000000E+00 0.00000000E+00 -.79085706E+03 0.79085712E+03 0.32000000E+00 0.0000E+00 0.9000E+01
       25  2    1    2    0    0 -.14250996E+03 -.76151405E+02 -.68376357E+03 0.76352442E+03 0.29887922E+03 0.0000E+00 0.0000E+00
       23  2    1    2    0    0 0.14250996E+03 0.76151405E+02 0.60558621E+02 0.19498512E+03 0.90794963E+02 0.0000E+00 0.0000E+00
       23  1    3    3    0    0 -.58812770E+02 -.68854193E+02 -.89849572E+02 0.15680574E+03 0.91188000E+02 0.0000E+00 0.9000E+01
      -11  1    4    4    0    0 0.39212443E+02 0.42264068E+02 -.18517555E+02 0.60553835E+02 0.51099893E-03 0.0000E+00 0.9000E+01
       11  1    4    4    0    0 0.10329752E+03 0.33887336E+02 0.79076176E+02 0.13443129E+03 0.51099893E-03 0.0000E+00 0.9000E+01
       23  1    3    3    0    0 -.83697194E+02 -.72972118E+01 -.59391400E+03 0.60671868E+03 0.91188000E+02 0.0000E+00 0.9000E+01
#aMCatNLO 1  0  0  2  2 0.67577572D+03 0.00000000D+00  -5  7  0 0.00000000D+00 0.00000000D+00 0.00000000D+00 0.00000000D+00 0.00000000D+00
  <mgrwgt>
 0.2059770486D-03    5    2    0
 0.364127768671551D+03 0.000000000000000D+00 0.000000000000000D+00 0.364127768671551D+03
 0.364127768671551D+03 0.000000000000000D+00 0.000000000000000D+00 -.364127768671551D+03
 0.129494512057493D+03 -.588127700156575D+02 -.688541929282404D+02 0.159290774464267D+02
 0.638528573014505D+02 0.392124425881034D+02 0.422640683693814D+02 0.274466802492094D+02
 0.244604161368615D+03 0.103297521120523D+03 0.338873363770274D+02 0.219117471513499D+03
 0.290304006615542D+03 -.836971936929687D+02 -.729721181816844D+01 -.262493229209135D+03
 0.000000000000000D+00 -.000000000000000D+00 -.000000000000000D+00 -.000000000000000D+00
 0.752139513679051D+03 0.000000000000000D+00 0.000000000000000D+00 0.752139513679051D+03
 0.943776393502675D+03 0.000000000000000D+00 0.000000000000000D+00 -.943776393502675D+03
 0.110681914808595D+03 0.336489451373565D+02 -.504900772879777D+02 0.159290774464267D+02
 0.130438335925695D+03 0.114009529043735D+03 0.571197558607158D+02 0.274466802492094D+02
 0.433834419491834D+03 0.364478835335466D+03 0.857613887821938D+02 0.219117471513499D+03
 0.318538634460853D+03 0.150691482942653D+03 0.392554695308795D+02 -.262493229209135D+03
 0.702422602494749D+03 -.662828792459210D+03 -.131646536885811D+03 -.191636879823624D+03
0.549947308323D-05 0.000000000000D+00 0.000000000000D+00 0.188091395596D-06 0.000000000000D+00  7 -1 1 23 -11 11 23 21 0 0.25792661D-01 0.12167035D+00 0.43862776D+05 0.43862776D+05 0.43862776D+05 0.11523318D+01  1  2  2  2  7  2        1 0.193522454284D-03 0.100000000000D+01
-.191887069182D-06 0.000000000000D+00 -.211194246841D-07 0.188091395596D-06 0.000000000000D+00  7 -1 1 23 -11 11 23 21 2 0.25792661D-01 0.12167035D+00 0.43862776D+05 0.43862776D+05 0.43862776D+05 0.11523318D+01  1  2  3  2  7  2        1 -.896625563825D-05 0.100000000000D+01
0.341681714583D-06 0.000000000000D+00 0.000000000000D+00 0.188091395596D-06 0.000000000000D+00  7 -1 1 23 -11 11 23 21 2 0.25792661D-01 0.12167035D+00 0.43862776D+05 0.43862776D+05 0.43862776D+05 0.11523318D+01  1  2 15  2  7  2        1 0.159656698751D-04 0.100000000000D+01
0.317676668277D-05 0.000000000000D+00 -.179333296728D-05 0.188091395596D-06 0.000000000000D+00  7 -1 1 23 -11 11 23 21 2 0.25792661D-01 0.44917690D+00 0.43862776D+05 0.43862776D+05 0.43862776D+05 0.11523318D+01  1  2  5  2  7  2        1 0.522173936390D-05 0.100000000000D+01
0.533139092421D-06 0.000000000000D+00 -.276374371297D-06 0.188091395596D-06 0.000000000000D+00  7 -1 21 23 -11 11 23 -1 2 0.25792661D-01 0.44917690D+00 0.43862776D+05 0.43862776D+05 0.43862776D+05 0.11523318D+01  1  2  5  4  7  2        1 0.233440677010D-06 0.100000000000D+01
  </mgrwgt>
  </event>
  <event>
  8     66 0.58687835E-06 0.15521307E+03 0.75467711E-02 0.10060359E+00
       -1 -1    0    0    0  501 0.00000000E+00 0.00000000E+00 0.18527409E+03 0.18527436E+03 0.32000000E+00 0.0000E+00 0.9000E+01
        1 -1    0    0  501    0 0.00000000E+00 0.00000000E+00 -.49702190E+03 0.49702200E+03 0.32000000E+00 0.0000E+00 0.9000E+01
       25  2    1    2    0    0 -.95017563E+01 0.76659163E+02 -.41899327E+03 0.52076054E+03 0.29944828E+03 0.0000E+00 0.0000E+00
       23  2    1    2    0    0 0.95017563E+01 -.76659163E+02 0.10724546E+03 0.16153582E+03 0.92872612E+02 0.0000E+00 0.0000E+00
       23  1    3    3    0    0 0.34440363E+02 0.32599888E+02 -.17368191E+02 0.10423913E+03 0.91188000E+02 0.0000E+00 0.9000E+01
      -11  1    4    4    0    0 -.24726080E+02 -.24115186E+02 -.30361951E+01 0.34671887E+02 0.51099893E-03 0.0000E+00 0.9000E+01
       11  1    4    4    0    0 0.34227837E+02 -.52543977E+02 0.11028166E+03 0.12686393E+03 0.51099893E-03 0.0000E+00 0.9000E+01
       23  1    3    3    0    0 -.43942119E+02 0.44059275E+02 -.40162508E+03 0.41652141E+03 0.91188000E+02 0.0000E+00 0.9000E+01
#aMCatNLO 1  0  0  1  1 0.23703144D+03 0.00000000D+00  -5  7  0 0.00000000D+00 0.00000000D+00 0.00000000D+00 0.00000000D+00 0.00000000D+00
  <mgrwgt>
 0.1794871387D-03    3    2    0
 0.303455776081171D+03 0.000000000000000D+00 0.000000000000000D+00 0.303455776081171D+03
 0.303455776081171D+03 0.000000000000000D+00 0.000000000000000D+00 -.303455776081171D+03
 0.108265339972136D+03 0.344403629298620D+02 0.325998881248218D+02 0.340182479088893D+02
 0.374189208029564D+02 -.247260803961313D+02 -.241151863874833D+02 0.143963317480152D+02
 0.199269342627812D+03 0.342278366905065D+02 -.525439769346266D+02 0.189145067592844D+03
 0.261957948759439D+03 -.439421192242372D+02 0.440592751972882D+02 -.237559647249749D+03
 0.000000000000000D+00 0.000000000000000D+00 -.000000000000000D+00 -.000000000000000D+00
 0.389834136417156D+03 0.000000000000000D+00 0.000000000000000D+00 0.389834136417156D+03
 0.545054562650545D+03 0.000000000000000D+00 0.000000000000000D+00 -.545054562650545D+03
 0.110548341167250D+03 -.170635500340433D+01 0.523978201134580D+02 0.340182479088893D+02
 0.441168279093921D+02 -.381953008527148D+02 -.167379547662972D+02 0.143963317480152D+02
 0.192345374145327D+03 -.304645839662140D+02 -.171112677545966D+02 0.189145067592844D+03
 0.304545696727995D+03 -.137525150115972D+03 0.953156709869569D+02 -.237559647249749D+03
 0.283332459117738D+03 0.207891389938305D+03 -.113864268579521D+03 -.155220426233389D+03
0.291479319690D-05 0.000000000000D+00 0.000000000000D+00 0.132695990044D-06 0.000000000000D+00  7 -1 1 23 -11 11 23 21 0 0.28503735D-01 0.76464937D-01 0.24091098D+05 0.24091098D+05 0.24091098D+05 0.11762793D+01  1  2  2  1  7  1       -1 0.170739140704D-03 0.100000000000D+01
-.734350967248D-07 0.000000000000D+00 -.111935733588D-07 0.132695990044D-06 0.000000000000D+00  7 -1 1 23 -11 11 23 21 2 0.28503735D-01 0.76464937D-01 0.24091098D+05 0.24091098D+05 0.24091098D+05 0.11762793D+01  1  2  3  1  7  1       -1 -.595182160400D-05 0.100000000000D+01
0.181370132487D-06 0.000000000000D+00 0.000000000000D+00 0.132695990044D-06 0.000000000000D+00  7 -1 1 23 -11 11 23 21 2 0.28503735D-01 0.76464937D-01 0.24091098D+05 0.24091098D+05 0.24091098D+05 0.11762793D+01  1  2 15  1  7  1       -1 0.146998195822D-04 0.100000000000D+01
  </mgrwgt>
  </event>
  <event>
  8     66 0.58687835E-06 0.89988737E+02 0.75467711E-02 0.10133382E+00
       -1 -1    0    0    0  501 0.00000000E+00 0.00000000E+00 0.50608466E+03 0.50608477E+03 0.32000000E+00 0.0000E+00 0.9000E+01
        1 -1    0    0  501    0 0.00000000E+00 0.00000000E+00 -.21698901E+03 0.21698925E+03 0.32000000E+00 0.0000E+00 0.9000E+01
       25  2    1    2    0    0 -.13563419E+03 -.23684197E+02 0.40503833E+03 0.52232074E+03 0.29967538E+03 0.0000E+00 0.0000E+00
       23  2    1    2    0    0 0.13563419E+03 0.23684197E+02 -.11594268E+03 0.20075328E+03 0.88890940E+02 0.0000E+00 0.0000E+00
       23  1    3    3    0    0 0.59283224E+02 -.23523828E+02 0.10427117E+03 0.15249787E+03 0.91188000E+02 0.0000E+00 0.9000E+01
      -11  1    4    4    0    0 0.22947914E+02 0.15572407E+02 0.11869616E+02 0.30166114E+02 0.51099893E-03 0.0000E+00 0.9000E+01
       11  1    4    4    0    0 0.11268627E+03 0.81117898E+01 -.12781229E+03 0.17058716E+03 0.51099893E-03 0.0000E+00 0.9000E+01
       23  1    3    3    0    0 -.19491741E+03 -.16036943E+00 0.30076716E+03 0.36982287E+03 0.91188000E+02 0.0000E+00 0.9000E+01
#aMCatNLO 1  0  0  2  1 0.92432349D+02 0.00000000D+00  -5  7  0 0.00000000D+00 0.00000000D+00 0.00000000D+00 0.00000000D+00 0.00000000D+00
  <mgrwgt>
 0.1638592724D-03    9    2    0
 0.331383365010590D+03 0.000000000000000D+00 0.000000000000000D+00 0.331383365010590D+03
 0.331383365010590D+03 0.000000000000000D+00 0.000000000000000D+00 -.331383365010590D+03
 0.120891559399109D+03 0.592832238302191D+02 -.235238276906239D+02 0.472403079268793D+02
 0.277335563817087D+02 0.229479137757535D+02 0.155724073722669D+02 -.208642158160551D+00
 0.241860545942088D+03 0.112686274791828D+03 0.811178975149957D+01 -.213851644894241D+03
 0.272281068298274D+03 -.194917412397801D+03 -.160369433142657D+00 0.166819979125522D+03
 0.000000000000000D+00 -.000000000000000D+00 -.000000000000000D+00 -.000000000000000D+00
 0.355641056009373D+03 0.000000000000000D+00 0.000000000000000D+00 0.355641056009373D+03
 0.436057985315630D+03 0.000000000000000D+00 0.000000000000000D+00 -.436057985315630D+03
 0.130256215154923D+03 0.767078489456636D+02 -.231449661824896D+02 0.472403079268793D+02
 0.312488408396082D+02 0.270401107375489D+02 0.156613835139203D+02 -.208642158160551D+00
 0.259937949560225D+03 0.147501039458360D+03 0.886876295232963D+01 -.213851644894241D+03
 0.247738193759009D+03 -.158838491490585D+03 0.624090163330910D+00 0.166819979125522D+03
 0.122517842011237D+03 -.924105076509878D+02 -.200927044709124D+01 -.804169293062570D+02
0.541213842779D-05 0.000000000000D+00 0.000000000000D+00 0.263414441799D-06 0.000000000000D+00  7 -1 1 23 -11 11 23 21 0 0.77859205D-01 0.33382951D-01 0.54565041D+05 0.54565041D+05 0.54565041D+05 0.11439727D+01  1  2  2  2  7  2        1 0.156750118524D-03 0.100000000000D+01
-.255967613133D-06 0.000000000000D+00 -.207840366115D-07 0.263414441799D-06 0.000000000000D+00  7 -1 1 23 -11 11 23 21 2 0.77859205D-01 0.33382951D-01 0.54565041D+05 0.54565041D+05 0.54565041D+05 0.11439727D+01  1  2  3  2  7  2        1 -.970186696669D-05 0.100000000000D+01
0.343074134397D-06 0.000000000000D+00 0.000000000000D+00 0.263414441799D-06 0.000000000000D+00  7 -1 1 23 -11 11 23 21 2 0.77859205D-01 0.33382951D-01 0.54565041D+05 0.54565041D+05 0.54565041D+05 0.11439727D+01  1  2 15  2  7  2        1 0.130034404388D-04 0.100000000000D+01
0.562659821299D-05 0.000000000000D+00 0.000000000000D+00 0.263414441799D-06 0.000000000000D+00  7 -1 1 23 -11 11 23 21 2 0.77859205D-01 0.44859733D-01 0.82941019D+05 0.82941019D+05 0.82941019D+05 0.11284495D+01  1  2 12  2  7  2        1 0.140416273053D-03 0.100000000000D+01
-.691429889652D-05 0.000000000000D+00 0.000000000000D+00 0.263414441799D-06 0.000000000000D+00  7 -1 1 23 -11 11 23 21 2 0.77859205D-01 0.33382951D-01 0.54565041D+05 0.54565041D+05 0.54565041D+05 0.11439727D+01  1  2  4  2  7  2        1 -.262070686369D-03 0.100000000000D+01
-.854764997051D-05 0.000000000000D+00 -.266371491701D-05 0.263414441799D-06 0.000000000000D+00  7 -1 1 23 -11 11 23 21 2 0.77859205D-01 0.46582645D-01 0.54565041D+05 0.54565041D+05 0.54565041D+05 0.11439727D+01  1  2  5  2  7  2        1 -.210588211182D-03 0.100000000000D+01
0.906844016754D-05 0.000000000000D+00 0.252240777033D-05 0.263414441799D-06 0.000000000000D+00  7 -1 1 23 -11 11 23 21 2 0.77859205D-01 0.33382951D-01 0.54565041D+05 0.54565041D+05 0.54565041D+05 0.11439727D+01  1  2  6  2  7  2        1 0.343718484632D-03 0.100000000000D+01
0.215131629117D-06 0.000000000000D+00 0.000000000000D+00 0.263414441799D-06 0.000000000000D+00  7 -1 21 23 -11 11 23 -1 2 0.77859205D-01 0.44859733D-01 0.82941019D+05 0.82941019D+05 0.82941019D+05 0.11284495D+01  1  2 12  4  7  2        1 0.262539579940D-04 0.100000000000D+01
-.286312847969D-06 0.000000000000D+00 -.111056378739D-06 0.263414441799D-06 0.000000000000D+00  7 -1 21 23 -11 11 23 -1 2 0.77859205D-01 0.46582645D-01 0.54565041D+05 0.54565041D+05 0.54565041D+05 0.11439727D+01  1  2  5  4  7  2        1 -.339222377579D-04 0.100000000000D+01
  </mgrwgt>
  </event>
  <event>
  8     66 0.58687835E-06 0.26610602E+03 0.75467711E-02 0.10189444E+00
       -1 -1    0    0    0  501 0.00000000E+00 0.00000000E+00 0.29329491E+03 0.29329508E+03 0.32000000E+00 0.0000E+00 0.9000E+01
        1 -1    0    0  501    0 0.00000000E+00 0.00000000E+00 -.29487499E+03 0.29487516E+03 0.32000000E+00 0.0000E+00 0.9000E+01
       25  2    1    2    0    0 0.17720011E+03 -.16367476E+02 -.10407873E+03 0.36407051E+03 0.30007862E+03 0.0000E+00 0.0000E+00
       23  2    1    2    0    0 -.17720011E+03 0.16367476E+02 0.10249865E+03 0.22409974E+03 0.89704763E+02 0.0000E+00 0.0000E+00
       23  1    3    3    0    0 0.20687487E+03 -.72699671E+02 -.65444232E+02 0.24633444E+03 0.91188000E+02 0.0000E+00 0.9000E+01
      -11  1    4    4    0    0 0.24765476E+01 -.15876207E+01 -.10621726E+02 0.11021565E+02 0.51099893E-03 0.0000E+00 0.9000E+01
       11  1    4    4    0    0 -.17967666E+03 0.17955097E+02 0.11312037E+03 0.21307817E+03 0.51099893E-03 0.0000E+00 0.9000E+01
       23  1    3    3    0    0 -.29674761E+02 0.56332195E+02 -.38634494E+02 0.11773607E+03 0.91188000E+02 0.0000E+00 0.9000E+01
#aMCatNLO 1  0  0  1  1 0.19943141D+02 0.00000000D+00  -5  7  0 0.00000000D+00 0.00000000D+00 0.00000000D+00 0.00000000D+00 0.00000000D+00
  <mgrwgt>
 0.1239537180D-03    4    2    0
 0.294084061211903D+03 0.000000000000000D+00 0.000000000000000D+00 0.294084061211903D+03
 0.294084061211903D+03 0.000000000000000D+00 0.000000000000000D+00 -.294084061211903D+03
 0.246159512298781D+03 0.206874872845010D+03 -.726996712807406D+02 -.647827055023716D+02
 0.109930700992053D+02 0.247654763128856D+01 -.158762065376117D+01 -.105921557152333D+02
 0.213382830212354D+03 -.179676659717994D+03 0.179550965553555D+02 0.113693204237133D+03
 0.117632709813466D+03 -.296747607583043D+02 0.563321953791462D+02 -.383183430195284D+02
 0.000000000000000D+00 -.000000000000000D+00 -.000000000000000D+00 -.000000000000000D+00
 0.297159677515601D+03 0.000000000000000D+00 0.000000000000000D+00 0.297159677515601D+03
 0.328462055421251D+03 0.000000000000000D+00 0.000000000000000D+00 -.328462055421251D+03
 0.251538848448583D+03 0.214466182340132D+03 -.690217258193518D+02 -.647827055023716D+02
 0.110514865971116D+02 0.281278955162202D+01 -.142471339176457D+01 -.105921557152333D+02
 0.208288176503125D+03 -.173244982683153D+03 0.210712068094049D+02 0.113693204237133D+03
 0.117627621893185D+03 -.260863744368617D+02 0.580707477584346D+02 -.383183430195284D+02
 0.371155994948471D+02 -.179476147717390D+02 -.869551535672313D+01 -.313023779056502D+02
0.310226787599D-05 0.000000000000D+00 0.000000000000D+00 0.245089559359D-06 0.000000000000D+00  7 -1 1 23 -11 11 23 21 0 0.45122321D-01 0.45365409D-01 0.70812411D+05 0.70812411D+05 0.70812411D+05 0.11342339D+01  1  2  2  1  7  1       -1 0.165669677935D-03 0.100000000000D+01
-.170253933168D-06 0.000000000000D+00 -.119135254897D-07 0.245089559359D-06 0.000000000000D+00  7 -1 1 23 -11 11 23 21 2 0.45122321D-01 0.45365409D-01 0.70812411D+05 0.70812411D+05 0.70812411D+05 0.11342339D+01  1  2  3  1  7  1       -1 -.116967739309D-04 0.100000000000D+01
0.199523048964D-06 0.000000000000D+00 0.000000000000D+00 0.245089559359D-06 0.000000000000D+00  7 -1 1 23 -11 11 23 21 2 0.45122321D-01 0.45365409D-01 0.70812411D+05 0.70812411D+05 0.70812411D+05 0.11342339D+01  1  2 15  1  7  1       -1 0.137076186982D-04 0.100000000000D+01
-.636471264368D-06 0.000000000000D+00 0.000000000000D+00 0.245089559359D-06 0.000000000000D+00  7 -1 1 23 -11 11 23 21 2 0.45122321D-01 0.45365409D-01 0.70812411D+05 0.70812411D+05 0.70812411D+05 0.11342339D+01  1  2  4  1  7  1       -1 -.437268047457D-04 0.100000000000D+01
  </mgrwgt>
  </event>
  <event>
  8     66 0.58687835E-06 0.37781995E+03 0.75467711E-02 0.93494064E-01
       -1 -1    0    0    0  501 0.00000000E+00 0.00000000E+00 0.44825116E+02 0.44826258E+02 0.32000000E+00 0.0000E+00 0.9000E+01
        1 -1    0    0  501    0 0.00000000E+00 0.00000000E+00 -.43476008E+04 0.43476008E+04 0.32000000E+00 0.0000E+00 0.9000E+01
       25  2    1    2    0    0 -.61404678E+02 0.30456058E+03 -.12502648E+04 0.13227217E+04 0.29983791E+03 0.0000E+00 0.0000E+00
       23  2    1    2    0    0 0.61404678E+02 -.30456058E+03 -.30525108E+04 0.30697054E+04 0.93493759E+02 0.0000E+00 0.0000E+00
       23  1    3    3    0    0 -.10230411E+03 0.30973450E+02 -.40973583E+03 0.43315608E+03 0.91188000E+02 0.0000E+00 0.9000E+01
      -13  1    4    4    0    0 -.17313094E+02 -.12417362E+02 -.25141400E+03 0.25231517E+03 0.10565837E+00 0.0000E+00 0.9000E+01
       13  1    4    4    0    0 0.78717772E+02 -.29214322E+03 -.28010968E+04 0.28173902E+04 0.10565837E+00 0.0000E+00 0.9000E+01
       23  1    3    3    0    0 0.40899433E+02 0.27358713E+03 -.84052902E+03 0.88956560E+03 0.91188000E+02 0.0000E+00 0.9000E+01
#aMCatNLO 1  0  0  1  1 0.29655201D+03 0.00000000D+00  -5  7  0 0.00000000D+00 0.00000000D+00 0.00000000D+00 0.00000000D+00 0.00000000D+00
  <mgrwgt>
 0.9563665371D-04    4    2    0
 0.441456956924161D+03 0.000000000000000D+00 0.000000000000000D+00 0.441456956924161D+03
 0.441456956924161D+03 0.000000000000000D+00 0.000000000000000D+00 -.441456956924161D+03
 0.158118602018457D+03 -.102304110621679D+03 0.309734501217352D+02 0.725310643637245D+02
 0.300114829822206D+02 -.173132165317216D+02 -.124170050536377D+02 -.211366891829297D+02
 0.365483070219356D+03 0.787178944360000D+02 -.292143579170750D+03 -.205020723005829D+03
 0.329300758628289D+03 0.408994327174009D+02 0.273587134102652D+03 0.153626347825035D+03
 0.000000000000000D+00 -.000000000000000D+00 0.000000000000000D+00 -.000000000000000D+00
 0.601693051806694D+03 0.000000000000000D+00 0.000000000000000D+00 0.601693051806694D+03
 0.627353145607324D+03 0.000000000000000D+00 0.000000000000000D+00 -.627353145607324D+03
 0.154450647727007D+03 -.993864083186867D+02 -.200334166598817D+02 0.725310643637245D+02
 0.354908263137258D+02 -.167017800617561D+02 -.231060525746826D+02 -.211366891829297D+02
 0.485022788204773D+03 0.866570084206725D+02 -.430934068167833D+03 -.205020723005829D+03
 0.256421839858735D+03 0.463669064881320D+02 0.178005516344862D+03 0.153626347825035D+03
 0.297660095309777D+03 -.169357265283617D+02 0.296068021057535D+03 -.256600938006303D+02
0.204161315370D-03 0.000000000000D+00 0.000000000000D+00 0.489064246422D-06 0.000000000000D+00  7 -1 1 23 -13 13 23 21 0 0.68962605D-02 0.66886175D+00 0.14274791D+06 0.14274791D+06 0.14274791D+06 0.11092543D+01  1  2  2  1  7  1       -1 0.112536812483D-03 0.100000000000D+01
-.110081372041D-04 0.000000000000D+00 -.784033207929D-06 0.489064246422D-06 0.000000000000D+00  7 -1 1 23 -13 13 23 21 2 0.68962605D-02 0.66886175D+00 0.14274791D+06 0.14274791D+06 0.14274791D+06 0.11092543D+01  1  2  3  1  7  1       -1 -.746615842781D-05 0.100000000000D+01
0.132117341471D-04 0.000000000000D+00 0.000000000000D+00 0.489064246422D-06 0.000000000000D+00  7 -1 1 23 -13 13 23 21 2 0.68962605D-02 0.66886175D+00 0.14274791D+06 0.14274791D+06 0.14274791D+06 0.11092543D+01  1  2 15  1  7  1       -1 0.896072590846D-05 0.100000000000D+01
-.271212662239D-04 0.000000000000D+00 0.000000000000D+00 0.489064246422D-06 0.000000000000D+00  7 -1 1 23 -13 13 23 21 2 0.68962605D-02 0.66886175D+00 0.14274791D+06 0.14274791D+06 0.14274791D+06 0.11092543D+01  1  2  4  1  7  1       -1 -.183947262498D-04 0.100000000000D+01
  </mgrwgt>
  </event>
  <event>
  8     66 0.58687835E-06 0.23909733E+03 0.75467711E-02 0.93192449E-01
       -1 -1    0    0    0  501 0.00000000E+00 0.00000000E+00 0.88077035E+02 0.88077616E+02 0.32000000E+00 0.0000E+00 0.9000E+01
        1 -1    0    0  501    0 0.00000000E+00 0.00000000E+00 -.10374341E+04 0.10374342E+04 0.32000000E+00 0.0000E+00 0.9000E+01
       25  2    1    2    0    0 0.68504086E+02 0.15120357E+03 -.32258643E+03 0.47136701E+03 0.30094772E+03 0.0000E+00 0.0000E+00
       23  2    1    2    0    0 -.68504086E+02 -.15120357E+03 -.62677067E+03 0.65414479E+03 0.86652142E+02 0.0000E+00 0.0000E+00
       23  1    3    3    0    0 -.26619877E+02 0.12802137E+03 -.29416831E+03 0.33458681E+03 0.91188000E+02 0.0000E+00 0.9000E+01
      -11  1    4    4    0    0 -.45517698E+02 -.16629263E+02 -.12298170E+03 0.13218506E+03 0.51099893E-03 0.0000E+00 0.9000E+01
       11  1    4    4    0    0 -.22986387E+02 -.13457431E+03 -.50378898E+03 0.52195972E+03 0.51099893E-03 0.0000E+00 0.9000E+01
       23  1    3    3    0    0 0.95123963E+02 0.23182203E+02 -.28418117E+02 0.13678020E+03 0.91188000E+02 0.0000E+00 0.9000E+01
#aMCatNLO 1  0  0  2  1 0.49823020D+03 0.00000000D+00  -5  7  0 0.00000000D+00 0.00000000D+00 0.00000000D+00 0.00000000D+00 0.00000000D+00
  <mgrwgt>
 0.3466759983D-03    3    2    0
 0.302282115585393D+03 0.000000000000000D+00 0.000000000000000D+00 0.302282115585393D+03
 0.302282115585393D+03 0.000000000000000D+00 0.000000000000000D+00 -.302282115585393D+03
 0.160959956261581D+03 -.266198772023858D+02 0.128021370829248D+03 -.222433568613203D+02
 0.529675755664980D+02 -.455176984073239D+02 -.166292626669325D+02 -.213815531766694D+02
 0.180619659520719D+03 -.229863873999024D+02 -.134574310902265D+03 -.118257525108817D+03
 0.210017039821987D+03 0.951239630096121D+02 0.231822027399485D+02 0.161882435146807D+03
 0.000000000000000D+00 -.000000000000000D+00 -.000000000000000D+00 0.000000000000000D+00
 0.665065190740659D+03 0.000000000000000D+00 0.000000000000000D+00 0.665065190740659D+03
 0.618725384678343D+03 0.000000000000000D+00 0.000000000000000D+00 -.618725384678343D+03
 0.306341493831007D+03 0.114750938260908D+02 0.291381905402231D+03 -.222433568613203D+02
 0.467714021258704D+02 -.373868581010337D+02 0.182377652662354D+02 -.213815531766694D+02
 0.121742731972645D+03 0.166255503705859D+01 -.288736290419046D+02 -.118257525108817D+03
 0.308554381473056D+03 0.137398523181673D+03 0.204465835778633D+03 0.161882435146807D+03
 0.500380566016425D+03 -.113149313943789D+03 -.485211877405195D+03 0.463398060623153D+02
0.546853321374D-05 0.000000000000D+00 0.000000000000D+00 0.100361872750D-07 0.000000000000D+00  7 -1 1 23 -11 11 23 21 0 0.13550362D-01 0.15960530D+00 0.57167535D+05 0.57167535D+05 0.57167535D+05 0.11422128D+01  1  2  2  2  7  2        1 0.340628399594D-03 0.100000000000D+01
-.283496529232D-06 0.000000000000D+00 -.210006074386D-07 0.100361872750D-07 0.000000000000D+00  7 -1 1 23 -11 11 23 21 2 0.13550362D-01 0.15960530D+00 0.57167535D+05 0.57167535D+05 0.57167535D+05 0.11422128D+01  1  2  3  2  7  2        1 -.230383740002D-04 0.100000000000D+01
0.357914682901D-06 0.000000000000D+00 0.000000000000D+00 0.100361872750D-07 0.000000000000D+00  7 -1 1 23 -11 11 23 21 2 0.13550362D-01 0.15960530D+00 0.57167535D+05 0.57167535D+05 0.57167535D+05 0.11422128D+01  1  2 15  2  7  2        1 0.290859727530D-04 0.100000000000D+01
  </mgrwgt>
  </event>
  <event>
  9     66 -.58687835E-06 0.33717890E+03 0.75467711E-02 0.98663314E-01
       -1 -1    0    0    0  501 0.00000000E+00 0.00000000E+00 0.41564223E+03 0.41564235E+03 0.32000000E+00 0.0000E+00 0.9000E+01
        1 -1    0    0  502    0 0.00000000E+00 0.00000000E+00 -.39912851E+03 0.39912864E+03 0.32000000E+00 0.0000E+00 0.9000E+01
       25  2    1    2    0    0 -.24362880E+03 -.12515872E+03 0.18533651E+03 0.44668490E+03 0.30026335E+03 0.0000E+00 0.0000E+00
       23  2    1    2    0    0 0.25764338E+03 0.91787594E+02 -.16277476E+03 0.33138212E+03 0.92268179E+02 0.0000E+00 0.0000E+00
       23  1    3    3    0    0 -.21938909E+02 -.11487485E+03 0.83438377E+01 0.14853423E+03 0.91188000E+02 0.0000E+00 0.9000E+01
      -13  1    4    4    0    0 0.14332863E+03 0.58071274E+01 -.10174668E+03 0.17586705E+03 0.10565837E+00 0.0000E+00 0.9000E+01
       13  1    4    4    0    0 0.11431474E+03 0.85980466E+02 -.61028075E+02 0.15551507E+03 0.10565837E+00 0.0000E+00 0.9000E+01
       23  1    3    3    0    0 -.22168989E+03 -.10283874E+02 0.17699267E+03 0.29815067E+03 0.91188000E+02 0.0000E+00 0.9000E+01
       21  1    1    2  502  501 -.14014580E+02 0.33371127E+02 -.60480341E+01 0.36703975E+02 0.75000000E+00 0.0000E+00 0.9000E+01
#aMCatNLO 2  0  0  2  1 0.36194483D+02 0.00000000D+00  -5  7  0 0.00000000D+00 0.00000000D+00 0.00000000D+00 0.00000000D+00 0.00000000D+00
  <mgrwgt>
 -.2484775002D-04    3    2    0
 0.388448583909176D+03 0.000000000000000D+00 0.000000000000000D+00 0.388448583909176D+03
 0.388448583909176D+03 0.000000000000000D+00 0.000000000000000D+00 -.388448583909176D+03
 0.143976961946135D+03 -.245741893678383D+02 -.108599789478321D+03 0.403846126845404D+01
 0.176750611782606D+03 0.140122655463964D+03 0.134410990256118D+02 -.106891332895780D+03
 0.159152624431728D+03 0.111461521237935D+03 0.927744899193697D+02 -.655650910701175D+02
 0.297016969657882D+03 -.227009987334061D+03 0.238420053333924D+01 0.168417962697444D+03
 0.000000000000000D+00 -.000000000000000D+00 0.000000000000000D+00 -.000000000000000D+00
 0.403755895917413D+03 0.000000000000000D+00 0.000000000000000D+00 0.403755895917413D+03
 0.410871167405029D+03 0.000000000000000D+00 0.000000000000000D+00 -.410871167405029D+03
 0.148354664837726D+03 -.219389085657562D+02 -.114874846492348D+03 0.403846126845404D+01
 0.178892667995004D+03 0.143328671583049D+03 0.580702302154620D+01 -.106891332895780D+03
 0.157350854117770D+03 0.114314703940026D+03 0.859805709893988D+02 -.655650910701175D+02
 0.293141647400932D+03 -.221689886697573D+03 -.102838744543240D+02 0.168417962697444D+03
 0.368872289710103D+02 -.140145802597458D+02 0.333711269357270D+02 -.711527148761634D+01
-.608386613741D-05 0.000000000000D+00 0.000000000000D+00 0.246710138860D-06 0.000000000000D+00  7 -1 1 23 -13 13 23 21 2 0.61520100D-01 0.62492105D-01 0.12634924D+06 0.12634924D+06 0.12634924D+06 0.11134809D+01  1  2 13  2  7  2        1 -.148964440957D-03 0.100000000000D+01
-.597190500026D-07 0.000000000000D+00 0.000000000000D+00 0.246710138860D-06 0.000000000000D+00  7 -1 1 23 -13 13 23 21 2 0.61520100D-01 0.58052822D-01 0.11368961D+06 0.11368961D+06 0.11368961D+06 0.11171780D+01  1  2  8  2  7  2        1 -.162811698808D-05 0.100000000000D+01
0.539559465938D-05 0.000000000000D+00 0.000000000000D+00 0.246710138860D-06 0.124993499125D-08  7 -1 1 23 -13 13 23 21 2 0.63944378D-01 0.61403830D-01 0.12634924D+06 0.12634924D+06 0.12634924D+06 0.11134809D+01  1  2  1  2  7  2        1 0.125744807924D-03 0.100000000000D+01
  </mgrwgt>
  </event>
  <event>
  8     66 0.58687835E-06 0.52610277E+03 0.75467711E-02 0.87855344E-01
       -1 -1    0    0    0  501 0.00000000E+00 0.00000000E+00 0.18045624E+03 0.18045652E+03 0.32000000E+00 0.0000E+00 0.9000E+01
        1 -1    0    0  501    0 0.00000000E+00 0.00000000E+00 -.20710204E+04 0.20710205E+04 0.32000000E+00 0.0000E+00 0.9000E+01
       25  2    1    2    0    0 0.41191056E+03 0.25194197E+03 -.15560473E+04 0.16565026E+04 0.29928709E+03 0.0000E+00 0.0000E+00
       23  2    1    2    0    0 -.41191056E+03 -.25194197E+03 -.33451692E+03 0.59497435E+03 0.94593010E+02 0.0000E+00 0.0000E+00
       23  1    3    3    0    0 0.99834658E+02 0.18443700E+03 -.50784685E+03 0.55696287E+03 0.91188000E+02 0.0000E+00 0.9000E+01
      -13  1    4    4    0    0 -.20246262E+03 -.17724869E+03 -.16882628E+03 0.31766419E+03 0.10565837E+00 0.0000E+00 0.9000E+01
       13  1    4    4    0    0 -.20944794E+03 -.74693276E+02 -.16569064E+03 0.27731016E+03 0.10565837E+00 0.0000E+00 0.9000E+01
       23  1    3    3    0    0 0.31207590E+03 0.67504971E+02 -.10482004E+04 0.10995398E+04 0.91188000E+02 0.0000E+00 0.9000E+01
#aMCatNLO 1  0  0  2  1 0.67284764D+03 0.00000000D+00  -5  7  0 0.00000000D+00 0.00000000D+00 0.00000000D+00 0.00000000D+00 0.00000000D+00
  <mgrwgt>
 0.1038922022D-03    5    2    0
 0.611333706858656D+03 0.000000000000000D+00 0.000000000000000D+00 0.611333706858656D+03
 0.611333706858656D+03 0.000000000000000D+00 0.000000000000000D+00 -.611333706858656D+03
 0.240353188689372D+03 0.998346580033368D+02 0.184436999795007D+03 -.739624102982183D+02
 0.323912123727559D+03 -.202462615546872D+03 -.177248822253577D+03 0.180307537871651D+03
 0.254450668688162D+03 -.209447947299761D+03 -.746931482732295D+02 0.123683603475976D+03
 0.403951432612220D+03 0.312075904843297D+03 0.675049707317993D+02 -.230028731049408D+03
 0.000000000000000D+00 -.000000000000000D+00 0.000000000000000D+00 -.000000000000000D+00
 0.837687825184848D+03 0.000000000000000D+00 0.000000000000000D+00 0.837687825184848D+03
 0.150681121086582D+04 0.000000000000000D+00 0.000000000000000D+00 -.150681121086582D+04
 0.304516299677655D+03 0.236117784286162D+03 0.152292085257385D+03 -.739624102982183D+02
 0.283671061559979D+03 -.504934968208006D+02 -.213093570367658D+03 0.180307537871651D+03
 0.187688523199500D+03 -.988597925047479D+02 -.100777425041153D+03 0.123683603475976D+03
 0.619702686660668D+03 0.568112968002959D+03 0.711385894697700D+01 -.230028731049408D+03
 0.948920464952869D+03 -.654877462963573D+03 0.154465051204449D+03 -.669123385680974D+03
0.272079228772D-04 0.000000000000D+00 0.000000000000D+00 0.645162851698D-07 0.000000000000D+00  7 -1 1 23 -13 13 23 21 0 0.27762522D-01 0.31861855D+00 0.27678413D+06 0.27678413D+06 0.27678413D+06 0.10871494D+01  1  2  2  2  7  2        1 0.102658082306D-03 0.100000000000D+01
-.147011943359D-05 0.000000000000D+00 -.104485587859D-06 0.645162851698D-07 0.000000000000D+00  7 -1 1 23 -13 13 23 21 2 0.27762522D-01 0.31861855D+00 0.27678413D+06 0.27678413D+06 0.27678413D+06 0.10871494D+01  1  2  3  2  7  2        1 -.655584708183D-05 0.100000000000D+01
0.175228008120D-05 0.000000000000D+00 0.000000000000D+00 0.645162851698D-07 0.000000000000D+00  7 -1 1 23 -13 13 23 21 2 0.27762522D-01 0.31861855D+00 0.27678413D+06 0.27678413D+06 0.27678413D+06 0.10871494D+01  1  2 15  2  7  2        1 0.781411359809D-05 0.100000000000D+01
-.532064799706D-05 0.000000000000D+00 -.612725196599D-05 0.645162851698D-07 0.000000000000D+00  7 -1 1 23 -13 13 23 21 2 0.27762522D-01 0.80813404D+00 0.27678413D+06 0.27678413D+06 0.27678413D+06 0.10871494D+01  1  2  5  2  7  2        1 -.241234130461D-07 0.100000000000D+01
-.170847028456D-06 0.000000000000D+00 -.629217609937D-06 0.645162851698D-07 0.000000000000D+00  7 -1 21 23 -13 13 23 -1 2 0.27762522D-01 0.80813404D+00 0.27678413D+06 0.27678413D+06 0.27678413D+06 0.10871494D+01  1  2  5  4  7  2        1 -.232330221220D-10 0.100000000000D+01
  </mgrwgt>
  </event>
  <event>
  8     66 0.58687835E-06 0.31576847E+03 0.75467711E-02 0.92242271E-01
       -1 -1    0    0    0  501 0.00000000E+00 0.00000000E+00 0.35802926E+03 0.35802941E+03 0.32000000E+00 0.0000E+00 0.9000E+01
        1 -1    0    0  501    0 0.00000000E+00 0.00000000E+00 -.29750775E+03 0.29750793E+03 0.32000000E+00 0.0000E+00 0.9000E+01
       25  2    1    2    0    0 0.10751524E+03 0.22250959E+03 0.19579459E+02 0.38899254E+03 0.29976957E+03 0.0000E+00 0.0000E+00
       23  2    1    2    0    0 -.10751524E+03 -.22250959E+03 0.40942050E+02 0.26654479E+03 0.91103413E+02 0.0000E+00 0.0000E+00
       23  1    3    3    0    0 0.73948918E+01 0.21604751E+03 -.44877464E+02 0.23887329E+03 0.91188000E+02 0.0000E+00 0.9000E+01
      -11  1    4    4    0    0 0.14549572E+02 -.17675397E+02 -.56692769E+01 0.23584962E+02 0.51099893E-03 0.0000E+00 0.9000E+01
       11  1    4    4    0    0 -.12206481E+03 -.20483419E+03 0.46611327E+02 0.24295983E+03 0.51099893E-03 0.0000E+00 0.9000E+01
       23  1    3    3    0    0 0.10012035E+03 0.64620806E+01 0.64456924E+02 0.15011925E+03 0.91188000E+02 0.0000E+00 0.9000E+01
#aMCatNLO 1  0  0  1  2 0.46465887D+03 0.00000000D+00  -5  7  0 0.00000000D+00 0.00000000D+00 0.00000000D+00 0.00000000D+00 0.00000000D+00
  <mgrwgt>
 0.3409156316D-03    3    2    0
 0.326368786192194D+03 0.000000000000000D+00 0.000000000000000D+00 0.326368786192194D+03
 0.326368786192194D+03 0.000000000000000D+00 0.000000000000000D+00 -.326368786192194D+03
 0.244058894868427D+03 0.739489179401965D+01 0.216047508674116D+03 -.672181700990173D+02
 0.242117765075775D+02 0.145495723289147D+02 -.176753974922005D+02 -.788038007911240D+01
 0.239680168461491D+03 -.122064809476201D+03 -.204834191746725D+03 0.242841374714785D+02
 0.144786732546892D+03 0.100120345353267D+03 0.646208056480897D+01 0.508144127066512D+02
 0.000000000000000D+00 0.000000000000000D+00 0.000000000000000D+00 -.000000000000000D+00
 0.472036938784026D+03 0.000000000000000D+00 0.000000000000000D+00 0.472036938784026D+03
 0.115637963376701D+04 0.000000000000000D+00 0.000000000000000D+00 -.115637963376701D+04
 0.181140572702679D+03 -.828873405756516D+02 0.114490445522279D+03 -.672181700990173D+02
 0.322422697524222D+02 0.256273388866876D+01 -.311592035137703D+02 -.788038007911240D+01
 0.460916070694763D+03 -.270821798336365D+03 -.372168588730730D+03 0.242841374714785D+02
 0.126934012125702D+03 0.424261164533001D+02 -.584372500576222D+02 0.508144127066512D+02
 0.827183647275475D+03 0.308720288570048D+03 0.347274596779844D+03 -.684342694982989D+03
0.914524765877D-05 0.000000000000D+00 0.000000000000D+00 0.530349480498D-06 0.000000000000D+00  7 -1 1 23 -11 11 23 21 0 0.55081449D-01 0.45770448D-01 0.99709724D+05 0.99709724D+05 0.99709724D+05 0.11218257D+01  1  2  2  1  7  1       -1 0.336432759766D-03 0.100000000000D+01
-.507395832947D-06 0.000000000000D+00 -.351201590087D-07 0.530349480498D-06 0.000000000000D+00  7 -1 1 23 -11 11 23 21 2 0.55081449D-01 0.45770448D-01 0.99709724D+05 0.99709724D+05 0.99709724D+05 0.11218257D+01  1  2  3  1  7  1       -1 -.234909425583D-04 0.100000000000D+01
0.604224237122D-06 0.000000000000D+00 0.000000000000D+00 0.530349480498D-06 0.000000000000D+00  7 -1 1 23 -11 11 23 21 2 0.55081449D-01 0.45770448D-01 0.99709724D+05 0.99709724D+05 0.99709724D+05 0.11218257D+01  1  2 15  1  7  1       -1 0.279738143771D-04 0.100000000000D+01
  </mgrwgt>
  </event>
  <event>
  8     66 0.58687835E-06 0.38345395E+03 0.75467711E-02 0.91027813E-01
       -1 -1    0    0    0  501 0.00000000E+00 0.00000000E+00 0.46274717E+03 0.46274728E+03 0.32000000E+00 0.0000E+00 0.9000E+01
        1 -1    0    0  501    0 0.00000000E+00 0.00000000E+00 -.11736588E+04 0.11736588E+04 0.32000000E+00 0.0000E+00 0.9000E+01
       25  2    1    2    0    0 -.63495211E+03 -.39191421E+02 -.36030505E+02 0.70447190E+03 0.30047015E+03 0.0000E+00 0.0000E+00
       23  2    1    2    0    0 0.63495211E+03 0.39191421E+02 -.67488113E+03 0.93193423E+03 0.91305627E+02 0.0000E+00 0.0000E+00
       23  1    3    3    0    0 -.59195083E+03 -.21553247E+02 -.48917844E+02 0.60131401E+03 0.91188000E+02 0.0000E+00 0.9000E+01
      -11  1    4    4    0    0 0.36795892E+03 0.24588100E+02 -.32482056E+03 0.49143335E+03 0.51099893E-03 0.0000E+00 0.9000E+01
       11  1    4    4    0    0 0.26699319E+03 0.14603320E+02 -.35006058E+03 0.44050088E+03 0.51099893E-03 0.0000E+00 0.9000E+01
       23  1    3    3    0    0 -.43001272E+02 -.17638174E+02 0.12887339E+02 0.10315789E+03 0.91188000E+02 0.0000E+00 0.9000E+01
#aMCatNLO 1  0  0  2  1 0.51825992D+02 0.00000000D+00  -5  7  0 0.00000000D+00 0.00000000D+00 0.00000000D+00 0.00000000D+00 0.00000000D+00
  <mgrwgt>
 0.2470306478D-03    9    2    0
 0.736958215949285D+03 0.000000000000000D+00 0.000000000000000D+00 0.736958215949285D+03
 0.736958215949285D+03 0.000000000000000D+00 0.000000000000000D+00 -.736958215949285D+03
 0.644010504967693D+03 -.591950834404400D+03 -.215532467788046D+02 0.235720059320306D+03
 0.388940521395946D+03 0.367958919246068D+03 0.245881003941361D+02 -.123597687073923D+03
 0.320219105683923D+03 0.266993186817038D+03 0.146033201375663D+02 -.176186426489823D+03
 0.120746299851008D+03 -.430012716587056D+02 -.176381737528977D+02 0.640640542434400D+02
 0.000000000000000D+00 -.000000000000000D+00 -.000000000000000D+00 -.000000000000000D+00
 0.760074457681601D+03 0.000000000000000D+00 0.000000000000000D+00 0.760074457681601D+03
 0.767045582060689D+03 0.000000000000000D+00 0.000000000000000D+00 -.767045582060689D+03
 0.632336859153959D+03 -.579622980937404D+03 -.281170837092952D+01 0.235720059320306D+03
 0.397013402386941D+03 0.375550210673911D+03 0.361288345731376D+02 -.123597687073923D+03
 0.326005201268266D+03 0.273234872103394D+03 0.240923025331868D+02 -.176186426489823D+03
 0.119471842904192D+03 -.406810772138038D+02 -.141108757184687D+02 0.640640542434400D+02
 0.522927340289319D+02 -.284810246260968D+02 -.432985530169261D+02 -.697112437908836D+01
0.343139417618D-04 0.000000000000D+00 0.000000000000D+00 0.335800080549D-05 0.000000000000D+00  7 -1 1 23 -11 11 23 21 0 0.71191884D-01 0.18056290D+00 0.44745560D+06 0.44745560D+06 0.44745560D+06 0.10719351D+01  1  2  2  2  7  2        1 0.940086467820D-04 0.100000000000D+01
-.188458244221D-05 0.000000000000D+00 -.131774571434D-06 0.335800080549D-05 0.000000000000D+00  7 -1 1 23 -11 11 23 21 2 0.71191884D-01 0.18056290D+00 0.44745560D+06 0.44745560D+06 0.44745560D+06 0.10719351D+01  1  2  3  2  7  2        1 -.593265810768D-05 0.100000000000D+01
0.224909565952D-05 0.000000000000D+00 0.000000000000D+00 0.335800080549D-05 0.000000000000D+00  7 -1 1 23 -11 11 23 21 2 0.71191884D-01 0.18056290D+00 0.44745560D+06 0.44745560D+06 0.44745560D+06 0.10719351D+01  1  2 15  2  7  2        1 0.708014428051D-05 0.100000000000D+01
0.780528595631D-04 0.000000000000D+00 0.000000000000D+00 0.335800080549D-05 0.000000000000D+00  7 -1 1 23 -11 11 23 21 2 0.71191884D-01 0.19066485D+00 0.48372506D+06 0.48372506D+06 0.48372506D+06 0.10695276D+01  1  2 12  2  7  2        1 0.218735906490D-03 0.100000000000D+01
-.656326995794D-04 0.000000000000D+00 0.000000000000D+00 0.335800080549D-05 0.000000000000D+00  7 -1 1 23 -11 11 23 21 2 0.71191884D-01 0.18056290D+00 0.44745560D+06 0.44745560D+06 0.44745560D+06 0.10719351D+01  1  2  4  2  7  2        1 -.206611479852D-03 0.100000000000D+01
-.386532238610D-03 0.000000000000D+00 -.657804102584D-04 0.335800080549D-05 0.000000000000D+00  7 -1 1 23 -11 11 23 21 2 0.71191884D-01 0.19178365D+00 0.44745560D+06 0.44745560D+06 0.44745560D+06 0.10719351D+01  1  2  5  2  7  2        1 -.107940375431D-02 0.100000000000D+01
0.389908599364D-03 0.000000000000D+00 0.656610441499D-04 0.335800080549D-05 0.000000000000D+00  7 -1 1 23 -11 11 23 21 2 0.71191884D-01 0.18056290D+00 0.44745560D+06 0.44745560D+06 0.44745560D+06 0.10719351D+01  1  2  6  2  7  2        1 0.122743073556D-02 0.100000000000D+01
0.891853066048D-06 0.000000000000D+00 0.000000000000D+00 0.335800080549D-05 0.000000000000D+00  7 -1 21 23 -11 11 23 -1 2 0.71191884D-01 0.19066485D+00 0.48372506D+06 0.48372506D+06 0.48372506D+06 0.10695276D+01  1  2 12  4  7  2        1 0.246623752927D-05 0.100000000000D+01
-.391730949301D-05 0.000000000000D+00 -.680785075340D-06 0.335800080549D-05 0.000000000000D+00  7 -1 21 23 -11 11 23 -1 2 0.71191884D-01 0.19178365D+00 0.44745560D+06 0.44745560D+06 0.44745560D+06 0.10719351D+01  1  2  5  4  7  2        1 -.107431306072D-04 0.100000000000D+01
  </mgrwgt>
  </event>
  <event>
  8     66 0.58687835E-06 0.17643008E+03 0.75467711E-02 0.96585913E-01
       -1 -1    0    0    0  501 0.00000000E+00 0.00000000E+00 0.14684060E+03 0.14684095E+03 0.32000000E+00 0.0000E+00 0.9000E+01
        1 -1    0    0  501    0 0.00000000E+00 0.00000000E+00 -.81409145E+03 0.81409151E+03 0.32000000E+00 0.0000E+00 0.9000E+01
       25  2    1    2    0    0 0.20540244E+03 -.17231029E+03 -.36942065E+03 0.54636212E+03 0.30026479E+03 0.0000E+00 0.0000E+00
       23  2    1    2    0    0 -.20540244E+03 0.17231029E+03 -.29783019E+03 0.41457035E+03 0.10622969E+03 0.0000E+00 0.0000E+00
       23  1    3    3    0    0 0.18487752E+02 0.29020090E+01 -.71244377E+01 0.93360739E+02 0.91188000E+02 0.0000E+00 0.9000E+01
      -13  1    4    4    0    0 -.16692941E+03 0.84406807E+02 -.15728878E+03 0.24439662E+03 0.10565837E+00 0.0000E+00 0.9000E+01
       13  1    4    4    0    0 -.38473037E+02 0.87903485E+02 -.14054142E+03 0.17017373E+03 0.10565837E+00 0.0000E+00 0.9000E+01
       23  1    3    3    0    0 0.18691469E+03 -.17521230E+03 -.36229621E+03 0.45300138E+03 0.91188000E+02 0.0000E+00 0.9000E+01
#aMCatNLO 1  0  0  1  2 0.17454856D+03 0.00000000D+00  -5  7  0 0.00000000D+00 0.00000000D+00 0.00000000D+00 0.00000000D+00 0.00000000D+00
  <mgrwgt>
 0.5763436647D-04    7    2    0
 0.345748287708272D+03 0.000000000000000D+00 0.000000000000000D+00 0.345748287708272D+03
 0.345748287708272D+03 0.000000000000000D+00 0.000000000000000D+00 -.345748287708272D+03
 0.122863341765721D+03 0.184877695501575D+02 0.290199447524927D+01 0.801868456229967D+02
 0.187849991253048D+03 -.166929470623237D+03 0.844069186226027D+02 0.172523372287133D+02
 0.100866728864911D+03 -.384730304999975D+02 0.879034214240754D+02 -.310951992756942D+02
 0.279916513532864D+03 0.186914731573077D+03 -.175212334521927D+03 -.663439835760159D+02
 0.000000000000000D+00 0.000000000000000D+00 0.000000000000000D+00 0.000000000000000D+00
 0.114069314055603D+04 0.000000000000000D+00 0.000000000000000D+00 0.114069314055603D+04
 0.366307222406961D+03 0.000000000000000D+00 0.000000000000000D+00 -.366307222406961D+03
 0.122943487335374D+03 -.276819468056918D+01 -.190330402570725D+02 0.801868456229967D+02
 0.207764466995267D+03 -.201139939081076D+03 0.491035183305122D+02 0.172523372287133D+02
 0.948542599352133D+02 -.553978586357808D+02 0.704378908573498D+02 -.310951992756942D+02
 0.287624096230280D+03 0.137837075981789D+03 -.225857888319937D+03 -.663439835760159D+02
 0.793814052466857D+03 0.121468916415637D+03 0.125349519389147D+03 0.774385918149067D+03
0.267153328379D-05 0.000000000000D+00 0.000000000000D+00 0.314369489828D-08 0.000000000000D+00  7 -1 1 23 -13 13 23 21 0 0.22590894D-01 0.12524487D+00 0.10498875D+06 0.10498875D+06 0.10498875D+06 0.11199912D+01  1  2  2  1  7  1       -1 0.110018527155D-03 0.100000000000D+01
-.147658277239D-06 0.000000000000D+00 -.102593912406D-07 0.314369489828D-08 0.000000000000D+00  7 -1 1 23 -13 13 23 21 2 0.22590894D-01 0.12524487D+00 0.10498875D+06 0.10498875D+06 0.10498875D+06 0.11199912D+01  1  2  3  1  7  1       -1 -.762767571112D-05 0.100000000000D+01
0.173576911102D-06 0.000000000000D+00 0.000000000000D+00 0.314369489828D-08 0.000000000000D+00  7 -1 1 23 -13 13 23 21 2 0.22590894D-01 0.12524487D+00 0.10498875D+06 0.10498875D+06 0.10498875D+06 0.11199912D+01  1  2 15  1  7  1       -1 0.896657074419D-05 0.100000000000D+01
0.623217896760D-05 0.000000000000D+00 0.000000000000D+00 0.314369489828D-08 0.000000000000D+00  7 -1 1 23 -13 13 23 21 2 0.73297476D-01 0.12524487D+00 0.17819811D+06 0.17819811D+06 0.17819811D+06 0.11016961D+01  1  2 12  1  7  1       -1 0.386635696266D-04 0.100000000000D+01
-.106297000822D-04 0.000000000000D+00 -.911832950644D-06 0.314369489828D-08 0.000000000000D+00  7 -1 1 23 -13 13 23 21 2 0.76612378D-01 0.12524487D+00 0.10498875D+06 0.10498875D+06 0.10498875D+06 0.11199912D+01  1  2  5  1  7  1       -1 -.637856627838D-04 0.100000000000D+01
0.846877072283D-06 0.000000000000D+00 0.000000000000D+00 0.314369489828D-08 0.000000000000D+00  7 21 1 23 -13 13 23 1 2 0.73297476D-01 0.12524487D+00 0.17819811D+06 0.17819811D+06 0.17819811D+06 0.11016961D+01  1  2 12  3  7  1       -1 0.416681422642D-04 0.100000000000D+01
-.147758964767D-05 0.000000000000D+00 -.129578308607D-06 0.314369489828D-08 0.000000000000D+00  7 21 1 23 -13 13 23 1 2 0.76612378D-01 0.12524487D+00 0.10498875D+06 0.10498875D+06 0.10498875D+06 0.11199912D+01  1  2  5  3  7  1       -1 -.702691048212D-04 0.100000000000D+01
  </mgrwgt>
  </event>
  <event>
  9     66 0.58687835E-06 0.19810394E+03 0.75467711E-02 0.10596914E+00
       -1 -1    0    0    0  502 0.00000000E+00 0.00000000E+00 0.42979864E+03 0.42979876E+03 0.32000000E+00 0.0000E+00 0.9000E+01
        1 -1    0    0  501    0 0.00000000E+00 0.00000000E+00 -.15408572E+03 0.15408605E+03 0.32000000E+00 0.0000E+00 0.9000E+01
       25  2    1    2    0    0 0.66607438E+02 -.66221036E+02 0.30657435E+03 0.43920140E+03 0.30014706E+03 0.0000E+00 0.0000E+00
       23  2    1    2    0    0 -.53224849E+02 0.63701714E+02 -.15542467E+02 0.12417308E+03 0.91030726E+02 0.0000E+00 0.0000E+00
       23  1    3    3    0    0 0.37443666E+01 -.13115142E+03 0.79784408E+02 0.17859317E+03 0.91188000E+02 0.0000E+00 0.9000E+01
      -13  1    4    4    0    0 -.51943706E+02 0.79282579E+01 0.21961802E+02 0.56950310E+02 0.10565837E+00 0.0000E+00 0.9000E+01
       13  1    4    4    0    0 -.12811427E+01 0.55773456E+02 -.37504269E+02 0.67222772E+02 0.10565837E+00 0.0000E+00 0.9000E+01
       23  1    3    3    0    0 0.62863071E+02 0.64930386E+02 0.22678994E+03 0.26060823E+03 0.91188000E+02 0.0000E+00 0.9000E+01
       21  1    1    2  501  502 -.13382589E+02 0.25193222E+01 -.15318962E+02 0.20510334E+02 0.75000000E+00 0.0000E+00 0.9000E+01
#aMCatNLO 2  0  0  1  1 0.13617660D+02 0.00000000D+00  -5  7  0 0.00000000D+00 0.00000000D+00 0.00000000D+00 0.00000000D+00 0.00000000D+00
  <mgrwgt>
 0.1597548947D-04    1    2    0
 0.241094278490308D+03 0.000000000000000D+00 0.000000000000000D+00 0.241094278490308D+03
 0.241094278490308D+03 0.000000000000000D+00 0.000000000000000D+00 -.241094278490308D+03
 0.159718646187683D+03 -.697616905663278D+00 -.130315203360915D+03 -.145689978956181D+02
 0.547666455530766D+02 -.534425812973956D+02 0.821035414411838D+01 -.871011218273017D+01
 0.101504313523437D+03 -.409256071178228D+01 0.563027915454103D+02 -.843585933671175D+02
 0.166198951716419D+03 0.582327589148412D+02 0.658020576713863D+02 0.107637703445466D+03
 0.000000000000000D+00 -.000000000000000D+00 0.000000000000000D+00 -.000000000000000D+00
 0.242651663463527D+03 0.000000000000000D+00 0.000000000000000D+00 0.242651663463527D+03
 0.272916590452937D+03 0.000000000000000D+00 0.000000000000000D+00 -.272916590452937D+03
 0.160443832093844D+03 0.374436834433061D+01 -.131151423625430D+03 -.145689978956181D+02
 0.532623468493421D+02 -.519437698395417D+02 0.792819730585641D+01 -.871011218273017D+01
 0.101137030863669D+03 -.128108240352484D+01 0.557735202844100D+02 -.843585933671175D+02
 0.167537599470473D+03 0.628630730157098D+02 0.649303837993893D+02 0.107637703445466D+03
 0.331874446391366D+02 -.133825891169738D+02 0.251932223577419D+01 -.302649269894105D+02
0.194083576651D-06 0.000000000000D+00 0.000000000000D+00 0.331246701058D-06 0.127746979905D-07  7 -1 1 23 -13 13 23 21 2 0.66121754D-01 0.23705118D-01 0.42049244D+05 0.42049244D+05 0.42049244D+05 0.11539703D+01  1  2  1  1  7  1       -1 0.159754894744D-04 0.100000000000D+01
  </mgrwgt>
  </event>
  <event>
  8     66 0.58687835E-06 0.10125277E+03 0.75467711E-02 0.99571294E-01
       -1 -1    0    0    0  501 0.00000000E+00 0.00000000E+00 0.25470380E+03 0.25470401E+03 0.32000000E+00 0.0000E+00 0.9000E+01
        1 -1    0    0  501    0 0.00000000E+00 0.00000000E+00 -.48901589E+03 0.48901600E+03 0.32000000E+00 0.0000E+00 0.9000E+01
       25  2    1    2    0    0 0.15173964E+03 0.68811141E+02 -.37485383E+03 0.50753635E+03 0.29886094E+03 0.0000E+00 0.0000E+00
       23  2    1    2    0    0 -.15173964E+03 -.68811141E+02 0.14054174E+03 0.23618365E+03 0.90944186E+02 0.0000E+00 0.0000E+00
       23  1    3    3    0    0 0.11902738E+03 -.36649083E+02 -.67522325E+02 0.16847905E+03 0.91188000E+02 0.0000E+00 0.9000E+01
      -13  1    4    4    0    0 -.49195575E+02 0.18979439E+02 0.55930538E+02 0.76867808E+02 0.10565837E+00 0.0000E+00 0.9000E+01
       13  1    4    4    0    0 -.10254407E+03 -.87790580E+02 0.84611204E+02 0.15931584E+03 0.10565837E+00 0.0000E+00 0.9000E+01
       23  1    3    3    0    0 0.32712257E+02 0.10546022E+03 -.30733150E+03 0.33905730E+03 0.91188000E+02 0.0000E+00 0.9000E+01
#aMCatNLO 1  0  0  1  2 0.16183607D+03 0.00000000D+00  -5  7  0 0.00000000D+00 0.00000000D+00 0.00000000D+00 0.00000000D+00 0.00000000D+00
  <mgrwgt>
 0.2728332724D-03    8    2    0
 0.352922544011087D+03 0.000000000000000D+00 0.000000000000000D+00 0.352922544011087D+03
 0.352922544011087D+03 0.000000000000000D+00 0.000000000000000D+00 -.352922544011087D+03
 0.155104769242128D+03 0.119027382975358D+03 -.366490824880286D+02 -.152172583758372D+02
 0.995590067213801D+02 -.491955029048377D+02 0.189795826496913D+02 0.844486456713869D+02
 0.195952203078898D+03 -.102544137606828D+03 -.877907236215421D+02 0.142037863191303D+03
 0.255229108979768D+03 0.327122575363082D+02 0.105460223459879D+03 -.211269250486853D+03
 0.000000000000000D+00 -.000000000000000D+00 -.000000000000000D+00 0.000000000000000D+00
 0.647549370632755D+03 0.000000000000000D+00 0.000000000000000D+00 0.647549370632755D+03
 0.385016893980974D+03 0.000000000000000D+00 0.000000000000000D+00 -.385016893980974D+03
 0.178879994958267D+03 0.152046249111281D+03 -.182530663446700D+02 -.152172583758372D+02
 0.944068241486792D+02 -.300193832402930D+02 0.296632992093024D+02 0.844486456713869D+02
 0.170701417539253D+03 -.662955175644542D+02 -.675952936292168D+02 0.142037863191303D+03
 0.280172104949847D+03 0.856438367778847D+02 0.134950339268615D+03 -.211269250486853D+03
 0.308405923017684D+03 -.141375185084418D+03 -.787652785040307D+02 0.262532476651782D+03
0.376035600469D-05 0.000000000000D+00 0.000000000000D+00 0.125822818869D-06 0.000000000000D+00  7 -1 1 23 -13 13 23 21 0 0.39185224D-01 0.75233238D-01 0.58874251D+05 0.58874251D+05 0.58874251D+05 0.11411060D+01  1  2  2  1  7  1       -1 0.131312245196D-03 0.100000000000D+01
-.173252584869D-06 0.000000000000D+00 -.144407571825D-07 0.125822818869D-06 0.000000000000D+00  7 -1 1 23 -13 13 23 21 2 0.39185224D-01 0.75233238D-01 0.58874251D+05 0.58874251D+05 0.58874251D+05 0.11411060D+01  1  2  3  1  7  1       -1 -.787785463922D-05 0.100000000000D+01
0.237723798085D-06 0.000000000000D+00 0.000000000000D+00 0.125822818869D-06 0.000000000000D+00  7 -1 1 23 -13 13 23 21 2 0.39185224D-01 0.75233238D-01 0.58874251D+05 0.58874251D+05 0.58874251D+05 0.11411060D+01  1  2 15  1  7  1       -1 0.108093828847D-04 0.100000000000D+01
0.131028466897D-05 0.000000000000D+00 0.000000000000D+00 0.125822818869D-06 0.000000000000D+00  7 -1 1 23 -13 13 23 21 2 0.72342673D-01 0.75233238D-01 0.10921884D+06 0.10921884D+06 0.10921884D+06 0.11185928D+01  1  2 12  1  7  1       -1 0.185065870946D-04 0.100000000000D+01
-.409029770523D-05 0.000000000000D+00 -.122145983218D-05 0.125822818869D-06 0.000000000000D+00  7 -1 1 23 -13 13 23 21 2 0.76226735D-01 0.75233238D-01 0.58874251D+05 0.58874251D+05 0.58874251D+05 0.11411060D+01  1  2  5  1  7  1       -1 -.552525360220D-04 0.100000000000D+01
0.417281462956D-05 0.000000000000D+00 0.993317527567D-06 0.125822818869D-06 0.000000000000D+00  7 -1 1 23 -13 13 23 21 2 0.39185224D-01 0.75233238D-01 0.58874251D+05 0.58874251D+05 0.58874251D+05 0.11411060D+01  1  2  6  1  7  1       -1 0.189739316808D-03 0.100000000000D+01
0.876650323620D-07 0.000000000000D+00 0.000000000000D+00 0.125822818869D-06 0.000000000000D+00  7 21 1 23 -13 13 23 1 2 0.72342673D-01 0.75233238D-01 0.10921884D+06 0.10921884D+06 0.10921884D+06 0.11185928D+01  1  2 12  3  7  1       -1 0.100167168974D-04 0.100000000000D+01
-.223511024565D-06 0.000000000000D+00 -.880986130491D-07 0.125822818869D-06 0.000000000000D+00  7 21 1 23 -13 13 23 1 2 0.76226735D-01 0.75233238D-01 0.58874251D+05 0.58874251D+05 0.58874251D+05 0.11411060D+01  1  2  5  3  7  1       -1 -.244205858074D-04 0.100000000000D+01
  </mgrwgt>
  </event>
  <event>
  8     66 0.58687835E-06 0.20797153E+03 0.75467711E-02 0.95373125E-01
       -3 -1    0    0    0  501 0.00000000E+00 0.00000000E+00 0.48400350E+03 0.48400376E+03 0.50000000E+00 0.0000E+00 0.9000E+01
        3 -1    0    0  501    0 0.00000000E+00 0.00000000E+00 -.17232869E+03 0.17232942E+03 0.50000000E+00 0.0000E+00 0.9000E+01
       25  2    1    2    0    0 -.13370058E+02 -.66546581E+02 0.40560853E+03 0.50903006E+03 0.29997687E+03 0.0000E+00 0.0000E+00
       23  2    1    2    0    0 0.13370058E+02 0.66546581E+02 -.93933720E+02 0.14730311E+03 0.90925552E+02 0.0000E+00 0.0000E+00
       23  1    3    3    0    0 0.22988115E+02 0.83463733E+02 0.19997317E+03 0.23621848E+03 0.91188000E+02 0.0000E+00 0.9000E+01
      -11  1    4    4    0    0 0.48204415E+02 0.57316282E+02 -.48136551E+02 0.89027801E+02 0.51099893E-03 0.0000E+00 0.9000E+01
       11  1    4    4    0    0 -.34834356E+02 0.92302984E+01 -.45797168E+02 0.58275307E+02 0.51099893E-03 0.0000E+00 0.9000E+01
       23  1    3    3    0    0 -.36358174E+02 -.15001031E+03 0.20563535E+03 0.27281159E+03 0.91188000E+02 0.0000E+00 0.9000E+01
#aMCatNLO 1  0  0  1  2 0.38165573D+03 0.00000000D+00  -5  7  0 0.00000000D+00 0.00000000D+00 0.00000000D+00 0.00000000D+00 0.00000000D+00
  <mgrwgt>
 0.3172505066D-04    3    2    0
 0.288804452576083D+03 0.000000000000000D+00 0.000000000000000D+00 0.288804452576083D+03
 0.288804452576083D+03 0.000000000000000D+00 0.000000000000000D+00 -.288804452576083D+03
 0.160508991728939D+03 0.229881154279986D+02 0.834637334755277D+02 0.997659101358555D+02
 0.127135937275569D+03 0.482044145002754D+02 0.573162821747623D+02 -.102736190153646D+03
 0.909297625730615D+02 -.348343560126641D+02 0.923029844950347D+01 -.834840760463300D+02
 0.199034213574597D+03 -.363581739156098D+02 -.150010314099793D+03 0.864543560641207D+02
 0.000000000000000D+00 -.000000000000000D+00 -.000000000000000D+00 -.000000000000000D+00
 0.436611035229751D+03 0.000000000000000D+00 0.000000000000000D+00 0.436611035229751D+03
 0.748729320072248D+03 0.000000000000000D+00 0.000000000000000D+00 -.748729320072248D+03
 0.214209945522812D+03 0.134757218299036D+03 0.972517594080252D+02 0.997659101358555D+02
 0.188630764141128D+03 0.142389568826169D+03 0.689351224172227D+02 -.102736190153646D+03
 0.868895567744703D+02 0.182046121867453D+02 0.157732754456611D+02 -.834840760463300D+02
 0.202579741461125D+03 0.834330268815739D+02 -.135232668572994D+03 0.864543560641207D+02
 0.493030347402463D+03 -.378784426193524D+03 -.467274886979151D+02 -.312118284842497D+03
0.331220270254D-05 0.000000000000D+00 0.000000000000D+00 0.474038743021D-06 0.000000000000D+00  7 -3 3 23 -11 11 23 21 0 0.74462152D-01 0.26512182D-01 0.43252158D+05 0.43252158D+05 0.43252158D+05 0.11528750D+01  1  2  2  1  7  1       -3 0.311052716431D-04 0.100000000000D+01
-.159890207274D-06 0.000000000000D+00 -.127197305007D-07 0.474038743021D-06 0.000000000000D+00  7 -3 3 23 -11 11 23 21 2 0.74462152D-01 0.26512182D-01 0.43252158D+05 0.43252158D+05 0.43252158D+05 0.11528750D+01  1  2  3  1  7  1       -3 -.199573755043D-05 0.100000000000D+01
0.209544329398D-06 0.000000000000D+00 0.000000000000D+00 0.474038743021D-06 0.000000000000D+00  7 -3 3 23 -11 11 23 21 2 0.74462152D-01 0.26512182D-01 0.43252158D+05 0.43252158D+05 0.43252158D+05 0.11528750D+01  1  2 15  1  7  1       -3 0.261551657095D-05 0.100000000000D+01
  </mgrwgt>
  </event>
  <event>
  8     66 0.58687835E-06 0.13247818E+03 0.75467711E-02 0.10200445E+00
       -3 -1    0    0    0  501 0.00000000E+00 0.00000000E+00 0.18878640E+03 0.18878706E+03 0.50000000E+00 0.0000E+00 0.9000E+01
        3 -1    0    0  501    0 0.00000000E+00 0.00000000E+00 -.50775224E+03 0.50775249E+03 0.50000000E+00 0.0000E+00 0.9000E+01
       25  2    1    2    0    0 0.34339828E+02 -.16689286E+03 -.36215923E+03 0.50016288E+03 0.29995190E+03 0.0000E+00 0.0000E+00
       23  2    1    2    0    0 -.34339828E+02 0.16689286E+03 0.43193392E+02 0.19637667E+03 0.87553852E+02 0.0000E+00 0.0000E+00
       23  1    3    3    0    0 -.98291240E+02 -.76575730E+02 -.11924992E+03 0.19509179E+03 0.91188000E+02 0.0000E+00 0.9000E+01
      -11  1    4    4    0    0 -.24728326E+02 0.16288965E+03 0.13962176E+02 0.16534652E+03 0.51099893E-03 0.0000E+00 0.9000E+01
       11  1    4    4    0    0 -.96115017E+01 0.40032146E+01 0.29231216E+02 0.31030158E+02 0.51099893E-03 0.0000E+00 0.9000E+01
       23  1    3    3    0    0 0.13263107E+03 -.90317133E+02 -.24290931E+03 0.30507109E+03 0.91188000E+02 0.0000E+00 0.9000E+01
#aMCatNLO 1  0  0  1  2 0.32924476D+02 0.00000000D+00  -5  7  0 0.00000000D+00 0.00000000D+00 0.00000000D+00 0.00000000D+00 0.00000000D+00
  <mgrwgt>
 0.2837939024D-04    9    2    0
 0.309607871370742D+03 0.000000000000000D+00 0.000000000000000D+00 0.309607871370742D+03
 0.309607871370742D+03 0.000000000000000D+00 0.000000000000000D+00 -.309607871370742D+03
 0.158026496504301D+03 -.982912402994088D+02 -.765757302494089D+02 -.336468701456407D+02
 0.193186051583588D+03 -.247283262196677D+02 0.162889648866557D+03 0.100877761181345D+03
 0.499623786090929D+02 -.961150170428042D+01 0.400321460618515D+01 0.488654538921290D+02
 0.218040816044502D+03 0.132631068223357D+03 -.903171332233329D+02 -.116096344927833D+03
 0.000000000000000D+00 -.000000000000000D+00 -.000000000000000D+00 0.000000000000000D+00
 0.376537487743169D+03 0.000000000000000D+00 0.000000000000000D+00 0.376537487743169D+03
 0.314120962778475D+03 0.000000000000000D+00 0.000000000000000D+00 -.314120962778475D+03
 0.152378157386459D+03 -.901783772979790D+02 -.750972696028169D+02 -.336468701456407D+02
 0.193718198826491D+03 -.146160384723565D+02 0.164732477899757D+03 0.100877761181345D+03
 0.495683416339337D+02 -.701012608814842D+01 0.447728047846446D+01 0.488654538921290D+02
 0.224425744903977D+03 0.144195555246004D+03 -.882096603178993D+02 -.116096344927833D+03
 0.705680077707837D+02 -.323910133875196D+02 -.590282845750569D+01 0.624165249646932D+02
0.338907312799D-05 0.000000000000D+00 0.000000000000D+00 0.753699865492D-07 0.000000000000D+00  7 -3 3 23 -11 11 23 21 0 0.29044131D-01 0.78115799D-01 0.66083330D+05 0.66083330D+05 0.66083330D+05 0.11367915D+01  1  2  2  1  7  1       -3 0.258671829922D-04 0.100000000000D+01
-.180364509000D-06 0.000000000000D+00 -.130149331749D-07 0.753699865492D-07 0.000000000000D+00  7 -3 3 23 -11 11 23 21 2 0.29044131D-01 0.78115799D-01 0.66083330D+05 0.66083330D+05 0.66083330D+05 0.11367915D+01  1  2  3  1  7  1       -3 -.177902047053D-05 0.100000000000D+01
0.221393290081D-06 0.000000000000D+00 0.000000000000D+00 0.753699865492D-07 0.000000000000D+00  7 -3 3 23 -11 11 23 21 2 0.29044131D-01 0.78115799D-01 0.66083330D+05 0.66083330D+05 0.66083330D+05 0.11367915D+01  1  2 15  1  7  1       -3 0.218370674627D-05 0.100000000000D+01
0.181027669070D-04 0.000000000000D+00 0.000000000000D+00 0.753699865492D-07 0.000000000000D+00  7 -3 3 23 -11 11 23 21 2 0.35503918D-01 0.78115799D-01 0.74885110D+05 0.74885110D+05 0.74885110D+05 0.11321774D+01  1  2 12  1  7  1       -3 0.121143759273D-03 0.100000000000D+01
-.181786133479D-04 0.000000000000D+00 0.000000000000D+00 0.753699865492D-07 0.000000000000D+00  7 -3 3 23 -11 11 23 21 2 0.29044131D-01 0.78115799D-01 0.66083330D+05 0.66083330D+05 0.66083330D+05 0.11367915D+01  1  2  4  1  7  1       -3 -.179304262523D-03 0.100000000000D+01
-.226440671845D-04 0.000000000000D+00 -.241458699142D-05 0.753699865492D-07 0.000000000000D+00  7 -3 3 23 -11 11 23 21 2 0.35677952D-01 0.78115799D-01 0.66083330D+05 0.66083330D+05 0.66083330D+05 0.11367915D+01  1  2  5  1  7  1       -3 -.151244273421D-03 0.100000000000D+01
0.227087870473D-04 0.000000000000D+00 0.236438087552D-05 0.753699865492D-07 0.000000000000D+00  7 -3 3 23 -11 11 23 21 2 0.29044131D-01 0.78115799D-01 0.66083330D+05 0.66083330D+05 0.66083330D+05 0.11367915D+01  1  2  6  1  7  1       -3 0.223987508640D-03 0.100000000000D+01
0.519684334238D-06 0.000000000000D+00 0.000000000000D+00 0.753699865492D-07 0.000000000000D+00  7 21 3 23 -11 11 23 3 2 0.35503918D-01 0.78115799D-01 0.74885110D+05 0.74885110D+05 0.74885110D+05 0.11321774D+01  1  2 12  3  7  1       -3 0.564240883936D-04 0.100000000000D+01
-.632936780092D-06 0.000000000000D+00 -.706035308738D-07 0.753699865492D-07 0.000000000000D+00  7 21 3 23 -11 11 23 3 2 0.35677952D-01 0.78115799D-01 0.66083330D+05 0.66083330D+05 0.66083330D+05 0.11367915D+01  1  2  5  3  7  1       -3 -.688992993859D-04 0.100000000000D+01
  </mgrwgt>
  </event>
  <event>
  8     66 0.58687835E-06 0.20075469E+03 0.75467711E-02 0.97396196E-01
       -1 -1    0    0    0  501 0.00000000E+00 0.00000000E+00 0.39665799E+03 0.39665812E+03 0.32000000E+00 0.0000E+00 0.9000E+01
        1 -1    0    0  501    0 0.00000000E+00 0.00000000E+00 -.44009460E+03 0.44009472E+03 0.32000000E+00 0.0000E+00 0.9000E+01
       25  2    1    2    0    0 -.36037419E+02 0.91424784E+02 -.36910490E+03 0.48488013E+03 0.29868567E+03 0.0000E+00 0.0000E+00
       23  2    1    2    0    0 0.36037419E+02 -.91424784E+02 0.32566829E+03 0.35187270E+03 0.89985440E+02 0.0000E+00 0.0000E+00
       23  1    3    3    0    0 -.87704071E+02 0.10256010E+03 -.33766787E+03 0.37489388E+03 0.91188000E+02 0.0000E+00 0.9000E+01
      -13  1    4    4    0    0 -.17834424E+02 0.84738908E+01 0.47552064E+02 0.51488673E+02 0.10565837E+00 0.0000E+00 0.9000E+01
       13  1    4    4    0    0 0.53871844E+02 -.99898675E+02 0.27811622E+03 0.30038403E+03 0.10565837E+00 0.0000E+00 0.9000E+01
       23  1    3    3    0    0 0.51666652E+02 -.11135317E+02 -.31437032E+02 0.10998626E+03 0.91188000E+02 0.0000E+00 0.9000E+01
#aMCatNLO 1  0  0  2  2 0.28121787D+03 0.00000000D+00  -5  7  0 0.00000000D+00 0.00000000D+00 0.00000000D+00 0.00000000D+00 0.00000000D+00
  <mgrwgt>
 0.1626237777D-03    7    2    0
 0.417812328484756D+03 0.000000000000000D+00 0.000000000000000D+00 0.417812328484756D+03
 0.417812328484756D+03 0.000000000000000D+00 0.000000000000000D+00 -.417812328484756D+03
 0.357847704180959D+03 -.877040713258889D+02 0.102560101852967D+03 -.318636390615315D+03
 0.540296323801335D+02 -.178345232302918D+02 0.847404011548496D+01 0.502923612529945D+02
 0.315246700176593D+03 0.538719425451258D+02 -.998988244952042D+02 0.294106308404158D+03
 0.108500620231826D+03 0.516666520110549D+02 -.111353174732474D+02 -.257622790418368D+02
 0.000000000000000D+00 0.000000000000000D+00 0.000000000000000D+00 -.000000000000000D+00
 0.568558033659407D+03 0.000000000000000D+00 0.000000000000000D+00 0.568558033659407D+03
 0.595636195617995D+03 0.000000000000000D+00 0.000000000000000D+00 -.595636195617995D+03
 0.383529082045930D+03 -.189529912830831D+03 0.364495287894873D+02 -.318636390615315D+03
 0.604882680392273D+02 -.335632077456603D+02 -.173783077580758D+01 0.502923612529945D+02
 0.335721230308463D+03 -.355365182346073D+02 -.157947395383616D+03 0.294106308404158D+03
 0.101937128150887D+03 0.227636687890833D+02 -.299006206203461D+02 -.257622790418368D+02
 0.282518520732894D+03 0.235865970022015D+03 0.153136317990282D+03 -.270781619585882D+02
0.975935719887D-05 0.000000000000D+00 0.000000000000D+00 0.121048981608D-06 0.000000000000D+00  7 -1 1 23 -13 13 23 21 0 0.61024325D-01 0.67706881D-01 0.40302447D+05 0.40302447D+05 0.40302447D+05 0.11556240D+01  1  2  2  2  7  2        1 0.180104505706D-03 0.100000000000D+01
-.188044641957D-06 0.000000000000D+00 -.374785013414D-07 0.121048981608D-06 0.000000000000D+00  7 -1 1 23 -13 13 23 21 2 0.61024325D-01 0.67706881D-01 0.40302447D+05 0.40302447D+05 0.40302447D+05 0.11556240D+01  1  2  3  2  7  2        1 -.463444195168D-05 0.100000000000D+01
0.616091791092D-06 0.000000000000D+00 0.000000000000D+00 0.121048981608D-06 0.000000000000D+00  7 -1 1 23 -13 13 23 21 2 0.61024325D-01 0.67706881D-01 0.40302447D+05 0.40302447D+05 0.40302447D+05 0.11556240D+01  1  2 15  2  7  2        1 0.151838500316D-04 0.100000000000D+01
-.305154606584D-05 0.000000000000D+00 0.000000000000D+00 0.121048981608D-06 0.000000000000D+00  7 -1 1 23 -13 13 23 21 2 0.61024325D-01 0.67706881D-01 0.40302447D+05 0.40302447D+05 0.40302447D+05 0.11556240D+01  1  2  4  2  7  2        1 -.752066794238D-04 0.100000000000D+01
0.865918914549D-06 0.000000000000D+00 -.325442659201D-05 0.121048981608D-06 0.000000000000D+00  7 -1 1 23 -13 13 23 21 2 0.61024325D-01 0.12403371D+00 0.40302447D+05 0.40302447D+05 0.40302447D+05 0.11556240D+01  1  2  5  2  7  2        1 0.900970322649D-05 0.100000000000D+01
0.136368191447D-05 0.000000000000D+00 0.273734643193D-05 0.121048981608D-06 0.000000000000D+00  7 -1 1 23 -13 13 23 21 2 0.61024325D-01 0.67706881D-01 0.40302447D+05 0.40302447D+05 0.40302447D+05 0.11556240D+01  1  2  6  2  7  2        1 0.336085336301D-04 0.100000000000D+01
0.234772516075D-06 0.000000000000D+00 -.215290145109D-06 0.121048981608D-06 0.000000000000D+00  7 -1 21 23 -13 13 23 -1 2 0.61024325D-01 0.12403371D+00 0.40302447D+05 0.40302447D+05 0.40302447D+05 0.11556240D+01  1  2  5  4  7  2        1 0.455830648433D-05 0.100000000000D+01
  </mgrwgt>
  </event>
  <event>
  8     66 0.58687835E-06 0.25856765E+03 0.75467711E-02 0.90896171E-01
       -1 -1    0    0    0  501 0.00000000E+00 0.00000000E+00 0.11459599E+03 0.11459643E+03 0.32000000E+00 0.0000E+00 0.9000E+01
        1 -1    0    0  501    0 0.00000000E+00 0.00000000E+00 -.75759451E+03 0.75759458E+03 0.32000000E+00 0.0000E+00 0.9000E+01
       25  2    1    2    0    0 -.27641215E+01 0.20399031E+03 -.38869875E+03 0.53428989E+03 0.30456409E+03 0.0000E+00 0.0000E+00
       23  2    1    2    0    0 0.27641215E+01 -.20399031E+03 -.25429977E+03 0.33790112E+03 0.88820631E+02 0.0000E+00 0.0000E+00
       23  1    3    3    0    0 0.28114449E+02 0.16956160E+03 -.38570450E+03 0.43200089E+03 0.91188000E+02 0.0000E+00 0.9000E+01
      -11  1    4    4    0    0 -.51534611E+01 -.21019782E+03 -.25073511E+03 0.32722741E+03 0.51099893E-03 0.0000E+00 0.9000E+01
       11  1    4    4    0    0 0.79175826E+01 0.62075105E+01 -.35646681E+01 0.10673713E+02 0.51099893E-03 0.0000E+00 0.9000E+01
       23  1    3    3    0    0 -.30878571E+02 0.34428715E+02 -.29942478E+01 0.10228900E+03 0.91188000E+02 0.0000E+00 0.9000E+01
#aMCatNLO 1  0  0  2  1 0.62287883D+03 0.00000000D+00  -5  7  0 0.00000000D+00 0.00000000D+00 0.00000000D+00 0.00000000D+00 0.00000000D+00
  <mgrwgt>
 0.3471036929D-03    3    2    0
 0.294648120495363D+03 0.000000000000000D+00 0.000000000000000D+00 0.294648120495363D+03
 0.294648120495363D+03 0.000000000000000D+00 0.000000000000000D+00 -.294648120495363D+03
 0.218531633406148D+03 0.281144489247495D+02 0.169561595662323D+03 -.994950576323454D+02
 0.210730175120723D+03 -.515346107825572D+01 -.210197821661725D+03 -.140543343489203D+02
 0.119081713505102D+02 0.791758260762640D+01 0.620751046069396D+01 0.637049797464041D+01
 0.148126261113345D+03 -.308785704541202D+02 0.344287155387085D+02 0.107178894006625D+03
 0.000000000000000D+00 -.000000000000000D+00 0.000000000000000D+00 0.000000000000000D+00
 0.796296297602663D+03 0.000000000000000D+00 0.000000000000000D+00 0.796296297602663D+03
 0.692618266540476D+03 0.000000000000000D+00 0.000000000000000D+00 -.692618266540476D+03
 0.172524579266388D+03 0.105579611811598D+03 0.200787993538654D+02 -.994950576323454D+02
 0.501382597039133D+03 0.135910483443095D+03 -.482405767782660D+03 -.140543343489203D+02
 0.153522569225785D+02 0.133176592413874D+02 -.421289692518671D+01 0.637049797464041D+01
 0.168206658625157D+03 0.317844952635831D+02 -.864908041481627D+02 0.107178894006625D+03
 0.631448472289883D+03 -.286592249759663D+03 0.553030669502144D+03 0.103678031062187D+03
0.497328254522D-05 0.000000000000D+00 0.000000000000D+00 0.236341666839D-08 0.000000000000D+00  7 -1 1 23 -11 11 23 21 0 0.17630191D-01 0.11655304D+00 0.66857228D+05 0.66857228D+05 0.66857228D+05 0.11363595D+01  1  2  2  2  7  2        1 0.342277673278D-03 0.100000000000D+01
-.270561539103D-06 0.000000000000D+00 -.190987144690D-07 0.236341666839D-08 0.000000000000D+00  7 -1 1 23 -11 11 23 21 2 0.17630191D-01 0.11655304D+00 0.66857228D+05 0.66857228D+05 0.66857228D+05 0.11363595D+01  1  2  3  2  7  2        1 -.240454526500D-04 0.100000000000D+01
0.324864334404D-06 0.000000000000D+00 0.000000000000D+00 0.236341666839D-08 0.000000000000D+00  7 -1 1 23 -11 11 23 21 2 0.17630191D-01 0.11655304D+00 0.66857228D+05 0.66857228D+05 0.66857228D+05 0.11363595D+01  1  2 15  2  7  2        1 0.288714722590D-04 0.100000000000D+01
  </mgrwgt>
  </event>
  <event>
  8     66 0.58687835E-06 0.24074258E+03 0.75467711E-02 0.94974315E-01
       -1 -1    0    0    0  501 0.00000000E+00 0.00000000E+00 0.10034498E+04 0.10034498E+04 0.32000000E+00 0.0000E+00 0.9000E+01
        1 -1    0    0  501    0 0.00000000E+00 0.00000000E+00 -.21208726E+03 0.21208751E+03 0.32000000E+00 0.0000E+00 0.9000E+01
       25  2    1    2    0    0 -.23436903E+03 0.30476207E+03 0.60968702E+03 0.78078687E+03 0.30016846E+03 0.0000E+00 0.0000E+00
       23  2    1    2    0    0 0.23436903E+03 -.30476207E+03 0.18167548E+03 0.43475046E+03 0.90516404E+02 0.0000E+00 0.0000E+00
       23  1    3    3    0    0 -.18349759E+03 0.21337841E+03 0.56011310E+03 0.63343796E+03 0.91188000E+02 0.0000E+00 0.9000E+01
      -11  1    4    4    0    0 0.21568533E+03 -.22048566E+03 0.14775609E+03 0.34200285E+03 0.51099893E-03 0.0000E+00 0.9000E+01
       11  1    4    4    0    0 0.18683705E+02 -.84276411E+02 0.33919389E+02 0.92747610E+02 0.51099893E-03 0.0000E+00 0.9000E+01
       23  1    3    3    0    0 -.50871441E+02 0.91383655E+02 0.49573928E+02 0.14734891E+03 0.91188000E+02 0.0000E+00 0.9000E+01
#aMCatNLO 1  0  0  2  1 0.12652278D+03 0.00000000D+00  -5  7  0 0.00000000D+00 0.00000000D+00 0.00000000D+00 0.00000000D+00 0.00000000D+00
  <mgrwgt>
 0.1145013107D-03    9    2    0
 0.461323199349765D+03 0.000000000000000D+00 0.000000000000000D+00 0.461323199349765D+03
 0.461323199349765D+03 0.000000000000000D+00 0.000000000000000D+00 -.461323199349765D+03
 0.354106381715833D+03 -.183497590654452D+03 0.213378414228473D+03 0.194613372596110D+03
 0.323838685027316D+03 0.215685326414707D+03 -.220485657651411D+03 -.986783089621395D+02
 0.930970412872204D+02 0.186837048064053D+02 -.842764110844726D+02 -.348635168315320D+02
 0.151604290669161D+03 -.508714405666597D+02 0.913836545074109D+02 -.610715468024386D+02
 0.000000000000000D+00 0.000000000000000D+00 -.000000000000000D+00 -.000000000000000D+00
 0.490627612376360D+03 0.000000000000000D+00 0.000000000000000D+00 0.490627612376360D+03
 0.625803379625038D+03 0.000000000000000D+00 0.000000000000000D+00 -.625803379625038D+03
 0.395482875487357D+03 -.222799322094278D+03 0.246125071337413D+03 0.194613372596110D+03
 0.284791839184948D+03 0.183774205519085D+03 -.193896942710676D+03 -.986783089621395D+02
 0.846020403065671D+02 0.936676020669156D+01 -.765134251056756D+02 -.348635168315320D+02
 0.166404293192068D+03 -.675449558797072D+02 0.105276220273705D+03 -.610715468024386D+02
 0.185149943830457D+03 0.972033122482092D+02 -.809909237947664D+02 -.135175767248679D+03
0.166831275944D-04 0.000000000000D+00 0.000000000000D+00 0.557624938954D-06 0.000000000000D+00  7 -1 1 23 -11 11 23 21 0 0.15437691D+00 0.32628832D-01 0.17195646D+06 0.17195646D+06 0.17195646D+06 0.11029004D+01  1  2  2  2  7  2        1 0.962880229000D-04 0.100000000000D+01
-.914034652047D-06 0.000000000000D+00 -.640676027309D-07 0.557624938954D-06 0.000000000000D+00  7 -1 1 23 -11 11 23 21 2 0.15437691D+00 0.32628832D-01 0.17195646D+06 0.17195646D+06 0.17195646D+06 0.11029004D+01  1  2  3  2  7  2        1 -.641697001273D-05 0.100000000000D+01
0.107015045129D-05 0.000000000000D+00 0.000000000000D+00 0.557624938954D-06 0.000000000000D+00  7 -1 1 23 -11 11 23 21 2 0.15437691D+00 0.32628832D-01 0.17195646D+06 0.17195646D+06 0.17195646D+06 0.11029004D+01  1  2 15  2  7  2        1 0.751297922859D-05 0.100000000000D+01
0.228085817498D-04 0.000000000000D+00 0.000000000000D+00 0.557624938954D-06 0.000000000000D+00  7 -1 1 23 -11 11 23 21 2 0.15437691D+00 0.45019547D-01 0.23514484D+06 0.23514484D+06 0.23514484D+06 0.10924662D+01  1  2 12  2  7  2        1 0.101587568158D-03 0.100000000000D+01
-.245145765858D-04 0.000000000000D+00 0.000000000000D+00 0.557624938954D-06 0.000000000000D+00  7 -1 1 23 -11 11 23 21 2 0.15437691D+00 0.32628832D-01 0.17195646D+06 0.17195646D+06 0.17195646D+06 0.11029004D+01  1  2  4  2  7  2        1 -.172104309693D-03 0.100000000000D+01
-.323032171214D-04 0.000000000000D+00 -.785808586725D-05 0.557624938954D-06 0.000000000000D+00  7 -1 1 23 -11 11 23 21 2 0.15437691D+00 0.46506665D-01 0.17195646D+06 0.17195646D+06 0.17195646D+06 0.11029004D+01  1  2  5  2  7  2        1 -.142409667261D-03 0.100000000000D+01
0.334352468032D-04 0.000000000000D+00 0.738917275359D-05 0.557624938954D-06 0.000000000000D+00  7 -1 1 23 -11 11 23 21 2 0.15437691D+00 0.32628832D-01 0.17195646D+06 0.17195646D+06 0.17195646D+06 0.11029004D+01  1  2  6  2  7  2        1 0.234731774800D-03 0.100000000000D+01
0.927636047291D-06 0.000000000000D+00 0.000000000000D+00 0.557624938954D-06 0.000000000000D+00  7 -1 21 23 -11 11 23 -1 2 0.15437691D+00 0.45019547D-01 0.23514484D+06 0.23514484D+06 0.23514484D+06 0.10924662D+01  1  2 12  4  7  2        1 0.195347299261D-04 0.100000000000D+01
-.118179563807D-05 0.000000000000D+00 -.342533655713D-06 0.557624938954D-06 0.000000000000D+00  7 -1 21 23 -11 11 23 -1 2 0.15437691D+00 0.46506665D-01 0.17195646D+06 0.17195646D+06 0.17195646D+06 0.11029004D+01  1  2  5  4  7  2        1 -.242228173108D-04 0.100000000000D+01
  </mgrwgt>
  </event>
  <event>
  9     66 0.58687835E-06 0.16306542E+03 0.75467711E-02 0.10857388E+00
       21 -1    0    0  502  501 0.00000000E+00 0.00000000E+00 0.40013672E+02 0.40020701E+02 0.75000000E+00 0.0000E+00 0.9000E+01
        1 -1    0    0  501    0 0.00000000E+00 0.00000000E+00 -.12069564E+04 0.12069564E+04 0.32000000E+00 0.0000E+00 0.9000E+01
       25  2    1    2    0    0 -.55672580E+02 -.12791878E+02 -.78177745E+03 0.83964671E+03 0.30094443E+03 0.0000E+00 0.0000E+00
       23  2    1    2    0    0 0.46777681E+02 0.27582187E+02 -.26042156E+03 0.28139803E+03 0.91741670E+02 0.0000E+00 0.0000E+00
       23  1    3    3    0    0 0.68318278E+01 0.73282781E+02 -.59349230E+03 0.60495074E+03 0.91188000E+02 0.0000E+00 0.9000E+01
      -11  1    4    4    0    0 0.17513421E+02 -.10717218E+02 -.45556045E+01 0.21031695E+02 0.51099893E-03 0.0000E+00 0.9000E+01
       11  1    4    4    0    0 0.29264261E+02 0.38299405E+02 -.25586595E+03 0.26036633E+03 0.51099893E-03 0.0000E+00 0.9000E+01
       23  1    3    3    0    0 -.62504408E+02 -.86074659E+02 -.18828515E+03 0.23469597E+03 0.91188000E+02 0.0000E+00 0.9000E+01
        1  1    1    2  502    0 0.88948984E+01 -.14790309E+02 -.12474369E+03 0.12593238E+03 0.32000000E+00 0.0000E+00 0.9000E+01
#aMCatNLO 2  0  0  1  2 0.17258982D+02 0.00000000D+00  -5  7  0 0.00000000D+00 0.00000000D+00 0.00000000D+00 0.00000000D+00 0.00000000D+00
  <mgrwgt>
 0.1311343711D-03    1    2    0
 0.206315693113954D+03 0.000000000000000D+00 0.000000000000000D+00 0.206315693113954D+03
 0.206315693113954D+03 0.000000000000000D+00 0.000000000000000D+00 -.206315693113954D+03
 0.142055733586639D+03 0.991806840321855D+01 0.681510217993334D+02 -.843898705277721D+02
 0.463947143302131D+02 0.185044585891964D+02 -.123650972687487D+02 0.407082166108659D+02
 0.603756977630552D+02 0.305726021252359D+02 0.361239163529755D+02 -.374913796357381D+02
 0.163805240548001D+03 -.589951291176509D+02 -.919098408835603D+02 0.811730335526443D+02
 0.000000000000000D+00 0.000000000000000D+00 -.000000000000000D+00 -.000000000000000D+00
 0.209608301962343D+03 0.000000000000000D+00 0.000000000000000D+00 0.209608301962343D+03
 0.230423764298910D+03 0.000000000000000D+00 0.000000000000000D+00 -.230423764298910D+03
 0.144408938047693D+03 0.683182633545320D+01 0.732827806874887D+02 -.843898705277721D+02
 0.455931747691654D+02 0.175134222724187D+02 -.107172163457881D+02 0.407082166108659D+02
 0.610642695556188D+02 0.292642623089902D+02 0.382994049677126D+02 -.374913796357381D+02
 0.161925788691753D+03 -.625044093352809D+02 -.860746602488509D+02 0.811730335526443D+02
 0.270398951970229D+02 0.889489841841875D+01 -.147903090605622D+02 -.208154623365672D+02
0.396448636155D-07 0.000000000000D+00 0.000000000000D+00 0.463565720277D-07 0.342407732411D-11  7 21 1 23 -11 11 23 1 2 0.61564660D-02 0.18568531D+00 0.29461414D+05 0.29461414D+05 0.29461414D+05 0.11680666D+01  1  2  1  3  7  1       -1 0.131134371060D-03 0.100000000000D+01
  </mgrwgt>
  </event>
  <event>
  8     66 0.58687835E-06 0.10098811E+03 0.75467711E-02 0.10222818E+00
       -1 -1    0    0    0  501 0.00000000E+00 0.00000000E+00 0.43805573E+03 0.43805585E+03 0.32000000E+00 0.0000E+00 0.9000E+01
        1 -1    0    0  501    0 0.00000000E+00 0.00000000E+00 -.11682311E+04 0.11682311E+04 0.32000000E+00 0.0000E+00 0.9000E+01
       25  2    1    2    0    0 -.11160740E+03 0.70515685E+01 0.37403587E+03 0.49204336E+03 0.29949607E+03 0.0000E+00 0.0000E+00
       23  2    1    2    0    0 0.11160740E+03 -.70515685E+01 -.11042112E+04 0.11142436E+04 0.98744512E+02 0.0000E+00 0.0000E+00
       23  1    3    3    0    0 -.35970034E+02 0.79680124E+02 0.31806057E+03 0.34222879E+03 0.91188000E+02 0.0000E+00 0.9000E+01
      -11  1    4    4    0    0 0.11017932E+03 0.17255387E+02 -.10326267E+04 0.10386314E+04 0.51099893E-03 0.0000E+00 0.9000E+01
       11  1    4    4    0    0 0.14280853E+01 -.24306956E+02 -.71584530E+02 0.75612251E+02 0.51099893E-03 0.0000E+00 0.9000E+01
       23  1    3    3    0    0 -.75637368E+02 -.72628555E+02 0.55975295E+02 0.14981456E+03 0.91188000E+02 0.0000E+00 0.9000E+01
#aMCatNLO 1  0  0  2  1 0.98735246D+02 0.00000000D+00  -5  7  0 0.00000000D+00 0.00000000D+00 0.00000000D+00 0.00000000D+00 0.00000000D+00
  <mgrwgt>
 0.1087328413D-03    7    2    0
 0.715367347514057D+03 0.000000000000000D+00 0.000000000000000D+00 0.715367347514057D+03
 0.715367347514057D+03 0.000000000000000D+00 0.000000000000000D+00 -.715367347514057D+03
 0.546542720147170D+03 -.359700342316395D+02 0.796801237953630D+02 0.531743291552604D+03
 0.639071286053437D+03 0.110179317110146D+03 0.172553873278860D+02 -.629265348122158D+03
 0.483567738370242D+02 0.142808530948092D+01 -.243069558770356D+02 -.417793016249170D+02
 0.196763914990482D+03 -.756373681879870D+02 -.726285552462135D+02 0.139301358194471D+03
 0.000000000000000D+00 -.000000000000000D+00 -.000000000000000D+00 -.000000000000000D+00
 0.718611071067271D+03 0.000000000000000D+00 0.000000000000000D+00 0.718611071067271D+03
 0.229726843962987D+04 0.000000000000000D+00 0.000000000000000D+00 -.229726843962987D+04
 0.547630890607074D+03 -.107685702386091D+01 0.939800684765115D+02 0.531743291552604D+03
 0.648078389593075D+03 0.151226497634184D+03 0.340773696688927D+02 -.629265348122158D+03
 0.479268766669796D+02 0.449856923107005D+01 -.230486081501541D+02 -.417793016249170D+02
 0.190501359668377D+03 -.632874853885144D+02 -.675673182083964D+02 0.139301358194471D+03
 0.158174199416164D+04 -.913607244528788D+02 -.374415117868537D+02 -.157865736856260D+04
0.408737406666D-04 0.000000000000D+00 0.000000000000D+00 0.107548671918D-06 0.000000000000D+00  7 -1 1 23 -11 11 23 21 0 0.67393202D-01 0.17972787D+00 0.40232513D+05 0.40232513D+05 0.40232513D+05 0.11556919D+01  1  2  2  2  7  2        1 0.141178318201D-03 0.100000000000D+01
0.219341269619D-05 0.000000000000D+00 -.156965926463D-06 0.107548671918D-06 0.000000000000D+00  7 -1 1 23 -11 11 23 21 2 0.67393202D-01 0.17972787D+00 0.40232513D+05 0.40232513D+05 0.40232513D+05 0.11556919D+01  1  2  3  2  7  2        1 0.101187783635D-04 0.100000000000D+01
0.255642081087D-05 0.000000000000D+00 0.000000000000D+00 0.107548671918D-06 0.000000000000D+00  7 -1 1 23 -11 11 23 21 2 0.67393202D-01 0.17972787D+00 0.40232513D+05 0.40232513D+05 0.40232513D+05 0.11556919D+01  1  2 15  2  7  2        1 0.117934284022D-04 0.100000000000D+01
0.117858882523D-02 0.000000000000D+00 0.000000000000D+00 0.107548671918D-06 0.000000000000D+00  7 -1 1 23 -11 11 23 21 2 0.67393202D-01 0.57641449D+00 0.72397556D+05 0.72397556D+05 0.72397556D+05 0.11334184D+01  1  2 12  2  7  2        1 0.761244234747D-04 0.100000000000D+01
-.183585755402D-02 0.000000000000D+00 -.117189253372D-04 0.107548671918D-06 0.000000000000D+00  7 -1 1 23 -11 11 23 21 2 0.67393202D-01 0.57742820D+00 0.40232513D+05 0.40232513D+05 0.40232513D+05 0.11556919D+01  1  2  5  2  7  2        1 -.129659540788D-03 0.100000000000D+01
0.158242622653D-03 0.000000000000D+00 0.000000000000D+00 0.107548671918D-06 0.000000000000D+00  7 -1 21 23 -11 11 23 -1 2 0.67393202D-01 0.57641449D+00 0.72397556D+05 0.72397556D+05 0.72397556D+05 0.11334184D+01  1  2 12  4  7  2        1 0.110488141484D-05 0.100000000000D+01
-.246440228190D-03 0.000000000000D+00 -.157631534817D-05 0.107548671918D-06 0.000000000000D+00  7 -1 21 23 -11 11 23 -1 2 0.67393202D-01 0.57742820D+00 0.40232513D+05 0.40232513D+05 0.40232513D+05 0.11556919D+01  1  2  5  4  7  2        1 -.192744772595D-05 0.100000000000D+01
  </mgrwgt>
  </event>
  <event>
  8     66 0.58687835E-06 0.23860884E+03 0.75467711E-02 0.95628061E-01
       -1 -1    0    0    0  501 0.00000000E+00 0.00000000E+00 0.19427150E+03 0.19427176E+03 0.32000000E+00 0.0000E+00 0.9000E+01
        1 -1    0    0  501    0 0.00000000E+00 0.00000000E+00 -.12880140E+04 0.12880140E+04 0.32000000E+00 0.0000E+00 0.9000E+01
       25  2    1    2    0    0 -.35558531E+03 0.17417700E+03 -.90930217E+03 0.10360257E+04 0.29956686E+03 0.0000E+00 0.0000E+00
       23  2    1    2    0    0 0.35558531E+03 -.17417700E+03 -.18444033E+03 0.44626008E+03 0.91385380E+02 0.0000E+00 0.0000E+00
       23  1    3    3    0    0 -.57093640E+02 0.51432350E+02 -.85970646E+02 0.14700739E+03 0.91188000E+02 0.0000E+00 0.9000E+01
      -11  1    4    4    0    0 0.35727770E+03 -.17723988E+03 -.17378194E+03 0.43504194E+03 0.51099893E-03 0.0000E+00 0.9000E+01
       11  1    4    4    0    0 -.16923923E+01 0.30628794E+01 -.10658386E+02 0.11218138E+02 0.51099893E-03 0.0000E+00 0.9000E+01
       23  1    3    3    0    0 -.29849167E+03 0.12274465E+03 -.82333153E+03 0.88901832E+03 0.91188000E+02 0.0000E+00 0.9000E+01
#aMCatNLO 1  0  0  1  2 0.56743701D+02 0.00000000D+00  -5  7  0 0.00000000D+00 0.00000000D+00 0.00000000D+00 0.00000000D+00 0.00000000D+00
  <mgrwgt>
 0.3635253716D-03    9    2    0
 0.500224581007140D+03 0.000000000000000D+00 0.000000000000000D+00 0.500224581007140D+03
 0.500224581007140D+03 0.000000000000000D+00 0.000000000000000D+00 -.500224581007140D+03
 0.123821605817869D+03 -.570936399524810D+02 0.514323500610966D+02 0.333401914734293D+02
 0.454579617710095D+03 0.357277697378788D+03 -.177239883950122D+03 0.218131380893522D+03
 0.496872475949406D+01 -.169239227894305D+01 0.306287936154306D+01 -.352743591386397D+01
 0.417079213726822D+03 -.298491665147364D+03 0.122744654527482D+03 -.247944136453087D+03
 0.000000000000000D+00 0.000000000000000D+00 0.000000000000000D+00 0.000000000000000D+00
 0.536087137711336D+03 0.000000000000000D+00 0.000000000000000D+00 0.536087137711336D+03
 0.523989002720777D+03 0.000000000000000D+00 0.000000000000000D+00 -.523989002720777D+03
 0.124492818678669D+03 -.623418054045477D+02 0.467454970021340D+02 0.333401914734293D+02
 0.446891898040216D+03 0.338224951350943D+03 -.194254862196868D+03 0.218131380893522D+03
 0.493259129170310D+01 -.190165819225132D+01 0.287599527892725D+01 -.352743591386397D+01
 0.425739762886350D+03 -.316304780291100D+03 0.106836723658382D+03 -.247944136453087D+03
 0.580190695351747D+02 0.423232925369562D+02 0.377966462574245D+02 0.120981349905585D+02
0.208686581545D-04 0.000000000000D+00 0.000000000000D+00 0.203398819908D-05 0.000000000000D+00  7 -1 1 23 -11 11 23 21 0 0.29887946D-01 0.19815602D+00 0.18359143D+06 0.18359143D+06 0.18359143D+06 0.11006922D+01  1  2  2  1  7  1       -1 0.235988346035D-03 0.100000000000D+01
-.112558091102D-05 0.000000000000D+00 -.801411421570D-07 0.203398819908D-05 0.000000000000D+00  7 -1 1 23 -11 11 23 21 2 0.29887946D-01 0.19815602D+00 0.18359143D+06 0.18359143D+06 0.18359143D+06 0.11006922D+01  1  2  3  1  7  1       -1 -.154207151883D-04 0.100000000000D+01
0.133642765610D-05 0.000000000000D+00 0.000000000000D+00 0.203398819908D-05 0.000000000000D+00  7 -1 1 23 -11 11 23 21 2 0.29887946D-01 0.19815602D+00 0.18359143D+06 0.18359143D+06 0.18359143D+06 0.11006922D+01  1  2 15  1  7  1       -1 0.183093636829D-04 0.100000000000D+01
0.377462146969D-04 0.000000000000D+00 0.000000000000D+00 0.203398819908D-05 0.000000000000D+00  7 -1 1 23 -11 11 23 21 2 0.32698250D-01 0.19815602D+00 0.20988603D+06 0.20988603D+06 0.20988603D+06 0.10962197D+01  1  2 12  1  7  1       -1 0.438704142458D-03 0.100000000000D+01
-.333885600869D-04 0.000000000000D+00 0.000000000000D+00 0.203398819908D-05 0.000000000000D+00  7 -1 1 23 -11 11 23 21 2 0.29887946D-01 0.19815602D+00 0.18359143D+06 0.18359143D+06 0.18359143D+06 0.11006922D+01  1  2  4  1  7  1       -1 -.457430888002D-03 0.100000000000D+01
-.113945146632D-03 0.000000000000D+00 -.250066168966D-04 0.203398819908D-05 0.000000000000D+00  7 -1 1 23 -11 11 23 21 2 0.33539691D-01 0.19815602D+00 0.18359143D+06 0.18359143D+06 0.18359143D+06 0.11006922D+01  1  2  5  1  7  1       -1 -.128464483102D-02 0.100000000000D+01
0.116219967536D-03 0.000000000000D+00 0.248413858336D-04 0.203398819908D-05 0.000000000000D+00  7 -1 1 23 -11 11 23 21 2 0.29887946D-01 0.19815602D+00 0.18359143D+06 0.18359143D+06 0.18359143D+06 0.11006922D+01  1  2  6  1  7  1       -1 0.159224006113D-02 0.100000000000D+01
0.558658635480D-06 0.000000000000D+00 0.000000000000D+00 0.203398819908D-05 0.000000000000D+00  7 21 1 23 -11 11 23 1 2 0.32698250D-01 0.19815602D+00 0.20988603D+06 0.20988603D+06 0.20988603D+06 0.10962197D+01  1  2 12  3  7  1       -1 0.676237559550D-04 0.100000000000D+01
-.198252999774D-05 0.000000000000D+00 -.458660012394D-06 0.203398819908D-05 0.000000000000D+00  7 21 1 23 -11 11 23 1 2 0.33539691D-01 0.19815602D+00 0.18359143D+06 0.18359143D+06 0.18359143D+06 0.11006922D+01  1  2  5  3  7  1       -1 -.231843863430D-03 0.100000000000D+01
  </mgrwgt>
  </event>
  <event>
  8     66 0.58687835E-06 0.30054929E+03 0.75467711E-02 0.96079515E-01
       -1 -1    0    0    0  501 0.00000000E+00 0.00000000E+00 0.42783069E+02 0.42784266E+02 0.32000000E+00 0.0000E+00 0.9000E+01
        1 -1    0    0  501    0 0.00000000E+00 0.00000000E+00 -.27366996E+04 0.27366997E+04 0.32000000E+00 0.0000E+00 0.9000E+01
       25  2    1    2    0    0 0.13662406E+02 0.22391321E+03 -.21699200E+04 0.22020722E+04 0.30040829E+03 0.0000E+00 0.0000E+00
       23  2    1    2    0    0 -.13662406E+02 -.22391321E+03 -.52399655E+03 0.57741176E+03 0.92239742E+02 0.0000E+00 0.0000E+00
       23  1    3    3    0    0 -.43618700E+02 -.24141831E+02 -.54915728E+03 0.55890463E+03 0.91188000E+02 0.0000E+00 0.9000E+01
      -13  1    4    4    0    0 -.24639204E+02 -.14511095E+03 -.42872286E+03 0.45328532E+03 0.10565837E+00 0.0000E+00 0.9000E+01
       13  1    4    4    0    0 0.10976798E+02 -.78802258E+02 -.95273683E+02 0.12412644E+03 0.10565837E+00 0.0000E+00 0.9000E+01
       23  1    3    3    0    0 0.57281106E+02 0.24805504E+03 -.16207628E+04 0.16431675E+04 0.91188000E+02 0.0000E+00 0.9000E+01
#aMCatNLO 1  0  0  1  1 0.23234093D+03 0.00000000D+00  -5  7  0 0.00000000D+00 0.00000000D+00 0.00000000D+00 0.00000000D+00 0.00000000D+00
  <mgrwgt>
 0.2356896480D-03    3    2    0
 0.342178462408494D+03 0.000000000000000D+00 0.000000000000000D+00 0.342178462408494D+03
 0.342178462408494D+03 0.000000000000000D+00 0.000000000000000D+00 -.342178462408494D+03
 0.108251327520936D+03 -.436186999388485D+02 -.241418300451515D+02 -.302932273579538D+02
 0.153363919492090D+03 -.246392503314989D+02 -.145111035817315D+03 0.430834820912125D+02
 0.129096458711146D+03 0.109768443058543D+02 -.788021719164470D+02 0.101664262364384D+03
 0.293645219092817D+03 0.572811059644931D+02 0.248055037778914D+03 -.114454517097643D+03
 0.000000000000000D+00 -.000000000000000D+00 0.000000000000000D+00 -.000000000000000D+00
 0.404924538291212D+03 0.000000000000000D+00 0.000000000000000D+00 0.404924538291212D+03
 0.671150600371005D+03 0.000000000000000D+00 0.000000000000000D+00 -.671150600371005D+03
 0.101377822989829D+03 -.965880629562992D+01 -.308421706003308D+02 -.302932273579538D+02
 0.163290904186745D+03 0.266587876920495D+02 -.155232219593135D+03 0.430834820912125D+02
 0.145168424402626D+03 0.554077177693956D+02 -.875684532981689D+02 0.101664262364384D+03
 0.312884586233203D+03 0.155538851273898D+03 0.228668629721404D+03 -.114454517097643D+03
 0.353353400849814D+03 -.227946550439714D+03 0.449742137702310D+02 -.266226062079793D+03
0.173195214612D-04 0.000000000000D+00 0.000000000000D+00 0.300679352103D-06 0.000000000000D+00  7 -1 1 23 -13 13 23 21 0 0.65821042D-02 0.42103081D+00 0.90329876D+05 0.90329876D+05 0.90329876D+05 0.11253647D+01  1  2  2  1  7  1       -1 0.232594660519D-03 0.100000000000D+01
-.942509379953D-06 0.000000000000D+00 -.665115227458D-07 0.300679352103D-06 0.000000000000D+00  7 -1 1 23 -13 13 23 21 2 0.65821042D-02 0.42103081D+00 0.90329876D+05 0.90329876D+05 0.90329876D+05 0.11253647D+01  1  2  3  1  7  1       -1 -.160300957198D-04 0.100000000000D+01
0.112448300896D-05 0.000000000000D+00 0.000000000000D+00 0.300679352103D-06 0.000000000000D+00  7 -1 1 23 -13 13 23 21 2 0.65821042D-02 0.42103081D+00 0.90329876D+05 0.90329876D+05 0.90329876D+05 0.11253647D+01  1  2 15  1  7  1       -1 0.191250831581D-04 0.100000000000D+01
  </mgrwgt>
  </event>
  <event>
  9     66 0.58687835E-06 0.24237662E+03 0.75467711E-02 0.10290213E+00
       -3 -1    0    0    0  502 0.00000000E+00 0.00000000E+00 0.22882864E+03 0.22882919E+03 0.50000000E+00 0.0000E+00 0.9000E+01
        3 -1    0    0  501    0 0.00000000E+00 0.00000000E+00 -.32170459E+03 0.32170498E+03 0.50000000E+00 0.0000E+00 0.9000E+01
       25  2    1    2    0    0 0.72920293E+02 -.13736806E+03 -.62589918E+02 0.34378108E+03 0.30013427E+03 0.0000E+00 0.0000E+00
       23  2    1    2    0    0 -.48470994E+02 0.12802335E+03 -.82765331E+01 0.17254676E+03 0.10471137E+03 0.0000E+00 0.0000E+00
       23  1    3    3    0    0 0.11904502E+03 0.10840483E+02 -.64863789E+02 0.16374308E+03 0.91188000E+02 0.0000E+00 0.9000E+01
      -11  1    4    4    0    0 -.66658723E+02 0.82245176E+02 -.40869606E+02 0.11348118E+03 0.51099893E-03 0.0000E+00 0.9000E+01
       11  1    4    4    0    0 0.18187729E+02 0.45778171E+02 0.32593073E+02 0.59065580E+02 0.51099893E-03 0.0000E+00 0.9000E+01
       23  1    3    3    0    0 -.46124725E+02 -.14820854E+03 0.22738711E+01 0.18003801E+03 0.91188000E+02 0.0000E+00 0.9000E+01
       21  1    1    2  501  502 -.24449299E+02 0.93447135E+01 -.22009502E+02 0.34206324E+02 0.75000000E+00 0.0000E+00 0.9000E+01
#aMCatNLO 2  0  0  1  2 0.26174260D+02 0.00000000D+00  -5  7  0 0.00000000D+00 0.00000000D+00 0.00000000D+00 0.00000000D+00 0.00000000D+00
  <mgrwgt>
 0.1013574952D-04    1    2    0
 0.255385639674794D+03 0.000000000000000D+00 0.000000000000000D+00 0.255385639674794D+03
 0.255385639674794D+03 0.000000000000000D+00 0.000000000000000D+00 -.255385639674794D+03
 0.151024891665229D+03 0.111693942530396D+03 0.136501214704811D+02 -.427949055887697D+02
 0.113740787717387D+03 -.719839055209275D+02 0.842805028726223D+02 -.255358761757628D+02
 0.641971604993238D+02 0.151180129331533D+02 0.469514402058578D+02 0.410887255062105D+02
 0.181808439467648D+03 -.548280499426219D+02 -.144882064548961D+03 0.272420562583220D+02
 0.000000000000000D+00 -.000000000000000D+00 0.000000000000000D+00 -.000000000000000D+00
 0.262718024449656D+03 0.000000000000000D+00 0.000000000000000D+00 0.262718024449656D+03
 0.280197811905577D+03 0.000000000000000D+00 0.000000000000000D+00 -.280197811905577D+03
 0.156319824649571D+03 0.119045017615155D+03 0.108404829748725D+02 -.427949055887697D+02
 0.108902411627855D+03 -.666587224654900D+02 0.822451761841845D+02 -.255358761757628D+02
 0.641460658077412D+02 0.181877279571040D+02 0.457781710714257D+02 0.410887255062105D+02
 0.182073182042818D+03 -.461247243941604D+02 -.148208543767147D+03 0.272420562583220D+02
 0.314743522272479D+02 -.244492987126086D+02 0.934471353666386D+01 -.174797874559216D+02
0.568712565492D-06 0.000000000000D+00 0.000000000000D+00 0.240648729381D-08 0.244255738097D-10  7 -3 3 23 -11 11 23 21 2 0.35203888D-01 0.49492257D-01 0.65451763D+05 0.65451763D+05 0.65451763D+05 0.11371483D+01  1  2  1  1  7  1       -3 0.101357495248D-04 0.100000000000D+01
  </mgrwgt>
  </event>
  <event>
  8     66 0.58687835E-06 0.37831281E+03 0.75467711E-02 0.92725146E-01
       -1 -1    0    0    0  501 0.00000000E+00 0.00000000E+00 0.39894480E+03 0.39894493E+03 0.32000000E+00 0.0000E+00 0.9000E+01
        1 -1    0    0  501    0 0.00000000E+00 0.00000000E+00 -.91469930E+03 0.91469936E+03 0.32000000E+00 0.0000E+00 0.9000E+01
       25  2    1    2    0    0 0.24767947E+03 -.49840414E+03 -.36050902E+03 0.72869132E+03 0.30211336E+03 0.0000E+00 0.0000E+00
       23  2    1    2    0    0 -.24767947E+03 0.49840414E+03 -.15524548E+03 0.58495296E+03 0.91197626E+02 0.0000E+00 0.0000E+00
       23  1    3    3    0    0 0.12113870E+03 -.12455264E+03 -.23169215E+03 0.30361892E+03 0.91188000E+02 0.0000E+00 0.9000E+01
      -11  1    4    4    0    0 -.75045112E+02 0.15500420E+03 -.50262936E+01 0.17228852E+03 0.51099893E-03 0.0000E+00 0.9000E+01
       11  1    4    4    0    0 -.17263436E+03 0.34339994E+03 -.15021919E+03 0.41266445E+03 0.51099893E-03 0.0000E+00 0.9000E+01
       23  1    3    3    0    0 0.12654078E+03 -.37385149E+03 -.12881687E+03 0.42507240E+03 0.91188000E+02 0.0000E+00 0.9000E+01
#aMCatNLO 1  0  0  2  1 0.28146442D+02 0.00000000D+00  -5  7  0 0.00000000D+00 0.00000000D+00 0.00000000D+00 0.00000000D+00 0.00000000D+00
  <mgrwgt>
 0.2639473592D-03    9    2    0
 0.604081657104638D+03 0.000000000000000D+00 0.000000000000000D+00 0.604081657104638D+03
 0.604081657104638D+03 0.000000000000000D+00 0.000000000000000D+00 -.604081657104638D+03
 0.231219558134326D+03 0.121138695220835D+03 -.124552642658512D+03 -.122308169992064D+03
 0.185184809711851D+03 -.750451115797253D+02 0.155004197249963D+03 0.680833592803371D+02
 0.384565614154903D+03 -.172634361890099D+03 0.343399937863318D+03 0.128285369627915D+02
 0.407193332208197D+03 0.126540778248989D+03 -.373851492454769D+03 0.413962737489352D+02
 0.000000000000000D+00 0.000000000000000D+00 0.000000000000000D+00 -.000000000000000D+00
 0.616497428703789D+03 0.000000000000000D+00 0.000000000000000D+00 0.616497428703789D+03
 0.620410907514601D+03 0.000000000000000D+00 0.000000000000000D+00 -.620410907514601D+03
 0.233844040652562D+03 0.120522409443936D+03 -.129934000091345D+03 -.122308169992064D+03
 0.181846313356127D+03 -.755314881987859D+02 0.150757196049793D+03 0.680833592803371D+02
 0.377179363580274D+03 -.173643799301728D+03 0.334585612234411D+03 0.128285369627915D+02
 0.415621414353510D+03 0.125450413346959D+03 -.383372470367908D+03 0.413962737489352D+02
 0.284172042759185D+02 0.320246470961913D+01 0.279636621750486D+02 -.391347881081223D+01
0.167046615372D-04 0.000000000000D+00 0.000000000000D+00 0.240146297597D-06 0.000000000000D+00  7 -1 1 23 -11 11 23 21 0 0.61376137D-01 0.14072298D+00 0.33516731D+06 0.33516731D+06 0.33516731D+06 0.10810081D+01  1  2  2  2  7  2        1 0.970459053016D-04 0.100000000000D+01
-.925997042913D-06 0.000000000000D+00 -.641502987411D-07 0.240146297597D-06 0.000000000000D+00  7 -1 1 23 -11 11 23 21 2 0.61376137D-01 0.14072298D+00 0.33516731D+06 0.33516731D+06 0.33516731D+06 0.10810081D+01  1  2  3  2  7  2        1 -.628647261890D-05 0.100000000000D+01
0.107810836897D-05 0.000000000000D+00 0.000000000000D+00 0.240146297597D-06 0.000000000000D+00  7 -1 1 23 -11 11 23 21 2 0.61376137D-01 0.14072298D+00 0.33516731D+06 0.33516731D+06 0.33516731D+06 0.10810081D+01  1  2 15  2  7  2        1 0.731913648494D-05 0.100000000000D+01
0.295616107583D-04 0.000000000000D+00 0.000000000000D+00 0.240146297597D-06 0.000000000000D+00  7 -1 1 23 -11 11 23 21 2 0.61376137D-01 0.14593880D+00 0.35199930D+06 0.35199930D+06 0.35199930D+06 0.10794529D+01  1  2 12  2  7  2        1 0.187703159606D-03 0.100000000000D+01
-.248095238195D-04 0.000000000000D+00 0.000000000000D+00 0.240146297597D-06 0.000000000000D+00  7 -1 1 23 -11 11 23 21 2 0.61376137D-01 0.14072298D+00 0.33516731D+06 0.33516731D+06 0.33516731D+06 0.10810081D+01  1  2  4  2  7  2        1 -.168428607168D-03 0.100000000000D+01
-.327004368107D-03 0.000000000000D+00 -.484600668520D-04 0.240146297597D-06 0.000000000000D+00  7 -1 1 23 -11 11 23 21 2 0.61376137D-01 0.14666332D+00 0.33516731D+06 0.33516731D+06 0.33516731D+06 0.10810081D+01  1  2  5  2  7  2        1 -.206855720364D-02 0.100000000000D+01
0.328768348244D-03 0.000000000000D+00 0.484186746385D-04 0.240146297597D-06 0.000000000000D+00  7 -1 1 23 -11 11 23 21 2 0.61376137D-01 0.14072298D+00 0.33516731D+06 0.33516731D+06 0.33516731D+06 0.10810081D+01  1  2  6  2  7  2        1 0.223196524764D-02 0.100000000000D+01
0.456084173526D-06 0.000000000000D+00 0.000000000000D+00 0.240146297597D-06 0.000000000000D+00  7 -1 21 23 -11 11 23 -1 2 0.61376137D-01 0.14593880D+00 0.35199930D+06 0.35199930D+06 0.35199930D+06 0.10794529D+01  1  2 12  4  7  2        1 0.407772738624D-05 0.100000000000D+01
-.235552434733D-05 0.000000000000D+00 -.353443922236D-06 0.240146297597D-06 0.000000000000D+00  7 -1 21 23 -11 11 23 -1 2 0.61376137D-01 0.14666332D+00 0.33516731D+06 0.33516731D+06 0.33516731D+06 0.10810081D+01  1  2  5  4  7  2        1 -.208915337829D-04 0.100000000000D+01
  </mgrwgt>
  </event>
  <event>
  8     66 0.58687835E-06 0.46289982E+03 0.75467711E-02 0.92249315E-01
       -3 -1    0    0    0  501 0.00000000E+00 0.00000000E+00 0.37808400E+03 0.37808433E+03 0.50000000E+00 0.0000E+00 0.9000E+01
        3 -1    0    0  501    0 0.00000000E+00 0.00000000E+00 -.68128085E+03 0.68128103E+03 0.50000000E+00 0.0000E+00 0.9000E+01
       25  2    1    2    0    0 0.92601116E+02 0.43276614E+03 -.39292087E+02 0.53632743E+03 0.30040265E+03 0.0000E+00 0.0000E+00
       23  2    1    2    0    0 -.92601116E+02 -.43276614E+03 -.26390477E+03 0.52303793E+03 0.89785589E+02 0.0000E+00 0.0000E+00
       23  1    3    3    0    0 0.77771063E+02 0.26623077E+03 -.13674172E+03 0.32239837E+03 0.91188000E+02 0.0000E+00 0.9000E+01
      -11  1    4    4    0    0 -.27413204E+02 -.19239427E+03 -.16545890E+03 0.25523261E+03 0.51099893E-03 0.0000E+00 0.9000E+01
       11  1    4    4    0    0 -.65187912E+02 -.24037186E+03 -.98445866E+02 0.26780531E+03 0.51099893E-03 0.0000E+00 0.9000E+01
       23  1    3    3    0    0 0.14830053E+02 0.16653537E+03 0.97449637E+02 0.21392906E+03 0.91188000E+02 0.0000E+00 0.9000E+01
#aMCatNLO 1  0  0  1  1 0.27155458D+03 0.00000000D+00  -5  7  0 0.00000000D+00 0.00000000D+00 0.00000000D+00 0.00000000D+00 0.00000000D+00
  <mgrwgt>
 0.2010464577D-04    3    2    0
 0.507525031046275D+03 0.000000000000000D+00 0.000000000000000D+00 0.507525031046275D+03
 0.507525031046275D+03 0.000000000000000D+00 0.000000000000000D+00 -.507525031046275D+03
 0.295628773622720D+03 0.777710629704964D+02 0.266230766220592D+03 -.464107889580548D+02
 0.216952817485706D+03 -.274132035330201D+02 -.192394271374195D+03 -.964442099321451D+02
 0.250091304425147D+03 -.651879121188634D+02 -.240371864279644D+03 -.227500225358922D+02
 0.252377166558976D+03 0.148300526813871D+02 0.166535369433247D+03 0.165605021426092D+03
 0.000000000000000D+00 -.000000000000000D+00 -.000000000000000D+00 -.000000000000000D+00
 0.555964270429900D+03 0.000000000000000D+00 0.000000000000000D+00 0.555964270429900D+03
 0.112801806477647D+04 0.000000000000000D+00 0.000000000000000D+00 -.112801806477647D+04
 0.380130077595378D+03 0.983080309564862D+02 0.352654497017148D+03 -.464107889580548D+02
 0.172810490830844D+03 -.155679179395252D+02 -.142546904711360D+03 -.964442099321451D+02
 0.192290351990751D+03 -.517435038080795D+02 -.183795064561067D+03 -.227500225358922D+02
 0.305515728235132D+03 0.317849597452680D+02 0.237885060622769D+03 0.165605021426092D+03
 0.633235686554262D+03 -.627815689541494D+02 -.264197588367490D+03 -.572053794346568D+03
0.208204439034D-04 0.000000000000D+00 0.000000000000D+00 0.601735329289D-06 0.000000000000D+00  7 -3 3 23 -11 11 23 21 0 0.58166808D-01 0.10481248D+00 0.21427625D+06 0.21427625D+06 0.21427625D+06 0.10955330D+01  1  2  2  1  7  1       -3 0.198705797127D-04 0.100000000000D+01
-.114477867489D-05 0.000000000000D+00 -.799559867379D-07 0.601735329289D-06 0.000000000000D+00  7 -3 3 23 -11 11 23 21 2 0.58166808D-01 0.10481248D+00 0.21427625D+06 0.21427625D+06 0.21427625D+06 0.10955330D+01  1  2  3  1  7  1       -3 -.131127263551D-05 0.100000000000D+01
0.134912507034D-05 0.000000000000D+00 0.000000000000D+00 0.601735329289D-06 0.000000000000D+00  7 -3 3 23 -11 11 23 21 2 0.58166808D-01 0.10481248D+00 0.21427625D+06 0.21427625D+06 0.21427625D+06 0.10955330D+01  1  2 15  1  7  1       -3 0.154533869770D-05 0.100000000000D+01
  </mgrwgt>
  </event>
  <event>
  8     66 0.58687835E-06 0.25413907E+03 0.75467711E-02 0.99579333E-01
       -1 -1    0    0    0  501 0.00000000E+00 0.00000000E+00 0.37881147E+03 0.37881161E+03 0.32000000E+00 0.0000E+00 0.9000E+01
        1 -1    0    0  501    0 0.00000000E+00 0.00000000E+00 -.27128354E+03 0.27128373E+03 0.32000000E+00 0.0000E+00 0.9000E+01
       25  2    1    2    0    0 0.11599911E+03 0.10443000E+03 0.25004431E+03 0.42006968E+03 0.29929076E+03 0.0000E+00 0.0000E+00
       23  2    1    2    0    0 -.11599911E+03 -.10443000E+03 -.14251637E+03 0.23002566E+03 0.90771512E+02 0.0000E+00 0.0000E+00
       23  1    3    3    0    0 0.14149583E+03 0.15050871E+03 0.20693007E+03 0.30628296E+03 0.91188000E+02 0.0000E+00 0.9000E+01
      -11  1    4    4    0    0 -.20686841E+02 0.14125988E+02 -.62936749E+01 0.25828265E+02 0.51099893E-03 0.0000E+00 0.9000E+01
       11  1    4    4    0    0 -.95312272E+02 -.11855599E+03 -.13622270E+03 0.20419739E+03 0.51099893E-03 0.0000E+00 0.9000E+01
       23  1    3    3    0    0 -.25496716E+02 -.46078709E+02 0.43114234E+02 0.11378672E+03 0.91188000E+02 0.0000E+00 0.9000E+01
#aMCatNLO 1  0  0  1  1 0.13527685D+03 0.00000000D+00  -5  7  0 0.00000000D+00 0.00000000D+00 0.00000000D+00 0.00000000D+00 0.00000000D+00
  <mgrwgt>
 0.2774092443D-03    4    2    0
 0.320570464730462D+03 0.000000000000000D+00 0.000000000000000D+00 0.320570464730462D+03
 0.320570464730462D+03 0.000000000000000D+00 0.000000000000000D+00 -.320570464730462D+03
 0.275855665513318D+03 0.141495829490592D+03 0.150508710101043D+03 0.158452375407518D+03
 0.272445257916743D+02 -.206868411064992D+02 0.141259880864105D+02 -.107133212044747D+02
 0.229895663075326D+03 -.953122724416016D+02 -.118555989153649D+03 -.172371877226715D+03
 0.108145075080605D+03 -.254967159424917D+02 -.460787090338040D+02 0.246328230236718D+02
 0.000000000000000D+00 -.000000000000000D+00 0.000000000000000D+00 -.000000000000000D+00
 0.346143276836026D+03 0.000000000000000D+00 0.000000000000000D+00 0.346143276836026D+03
 0.574724900887522D+03 0.000000000000000D+00 0.000000000000000D+00 -.574724900887522D+03
 0.292226003215129D+03 0.193054712006116D+03 0.121258024522253D+03 0.158452375407518D+03
 0.225772508289353D+02 -.161650350548335D+02 0.115606507359410D+02 -.107133212044747D+02
 0.229809135674372D+03 -.535896346321287D+02 -.142226319085939D+03 -.172371877226715D+03
 0.110644444274463D+03 -.563945994388638D+01 -.573442431829945D+02 0.246328230236718D+02
 0.265611343730649D+03 -.117660582375267D+03 0.667518870107387D+02 -.228581624051496D+03
0.785069964110D-05 0.000000000000D+00 0.000000000000D+00 0.380150974635D-06 0.000000000000D+00  7 -1 1 23 -11 11 23 21 0 0.58278713D-01 0.41735954D-01 0.64586668D+05 0.64586668D+05 0.64586668D+05 0.11376432D+01  1  2  2  1  7  1       -1 0.295249521090D-03 0.100000000000D+01
-.407553121438D-06 0.000000000000D+00 -.301487537585D-07 0.380150974635D-06 0.000000000000D+00  7 -1 1 23 -11 11 23 21 2 0.58278713D-01 0.41735954D-01 0.64586668D+05 0.64586668D+05 0.64586668D+05 0.11376432D+01  1  2  3  1  7  1       -1 -.198370554537D-04 0.100000000000D+01
0.498548585763D-06 0.000000000000D+00 0.000000000000D+00 0.380150974635D-06 0.000000000000D+00  7 -1 1 23 -11 11 23 21 2 0.58278713D-01 0.41735954D-01 0.64586668D+05 0.64586668D+05 0.64586668D+05 0.11376432D+01  1  2 15  1  7  1       -1 0.242661273389D-04 0.100000000000D+01
-.457524686482D-06 0.000000000000D+00 0.000000000000D+00 0.380150974635D-06 0.000000000000D+00  7 -1 1 23 -11 11 23 21 2 0.58278713D-01 0.41735954D-01 0.64586668D+05 0.64586668D+05 0.64586668D+05 0.11376432D+01  1  2  4  1  7  1       -1 -.222693487052D-04 0.100000000000D+01
  </mgrwgt>
  </event>
  <event>
  8     66 0.58687835E-06 0.45416288E+03 0.75467711E-02 0.90341205E-01
       -1 -1    0    0    0  501 0.00000000E+00 0.00000000E+00 0.73986503E+03 0.73986510E+03 0.32000000E+00 0.0000E+00 0.9000E+01
        1 -1    0    0  501    0 0.00000000E+00 0.00000000E+00 -.44329543E+03 0.44329554E+03 0.32000000E+00 0.0000E+00 0.9000E+01
       25  2    1    2    0    0 0.41228619E+03 0.89253864E+02 0.48790531E+03 0.71106971E+03 0.29936998E+03 0.0000E+00 0.0000E+00
       23  2    1    2    0    0 -.41228619E+03 -.89253864E+02 -.19133571E+03 0.47209094E+03 0.91183044E+02 0.0000E+00 0.0000E+00
       23  1    3    3    0    0 0.11704515E+03 -.22367121E+02 0.29267061E+03 0.32889389E+03 0.91188000E+02 0.0000E+00 0.9000E+01
      -13  1    4    4    0    0 -.18672221E+03 -.82311349E+02 -.11269445E+03 0.23311026E+03 0.10565837E+00 0.0000E+00 0.9000E+01
       13  1    4    4    0    0 -.22556398E+03 -.69425155E+01 -.78641255E+02 0.23898068E+03 0.10565837E+00 0.0000E+00 0.9000E+01
       23  1    3    3    0    0 0.29524104E+03 0.11162099E+03 0.19523470E+03 0.38217582E+03 0.91188000E+02 0.0000E+00 0.9000E+01
#aMCatNLO 1  0  0  2  1 0.46251886D+03 0.00000000D+00  -5  7  0 0.00000000D+00 0.00000000D+00 0.00000000D+00 0.00000000D+00 0.00000000D+00
  <mgrwgt>
 0.1700613961D-03    3    2    0
 0.572694417451818D+03 0.000000000000000D+00 0.000000000000000D+00 0.572694417451818D+03
 0.572694417451818D+03 0.000000000000000D+00 0.000000000000000D+00 -.572694417451818D+03
 0.263960231989730D+03 0.117045148774184D+03 -.223671208620035D+02 0.217163297499476D+03
 0.269976993988011D+03 -.186722153930440D+03 -.823114499349365D+02 -.176768887884685D+03
 0.267223783638857D+03 -.225564032272991D+03 -.694241430683699D+01 -.143112615693404D+03
 0.344227825287038D+03 0.295241037429246D+03 0.111620985103777D+03 0.102718206078612D+03
 0.000000000000000D+00 0.000000000000000D+00 0.000000000000000D+00 0.000000000000000D+00
 0.126769475432352D+04 0.000000000000000D+00 0.000000000000000D+00 0.126769475432352D+04
 0.699893764428513D+03 0.000000000000000D+00 0.000000000000000D+00 -.699893764428513D+03
 0.263986308887629D+03 0.563579823178686D+02 -.105059030950831D+03 0.217163297499476D+03
 0.362564993953633D+03 -.259432509886235D+03 -.181386074247002D+03 -.176768887884685D+03
 0.344339626762359D+03 -.295862912201124D+03 -.102731178189015D+03 -.143112615693404D+03
 0.264357739463647D+03 0.225284459231843D+03 0.162986391744144D+02 0.102718206078612D+03
 0.732339849684763D+03 0.273652980537647D+03 0.372877644212434D+03 0.567800989895007D+03
0.349954107995D-04 0.000000000000D+00 0.000000000000D+00 0.660681734664D-06 0.000000000000D+00  7 -1 1 23 -13 13 23 21 0 0.11382540D+00 0.68199311D-01 0.20626392D+06 0.20626392D+06 0.20626392D+06 0.10967982D+01  1  2  2  2  7  2        1 0.167486365120D-03 0.100000000000D+01
-.181707120467D-05 0.000000000000D+00 -.134391591973D-06 0.660681734664D-06 0.000000000000D+00  7 -1 1 23 -13 13 23 21 2 0.11382540D+00 0.68199311D-01 0.20626392D+06 0.20626392D+06 0.20626392D+06 0.10967982D+01  1  2  3  2  7  2        1 -.104614958042D-04 0.100000000000D+01
0.226433177590D-05 0.000000000000D+00 0.000000000000D+00 0.660681734664D-06 0.000000000000D+00  7 -1 1 23 -13 13 23 21 2 0.11382540D+00 0.68199311D-01 0.20626392D+06 0.20626392D+06 0.20626392D+06 0.10967982D+01  1  2 15  2  7  2        1 0.130365267536D-04 0.100000000000D+01
  </mgrwgt>
  </event>
  <event>
  9     66 -.58687835E-06 0.16056287E+03 0.75467711E-02 0.10931248E+00
       -1 -1    0    0    0  501 0.00000000E+00 0.00000000E+00 0.23495724E+03 0.23495745E+03 0.32000000E+00 0.0000E+00 0.9000E+01
        1 -1    0    0  502    0 0.00000000E+00 0.00000000E+00 -.18522702E+03 0.18522729E+03 0.32000000E+00 0.0000E+00 0.9000E+01
       25  2    1    2    0    0 -.18575246E+02 0.14757777E+02 -.70562167E+01 0.30121449E+03 0.30019585E+03 0.0000E+00 0.0000E+00
       23  2    1    2    0    0 0.15155039E+02 -.19520489E+02 0.60528885E+02 0.11197385E+03 0.90904748E+02 0.0000E+00 0.0000E+00
       23  1    3    3    0    0 0.28536113E+02 0.80587287E+02 -.89753112E+02 0.15388143E+03 0.91188000E+02 0.0000E+00 0.9000E+01
      -11  1    4    4    0    0 0.25793938E+02 -.41978490E+02 0.69810955E+02 0.85446418E+02 0.51099893E-03 0.0000E+00 0.9000E+01
       11  1    4    4    0    0 -.10638899E+02 0.22458001E+02 -.92820698E+01 0.26527435E+02 0.51099893E-03 0.0000E+00 0.9000E+01
       23  1    3    3    0    0 -.47111359E+02 -.65829510E+02 0.82696896E+02 0.14733307E+03 0.91188000E+02 0.0000E+00 0.9000E+01
       21  1    1    2  502  501 0.34202069E+01 0.47627124E+01 -.37424489E+01 0.69964040E+01 0.75000000E+00 0.0000E+00 0.9000E+01
#aMCatNLO 2  0  0  2  1 0.58635522D+01 0.00000000D+00  -5  7  0 0.00000000D+00 0.00000000D+00 0.00000000D+00 0.00000000D+00 0.00000000D+00
  <mgrwgt>
 -.7284961387D-04    3    2    0
 0.204835849246264D+03 0.000000000000000D+00 0.000000000000000D+00 0.204835849246264D+03
 0.204835849246264D+03 0.000000000000000D+00 0.000000000000000D+00 -.204835849246264D+03
 0.168092557921842D+03 0.299344105633607D+02 0.825344476204472D+02 -.110597706598824D+03
 0.767950913530837D+02 0.264361464246092D+02 -.410842017428493D+02 0.592511990199182D+02
 0.281389640430245D+02 -.104047193646271D+02 0.227841000998462D+02 -.128229440846542D+02
 0.136645085174577D+03 -.459658376233428D+02 -.642343459774441D+02 0.641694516635599D+02
 0.000000000000000D+00 0.000000000000000D+00 0.000000000000000D+00 -.000000000000000D+00
 0.206266657037813D+03 0.000000000000000D+00 0.000000000000000D+00 0.206266657037813D+03
 0.210953538730258D+03 0.000000000000000D+00 0.000000000000000D+00 -.210953538730258D+03
 0.166900343308236D+03 0.285361123934193D+02 0.805872870678591D+02 -.110597706598824D+03
 0.770598825324925D+02 0.257939384027956D+02 -.419784903527555D+02 0.592511990199182D+02
 0.279638308383958D+02 -.106388987610359D+02 0.224580002073353D+02 -.128229440846542D+02
 0.137789601612420D+03 -.471113589728807D+02 -.658295093209398D+02 0.641694516635599D+02
 0.750653747652787D+01 0.342020693770170D+01 0.476271239850080D+01 -.468688169244555D+01
-.219178061365D-05 0.000000000000D+00 0.000000000000D+00 0.184957167066D-06 0.000000000000D+00  7 -1 1 23 -11 11 23 21 2 0.35893325D-01 0.28588736D-01 0.26718336D+05 0.26718336D+05 0.26718336D+05 0.11720329D+01  1  2 13  2  7  2        1 -.430711604981D-03 0.100000000000D+01
-.713194086847D-05 0.000000000000D+00 0.000000000000D+00 0.184957167066D-06 0.000000000000D+00  7 -1 1 23 -11 11 23 21 2 0.35893325D-01 0.27667603D-01 0.25780436D+05 0.25780436D+05 0.25780436D+05 0.11734935D+01  1  2  8  2  7  2        1 -.146431376306D-02 0.100000000000D+01
0.934179085423D-05 0.000000000000D+00 0.000000000000D+00 0.184957167066D-06 0.394310453828D-07  7 -1 1 23 -11 11 23 21 2 0.36144045D-01 0.28493932D-01 0.26718336D+05 0.26718336D+05 0.26718336D+05 0.11720329D+01  1  2  1  2  7  2        1 0.182217575417D-02 0.100000000000D+01
  </mgrwgt>
  </event>
  <event>
  8     66 0.58687835E-06 0.12484418E+03 0.75467711E-02 0.10440210E+00
       -1 -1    0    0    0  501 0.00000000E+00 0.00000000E+00 0.17768532E+03 0.17768561E+03 0.32000000E+00 0.0000E+00 0.9000E+01
        1 -1    0    0  501    0 0.00000000E+00 0.00000000E+00 -.40983206E+03 0.40983219E+03 0.32000000E+00 0.0000E+00 0.9000E+01
       25  2    1    2    0    0 0.87543275E+02 -.11867425E+03 -.25159486E+03 0.41851450E+03 0.30017830E+03 0.0000E+00 0.0000E+00
       23  2    1    2    0    0 -.87543275E+02 0.11867425E+03 0.19448121E+02 0.16900330E+03 0.80227684E+02 0.0000E+00 0.0000E+00
       23  1    3    3    0    0 -.10620469E+02 0.10973892E+02 0.14516932E+02 0.93590669E+02 0.91188000E+02 0.0000E+00 0.9000E+01
      -11  1    4    4    0    0 -.99613218E+02 0.11743366E+03 0.11337347E+02 0.15440853E+03 0.51099893E-03 0.0000E+00 0.9000E+01
       11  1    4    4    0    0 0.12069944E+02 0.12405929E+01 0.81107738E+01 0.14594768E+02 0.51099893E-03 0.0000E+00 0.9000E+01
       23  1    3    3    0    0 0.98163743E+02 -.12964814E+03 -.26611179E+03 0.32492383E+03 0.91188000E+02 0.0000E+00 0.9000E+01
#aMCatNLO 1  0  0  1  2 0.12707082D+02 0.00000000D+00  -5  7  0 0.00000000D+00 0.00000000D+00 0.00000000D+00 0.00000000D+00 0.00000000D+00
  <mgrwgt>
 0.3500948782D-03    9    2    0
 0.269854152952043D+03 0.000000000000000D+00 0.000000000000000D+00 0.269854152952043D+03
 0.269854152952043D+03 0.000000000000000D+00 0.000000000000000D+00 -.269854152952043D+03
 0.108125521510759D+03 -.106204688611922D+02 0.109738915343379D+02 0.560594006722741D+02
 0.172963218847397D+03 -.996132183924578D+02 0.117433659762854D+03 0.787579669001888D+02
 0.193763479162922D+02 0.120699438474960D+02 0.124059288976867D+01 0.151069600970330D+02
 0.239243217629638D+03 0.981637434061539D+02 -.129648144186961D+03 -.149924327669496D+03
 0.000000000000000D+00 -.000000000000000D+00 0.000000000000000D+00 0.000000000000000D+00
 0.285179893459326D+03 0.000000000000000D+00 0.000000000000000D+00 0.285179893459326D+03
 0.272575819584103D+03 0.000000000000000D+00 0.000000000000000D+00 -.272575819584103D+03
 0.107873775728919D+03 -.809989939617375D+01 0.106412110236807D+02 0.560594006722741D+02
 0.170324197713199D+03 -.956072804520785D+02 0.116904931037793D+03 0.787579669001888D+02
 0.196596312623094D+02 0.125254680015654D+02 0.118046996505040D+01 0.151069600970330D+02
 0.242000270466543D+03 0.103779537794541D+03 -.130389351827061D+03 -.149924327669496D+03
 0.178978378724578D+02 -.125978259478543D+02 0.166273980053617D+01 0.126040738752225D+02
0.372962895703D-05 0.000000000000D+00 0.000000000000D+00 0.510899456151D-08 0.000000000000D+00  7 -1 1 23 -11 11 23 21 0 0.27336235D-01 0.63051118D-01 0.49511501D+05 0.49511501D+05 0.49511501D+05 0.11476706D+01  1  2  2  1  7  1       -1 0.302106660217D-03 0.100000000000D+01
-.197827157418D-06 0.000000000000D+00 -.143227572288D-07 0.510899456151D-08 0.000000000000D+00  7 -1 1 23 -11 11 23 21 2 0.27336235D-01 0.63051118D-01 0.49511501D+05 0.49511501D+05 0.49511501D+05 0.11476706D+01  1  2  3  1  7  1       -1 -.211064462786D-04 0.100000000000D+01
0.241232770190D-06 0.000000000000D+00 0.000000000000D+00 0.510899456151D-08 0.000000000000D+00  7 -1 1 23 -11 11 23 21 2 0.27336235D-01 0.63051118D-01 0.49511501D+05 0.49511501D+05 0.49511501D+05 0.11476706D+01  1  2 15  1  7  1       -1 0.257374496562D-04 0.100000000000D+01
0.205936154734D-04 0.000000000000D+00 0.000000000000D+00 0.510899456151D-08 0.000000000000D+00  7 -1 1 23 -11 11 23 21 2 0.29021720D-01 0.63051118D-01 0.52541435D+05 0.52541435D+05 0.52541435D+05 0.11454063D+01  1  2 12  1  7  1       -1 0.198341131444D-02 0.100000000000D+01
-.209233781926D-04 0.000000000000D+00 0.000000000000D+00 0.510899456151D-08 0.000000000000D+00  7 -1 1 23 -11 11 23 21 2 0.27336235D-01 0.63051118D-01 0.49511501D+05 0.49511501D+05 0.49511501D+05 0.11476706D+01  1  2  4  1  7  1       -1 -.223234344340D-02 0.100000000000D+01
-.604348192895D-04 0.000000000000D+00 -.786959040915D-05 0.510899456151D-08 0.000000000000D+00  7 -1 1 23 -11 11 23 21 2 0.29134109D-01 0.63051118D-01 0.49511501D+05 0.49511501D+05 0.49511501D+05 0.11476706D+01  1  2  5  1  7  1       -1 -.580762462714D-02 0.100000000000D+01
0.608285822245D-04 0.000000000000D+00 0.785365292605D-05 0.510899456151D-08 0.000000000000D+00  7 -1 1 23 -11 11 23 21 2 0.27336235D-01 0.63051118D-01 0.49511501D+05 0.49511501D+05 0.49511501D+05 0.11476706D+01  1  2  6  1  7  1       -1 0.648988349063D-02 0.100000000000D+01
0.283479977886D-06 0.000000000000D+00 0.000000000000D+00 0.510899456151D-08 0.000000000000D+00  7 21 1 23 -11 11 23 1 2 0.29021720D-01 0.63051118D-01 0.52541435D+05 0.52541435D+05 0.52541435D+05 0.11454063D+01  1  2 12  3  7  1       -1 0.305362113694D-03 0.100000000000D+01
-.646581010299D-06 0.000000000000D+00 -.856331541069D-07 0.510899456151D-08 0.000000000000D+00  7 21 1 23 -11 11 23 1 2 0.29134109D-01 0.63051118D-01 0.49511501D+05 0.49511501D+05 0.49511501D+05 0.11476706D+01  1  2  5  3  7  1       -1 -.695331633575D-03 0.100000000000D+01
  </mgrwgt>
  </event>
  <event>
  8     66 0.58687835E-06 0.24257754E+03 0.75467711E-02 0.96029136E-01
       -1 -1    0    0    0  501 0.00000000E+00 0.00000000E+00 0.23044104E+03 0.23044126E+03 0.32000000E+00 0.0000E+00 0.9000E+01
        1 -1    0    0  501    0 0.00000000E+00 0.00000000E+00 -.70273868E+03 0.70273875E+03 0.32000000E+00 0.0000E+00 0.9000E+01
       25  2    1    2    0    0 -.41418907E+02 0.15327266E+03 -.61501669E+03 0.70202309E+03 0.29896967E+03 0.0000E+00 0.0000E+00
       23  2    1    2    0    0 0.41418907E+02 -.15327266E+03 0.14271905E+03 0.23115691E+03 0.88638351E+02 0.0000E+00 0.0000E+00
       23  1    3    3    0    0 -.69902207E+02 -.13424520E+02 -.38665064E+03 0.40358457E+03 0.91188000E+02 0.0000E+00 0.9000E+01
      -13  1    4    4    0    0 0.45313960E+02 -.30757123E+02 0.69098486E+02 0.88170106E+02 0.10565837E+00 0.0000E+00 0.9000E+01
       13  1    4    4    0    0 -.38950529E+01 -.12251554E+03 0.73620561E+02 0.14298681E+03 0.10565837E+00 0.0000E+00 0.9000E+01
       23  1    3    3    0    0 0.28483300E+02 0.16669718E+03 -.22836605E+03 0.29843853E+03 0.91188000E+02 0.0000E+00 0.9000E+01
#aMCatNLO 1  0  0  2  2 0.29144545D+03 0.00000000D+00  -5  7  0 0.00000000D+00 0.00000000D+00 0.00000000D+00 0.00000000D+00 0.00000000D+00
  <mgrwgt>
 0.1435599881D-03    5    2    0
 0.402417651514473D+03 0.000000000000000D+00 0.000000000000000D+00 0.402417651514473D+03
 0.402417651514473D+03 0.000000000000000D+00 0.000000000000000D+00 -.402417651514473D+03
 0.241046663537146D+03 -.699022070396210D+02 -.134245194940344D+02 -.211475072728996D+03
 0.142778971192362D+03 0.453140301062480D+02 -.307569925502531D+02 0.131857804848796D+03
 0.208990986867079D+03 -.389512265237777D+01 -.122515671287487D+03 0.169268930699567D+03
 0.212018681432359D+03 0.284832995857508D+02 0.166697183331774D+03 -.896516628193668D+02
 0.000000000000000D+00 -.000000000000000D+00 0.000000000000000D+00 -.000000000000000D+00
 0.479196532037766D+03 0.000000000000000D+00 0.000000000000000D+00 0.479196532037766D+03
 0.842681542053600D+03 0.000000000000000D+00 0.000000000000000D+00 -.842681542053600D+03
 0.260856748237769D+03 -.686212312093920D+02 -.101490945402807D+03 -.211475072728996D+03
 0.163227105899221D+03 0.460950297557050D+02 -.844503145791251D+02 0.131857804848796D+03
 0.266611411293180D+03 -.268127320933905D+01 -.205967192789394D+03 0.169268930699567D+03
 0.165283890141544D+03 0.294462646972256D+02 0.100493829887339D+03 -.896516628193668D+02
 0.465898918519652D+03 -.423879003419946D+01 0.291414622883987D+03 -.363485010015834D+03
0.624940083259D-05 0.000000000000D+00 0.000000000000D+00 0.440326494951D-07 0.000000000000D+00  7 -1 1 23 -13 13 23 21 0 0.35452490D-01 0.10811367D+00 0.58843862D+05 0.58843862D+05 0.58843862D+05 0.11411254D+01  1  2  2  2  7  2        1 0.154603527603D-03 0.100000000000D+01
-.239035927253D-06 0.000000000000D+00 -.239993447022D-07 0.440326494951D-07 0.000000000000D+00  7 -1 1 23 -13 13 23 21 2 0.35452490D-01 0.10811367D+00 0.58843862D+05 0.58843862D+05 0.58843862D+05 0.11411254D+01  1  2  3  2  7  2        1 -.770035840550D-05 0.100000000000D+01
0.394123270179D-06 0.000000000000D+00 0.000000000000D+00 0.440326494951D-07 0.000000000000D+00  7 -1 1 23 -13 13 23 21 2 0.35452490D-01 0.10811367D+00 0.58843862D+05 0.58843862D+05 0.58843862D+05 0.11411254D+01  1  2 15  2  7  2        1 0.126963777839D-04 0.100000000000D+01
-.217168000966D-05 0.000000000000D+00 -.184473463263D-05 0.440326494951D-07 0.000000000000D+00  7 -1 1 23 -13 13 23 21 2 0.35452490D-01 0.24537680D+00 0.58843862D+05 0.58843862D+05 0.58843862D+05 0.11411254D+01  1  2  5  2  7  2        1 -.156166709635D-04 0.100000000000D+01
-.767564050653D-07 0.000000000000D+00 -.164319736532D-06 0.440326494951D-07 0.000000000000D+00  7 -1 21 23 -13 13 23 -1 2 0.35452490D-01 0.24537680D+00 0.58843862D+05 0.58843862D+05 0.58843862D+05 0.11411254D+01  1  2  5  4  7  2        1 -.422887923240D-06 0.100000000000D+01
  </mgrwgt>
  </event>
  <event>
  8     66 0.58687835E-06 0.13012608E+03 0.75467711E-02 0.10633283E+00
       -1 -1    0    0    0  501 0.00000000E+00 0.00000000E+00 0.31455749E+03 0.31455765E+03 0.32000000E+00 0.0000E+00 0.9000E+01
        1 -1    0    0  501    0 0.00000000E+00 0.00000000E+00 -.53352646E+03 0.53352655E+03 0.32000000E+00 0.0000E+00 0.9000E+01
       25  2    1    2    0    0 -.59764561E+02 0.98403557E+02 -.46429766E+03 0.56196030E+03 0.29491016E+03 0.0000E+00 0.0000E+00
       23  2    1    2    0    0 0.59764561E+02 -.98403557E+02 0.24532869E+03 0.28612390E+03 0.91791397E+02 0.0000E+00 0.0000E+00
       23  1    3    3    0    0 0.15546494E+02 0.62356558E+02 -.37620701E+02 0.11773106E+03 0.91188000E+02 0.0000E+00 0.9000E+01
      -11  1    4    4    0    0 0.51343662E+01 -.92030304E+02 0.15787420E+03 0.18281193E+03 0.51099893E-03 0.0000E+00 0.9000E+01
       11  1    4    4    0    0 0.54630195E+02 -.63732521E+01 0.87454484E+02 0.10331197E+03 0.51099893E-03 0.0000E+00 0.9000E+01
       23  1    3    3    0    0 -.75311055E+02 0.36046999E+02 -.42667695E+03 0.44422924E+03 0.91188000E+02 0.0000E+00 0.9000E+01
#aMCatNLO 1  0  0  1  2 0.19217367D+02 0.00000000D+00  -5  7  0 0.00000000D+00 0.00000000D+00 0.00000000D+00 0.00000000D+00 0.00000000D+00
  <mgrwgt>
 0.5039396686D-03    9    2    0
 0.409664314739363D+03 0.000000000000000D+00 0.000000000000000D+00 0.409664314739363D+03
 0.409664314739363D+03 0.000000000000000D+00 0.000000000000000D+00 -.409664314739363D+03
 0.111808719642597D+03 0.155464940296431D+02 0.623565576979883D+02 -.747694319629507D+01
 0.231420527336526D+03 0.513436618806989D+01 -.920303044258294D+02 0.212272282278803D+03
 0.130310432863661D+03 0.546301949859683D+02 -.637325212463919D+01 0.118134382659180D+03
 0.345788949635941D+03 -.753110552036813D+02 0.360469988524803D+02 -.322929721741689D+03
 0.000000000000000D+00 -.000000000000000D+00 -.000000000000000D+00 0.000000000000000D+00
 0.425853007947265D+03 0.000000000000000D+00 0.000000000000000D+00 0.425853007947265D+03
 0.415520122084719D+03 0.000000000000000D+00 0.000000000000000D+00 -.415520122084719D+03
 0.113345337958229D+03 0.160711615383098D+02 0.649440326751739D+02 -.747694319629507D+01
 0.229392588174379D+03 0.620818058809593D+01 -.867346307957441D+02 0.212272282278803D+03
 0.130454409192377D+03 0.552378448834975D+02 -.337653729329487D+01 0.118134382659180D+03
 0.346361635004821D+03 -.736981643380434D+02 0.440012073499236D+02 -.322929721741689D+03
 0.218191597021794D+02 -.381902267185981D+01 -.188340719360585D+02 0.103328858625460D+02
0.136938199854D-04 0.000000000000D+00 0.000000000000D+00 0.124384114710D-07 0.000000000000D+00  7 -1 1 23 -11 11 23 21 0 0.48393479D-01 0.82081013D-01 0.36551838D+05 0.36551838D+05 0.36551838D+05 0.11594591D+01  1  2  2  1  7  1       -1 0.296372140654D-03 0.100000000000D+01
-.223548619058D-06 0.000000000000D+00 -.525878744095D-07 0.124384114710D-07 0.000000000000D+00  7 -1 1 23 -11 11 23 21 2 0.48393479D-01 0.82081013D-01 0.36551838D+05 0.36551838D+05 0.36551838D+05 0.11594591D+01  1  2  3  1  7  1       -1 -.650422566201D-05 0.100000000000D+01
0.869440377830D-06 0.000000000000D+00 0.000000000000D+00 0.124384114710D-07 0.000000000000D+00  7 -1 1 23 -11 11 23 21 2 0.48393479D-01 0.82081013D-01 0.36551838D+05 0.36551838D+05 0.36551838D+05 0.11594591D+01  1  2 15  1  7  1       -1 0.252966734525D-04 0.100000000000D+01
0.400726463677D-04 0.000000000000D+00 0.000000000000D+00 0.124384114710D-07 0.000000000000D+00  7 -1 1 23 -11 11 23 21 2 0.50642195D-01 0.82081013D-01 0.39968845D+05 0.39968845D+05 0.39968845D+05 0.11559488D+01  1  2 12  1  7  1       -1 0.106736218993D-02 0.100000000000D+01
-.390841893590D-04 0.000000000000D+00 0.000000000000D+00 0.124384114710D-07 0.000000000000D+00  7 -1 1 23 -11 11 23 21 2 0.48393479D-01 0.82081013D-01 0.36551838D+05 0.36551838D+05 0.36551838D+05 0.11594591D+01  1  2  4  1  7  1       -1 -.113716822980D-02 0.100000000000D+01
-.198097899858D-03 0.000000000000D+00 -.352959339423D-04 0.124384114710D-07 0.000000000000D+00  7 -1 1 23 -11 11 23 21 2 0.50907670D-01 0.82081013D-01 0.36551838D+05 0.36551838D+05 0.36551838D+05 0.11594591D+01  1  2  5  1  7  1       -1 -.526925953436D-02 0.100000000000D+01
0.199674645451D-03 0.000000000000D+00 0.352507104375D-04 0.124384114710D-07 0.000000000000D+00  7 -1 1 23 -11 11 23 21 2 0.48393479D-01 0.82081013D-01 0.36551838D+05 0.36551838D+05 0.36551838D+05 0.11594591D+01  1  2  6  1  7  1       -1 0.580960400683D-02 0.100000000000D+01
0.600634229873D-06 0.000000000000D+00 0.000000000000D+00 0.124384114710D-07 0.000000000000D+00  7 21 1 23 -11 11 23 1 2 0.50642195D-01 0.82081013D-01 0.39968845D+05 0.39968845D+05 0.39968845D+05 0.11559488D+01  1  2 12  3  7  1       -1 0.152021785643D-03 0.100000000000D+01
-.171443494216D-05 0.000000000000D+00 -.311141823234D-06 0.124384114710D-07 0.000000000000D+00  7 21 1 23 -11 11 23 1 2 0.50907670D-01 0.82081013D-01 0.36551838D+05 0.36551838D+05 0.36551838D+05 0.11594591D+01  1  2  5  3  7  1       -1 -.433785138118D-03 0.100000000000D+01
  </mgrwgt>
  </event>
  <event>
  8     66 0.58687835E-06 0.31181510E+03 0.75467711E-02 0.92808196E-01
       -1 -1    0    0    0  501 0.00000000E+00 0.00000000E+00 0.14385641E+03 0.14385677E+03 0.32000000E+00 0.0000E+00 0.9000E+01
        1 -1    0    0  501    0 0.00000000E+00 0.00000000E+00 -.25767097E+04 0.25767098E+04 0.32000000E+00 0.0000E+00 0.9000E+01
       25  2    1    2    0    0 -.19611947E+03 0.36625251E+03 -.21504609E+04 0.22106831E+04 0.30005671E+03 0.0000E+00 0.0000E+00
       23  2    1    2    0    0 0.19611947E+03 -.36625251E+03 -.28239241E+03 0.50988338E+03 0.87360434E+02 0.0000E+00 0.0000E+00
       23  1    3    3    0    0 -.14648460E+03 0.26235080E+03 -.93366329E+03 0.98505232E+03 0.91188000E+02 0.0000E+00 0.9000E+01
      -11  1    4    4    0    0 0.16917977E+03 -.27883696E+03 -.17976465E+03 0.37240727E+03 0.51099893E-03 0.0000E+00 0.9000E+01
       11  1    4    4    0    0 0.26939707E+02 -.87415546E+02 -.10262776E+03 0.13747611E+03 0.51099893E-03 0.0000E+00 0.9000E+01
       23  1    3    3    0    0 -.49634878E+02 0.10390170E+03 -.12167976E+04 0.12256308E+04 0.91188000E+02 0.0000E+00 0.9000E+01
#aMCatNLO 1  0  0  2  1 0.26157443D+03 0.00000000D+00  -5  7  0 0.00000000D+00 0.00000000D+00 0.00000000D+00 0.00000000D+00 0.00000000D+00
  <mgrwgt>
 0.2025525925D-03    9    2    0
 0.608832262408465D+03 0.000000000000000D+00 0.000000000000000D+00 0.608832262408465D+03
 0.608832262408465D+03 0.000000000000000D+00 0.000000000000000D+00 -.608832262408465D+03
 0.335424505776310D+03 -.146484595565564D+03 0.262350804586173D+03 -.117935008908562D+03
 0.472886997490840D+03 0.169179766742692D+03 -.278836962388827D+03 0.342418263716412D+03
 0.102109104182536D+03 0.269397070021694D+02 -.874155455116830D+02 0.453766872577994D+02
 0.307243917367243D+03 -.496348781792968D+02 0.103901703314337D+03 -.269859942065649D+03
 0.000000000000000D+00 0.000000000000000D+00 0.000000000000000D+00 -.000000000000000D+00
 0.661743956195376D+03 0.000000000000000D+00 0.000000000000000D+00 0.661743956195376D+03
 0.106106595913664D+04 0.000000000000000D+00 0.000000000000000D+00 -.106106595913664D+04
 0.352159180771587D+03 -.214613771573943D+03 0.236078588572239D+03 -.117935008908562D+03
 0.471317638941573D+03 0.756233239096788D+02 -.314914531788784D+03 0.342418263716412D+03
 0.105795374214118D+03 0.633950795915584D+01 -.953594677913467D+02 0.453766872577994D+02
 0.316170730199354D+03 -.111405869959956D+03 0.800813529954535D+02 -.269859942065649D+03
 0.477366991205385D+03 0.244056809665064D+03 0.941140580124386D+02 -.399322002941266D+03
0.794158229985D-04 0.000000000000D+00 0.000000000000D+00 0.461049086585D-06 0.000000000000D+00  7 -1 1 23 -11 11 23 21 0 0.22131784D-01 0.39641691D+00 0.19294485D+06 0.19294485D+06 0.19294485D+06 0.10990253D+01  1  2  2  2  7  2        1 0.201205820047D-03 0.100000000000D+01
-.384026949744D-05 0.000000000000D+00 -.304977670981D-06 0.461049086585D-06 0.000000000000D+00  7 -1 1 23 -11 11 23 21 2 0.22131784D-01 0.39641691D+00 0.19294485D+06 0.19294485D+06 0.19294485D+06 0.10990253D+01  1  2  3  2  7  2        1 -.117519668687D-04 0.100000000000D+01
0.516002948911D-05 0.000000000000D+00 0.000000000000D+00 0.461049086585D-06 0.000000000000D+00  7 -1 1 23 -11 11 23 21 2 0.22131784D-01 0.39641691D+00 0.19294485D+06 0.19294485D+06 0.19294485D+06 0.10990253D+01  1  2 15  2  7  2        1 0.157906875124D-04 0.100000000000D+01
0.290481274397D-04 0.000000000000D+00 0.000000000000D+00 0.461049086585D-06 0.000000000000D+00  7 -1 1 23 -11 11 23 21 2 0.22131784D-01 0.69692031D+00 0.34667186D+06 0.34667186D+06 0.34667186D+06 0.10799362D+01  1  2 12  2  7  2        1 0.177256609816D-05 0.100000000000D+01
-.657563257580D-04 0.000000000000D+00 0.000000000000D+00 0.461049086585D-06 0.000000000000D+00  7 -1 1 23 -11 11 23 21 2 0.22131784D-01 0.39641691D+00 0.19294485D+06 0.19294485D+06 0.19294485D+06 0.10990253D+01  1  2  4  2  7  2        1 -.201227065505D-03 0.100000000000D+01
-.639913556319D-04 0.000000000000D+00 -.176438370014D-04 0.461049086585D-06 0.000000000000D+00  7 -1 1 23 -11 11 23 21 2 0.22131784D-01 0.69823192D+00 0.19294485D+06 0.19294485D+06 0.19294485D+06 0.10990253D+01  1  2  5  2  7  2        1 -.418562484702D-05 0.100000000000D+01
0.656668126862D-04 0.000000000000D+00 0.151507673452D-04 0.461049086585D-06 0.000000000000D+00  7 -1 1 23 -11 11 23 21 2 0.22131784D-01 0.39641691D+00 0.19294485D+06 0.19294485D+06 0.19294485D+06 0.10990253D+01  1  2  6  2  7  2        1 0.200953138205D-03 0.100000000000D+01
0.180798572380D-05 0.000000000000D+00 0.000000000000D+00 0.461049086585D-06 0.000000000000D+00  7 -1 21 23 -11 11 23 -1 2 0.22131784D-01 0.69692031D+00 0.34667186D+06 0.34667186D+06 0.34667186D+06 0.10799362D+01  1  2 12  4  7  2        1 0.582843371872D-08 0.100000000000D+01
-.308817672662D-05 0.000000000000D+00 -.110127197040D-05 0.461049086585D-06 0.000000000000D+00  7 -1 21 23 -11 11 23 -1 2 0.22131784D-01 0.69823192D+00 0.19294485D+06 0.19294485D+06 0.19294485D+06 0.10990253D+01  1  2  5  4  7  2        1 -.107906244852D-07 0.100000000000D+01
  </mgrwgt>
  </event>
  <event>
  8     66 0.58687835E-06 0.20039178E+03 0.75467711E-02 0.98779315E-01
       -1 -1    0    0    0  501 0.00000000E+00 0.00000000E+00 0.14905891E+03 0.14905926E+03 0.32000000E+00 0.0000E+00 0.9000E+01
        1 -1    0    0  501    0 0.00000000E+00 0.00000000E+00 -.10406340E+04 0.10406341E+04 0.32000000E+00 0.0000E+00 0.9000E+01
       25  2    1    2    0    0 0.50407495E+02 -.24664311E+03 -.18074721E+03 0.43031085E+03 0.29853666E+03 0.0000E+00 0.0000E+00
       23  2    1    2    0    0 -.50407495E+02 0.24664311E+03 -.71082792E+03 0.75938250E+03 0.89508136E+02 0.0000E+00 0.0000E+00
       23  1    3    3    0    0 0.74570937E+02 -.37002654E+01 -.90102124E+01 0.11819878E+03 0.91188000E+02 0.0000E+00 0.9000E+01
      -11  1    4    4    0    0 -.21347738E+02 0.10246646E+03 -.42784151E+03 0.44045824E+03 0.51099893E-03 0.0000E+00 0.9000E+01
       11  1    4    4    0    0 -.29059757E+02 0.14417665E+03 -.28298641E+03 0.31892426E+03 0.51099893E-03 0.0000E+00 0.9000E+01
       23  1    3    3    0    0 -.24163442E+02 -.24294284E+03 -.17173700E+03 0.31211207E+03 0.91188000E+02 0.0000E+00 0.9000E+01
#aMCatNLO 1  0  0  2  1 0.68138372D+02 0.00000000D+00  -5  7  0 0.00000000D+00 0.00000000D+00 0.00000000D+00 0.00000000D+00 0.00000000D+00
  <mgrwgt>
 0.2428572476D-03    9    2    0
 0.393847703144699D+03 0.000000000000000D+00 0.000000000000000D+00 0.393847703144699D+03
 0.393847703144699D+03 0.000000000000000D+00 0.000000000000000D+00 -.393847703144699D+03
 0.168322706689963D+03 0.745709374225338D+02 -.370026543705303D+01 0.120178057777014D+03
 0.180980344429866D+03 -.213477384440853D+02 0.102466462246169D+03 -.147644110102741D+03
 0.161380178553564D+03 -.290597570039100D+02 0.144176646704023D+03 -.664242959920337D+02
 0.277012176616005D+03 -.241634419745386D+02 -.242942843513139D+03 0.938903483177609D+02
 0.000000000000000D+00 -.000000000000000D+00 -.000000000000000D+00 -.000000000000000D+00
 0.419986101271496D+03 0.000000000000000D+00 0.000000000000000D+00 0.419986101271496D+03
 0.442372527974309D+03 0.000000000000000D+00 0.000000000000000D+00 -.442372527974309D+03
 0.175197188790786D+03 0.890821359796224D+02 -.641166473667955D+00 0.120178057777014D+03
 0.181677635537762D+03 -.602809604532992D+01 0.105695988876729D+03 -.147644110102741D+03
 0.162095763340326D+03 -.153952686205099D+02 0.147057251092723D+03 -.664242959920337D+02
 0.271666428172316D+03 -.985791180930200D+00 -.238056773817553D+03 0.938903483177609D+02
 0.717216134046151D+02 -.666729801328523D+02 -.140552996782317D+02 -.223864267028135D+02
0.510494479215D-05 0.000000000000D+00 0.000000000000D+00 0.499209855721D-07 0.000000000000D+00  7 -1 1 23 -11 11 23 21 0 0.22932171D-01 0.16009758D+00 0.99292073D+05 0.99292073D+05 0.99292073D+05 0.11219753D+01  1  2  2  2  7  2        1 0.136274172178D-03 0.100000000000D+01
-.266451917526D-06 0.000000000000D+00 -.196043321647D-07 0.499209855721D-07 0.000000000000D+00  7 -1 1 23 -11 11 23 21 2 0.22932171D-01 0.16009758D+00 0.99292073D+05 0.99292073D+05 0.99292073D+05 0.11219753D+01  1  2  3  2  7  2        1 -.895381187990D-05 0.100000000000D+01
0.326800669558D-06 0.000000000000D+00 0.000000000000D+00 0.499209855721D-07 0.000000000000D+00  7 -1 1 23 -11 11 23 21 2 0.22932171D-01 0.16009758D+00 0.99292073D+05 0.99292073D+05 0.99292073D+05 0.11219753D+01  1  2 15  2  7  2        1 0.109817626558D-04 0.100000000000D+01
0.657299591946D-05 0.000000000000D+00 0.000000000000D+00 0.499209855721D-07 0.000000000000D+00  7 -1 1 23 -11 11 23 21 2 0.22932171D-01 0.18461836D+00 0.12400031D+06 0.12400031D+06 0.12400031D+06 0.11141353D+01  1  2 12  2  7  2        1 0.166437149024D-03 0.100000000000D+01
-.624694295398D-05 0.000000000000D+00 0.000000000000D+00 0.499209855721D-07 0.000000000000D+00  7 -1 1 23 -11 11 23 21 2 0.22932171D-01 0.16009758D+00 0.99292073D+05 0.99292073D+05 0.99292073D+05 0.11219753D+01  1  2  4  2  7  2        1 -.209921371757D-03 0.100000000000D+01
-.161833715038D-04 0.000000000000D+00 -.408813124427D-05 0.499209855721D-07 0.000000000000D+00  7 -1 1 23 -11 11 23 21 2 0.22932171D-01 0.18726109D+00 0.99292073D+05 0.99292073D+05 0.99292073D+05 0.11219753D+01  1  2  5  2  7  2        1 -.406522497182D-03 0.100000000000D+01
0.166686402656D-04 0.000000000000D+00 0.403843509112D-05 0.499209855721D-07 0.000000000000D+00  7 -1 1 23 -11 11 23 21 2 0.22932171D-01 0.16009758D+00 0.99292073D+05 0.99292073D+05 0.99292073D+05 0.11219753D+01  1  2  6  2  7  2        1 0.560130587977D-03 0.100000000000D+01
0.143816635382D-06 0.000000000000D+00 0.000000000000D+00 0.499209855721D-07 0.000000000000D+00  7 -1 21 23 -11 11 23 -1 2 0.22932171D-01 0.18461836D+00 0.12400031D+06 0.12400031D+06 0.12400031D+06 0.11141353D+01  1  2 12  4  7  2        1 0.396504269980D-05 0.100000000000D+01
-.351745790295D-06 0.000000000000D+00 -.966085699604D-07 0.499209855721D-07 0.000000000000D+00  7 -1 21 23 -11 11 23 -1 2 0.22932171D-01 0.18726109D+00 0.99292073D+05 0.99292073D+05 0.99292073D+05 0.11219753D+01  1  2  5  4  7  2        1 -.953378610225D-05 0.100000000000D+01
  </mgrwgt>
  </event>
  <event>
  8     66 0.58687835E-06 0.15300807E+03 0.75467711E-02 0.99942219E-01
       -1 -1    0    0    0  501 0.00000000E+00 0.00000000E+00 0.90569096E+03 0.90569101E+03 0.32000000E+00 0.0000E+00 0.9000E+01
        1 -1    0    0  501    0 0.00000000E+00 0.00000000E+00 -.14320630E+03 0.14320666E+03 0.32000000E+00 0.0000E+00 0.9000E+01
       25  2    1    2    0    0 0.23799919E+03 0.14790039E+03 0.36724605E+03 0.55577673E+03 0.30903071E+03 0.0000E+00 0.0000E+00
       23  2    1    2    0    0 -.23799919E+03 -.14790039E+03 0.39523860E+03 0.49312094E+03 0.91850812E+02 0.0000E+00 0.0000E+00
       23  1    3    3    0    0 0.18349144E+03 0.11335233E+03 0.37682263E+03 0.44365347E+03 0.91188000E+02 0.0000E+00 0.9000E+01
      -13  1    4    4    0    0 -.74676716E+02 -.42041632E+02 0.19931350E+03 0.21695620E+03 0.10565837E+00 0.0000E+00 0.9000E+01
       13  1    4    4    0    0 -.16332247E+03 -.10585876E+03 0.19592510E+03 0.27616474E+03 0.10565837E+00 0.0000E+00 0.9000E+01
       23  1    3    3    0    0 0.54507751E+02 0.34548064E+02 -.95765787E+01 0.11212326E+03 0.91188000E+02 0.0000E+00 0.9000E+01
#aMCatNLO 1  0  0  1  2 0.15276940D+02 0.00000000D+00  -5  7  0 0.00000000D+00 0.00000000D+00 0.00000000D+00 0.00000000D+00 0.00000000D+00
  <mgrwgt>
 0.2634335429D-03    9    2    0
 0.360140073124632D+03 0.000000000000000D+00 0.000000000000000D+00 0.360140073124632D+03
 0.360140073124632D+03 0.000000000000000D+00 0.000000000000000D+00 -.360140073124632D+03
 0.247161643126802D+03 0.183491437364433D+03 0.113352328661293D+03 0.790934162249731D+02
 0.104947061844303D+03 -.746765984799221D+02 -.420415476913484D+02 0.605788717040564D+02
 0.194755828736363D+03 -.163322589518640D+03 -.105858845050844D+03 -.703345606476713D+01
 0.173415612541796D+03 0.545077506341284D+02 0.345480640808989D+02 -.132638831864262D+03
 0.000000000000000D+00 -.000000000000000D+00 0.000000000000000D+00 0.000000000000000D+00
 0.379985469706460D+03 0.000000000000000D+00 0.000000000000000D+00 0.379985469706460D+03
 0.363173155749289D+03 0.000000000000000D+00 0.000000000000000D+00 -.363173155749289D+03
 0.248648989448398D+03 0.187515608009078D+03 0.109969072345632D+03 0.790934162249731D+02
 0.104332147191124D+03 -.729780160087062D+02 -.434696034029176D+02 0.605788717040564D+02
 0.193593023664663D+03 -.160170615863705D+03 -.108508815868818D+03 -.703345606476713D+01
 0.173867977545498D+03 0.573264244115286D+02 0.321783097386294D+02 -.132638831864262D+03
 0.227164876060652D+02 -.116934005481946D+02 0.983103718747451D+01 0.168123139571710D+02
0.805921750110D-05 0.000000000000D+00 0.000000000000D+00 0.403182157060D-08 0.000000000000D+00  7 -1 1 23 -13 13 23 21 0 0.13933710D+00 0.22031771D-01 0.98033073D+05 0.98033073D+05 0.98033073D+05 0.11224307D+01  1  2  2  1  7  1       -1 0.105313262405D-03 0.100000000000D+01
-.437070110088D-06 0.000000000000D+00 -.309495172449D-07 0.403182157060D-08 0.000000000000D+00  7 -1 1 23 -13 13 23 21 2 0.13933710D+00 0.22031771D-01 0.98033073D+05 0.98033073D+05 0.98033073D+05 0.11224307D+01  1  2  3  1  7  1       -1 -.719549005988D-05 0.100000000000D+01
0.517563456009D-06 0.000000000000D+00 0.000000000000D+00 0.403182157060D-08 0.000000000000D+00  7 -1 1 23 -13 13 23 21 2 0.13933710D+00 0.22031771D-01 0.98033073D+05 0.98033073D+05 0.98033073D+05 0.11224307D+01  1  2 15  1  7  1       -1 0.852065290469D-05 0.100000000000D+01
0.451628344964D-04 0.000000000000D+00 0.000000000000D+00 0.403182157060D-08 0.000000000000D+00  7 -1 1 23 -13 13 23 21 2 0.14758227D+00 0.22031771D-01 0.10298778D+06 0.10298778D+06 0.10298778D+06 0.11206743D+01  1  2 12  1  7  1       -1 0.632330579927D-03 0.100000000000D+01
-.459843043056D-04 0.000000000000D+00 0.000000000000D+00 0.403182157060D-08 0.000000000000D+00  7 -1 1 23 -13 13 23 21 2 0.13933710D+00 0.22031771D-01 0.98033073D+05 0.98033073D+05 0.98033073D+05 0.11224307D+01  1  2  4  1  7  1       -1 -.757040110739D-03 0.100000000000D+01
-.138500457416D-03 0.000000000000D+00 -.164551974143D-04 0.403182157060D-08 0.000000000000D+00  7 -1 1 23 -13 13 23 21 2 0.14766698D+00 0.22031771D-01 0.98033073D+05 0.98033073D+05 0.98033073D+05 0.11224307D+01  1  2  5  1  7  1       -1 -.194499325027D-02 0.100000000000D+01
0.139248806889D-03 0.000000000000D+00 0.164274981146D-04 0.403182157060D-08 0.000000000000D+00  7 -1 1 23 -13 13 23 21 2 0.13933710D+00 0.22031771D-01 0.98033073D+05 0.98033073D+05 0.98033073D+05 0.11224307D+01  1  2  6  1  7  1       -1 0.229245464902D-02 0.100000000000D+01
0.644027204219D-06 0.000000000000D+00 0.000000000000D+00 0.403182157060D-08 0.000000000000D+00  7 21 1 23 -13 13 23 1 2 0.14758227D+00 0.22031771D-01 0.10298778D+06 0.10298778D+06 0.10298778D+06 0.11206743D+01  1  2 12  3  7  1       -1 0.583783683529D-04 0.100000000000D+01
-.136554407278D-05 0.000000000000D+00 -.164535949231D-06 0.403182157060D-08 0.000000000000D+00  7 21 1 23 -13 13 23 1 2 0.14766698D+00 0.22031771D-01 0.98033073D+05 0.98033073D+05 0.98033073D+05 0.11224307D+01  1  2  5  3  7  1       -1 -.124335118606D-03 0.100000000000D+01
  </mgrwgt>
  </event>
  <event>
  8     66 0.58687835E-06 0.26197367E+03 0.75467711E-02 0.95937491E-01
       -1 -1    0    0    0  501 0.00000000E+00 0.00000000E+00 0.39378617E+03 0.39378630E+03 0.32000000E+00 0.0000E+00 0.9000E+01
        1 -1    0    0  501    0 0.00000000E+00 0.00000000E+00 -.53401676E+03 0.53401685E+03 0.32000000E+00 0.0000E+00 0.9000E+01
       25  2    1    2    0    0 0.32986549E+03 -.17380052E+03 -.23414651E+03 0.53260432E+03 0.29970804E+03 0.0000E+00 0.0000E+00
       23  2    1    2    0    0 -.32986549E+03 0.17380052E+03 0.93915919E+02 0.39519883E+03 0.91345759E+02 0.0000E+00 0.0000E+00
       23  1    3    3    0    0 0.31208109E+03 -.86731373E+02 -.10809586E+03 0.35343586E+03 0.91188000E+02 0.0000E+00 0.9000E+01
      -11  1    4    4    0    0 -.20195866E+03 0.68815587E+02 0.84408646E+02 0.22945088E+03 0.51099893E-03 0.0000E+00 0.9000E+01
       11  1    4    4    0    0 -.12790683E+03 0.10498494E+03 0.95072733E+01 0.16574795E+03 0.51099893E-03 0.0000E+00 0.9000E+01
       23  1    3    3    0    0 0.17784402E+02 -.87069152E+02 -.12605064E+03 0.17916846E+03 0.91188000E+02 0.0000E+00 0.9000E+01
#aMCatNLO 1  0  0  1  2 0.46996535D+02 0.00000000D+00  -5  7  0 0.00000000D+00 0.00000000D+00 0.00000000D+00 0.00000000D+00 0.00000000D+00
  <mgrwgt>
 0.1689866921D-03    9    2    0
 0.458572258497803D+03 0.000000000000000D+00 0.000000000000000D+00 0.458572258497803D+03
 0.458572258497803D+03 0.000000000000000D+00 0.000000000000000D+00 -.458572258497803D+03
 0.341015564182228D+03 0.312081091047148D+03 -.867313725007061D+02 -.553120719688639D+02
 0.245023456451926D+03 -.201958659511626D+03 0.688155874320906D+02 0.120472440775026D+03
 0.169127851343139D+03 -.127906833522570D+03 0.104984937119029D+03 0.349604779185011D+02
 0.161977645018313D+03 0.177844019870476D+02 -.870691520504133D+02 -.100120846724664D+03
 0.000000000000000D+00 0.000000000000000D+00 0.000000000000000D+00 0.000000000000000D+00
 0.673967506681685D+03 0.000000000000000D+00 0.000000000000000D+00 0.673967506681685D+03
 0.461744609572924D+03 0.000000000000000D+00 0.000000000000000D+00 -.461744609572924D+03
 0.326371291968845D+03 0.295206561846632D+03 -.894238749698046D+02 -.553120719688639D+02
 0.255008848795004D+03 -.214601716021239D+03 0.667982593949894D+02 0.120472440775026D+03
 0.174974452251065D+03 -.136607281121213D+03 0.103596692364865D+03 0.349604779185011D+02
 0.161993238337160D+03 0.959296686825113D+01 -.883761786951712D+02 -.100120846724664D+03
 0.217364284902535D+03 0.464094684275691D+02 0.740510190512180D+01 0.212222897108761D+03
0.102952435002D-04 0.000000000000D+00 0.000000000000D+00 0.102613970083D-05 0.000000000000D+00  7 -1 1 23 -11 11 23 21 0 0.60582505D-01 0.82156441D-01 0.17752087D+06 0.17752087D+06 0.17752087D+06 0.11018245D+01  1  2  2  1  7  1       -1 0.142529022978D-03 0.100000000000D+01
-.566969436708D-06 0.000000000000D+00 -.395364458408D-07 0.102613970083D-05 0.000000000000D+00  7 -1 1 23 -11 11 23 21 2 0.60582505D-01 0.82156441D-01 0.17752087D+06 0.17752087D+06 0.17752087D+06 0.11018245D+01  1  2  3  1  7  1       -1 -.952908546290D-05 0.100000000000D+01
0.680431985593D-06 0.000000000000D+00 0.000000000000D+00 0.102613970083D-05 0.000000000000D+00  7 -1 1 23 -11 11 23 21 2 0.60582505D-01 0.82156441D-01 0.17752087D+06 0.17752087D+06 0.17752087D+06 0.11018245D+01  1  2 15  1  7  1       -1 0.114360565537D-04 0.100000000000D+01
0.126603640302D-03 0.000000000000D+00 0.000000000000D+00 0.102613970083D-05 0.000000000000D+00  7 -1 1 23 -11 11 23 21 2 0.89170822D-01 0.82156441D-01 0.19900467D+06 0.19900467D+06 0.19900467D+06 0.10979918D+01  1  2 12  1  7  1       -1 0.976396322899D-03 0.100000000000D+01
-.118811051388D-03 0.000000000000D+00 0.000000000000D+00 0.102613970083D-05 0.000000000000D+00  7 -1 1 23 -11 11 23 21 2 0.60582505D-01 0.82156441D-01 0.17752087D+06 0.17752087D+06 0.17752087D+06 0.11018245D+01  1  2  4  1  7  1       -1 -.199686365669D-02 0.100000000000D+01
-.130057405757D-03 0.000000000000D+00 -.432507379545D-05 0.102613970083D-05 0.000000000000D+00  7 -1 1 23 -11 11 23 21 2 0.89289157D-01 0.82156441D-01 0.17752087D+06 0.17752087D+06 0.17752087D+06 0.11018245D+01  1  2  5  1  7  1       -1 -.101141272036D-02 0.100000000000D+01
0.122695302706D-03 0.000000000000D+00 0.401894693895D-05 0.102613970083D-05 0.000000000000D+00  7 -1 1 23 -11 11 23 21 2 0.60582505D-01 0.82156441D-01 0.17752087D+06 0.17752087D+06 0.17752087D+06 0.11018245D+01  1  2  6  1  7  1       -1 0.206214647506D-02 0.100000000000D+01
0.587735711152D-05 0.000000000000D+00 0.000000000000D+00 0.102613970083D-05 0.000000000000D+00  7 21 1 23 -11 11 23 1 2 0.89170822D-01 0.82156441D-01 0.19900467D+06 0.19900467D+06 0.19900467D+06 0.10979918D+01  1  2 12  3  7  1       -1 0.332707013438D-03 0.100000000000D+01
-.591126522405D-05 0.000000000000D+00 -.201286487162D-06 0.102613970083D-05 0.000000000000D+00  7 21 1 23 -11 11 23 1 2 0.89289157D-01 0.82156441D-01 0.17752087D+06 0.17752087D+06 0.17752087D+06 0.11018245D+01  1  2  5  3  7  1       -1 -.338422736344D-03 0.100000000000D+01
  </mgrwgt>
  </event>
  <event>
  8     66 0.58687835E-06 0.19002844E+03 0.75467711E-02 0.93948907E-01
       -1 -1    0    0    0  501 0.00000000E+00 0.00000000E+00 0.17883058E+03 0.17883087E+03 0.32000000E+00 0.0000E+00 0.9000E+01
        1 -1    0    0  501    0 0.00000000E+00 0.00000000E+00 -.12681104E+04 0.12681104E+04 0.32000000E+00 0.0000E+00 0.9000E+01
       25  2    1    2    0    0 0.35478181E+03 -.20251197E+03 -.44282067E+03 0.67671207E+03 0.30816854E+03 0.0000E+00 0.0000E+00
       23  2    1    2    0    0 -.35478181E+03 0.20251197E+03 -.64645916E+03 0.77022925E+03 0.91991408E+02 0.0000E+00 0.0000E+00
       23  1    3    3    0    0 0.25118394E+03 -.54680691E+02 -.12509167E+03 0.30007753E+03 0.91188000E+02 0.0000E+00 0.9000E+01
      -11  1    4    4    0    0 -.20339540E+03 0.10376192E+03 -.44082614E+03 0.49645131E+03 0.51099893E-03 0.0000E+00 0.9000E+01
       11  1    4    4    0    0 -.15138641E+03 0.98750044E+02 -.20563302E+03 0.27377793E+03 0.51099893E-03 0.0000E+00 0.9000E+01
       23  1    3    3    0    0 0.10359787E+03 -.14783128E+03 -.31772900E+03 0.37663454E+03 0.91188000E+02 0.0000E+00 0.9000E+01
#aMCatNLO 1  0  0  2  1 0.16440425D+03 0.00000000D+00  -5  7  0 0.00000000D+00 0.00000000D+00 0.00000000D+00 0.00000000D+00 0.00000000D+00
  <mgrwgt>
 0.2043690367D-03    9    2    0
 0.476211250717066D+03 0.000000000000000D+00 0.000000000000000D+00 0.476211250717066D+03
 0.476211250717066D+03 0.000000000000000D+00 0.000000000000000D+00 -.476211250717066D+03
 0.312817832814827D+03 0.251183935960781D+03 -.546806910462494D+02 0.153154815545968D+03
 0.250049636149408D+03 -.203395401226088D+03 0.103761923316135D+03 -.101924455202207D+03
 0.180748246715941D+03 -.151386409350879D+03 0.987500440831413D+02 0.715924795247318D+00
 0.208806785753957D+03 0.103597874616185D+03 -.147831276353026D+03 -.519462851390084D+02
 0.000000000000000D+00 0.000000000000000D+00 -.000000000000000D+00 -.000000000000000D+00
 0.558510728703467D+03 0.000000000000000D+00 0.000000000000000D+00 0.558510728703467D+03
 0.573042313331826D+03 0.000000000000000D+00 0.000000000000000D+00 -.573042313331826D+03
 0.299622514224838D+03 0.240814188799123D+03 -.324478574237430D+01 0.153154815545968D+03
 0.278244060687837D+03 -.212340390056069D+03 0.148130758084290D+03 -.101924455202207D+03
 0.205295464717537D+03 -.157922842981131D+03 0.131171989959876D+03 0.715924795247318D+00
 0.183345786326984D+03 0.969580066830397D+02 -.114896276789844D+03 -.519462851390084D+02
 0.165045216078097D+03 0.324910375550369D+02 -.161161685511947D+03 -.145315846283593D+02
0.971192943282D-05 0.000000000000D+00 0.000000000000D+00 0.674241808248D-08 0.000000000000D+00  7 -1 1 23 -11 11 23 21 0 0.27512422D-01 0.19509393D+00 0.19540093D+06 0.19540093D+06 0.19540093D+06 0.10986022D+01  1  2  2  2  7  2        1 0.129948415759D-03 0.100000000000D+01
-.535914767663D-06 0.000000000000D+00 -.372963662318D-07 0.674241808248D-08 0.000000000000D+00  7 -1 1 23 -11 11 23 21 2 0.27512422D-01 0.19509393D+00 0.19540093D+06 0.19540093D+06 0.19540093D+06 0.10986022D+01  1  2  3  2  7  2        1 -.865450269818D-05 0.100000000000D+01
0.626849335992D-06 0.000000000000D+00 0.000000000000D+00 0.674241808248D-08 0.000000000000D+00  7 -1 1 23 -11 11 23 21 2 0.27512422D-01 0.19509393D+00 0.19540093D+06 0.19540093D+06 0.19540093D+06 0.10986022D+01  1  2 15  2  7  2        1 0.101230076069D-04 0.100000000000D+01
0.480961052080D-05 0.000000000000D+00 0.000000000000D+00 0.674241808248D-08 0.000000000000D+00  7 -1 1 23 -11 11 23 21 2 0.27512422D-01 0.24860440D+00 0.28193798D+06 0.28193798D+06 0.28193798D+06 0.10865527D+01  1  2 12  2  7  2        1 0.436070020501D-04 0.100000000000D+01
-.487221217705D-05 0.000000000000D+00 0.000000000000D+00 0.674241808248D-08 0.000000000000D+00  7 -1 1 23 -11 11 23 21 2 0.27512422D-01 0.19509393D+00 0.19540093D+06 0.19540093D+06 0.19540093D+06 0.10986022D+01  1  2  4  2  7  2        1 -.786814918654D-04 0.100000000000D+01
-.123611398817D-04 0.000000000000D+00 -.452760328478D-05 0.674241808248D-08 0.000000000000D+00  7 -1 1 23 -11 11 23 21 2 0.27512422D-01 0.25850387D+00 0.19540093D+06 0.19540093D+06 0.19540093D+06 0.10986022D+01  1  2  5  2  7  2        1 -.105348139797D-03 0.100000000000D+01
0.132795405728D-04 0.000000000000D+00 0.435403676840D-05 0.674241808248D-08 0.000000000000D+00  7 -1 1 23 -11 11 23 21 2 0.27512422D-01 0.19509393D+00 0.19540093D+06 0.19540093D+06 0.19540093D+06 0.10986022D+01  1  2  6  2  7  2        1 0.214451675252D-03 0.100000000000D+01
0.159090111410D-06 0.000000000000D+00 0.000000000000D+00 0.674241808248D-08 0.000000000000D+00  7 -1 21 23 -11 11 23 -1 2 0.27512422D-01 0.24860440D+00 0.28193798D+06 0.28193798D+06 0.28193798D+06 0.10865527D+01  1  2 12  4  7  2        1 0.100816934805D-05 0.100000000000D+01
-.364371551775D-06 0.000000000000D+00 -.167099049626D-06 0.674241808248D-08 0.000000000000D+00  7 -1 21 23 -11 11 23 -1 2 0.27512422D-01 0.25850387D+00 0.19540093D+06 0.19540093D+06 0.19540093D+06 0.10986022D+01  1  2  5  4  7  2        1 -.208509897915D-05 0.100000000000D+01
  </mgrwgt>
  </event>
  <event>
  8     66 0.58687835E-06 0.45214871E+03 0.75467711E-02 0.89182705E-01
       -1 -1    0    0    0  501 0.00000000E+00 0.00000000E+00 0.55692397E+03 0.55692406E+03 0.32000000E+00 0.0000E+00 0.9000E+01
        1 -1    0    0  501    0 0.00000000E+00 0.00000000E+00 -.14480087E+04 0.14480087E+04 0.32000000E+00 0.0000E+00 0.9000E+01
       25  2    1    2    0    0 0.80236493E+03 -.70870017E+02 -.87214829E+02 0.86333744E+03 0.29821648E+03 0.0000E+00 0.0000E+00
       23  2    1    2    0    0 -.80236493E+03 0.70870017E+02 -.80386991E+03 0.11415954E+04 0.90670404E+02 0.0000E+00 0.0000E+00
       23  1    3    3    0    0 0.58475413E+03 -.11010470E+03 0.17510724E+02 0.60223112E+03 0.91188000E+02 0.0000E+00 0.9000E+01
      -13  1    4    4    0    0 -.15629767E+03 -.21101367E+02 -.14476600E+03 0.21408278E+03 0.10565837E+00 0.0000E+00 0.9000E+01
       13  1    4    4    0    0 -.64606726E+03 0.91971385E+02 -.65910391E+03 0.92751259E+03 0.10565837E+00 0.0000E+00 0.9000E+01
       23  1    3    3    0    0 0.21761080E+03 0.39234683E+02 -.10472555E+03 0.26110632E+03 0.91188000E+02 0.0000E+00 0.9000E+01
#aMCatNLO 1  0  0  1  2 0.13512389D+02 0.00000000D+00  -5  7  0 0.00000000D+00 0.00000000D+00 0.00000000D+00 0.00000000D+00 0.00000000D+00
  <mgrwgt>
 0.1617234546D-03    6    2    0
 0.898014972663199D+03 0.000000000000000D+00 0.000000000000000D+00 0.898014972663199D+03
 0.898014972663199D+03 0.000000000000000D+00 0.000000000000000D+00 -.898014972663199D+03
 0.680966631777513D+03 0.584754131517177D+03 -.110104700081155D+03 0.318339226210094D+03
 0.167158401804880D+03 -.156297007623630D+03 -.211015209885302D+02 -.553886496841290D+02
 0.708387027217068D+03 -.646067921040405D+03 0.919715383484243D+02 -.275589654859882D+03
 0.239517884526938D+03 0.217610797146858D+03 0.392346827212606D+02 0.126390783339164D+02
 0.000000000000000D+00 0.000000000000000D+00 0.000000000000000D+00 -.000000000000000D+00
 0.903533688988617D+03 0.000000000000000D+00 0.000000000000000D+00 0.903533688988617D+03
 0.906349809834703D+03 0.000000000000000D+00 0.000000000000000D+00 -.906349809834703D+03
 0.677165570417929D+03 0.579976807679276D+03 -.111915137606821D+03 0.318339226210094D+03
 0.168318978068438D+03 -.157477072481347D+03 -.215487240196881D+02 -.553886496841290D+02
 0.712707110643427D+03 -.651066717836274D+03 0.900771703697193D+02 -.275589654859882D+03
 0.237889115547772D+03 0.215931485045907D+03 0.385982825633423D+02 0.126390783339164D+02
 0.138027241457530D+02 0.126354975924381D+02 0.478840869344755D+01 -.281612084608574D+01
0.107321453333D-03 0.000000000000D+00 0.000000000000D+00 0.389885807333D-06 0.000000000000D+00  7 -1 1 23 -13 13 23 21 0 0.85680621D-01 0.22277058D+00 0.68182765D+06 0.68182765D+06 0.68182765D+06 0.10591185D+01  1  2  2  1  7  1       -1 0.126405017043D-03 0.100000000000D+01
-.591124856633D-05 0.000000000000D+00 -.412142639184D-06 0.389885807333D-06 0.000000000000D+00  7 -1 1 23 -13 13 23 21 2 0.85680621D-01 0.22277058D+00 0.68182765D+06 0.68182765D+06 0.68182765D+06 0.10591185D+01  1  2  3  1  7  1       -1 -.780991048716D-05 0.100000000000D+01
0.687328639205D-05 0.000000000000D+00 0.000000000000D+00 0.389885807333D-06 0.000000000000D+00  7 -1 1 23 -13 13 23 21 2 0.85680621D-01 0.22277058D+00 0.68182765D+06 0.68182765D+06 0.68182765D+06 0.10591185D+01  1  2 15  1  7  1       -1 0.908094979803D-05 0.100000000000D+01
0.323619440642D-04 0.000000000000D+00 0.000000000000D+00 0.389885807333D-06 0.000000000000D+00  7 -1 1 23 -13 13 23 21 2 0.86601741D-01 0.22277058D+00 0.69301610D+06 0.69301610D+06 0.69301610D+06 0.10586326D+01  1  2 12  1  7  1       -1 0.417176231200D-04 0.100000000000D+01
-.200347225382D-04 0.000000000000D+00 0.000000000000D+00 0.389885807333D-06 0.000000000000D+00  7 -1 1 23 -13 13 23 21 2 0.85680621D-01 0.22277058D+00 0.68182765D+06 0.68182765D+06 0.68182765D+06 0.10591185D+01  1  2  4  1  7  1       -1 -.264697699483D-04 0.100000000000D+01
0.203670791299D-05 0.000000000000D+00 0.000000000000D+00 0.389885807333D-06 0.000000000000D+00  7 21 1 23 -13 13 23 1 2 0.86601741D-01 0.22277058D+00 0.69301610D+06 0.69301610D+06 0.69301610D+06 0.10586326D+01  1  2 12  3  7  1       -1 0.187995450430D-04 0.100000000000D+01
  </mgrwgt>
  </event>
  <event>
  8     66 0.58687835E-06 0.24121809E+03 0.75467711E-02 0.96468160E-01
       -1 -1    0    0    0  501 0.00000000E+00 0.00000000E+00 0.57003271E+03 0.57003280E+03 0.32000000E+00 0.0000E+00 0.9000E+01
        1 -1    0    0  501    0 0.00000000E+00 0.00000000E+00 -.11843385E+03 0.11843428E+03 0.32000000E+00 0.0000E+00 0.9000E+01
       25  2    1    2    0    0 0.15639404E+03 -.11835893E+02 0.29220703E+03 0.44526469E+03 0.29711363E+03 0.0000E+00 0.0000E+00
       23  2    1    2    0    0 -.15639404E+03 0.11835893E+02 0.15939183E+03 0.24320239E+03 0.95616237E+02 0.0000E+00 0.0000E+00
       23  1    3    3    0    0 0.11013327E+03 -.11106829E+03 0.22185341E+03 0.28635588E+03 0.91188000E+02 0.0000E+00 0.9000E+01
      -13  1    4    4    0    0 -.74179604E+02 -.71300351E+01 0.13692166E+03 0.15588779E+03 0.10565837E+00 0.0000E+00 0.9000E+01
       13  1    4    4    0    0 -.82214439E+02 0.18965928E+02 0.22470167E+02 0.87314603E+02 0.10565837E+00 0.0000E+00 0.9000E+01
       23  1    3    3    0    0 0.46260770E+02 0.99232393E+02 0.70353626E+02 0.15890881E+03 0.91188000E+02 0.0000E+00 0.9000E+01
#aMCatNLO 1  0  0  2  1 0.30215238D+03 0.00000000D+00  -5  7  0 0.00000000D+00 0.00000000D+00 0.00000000D+00 0.00000000D+00 0.00000000D+00
  <mgrwgt>
 0.2481278248D-03    5    2    0
 0.259829460042992D+03 0.000000000000000D+00 0.000000000000000D+00 0.259829460042992D+03
 0.259829460042992D+03 0.000000000000000D+00 0.000000000000000D+00 -.259829460042992D+03
 0.186579787937760D+03 0.110133284057546D+03 -.111068283918335D+03 0.450695237720086D+02
 0.875380715409067D+02 -.741796049442217D+02 -.713006017896340D+01 0.459288843895043D+02
 0.961510156694035D+02 -.822144599857542D+02 0.189659551603600D+02 -.461095752351278D+02
 0.149390044937913D+03 0.462607808724303D+02 0.992323889369384D+02 -.448888329263851D+02
 0.000000000000000D+00 -.000000000000000D+00 0.000000000000000D+00 -.000000000000000D+00
 0.356245028020588D+03 0.000000000000000D+00 0.000000000000000D+00 0.356245028020588D+03
 0.710423817907064D+03 0.000000000000000D+00 0.000000000000000D+00 -.710423817907064D+03
 0.294277867050881D+03 0.235437089311551D+03 -.144299434148181D+03 0.450695237720086D+02
 0.606325593908643D+02 -.355687110756894D+02 -.173698482847826D+02 0.459288843895043D+02
 0.621903086532072D+02 -.409532462757418D+02 0.802328994214322D+01 -.461095752351278D+02
 0.184016101582159D+03 0.133141084057011D+03 0.761913296387884D+02 -.448888329263851D+02
 0.465552009250541D+03 -.292056216017130D+03 0.774546628520323D+02 -.354178789886476D+03
0.515221105403D-05 0.000000000000D+00 0.000000000000D+00 0.142656493991D-08 0.000000000000D+00  7 -1 1 23 -13 13 23 21 0 0.87697380D-01 0.18220633D-01 0.58186168D+05 0.58186168D+05 0.58186168D+05 0.11415479D+01  1  2  2  2  7  2        1 0.256047332840D-03 0.100000000000D+01
-.284311470870D-06 0.000000000000D+00 -.197858470558D-07 0.142656493991D-08 0.000000000000D+00  7 -1 1 23 -13 13 23 21 2 0.87697380D-01 0.18220633D-01 0.58186168D+05 0.58186168D+05 0.58186168D+05 0.11415479D+01  1  2  3  2  7  2        1 -.184123530829D-04 0.100000000000D+01
0.340647781099D-06 0.000000000000D+00 0.000000000000D+00 0.142656493991D-08 0.000000000000D+00  7 -1 1 23 -13 13 23 21 2 0.87697380D-01 0.18220633D-01 0.58186168D+05 0.58186168D+05 0.58186168D+05 0.11415479D+01  1  2 15  2  7  2        1 0.220607603461D-04 0.100000000000D+01
-.733356430928D-06 0.000000000000D+00 -.185275013845D-05 0.142656493991D-08 0.000000000000D+00  7 -1 1 23 -13 13 23 21 2 0.87697380D-01 0.65400716D-01 0.58186168D+05 0.58186168D+05 0.58186168D+05 0.11415479D+01  1  2  5  2  7  2        1 -.902813075283D-05 0.100000000000D+01
-.574707660654D-07 0.000000000000D+00 -.278154996811D-06 0.142656493991D-08 0.000000000000D+00  7 -1 21 23 -13 13 23 -1 2 0.87697380D-01 0.65400716D-01 0.58186168D+05 0.58186168D+05 0.58186168D+05 0.11415479D+01  1  2  5  4  7  2        1 -.253978450566D-05 0.100000000000D+01
  </mgrwgt>
  </event>
  <event>
  8     66 0.58687835E-06 0.75110827E+02 0.75467711E-02 0.10684543E+00
       -1 -1    0    0    0  501 0.00000000E+00 0.00000000E+00 0.32287566E+02 0.32289152E+02 0.32000000E+00 0.0000E+00 0.9000E+01
        1 -1    0    0  501    0 0.00000000E+00 0.00000000E+00 -.12959329E+04 0.12959330E+04 0.32000000E+00 0.0000E+00 0.9000E+01
       25  2    1    2    0    0 -.36540049E+02 0.16356667E+02 -.84173689E+03 0.89374481E+03 0.29775171E+03 0.0000E+00 0.0000E+00
       23  2    1    2    0    0 0.36540049E+02 -.16356667E+02 -.42190847E+03 0.43447731E+03 0.95713408E+02 0.0000E+00 0.0000E+00
       23  1    3    3    0    0 0.19916710E+02 0.79393236E+01 -.73924996E+03 0.74516137E+03 0.91188000E+02 0.0000E+00 0.9000E+01
      -11  1    4    4    0    0 0.43504616E+02 -.10907730E+02 -.74519309E+02 0.86975615E+02 0.51099893E-03 0.0000E+00 0.9000E+01
       11  1    4    4    0    0 -.69645669E+01 -.54489374E+01 -.34738916E+03 0.34750169E+03 0.51099893E-03 0.0000E+00 0.9000E+01
       23  1    3    3    0    0 -.56456759E+02 0.84173438E+01 -.10248692E+03 0.14858344E+03 0.91188000E+02 0.0000E+00 0.9000E+01
#aMCatNLO 1  0  0  2  1 0.11160211D+03 0.00000000D+00  -5  7  0 0.00000000D+00 0.00000000D+00 0.00000000D+00 0.00000000D+00 0.00000000D+00
  <mgrwgt>
 0.1113600968D-02    8    2    0
 0.204557080590725D+03 0.000000000000000D+00 0.000000000000000D+00 0.204557080590725D+03
 0.204557080590725D+03 0.000000000000000D+00 0.000000000000000D+00 -.204557080590725D+03
 0.135879007454174D+03 0.199167078407753D+02 0.793932434174103D+01 -.984283759924610D+02
 0.522029262655827D+02 0.435046171912304D+02 -.109077308149149D+02 0.267117053406129D+02
 0.551990934066032D+02 -.696456479873832D+01 -.544893823732317D+01 -.544861801024895D+02
 0.165833134055090D+03 -.564567602332674D+02 0.841734471049701D+01 0.126202850754338D+03
 0.000000000000000D+00 -.000000000000000D+00 0.000000000000000D+00 -.000000000000000D+00
 0.230238823887810D+03 0.000000000000000D+00 0.000000000000000D+00 0.230238823887810D+03
 0.383048286973202D+03 0.000000000000000D+00 0.000000000000000D+00 -.383048286973202D+03
 0.144442337464072D+03 0.523365254787868D+02 -.110036543193587D+02 -.984283759924610D+02
 0.658581967247805D+02 0.571586615473699D+02 -.188858222947634D+02 0.267117053406129D+02
 0.563255633723054D+02 0.593352198794040D+01 -.129853218622143D+02 -.544861801024895D+02
 0.157436903280940D+03 -.190698261012134D+02 -.134279322548204D+02 0.126202850754338D+03
 0.189224110018913D+03 -.963588829128837D+02 0.563027307311568D+02 -.152809463085392D+03
0.315148696660D-05 0.000000000000D+00 0.000000000000D+00 0.957236066568D-09 0.000000000000D+00  7 -1 1 23 -11 11 23 21 0 0.49674429D-02 0.19937442D+00 0.16249731D+05 0.16249731D+05 0.16249731D+05 0.11928783D+01  1  2  2  2  7  2        1 0.587371545977D-03 0.100000000000D+01
-.127470162640D-06 0.000000000000D+00 -.121025397573D-07 0.957236066568D-09 0.000000000000D+00  7 -1 1 23 -11 11 23 21 2 0.49674429D-02 0.19937442D+00 0.16249731D+05 0.16249731D+05 0.16249731D+05 0.11928783D+01  1  2  3  2  7  2        1 -.338063442826D-04 0.100000000000D+01
0.203593628581D-06 0.000000000000D+00 0.000000000000D+00 0.957236066568D-09 0.000000000000D+00  7 -1 1 23 -11 11 23 21 2 0.49674429D-02 0.19937442D+00 0.16249731D+05 0.16249731D+05 0.16249731D+05 0.11928783D+01  1  2 15  2  7  2        1 0.539950382035D-04 0.100000000000D+01
0.737646701855D-07 0.000000000000D+00 0.000000000000D+00 0.957236066568D-09 0.000000000000D+00  7 -1 1 23 -11 11 23 21 2 0.49674429D-02 0.37609486D+00 0.37232432D+05 0.37232432D+05 0.37232432D+05 0.11587318D+01  1  2 12  2  7  2        1 0.329764962056D-05 0.100000000000D+01
-.199529917812D-05 0.000000000000D+00 -.873438764290D-06 0.957236066568D-09 0.000000000000D+00  7 -1 1 23 -11 11 23 21 2 0.49674429D-02 0.38682618D+00 0.16249731D+05 0.16249731D+05 0.16249731D+05 0.11928783D+01  1  2  5  2  7  2        1 -.867923900530D-04 0.100000000000D+01
0.222858063479D-05 0.000000000000D+00 0.711382171291D-06 0.957236066568D-09 0.000000000000D+00  7 -1 1 23 -11 11 23 21 2 0.49674429D-02 0.19937442D+00 0.16249731D+05 0.16249731D+05 0.16249731D+05 0.11928783D+01  1  2  6  2  7  2        1 0.591041563301D-03 0.100000000000D+01
0.509160271400D-08 0.000000000000D+00 0.000000000000D+00 0.957236066568D-09 0.000000000000D+00  7 -1 21 23 -11 11 23 -1 2 0.49674429D-02 0.37609486D+00 0.37232432D+05 0.37232432D+05 0.37232432D+05 0.11587318D+01  1  2 12  4  7  2        1 0.907415379756D-07 0.100000000000D+01
-.923786541293D-07 0.000000000000D+00 -.627634340311D-07 0.957236066568D-09 0.000000000000D+00  7 -1 21 23 -11 11 23 -1 2 0.49674429D-02 0.38682618D+00 0.16249731D+05 0.16249731D+05 0.16249731D+05 0.11928783D+01  1  2  5  4  7  2        1 -.159683604316D-05 0.100000000000D+01
  </mgrwgt>
  </event>
  <event>
  8     66 0.58687835E-06 0.33083763E+03 0.75467711E-02 0.91983310E-01
       -1 -1    0    0    0  501 0.00000000E+00 0.00000000E+00 0.14247659E+04 0.14247660E+04 0.32000000E+00 0.0000E+00 0.9000E+01
        1 -1    0    0  501    0 0.00000000E+00 0.00000000E+00 -.25783029E+03 0.25783049E+03 0.32000000E+00 0.0000E+00 0.9000E+01
       25  2    1    2    0    0 -.42139238E+03 0.22628186E+03 0.19907842E+03 0.59917522E+03 0.30100449E+03 0.0000E+00 0.0000E+00
       23  2    1    2    0    0 0.42139238E+03 -.22628186E+03 0.96785721E+03 0.10834212E+04 0.90988760E+02 0.0000E+00 0.0000E+00
       23  1    3    3    0    0 -.85497323E+02 -.32458346E+02 0.23371047E+02 0.13124326E+03 0.91188000E+02 0.0000E+00 0.9000E+01
      -11  1    4    4    0    0 0.30872508E+03 -.16685730E+03 0.79212112E+03 0.86637659E+03 0.51099893E-03 0.0000E+00 0.9000E+01
       11  1    4    4    0    0 0.11266730E+03 -.59424565E+02 0.17573609E+03 0.21704463E+03 0.51099893E-03 0.0000E+00 0.9000E+01
       23  1    3    3    0    0 -.33589506E+03 0.25874021E+03 0.17570737E+03 0.46793196E+03 0.91188000E+02 0.0000E+00 0.9000E+01
#aMCatNLO 1  0  0  1  2 0.21846269D+03 0.00000000D+00  -5  7  0 0.00000000D+00 0.00000000D+00 0.00000000D+00 0.00000000D+00 0.00000000D+00
  <mgrwgt>
 0.2186647399D-03    9    2    0
 0.606092409323480D+03 0.000000000000000D+00 0.000000000000000D+00 0.606092409323480D+03
 0.606092409323480D+03 0.000000000000000D+00 0.000000000000000D+00 -.606092409323480D+03
 0.159676094150060D+03 -.854973226073975D+02 -.324583458250643D+02 -.939035000001908D+02
 0.440038360246692D+03 0.308725083005226D+03 -.166857295668497D+03 0.265483002269843D+03
 0.132096870970005D+03 0.112667297583043D+03 -.594245648122923D+02 0.349912056418452D+02
 0.480373493280203D+03 -.335895057980871D+03 0.258740206305853D+03 -.206570707911498D+03
 0.000000000000000D+00 0.000000000000000D+00 -.000000000000000D+00 0.000000000000000D+00
 0.880380075073414D+03 0.000000000000000D+00 0.000000000000000D+00 0.880380075073414D+03
 0.660962322599790D+03 0.000000000000000D+00 0.000000000000000D+00 -.660962322599790D+03
 0.173126187732520D+03 -.111786037702720D+03 -.185321341792030D+02 -.939035000001908D+02
 0.383884124438845D+03 0.243641804915894D+03 -.132380011328352D+03 0.265483002269843D+03
 0.111268641262373D+03 0.934433710555153D+02 -.492408617094171D+02 0.349912056418452D+02
 0.563434479303355D+03 -.418347528709893D+03 0.302418665064032D+03 -.206570707911498D+03
 0.309628964936112D+03 0.193048390441204D+03 -.102265657847060D+03 0.219417752473624D+03
0.130850461059D-03 0.000000000000D+00 0.000000000000D+00 0.106842884584D-05 0.000000000000D+00  7 -1 1 23 -11 11 23 21 0 0.21919477D+00 0.39666217D-01 0.27099572D+06 0.27099572D+06 0.27099572D+06 0.10878341D+01  1  2  2  1  7  1       -1 0.170580032112D-03 0.100000000000D+01
-.706498499558D-05 0.000000000000D+00 -.502500224185D-06 0.106842884584D-05 0.000000000000D+00  7 -1 1 23 -11 11 23 21 2 0.21919477D+00 0.39666217D-01 0.27099572D+06 0.27099572D+06 0.27099572D+06 0.10878341D+01  1  2  3  1  7  1       -1 -.108990723539D-04 0.100000000000D+01
0.827087346125D-05 0.000000000000D+00 0.000000000000D+00 0.106842884584D-05 0.000000000000D+00  7 -1 1 23 -11 11 23 21 2 0.21919477D+00 0.39666217D-01 0.27099572D+06 0.27099572D+06 0.27099572D+06 0.10878341D+01  1  2 15  1  7  1       -1 0.127593828352D-04 0.100000000000D+01
0.967428359732D-04 0.000000000000D+00 0.000000000000D+00 0.106842884584D-05 0.000000000000D+00  7 -1 1 23 -11 11 23 21 2 0.32477396D+00 0.39666217D-01 0.40387122D+06 0.40387122D+06 0.40387122D+06 0.10751262D+01  1  2 12  1  7  1       -1 0.174278192344D-04 0.100000000000D+01
-.122492594470D-03 0.000000000000D+00 0.000000000000D+00 0.106842884584D-05 0.000000000000D+00  7 -1 1 23 -11 11 23 21 2 0.21919477D+00 0.39666217D-01 0.27099572D+06 0.27099572D+06 0.27099572D+06 0.10878341D+01  1  2  4  1  7  1       -1 -.188967938471D-03 0.100000000000D+01
-.151677842227D-03 0.000000000000D+00 -.443625727551D-04 0.106842884584D-05 0.000000000000D+00  7 -1 1 23 -11 11 23 21 2 0.32878534D+00 0.39666217D-01 0.27099572D+06 0.27099572D+06 0.27099572D+06 0.10878341D+01  1  2  5  1  7  1       -1 -.264201900714D-04 0.100000000000D+01
0.159764268134D-03 0.000000000000D+00 0.409503940539D-04 0.106842884584D-05 0.000000000000D+00  7 -1 1 23 -11 11 23 21 2 0.21919477D+00 0.39666217D-01 0.27099572D+06 0.27099572D+06 0.27099572D+06 0.10878341D+01  1  2  6  1  7  1       -1 0.246466527395D-03 0.100000000000D+01
0.454718069640D-05 0.000000000000D+00 0.000000000000D+00 0.106842884584D-05 0.000000000000D+00  7 21 1 23 -11 11 23 1 2 0.32477396D+00 0.39666217D-01 0.40387122D+06 0.40387122D+06 0.40387122D+06 0.10751262D+01  1  2 12  3  7  1       -1 0.847215953961D-05 0.100000000000D+01
-.574984529664D-05 0.000000000000D+00 -.213273563446D-05 0.106842884584D-05 0.000000000000D+00  7 21 1 23 -11 11 23 1 2 0.32878534D+00 0.39666217D-01 0.27099572D+06 0.27099572D+06 0.27099572D+06 0.10878341D+01  1  2  5  3  7  1       -1 -.107539802903D-04 0.100000000000D+01
  </mgrwgt>
  </event>
  <event>
  8     66 0.58687835E-06 0.16783121E+03 0.75467711E-02 0.94303358E-01
       -1 -1    0    0    0  501 0.00000000E+00 0.00000000E+00 0.20101349E+03 0.20101375E+03 0.32000000E+00 0.0000E+00 0.9000E+01
        1 -1    0    0  501    0 0.00000000E+00 0.00000000E+00 -.25443718E+03 0.25443738E+03 0.32000000E+00 0.0000E+00 0.9000E+01
       25  2    1    2    0    0 0.13732571E+02 0.79633089E+02 0.16072712E+02 0.32083870E+03 0.31007923E+03 0.0000E+00 0.0000E+00
       23  2    1    2    0    0 -.13732571E+02 -.79633089E+02 -.69496404E+02 0.13461243E+03 0.82223741E+02 0.0000E+00 0.0000E+00
       23  1    3    3    0    0 0.31522385E+02 -.39035006E+02 -.89140558E+02 0.13703533E+03 0.91188000E+02 0.0000E+00 0.9000E+01
      -13  1    4    4    0    0 -.81772296E+01 -.38059910E+02 0.13840593E+02 0.41315820E+02 0.10565837E+00 0.0000E+00 0.9000E+01
       13  1    4    4    0    0 -.55553416E+01 -.41573179E+02 -.83336997E+02 0.93296609E+02 0.10565837E+00 0.0000E+00 0.9000E+01
       23  1    3    3    0    0 -.17789814E+02 0.11866809E+03 0.10521327E+03 0.18380337E+03 0.91188000E+02 0.0000E+00 0.9000E+01
#aMCatNLO 1  0  0  1  2 0.47232005D+03 0.00000000D+00  -5  7  0 0.00000000D+00 0.00000000D+00 0.00000000D+00 0.00000000D+00 0.00000000D+00
  <mgrwgt>
 0.3517581982D-03    5    2    0
 0.226153510574018D+03 0.000000000000000D+00 0.000000000000000D+00 0.226153510574018D+03
 0.226153510574018D+03 0.000000000000000D+00 0.000000000000000D+00 -.226153510574018D+03
 0.127459149472584D+03 0.315223924017147D+02 -.390349655944249D+02 -.735744091283716D+02
 0.432376694225788D+02 -.817723105724856D+01 -.380599109698331D+02 0.188168043594270D+02
 0.841019667998941D+02 -.555535795274868D+01 -.415732812086781D+02 -.728967839288640D+02
 0.197508235452980D+03 -.177898033917174D+02 0.118668157772936D+03 0.127654388697809D+03
 0.000000000000000D+00 -.000000000000000D+00 -.000000000000000D+00 0.000000000000000D+00
 0.136490693471950D+04 0.000000000000000D+00 0.000000000000000D+00 0.136490693471950D+04
 0.380715291716301D+03 0.000000000000000D+00 0.000000000000000D+00 -.380715291716301D+03
 0.159665347388731D+03 0.795184142168256D+02 0.737658453121521D+02 -.735744091283716D+02
 0.226003958831925D+02 0.282832664759195D+01 -.121945207429647D+02 0.188168043594270D+02
 0.793796146477159D+02 0.217723888445518D+02 0.226527084131241D+02 -.728967839288640D+02
 0.392317846166868D+03 0.808061220343927D+02 0.350389452987618D+03 0.127654388697809D+03
 0.109165902234929D+04 -.184925251743362D+03 -.434613485969929D+03 0.984191643003199D+03
0.278624864001D-05 0.000000000000D+00 0.000000000000D+00 0.349258418425D-10 0.000000000000D+00  7 -1 1 23 -13 13 23 21 0 0.30925188D-01 0.39144217D-01 0.28167315D+05 0.28167315D+05 0.28167315D+05 0.11698844D+01  1  2  2  1  7  1       -1 0.342058125762D-03 0.100000000000D+01
-.138049678201D-06 0.000000000000D+00 -.106999284137D-07 0.349258418425D-10 0.000000000000D+00  7 -1 1 23 -13 13 23 21 2 0.30925188D-01 0.39144217D-01 0.28167315D+05 0.28167315D+05 0.28167315D+05 0.11698844D+01  1  2  3  1  7  1       -1 -.231953735008D-04 0.100000000000D+01
0.183226709859D-06 0.000000000000D+00 0.000000000000D+00 0.349258418425D-10 0.000000000000D+00  7 -1 1 23 -13 13 23 21 2 0.30925188D-01 0.39144217D-01 0.28167315D+05 0.28167315D+05 0.28167315D+05 0.11698844D+01  1  2 15  1  7  1       -1 0.307861055953D-04 0.100000000000D+01
0.119723752959D-05 0.000000000000D+00 -.171008297406D-05 0.349258418425D-10 0.000000000000D+00  7 -1 1 23 -13 13 23 21 2 0.25370073D+00 0.39144217D-01 0.28167315D+05 0.28167315D+05 0.28167315D+05 0.11698844D+01  1  2  5  1  7  1       -1 0.130939464868D-05 0.100000000000D+01
0.927613191554D-07 0.000000000000D+00 -.436083482900D-06 0.349258418425D-10 0.000000000000D+00  7 21 1 23 -13 13 23 1 2 0.25370073D+00 0.39144217D-01 0.28167315D+05 0.28167315D+05 0.28167315D+05 0.11698844D+01  1  2  5  3  7  1       -1 0.799945708861D-06 0.100000000000D+01
  </mgrwgt>
  </event>
  <event>
  8     66 0.58687835E-06 0.86478556E+02 0.75467711E-02 0.10290774E+00
       -1 -1    0    0    0  501 0.00000000E+00 0.00000000E+00 0.74335417E+02 0.74336106E+02 0.32000000E+00 0.0000E+00 0.9000E+01
        1 -1    0    0  501    0 0.00000000E+00 0.00000000E+00 -.74201803E+03 0.74201810E+03 0.32000000E+00 0.0000E+00 0.9000E+01
       25  2    1    2    0    0 0.82863985E+02 -.74497509E+02 -.52228560E+03 0.61198455E+03 0.29887543E+03 0.0000E+00 0.0000E+00
       23  2    1    2    0    0 -.82863985E+02 0.74497509E+02 -.14539701E+03 0.20436965E+03 0.90610961E+02 0.0000E+00 0.0000E+00
       23  1    3    3    0    0 -.30538420E+02 -.90257471E+02 -.10136218E+03 0.16633866E+03 0.91188000E+02 0.0000E+00 0.9000E+01
      -13  1    4    4    0    0 -.73328600E+02 0.32057282E+02 -.38191547E+02 0.88675579E+02 0.10565837E+00 0.0000E+00 0.9000E+01
       13  1    4    4    0    0 -.95353843E+01 0.42440227E+02 -.10720546E+03 0.11569408E+03 0.10565837E+00 0.0000E+00 0.9000E+01
       23  1    3    3    0    0 0.11340240E+03 0.15759962E+02 -.42092342E+03 0.44564589E+03 0.91188000E+02 0.0000E+00 0.9000E+01
#aMCatNLO 1  0  0  2  1 0.97598924D+02 0.00000000D+00  -5  7  0 0.00000000D+00 0.00000000D+00 0.00000000D+00 0.00000000D+00 0.00000000D+00
  <mgrwgt>
 0.1038795443D-03    7    2    0
 0.234858529536227D+03 0.000000000000000D+00 0.000000000000000D+00 0.234858529536227D+03
 0.234858529536227D+03 0.000000000000000D+00 0.000000000000000D+00 -.234858529536227D+03
 0.145009629042807D+03 -.305384150488520D+02 -.902574713146836D+02 0.602788126070493D+02
 0.998279363844057D+02 -.733286899464552D+02 0.320572717582058D+02 0.596728702253053D+02
 0.486848150419044D+02 -.953529966257837D+01 0.424402420157761D+02 -.218658439958678D+02
 0.176194678603336D+03 0.113402404657886D+03 0.157599575407016D+02 -.980858388364868D+02
 0.000000000000000D+00 0.000000000000000D+00 -.000000000000000D+00 -.000000000000000D+00
 0.244266472777998D+03 0.000000000000000D+00 0.000000000000000D+00 0.244266472777998D+03
 0.782124616155231D+03 0.000000000000000D+00 0.000000000000000D+00 -.782124616155231D+03
 0.133944039096916D+03 -.429439182423820D+02 -.644052707646813D+02 0.602788126070493D+02
 0.114557169759178D+03 -.828627288305661D+02 0.519255416250906D+02 0.596728702253053D+02
 0.585321715505837D+02 -.143034057012757D+02 0.523766413405828D+02 -.218658439958678D+02
 0.172716205909186D+03 0.978857953193432D+02 0.480954855896763D+02 -.980858388364868D+02
 0.546641502617366D+03 0.422242574548805D+02 -.879923977906685D+02 -.537858143377233D+03
0.856362957385D-06 0.000000000000D+00 0.000000000000D+00 0.421018989916D-07 0.000000000000D+00  7 -1 1 23 -13 13 23 21 0 0.11436276D-01 0.11415668D+00 0.40357552D+05 0.40357552D+05 0.40357552D+05 0.11555707D+01  1  2  2  2  7  2        1 0.119261410311D-03 0.100000000000D+01
-.461640919433D-07 0.000000000000D+00 -.328865924190D-08 0.421018989916D-07 0.000000000000D+00  7 -1 1 23 -13 13 23 21 2 0.11436276D-01 0.11415668D+00 0.40357552D+05 0.40357552D+05 0.40357552D+05 0.11555707D+01  1  2  3  2  7  2        1 -.858498164909D-05 0.100000000000D+01
0.558859440173D-07 0.000000000000D+00 0.000000000000D+00 0.421018989916D-07 0.000000000000D+00  7 -1 1 23 -13 13 23 21 2 0.11436276D-01 0.11415668D+00 0.40357552D+05 0.40357552D+05 0.40357552D+05 0.11555707D+01  1  2 15  2  7  2        1 0.103929219364D-04 0.100000000000D+01
0.336921848518D-05 0.000000000000D+00 0.000000000000D+00 0.421018989916D-07 0.000000000000D+00  7 -1 1 23 -13 13 23 21 2 0.11436276D-01 0.37573505D+00 0.65397170D+05 0.65397170D+05 0.65397170D+05 0.11371793D+01  1  2 12  2  7  2        1 0.408100283348D-04 0.100000000000D+01
-.480500398988D-05 0.000000000000D+00 -.269612420174D-06 0.421018989916D-07 0.000000000000D+00  7 -1 1 23 -13 13 23 21 2 0.11436276D-01 0.38270609D+00 0.40357552D+05 0.40357552D+05 0.40357552D+05 0.11555707D+01  1  2  5  2  7  2        1 -.571392479051D-04 0.100000000000D+01
0.464611273775D-06 0.000000000000D+00 0.000000000000D+00 0.421018989916D-07 0.000000000000D+00  7 -1 21 23 -13 13 23 -1 2 0.11436276D-01 0.37573505D+00 0.65397170D+05 0.65397170D+05 0.65397170D+05 0.11371793D+01  1  2 12  4  7  2        1 0.217236464415D-05 0.100000000000D+01
-.664881964413D-06 0.000000000000D+00 -.378763739243D-07 0.421018989916D-07 0.000000000000D+00  7 -1 21 23 -13 13 23 -1 2 0.11436276D-01 0.38270609D+00 0.40357552D+05 0.40357552D+05 0.40357552D+05 0.11555707D+01  1  2  5  4  7  2        1 -.303295139193D-05 0.100000000000D+01
  </mgrwgt>
  </event>
  <event>
  8     66 0.58687835E-06 0.37427873E+03 0.75467711E-02 0.93125743E-01
       -3 -1    0    0    0  501 0.00000000E+00 0.00000000E+00 0.49863491E+03 0.49863516E+03 0.50000000E+00 0.0000E+00 0.9000E+01
        3 -1    0    0  501    0 0.00000000E+00 0.00000000E+00 -.35715375E+03 0.35715410E+03 0.50000000E+00 0.0000E+00 0.9000E+01
       25  2    1    2    0    0 0.71275329E+02 -.30635376E+03 0.26148269E+03 0.50750144E+03 0.30041923E+03 0.0000E+00 0.0000E+00
       23  2    1    2    0    0 -.71275329E+02 0.30635376E+03 -.12000153E+03 0.34828782E+03 0.89281783E+02 0.0000E+00 0.0000E+00
       23  1    3    3    0    0 0.15728235E+03 -.17669606E+03 0.13501583E+03 0.28723468E+03 0.91188000E+02 0.0000E+00 0.9000E+01
      -13  1    4    4    0    0 -.45273116E+01 0.11140702E+02 0.12982190E+02 0.17696333E+02 0.10565837E+00 0.0000E+00 0.9000E+01
       13  1    4    4    0    0 -.66748017E+02 0.29521306E+03 -.13298372E+03 0.33059148E+03 0.10565837E+00 0.0000E+00 0.9000E+01
       23  1    3    3    0    0 -.86007023E+02 -.12965770E+03 0.12646687E+03 0.22026676E+03 0.91188000E+02 0.0000E+00 0.9000E+01
#aMCatNLO 1  0  0  1  1 0.32736160D+03 0.00000000D+00  -5  7  0 0.00000000D+00 0.00000000D+00 0.00000000D+00 0.00000000D+00 0.00000000D+00
  <mgrwgt>
 0.4449634195D-04    3    2    0
 0.422006615036602D+03 0.000000000000000D+00 0.000000000000000D+00 0.422006615036602D+03
 0.422006615036602D+03 0.000000000000000D+00 0.000000000000000D+00 -.422006615036602D+03
 0.268609719340404D+03 0.157282351823720D+03 -.176696061522447D+03 0.887507387427622D+02
 0.157665687180740D+02 -.452722446813983D+01 0.111403041469254D+02 0.101971834969671D+02
 0.357496450881106D+03 -.667481044159418D+02 0.295213456134130D+03 -.190256191139231D+03
 0.202140491133620D+03 -.860070229396380D+02 -.129657698758608D+03 0.913082688995021D+02
 0.000000000000000D+00 0.000000000000000D+00 0.000000000000000D+00 -.000000000000000D+00
 0.458705572516129D+03 0.000000000000000D+00 0.000000000000000D+00 0.458705572516129D+03
 0.486800633405033D+04 0.000000000000000D+00 0.000000000000000D+00 -.486800633405033D+04
 0.256094671808820D+03 0.657676752556191D+02 -.212290246711789D+03 0.887507387427622D+02
 0.169812002787162D+02 -.102388242538862D+02 0.891880538710653D+01 0.101971834969671D+02
 0.366067348300842D+03 -.192946223157605D+03 0.246129315999573D+03 -.190256191139231D+03
 0.266132401007673D+03 -.167679375968854D+03 -.161423760417668D+03 0.913082688995021D+02
 0.442143628517040D+04 0.305096748124727D+03 0.118665885742779D+03 -.440930076153420D+04
0.202727185586D-04 0.000000000000D+00 0.000000000000D+00 0.425487771608D-06 0.000000000000D+00  7 -3 3 23 -13 13 23 21 0 0.76713109D-01 0.54946776D-01 0.14008457D+06 0.14008457D+06 0.14008457D+06 0.11099034D+01  1  2  2  1  7  1       -3 0.439336293452D-04 0.100000000000D+01
-.110653656711D-05 0.000000000000D+00 -.778525771944D-07 0.425487771608D-06 0.000000000000D+00  7 -3 3 23 -13 13 23 21 2 0.76713109D-01 0.54946776D-01 0.14008457D+06 0.14008457D+06 0.14008457D+06 0.11099034D+01  1  2  3  1  7  1       -3 -.295407288825D-05 0.100000000000D+01
0.131731744340D-05 0.000000000000D+00 0.000000000000D+00 0.425487771608D-06 0.000000000000D+00  7 -3 3 23 -13 13 23 21 2 0.76713109D-01 0.54946776D-01 0.14008457D+06 0.14008457D+06 0.14008457D+06 0.11099034D+01  1  2 15  1  7  1       -3 0.351678549124D-05 0.100000000000D+01
  </mgrwgt>
  </event>
  <event>
  8     66 0.58687835E-06 0.18025442E+03 0.75467711E-02 0.96951374E-01
       -1 -1    0    0    0  501 0.00000000E+00 0.00000000E+00 0.14059480E+03 0.14059516E+03 0.32000000E+00 0.0000E+00 0.9000E+01
        1 -1    0    0  501    0 0.00000000E+00 0.00000000E+00 -.11829857E+04 0.11829858E+04 0.32000000E+00 0.0000E+00 0.9000E+01
       25  2    1    2    0    0 -.25970498E+03 -.91246458E+02 -.24432522E+03 0.47454234E+03 0.29953803E+03 0.0000E+00 0.0000E+00
       23  2    1    2    0    0 0.25970498E+03 0.91246458E+02 -.79806571E+03 0.84903858E+03 0.90471235E+02 0.0000E+00 0.0000E+00
       23  1    3    3    0    0 -.10358005E+03 -.68071843E+02 0.18188854E+02 0.15494737E+03 0.91188000E+02 0.0000E+00 0.9000E+01
      -11  1    4    4    0    0 0.70623791E+02 0.70058128E+02 -.27765592E+03 0.29493842E+03 0.51099893E-03 0.0000E+00 0.9000E+01
       11  1    4    4    0    0 0.18908119E+03 0.21188330E+02 -.52040978E+03 0.55410016E+03 0.51099893E-03 0.0000E+00 0.9000E+01
       23  1    3    3    0    0 -.15612493E+03 -.23174615E+02 -.26251407E+03 0.31959497E+03 0.91188000E+02 0.0000E+00 0.9000E+01
#aMCatNLO 1  0  0  1  2 0.17017440D+03 0.00000000D+00  -5  7  0 0.00000000D+00 0.00000000D+00 0.00000000D+00 0.00000000D+00 0.00000000D+00
  <mgrwgt>
 0.1216871151D-03    9    2    0
 0.407825828143416D+03 0.000000000000000D+00 0.000000000000000D+00 0.407825828143416D+03
 0.407825828143416D+03 0.000000000000000D+00 0.000000000000000D+00 -.407825828143416D+03
 0.274682556717438D+03 -.103580049570361D+03 -.680718434031246D+02 0.227536047885891D+03
 0.123764666634137D+03 0.706237907809727D+02 0.700581282079557D+02 -.736330873641886D+02
 0.234077822525060D+03 0.189081190890455D+03 0.211883300908996D+02 -.136351695689785D+03
 0.183126610410198D+03 -.156124932101067D+03 -.231746148957307D+02 -.175512648319176D+02
 0.000000000000000D+00 -.000000000000000D+00 0.000000000000000D+00 0.000000000000000D+00
 0.615869146312513D+03 0.000000000000000D+00 0.000000000000000D+00 0.615869146312513D+03
 0.452940693134630D+03 0.000000000000000D+00 0.000000000000000D+00 -.452940693134630D+03
 0.270973756708305D+03 -.573588780195936D+02 -.100243860188116D+03 0.227536047885891D+03
 0.130172966544713D+03 0.921342079017172D+02 0.550859092562861D+02 -.736330873641886D+02
 0.268970772946894D+03 0.231693170001819D+03 -.847152623071647D+01 -.136351695689785D+03
 0.163097333375778D+03 -.126797174120507D+03 -.435880551085220D+02 -.175512648319176D+02
 0.235595009871452D+03 -.139671325763436D+03 0.972175322710688D+02 0.162928453177883D+03
0.591605476218D-05 0.000000000000D+00 0.000000000000D+00 0.351254292840D-06 0.000000000000D+00  7 -1 1 23 -11 11 23 21 0 0.21630000D-01 0.18199783D+00 0.97938422D+05 0.97938422D+05 0.97938422D+05 0.11224652D+01  1  2  2  1  7  1       -1 0.137159100820D-03 0.100000000000D+01
-.300650591084D-06 0.000000000000D+00 -.227192080198D-07 0.351254292840D-06 0.000000000000D+00  7 -1 1 23 -11 11 23 21 2 0.21630000D-01 0.18199783D+00 0.97938422D+05 0.97938422D+05 0.97938422D+05 0.11224652D+01  1  2  3  1  7  1       -1 -.878213844400D-05 0.100000000000D+01
0.383508893938D-06 0.000000000000D+00 0.000000000000D+00 0.351254292840D-06 0.000000000000D+00  7 -1 1 23 -11 11 23 21 2 0.21630000D-01 0.18199783D+00 0.97938422D+05 0.97938422D+05 0.97938422D+05 0.11224652D+01  1  2 15  1  7  1       -1 0.112024665873D-04 0.100000000000D+01
0.290252310930D-05 0.000000000000D+00 0.000000000000D+00 0.351254292840D-06 0.000000000000D+00  7 -1 1 23 -11 11 23 21 2 0.33369777D-01 0.18199783D+00 0.16755598D+06 0.16755598D+06 0.16755598D+06 0.11037785D+01  1  2 12  1  7  1       -1 0.394272633474D-04 0.100000000000D+01
-.542599695390D-05 0.000000000000D+00 0.000000000000D+00 0.351254292840D-06 0.000000000000D+00  7 -1 1 23 -11 11 23 21 2 0.21630000D-01 0.18199783D+00 0.97938422D+05 0.97938422D+05 0.97938422D+05 0.11224652D+01  1  2  4  1  7  1       -1 -.158495801635D-03 0.100000000000D+01
-.551405349036D-05 0.000000000000D+00 -.219698726721D-05 0.351254292840D-06 0.000000000000D+00  7 -1 1 23 -11 11 23 21 2 0.35954430D-01 0.18199783D+00 0.97938422D+05 0.97938422D+05 0.97938422D+05 0.11224652D+01  1  2  5  1  7  1       -1 -.694391543945D-04 0.100000000000D+01
0.608394644487D-05 0.000000000000D+00 0.194093597427D-05 0.351254292840D-06 0.000000000000D+00  7 -1 1 23 -11 11 23 21 2 0.21630000D-01 0.18199783D+00 0.97938422D+05 0.97938422D+05 0.97938422D+05 0.11224652D+01  1  2  6  1  7  1       -1 0.177714800999D-03 0.100000000000D+01
0.146661043929D-06 0.000000000000D+00 0.000000000000D+00 0.351254292840D-06 0.000000000000D+00  7 21 1 23 -11 11 23 1 2 0.33369777D-01 0.18199783D+00 0.16755598D+06 0.16755598D+06 0.16755598D+06 0.11037785D+01  1  2 12  3  7  1       -1 0.207459014844D-04 0.100000000000D+01
-.214026871686D-06 0.000000000000D+00 -.125479668454D-06 0.351254292840D-06 0.000000000000D+00  7 21 1 23 -11 11 23 1 2 0.35954430D-01 0.18199783D+00 0.97938422D+05 0.97938422D+05 0.97938422D+05 0.11224652D+01  1  2  5  3  7  1       -1 -.278453236866D-04 0.100000000000D+01
  </mgrwgt>
  </event>
  <event>
  9     66 -.58687835E-06 0.24441709E+03 0.75467711E-02 0.10325241E+00
       -3 -1    0    0    0  501 0.00000000E+00 0.00000000E+00 0.19571644E+03 0.19571707E+03 0.50000000E+00 0.0000E+00 0.9000E+01
        3 -1    0    0  502    0 0.00000000E+00 0.00000000E+00 -.88722048E+03 0.88722062E+03 0.50000000E+00 0.0000E+00 0.9000E+01
       25  2    1    2    0    0 0.15265108E+03 0.12916542E+02 -.79648560E+03 0.86477776E+03 0.29997012E+03 0.0000E+00 0.0000E+00
       23  2    1    2    0    0 -.14611574E+03 -.29806444E+01 0.11096038E+03 0.20482795E+03 0.91014240E+02 0.0000E+00 0.0000E+00
       23  1    3    3    0    0 0.12605487E+03 0.10702562E+03 -.33779142E+03 0.38699174E+03 0.91188000E+02 0.0000E+00 0.9000E+01
      -11  1    4    4    0    0 -.12945384E+03 -.29529434E+02 0.11164127E+03 0.17347639E+03 0.51099893E-03 0.0000E+00 0.9000E+01
       11  1    4    4    0    0 -.16661902E+02 0.26548790E+02 -.68089180E+00 0.31351568E+02 0.51099893E-03 0.0000E+00 0.9000E+01
       23  1    3    3    0    0 0.26596205E+02 -.94109076E+02 -.45869419E+03 0.47778602E+03 0.91188000E+02 0.0000E+00 0.9000E+01
       21  1    1    2  502  501 -.65353407E+01 -.99358972E+01 -.59788138E+01 0.13331971E+02 0.75000000E+00 0.0000E+00 0.9000E+01
#aMCatNLO 2  0  0  2  1 0.11892549D+02 0.00000000D+00  -5  7  0 0.00000000D+00 0.00000000D+00 0.00000000D+00 0.00000000D+00 0.00000000D+00
  <mgrwgt>
 -.7231495117D-05    3    2    0
 0.410478418122707D+03 0.000000000000000D+00 0.000000000000000D+00 0.410478418122707D+03
 0.410478418122707D+03 0.000000000000000D+00 0.000000000000000D+00 -.410478418122707D+03
 0.219837177904932D+03 0.124295864871083D+03 0.104351337409547D+03 -.116937888650313D+03
 0.320630338807719D+03 -.132000467581507D+03 -.334011622684337D+02 0.290282712336325D+03
 0.400899922979712D+02 -.169817614975888D+02 0.260624967154279D+02 0.252897909016406D+02
 0.240399327234793D+03 0.246863642080129D+02 -.970126718565414D+02 -.198634614587653D+03
 0.000000000000000D+00 -.000000000000000D+00 -.000000000000000D+00 0.000000000000000D+00
 0.418369419637100D+03 0.000000000000000D+00 0.000000000000000D+00 0.418369419637100D+03
 0.415026898029550D+03 0.000000000000000D+00 0.000000000000000D+00 -.415026898029550D+03
 0.222112663601372D+03 0.126054874092964D+03 0.107025617977708D+03 -.116937888650313D+03
 0.319208922746815D+03 -.129453836593339D+03 -.295294339788845D+02 0.290282712336325D+03
 0.402744426999573D+02 -.166619021628943D+02 0.265487895629458D+02 0.252897909016406D+02
 0.239446941635526D+03 0.265962053998348D+02 -.941090763983538D+02 -.198634614587653D+03
 0.123533469829805D+02 -.653534073656473D+01 -.993589716341567D+01 0.334252160755024D+01
-.454650009801D-05 0.000000000000D+00 0.000000000000D+00 0.262650096926D-05 0.000000000000D+00  7 -3 3 23 -11 11 23 21 2 0.29541554D-01 0.13777002D+00 0.62142029D+05 0.62142029D+05 0.62142029D+05 0.11390821D+01  1  2 13  2  7  2        3 -.110283391598D-04 0.100000000000D+01
-.148347392990D-04 0.000000000000D+00 0.000000000000D+00 0.262650096926D-05 0.000000000000D+00  7 -3 3 23 -11 11 23 21 2 0.29541554D-01 0.13499591D+00 0.59739714D+05 0.59739714D+05 0.59739714D+05 0.11405581D+01  1  2  8  2  7  2        3 -.381386971147D-04 0.100000000000D+01
0.174644972907D-04 0.000000000000D+00 0.000000000000D+00 0.262650096926D-05 0.128537029957D-06  7 -3 3 23 -11 11 23 21 2 0.30109458D-01 0.13649179D+00 0.62142029D+05 0.62142029D+05 0.62142029D+05 0.11390821D+01  1  2  1  2  7  2        3 0.419355411573D-04 0.100000000000D+01
  </mgrwgt>
  </event>
  <event>
  8     66 0.58687835E-06 0.32824653E+03 0.75467711E-02 0.84804280E-01
       -1 -1    0    0    0  501 0.00000000E+00 0.00000000E+00 0.19368497E+03 0.19368524E+03 0.32000000E+00 0.0000E+00 0.9000E+01
        1 -1    0    0  501    0 0.00000000E+00 0.00000000E+00 -.72400352E+03 0.72400359E+03 0.32000000E+00 0.0000E+00 0.9000E+01
       25  2    1    2    0    0 0.29261249E+03 -.52634296E+02 -.21151893E+03 0.47240734E+03 0.30005999E+03 0.0000E+00 0.0000E+00
       23  2    1    2    0    0 -.29261249E+03 0.52634296E+02 -.31879961E+03 0.44528149E+03 0.90829364E+02 0.0000E+00 0.0000E+00
       23  1    3    3    0    0 0.10703520E+03 0.20334296E+01 -.21686010E+03 0.25846513E+03 0.91188000E+02 0.0000E+00 0.9000E+01
      -13  1    4    4    0    0 -.99144780E+02 -.74050628E+01 -.15787038E+03 0.18656793E+03 0.10565837E+00 0.0000E+00 0.9000E+01
       13  1    4    4    0    0 -.19346771E+03 0.60039359E+02 -.16092923E+03 0.25871356E+03 0.10565837E+00 0.0000E+00 0.9000E+01
       23  1    3    3    0    0 0.18557729E+03 -.54667725E+02 0.53411668E+01 0.21394221E+03 0.91188000E+02 0.0000E+00 0.9000E+01
#aMCatNLO 1  0  0  1  2 0.12516183D+04 0.00000000D+00  -5  7  0 0.00000000D+00 0.00000000D+00 0.00000000D+00 0.00000000D+00 0.00000000D+00
  <mgrwgt>
 0.1649455266D-03    5    2    0
 0.374471302590946D+03 0.000000000000000D+00 0.000000000000000D+00 0.374471302590946D+03
 0.374471302590946D+03 0.000000000000000D+00 0.000000000000000D+00 -.374471302590946D+03
 0.163144183417886D+03 0.107035203239404D+03 0.203342958118412D+01 -.827049192655831D+02
 0.116817526443686D+03 -.991446519706672D+02 -.740515401124204D+01 -.613338093069909D+02
 0.203052780859154D+03 -.193467837638684D+03 0.600394498318415D+02 -.139961451098914D+02
 0.265928114461166D+03 0.185577286369947D+03 -.546677254017836D+02 0.158034873682466D+03
 0.000000000000000D+00 0.000000000000000D+00 0.000000000000000D+00 0.000000000000000D+00
 0.141443376567405D+04 0.000000000000000D+00 0.000000000000000D+00 0.141443376567405D+04
 0.130090554045039D+04 0.000000000000000D+00 0.000000000000000D+00 -.130090554045039D+04
 0.156892564098853D+03 -.545493784337480D+02 -.805250704270284D+02 -.827049192655831D+02
 0.380681049355558D+03 -.350328617178616D+03 -.135742716784590D+03 -.613338093069909D+02
 0.637714450825160D+03 -.617966031894011D+03 -.156849648193640D+03 -.139961451098914D+02
 0.283294643497052D+03 -.917218996724671D+02 -.196348352452377D+03 0.158034873682466D+03
 0.125675659834782D+04 0.111456592717884D+04 0.569465787857635D+03 0.113528225223664D+03
0.512884647503D-05 0.000000000000D+00 0.000000000000D+00 0.754748631946D-06 0.000000000000D+00  7 -1 1 23 -13 13 23 21 0 0.29797714D-01 0.11138518D+00 0.10774579D+06 0.10774579D+06 0.10774579D+06 0.11190729D+01  1  2  2  1  7  1       -1 0.160650881737D-03 0.100000000000D+01
-.278922358681D-06 0.000000000000D+00 -.196961209204D-07 0.754748631946D-06 0.000000000000D+00  7 -1 1 23 -13 13 23 21 2 0.29797714D-01 0.11138518D+00 0.10774579D+06 0.10774579D+06 0.10774579D+06 0.11190729D+01  1  2  3  1  7  1       -1 -.109411630069D-04 0.100000000000D+01
0.331211294767D-06 0.000000000000D+00 0.000000000000D+00 0.754748631946D-06 0.000000000000D+00  7 -1 1 23 -13 13 23 21 2 0.29797714D-01 0.11138518D+00 0.10774579D+06 0.10774579D+06 0.10774579D+06 0.11190729D+01  1  2 15  1  7  1       -1 0.129922777899D-04 0.100000000000D+01
0.114447004201D-04 0.000000000000D+00 -.395551975020D-05 0.754748631946D-06 0.000000000000D+00  7 -1 1 23 -13 13 23 21 2 0.31865036D+00 0.11138518D+00 0.10774579D+06 0.10774579D+06 0.10774579D+06 0.11190729D+01  1  2  5  1  7  1       -1 0.684338098246D-06 0.100000000000D+01
0.252710423303D-05 0.000000000000D+00 -.110697209659D-05 0.754748631946D-06 0.000000000000D+00  7 21 1 23 -13 13 23 1 2 0.31865036D+00 0.11138518D+00 0.10774579D+06 0.10774579D+06 0.10774579D+06 0.11190729D+01  1  2  5  3  7  1       -1 0.155919200355D-05 0.100000000000D+01
  </mgrwgt>
  </event>
  <event>
  8     66 0.58687835E-06 0.71423367E+03 0.75467711E-02 0.90726243E-01
       -1 -1    0    0    0  501 0.00000000E+00 0.00000000E+00 0.79801579E+03 0.79801585E+03 0.32000000E+00 0.0000E+00 0.9000E+01
        1 -1    0    0  501    0 0.00000000E+00 0.00000000E+00 -.26526670E+04 0.26526670E+04 0.32000000E+00 0.0000E+00 0.9000E+01
       25  2    1    2    0    0 -.68244028E+03 0.21703046E+01 -.24372026E+04 0.25489725E+04 0.30261359E+03 0.0000E+00 0.0000E+00
       23  2    1    2    0    0 0.68244028E+03 -.21703046E+01 0.58255133E+03 0.90171039E+03 0.89365145E+02 0.0000E+00 0.0000E+00
       23  1    3    3    0    0 -.28481442E+03 0.11751106E+03 -.97766767E+03 0.10291149E+04 0.91188000E+02 0.0000E+00 0.9000E+01
      -13  1    4    4    0    0 0.34632163E+02 0.70320068E+01 0.58835311E+02 0.68632652E+02 0.10565837E+00 0.0000E+00 0.9000E+01
       13  1    4    4    0    0 0.64780812E+03 -.92023115E+01 0.52371602E+03 0.83307774E+03 0.10565837E+00 0.0000E+00 0.9000E+01
       23  1    3    3    0    0 -.39762586E+03 -.11534076E+03 -.14595349E+04 0.15198576E+04 0.91188000E+02 0.0000E+00 0.9000E+01
#aMCatNLO 1  0  0  1  1 0.31878850D+01 0.00000000D+00  -5  7  0 0.00000000D+00 0.00000000D+00 0.00000000D+00 0.00000000D+00 0.00000000D+00
  <mgrwgt>
 0.1673357981D-03    8    2    0
 0.145494683890805D+04 0.000000000000000D+00 0.000000000000000D+00 0.145494683890805D+04
 0.145494683890805D+04 0.000000000000000D+00 0.000000000000000D+00 -.145494683890805D+04
 0.597244003447051D+03 -.284814420963225D+03 0.117511063734870D+03 -.503445174592768D+03
 0.118885308007771D+03 0.346313062201580D+02 0.703202950338959D+01 0.113511848062886D+03
 0.132169866019263D+04 0.647808975856267D+03 -.920233415041705D+01 0.115201831417788D+04
 0.872065706168644D+03 -.397625861113199D+03 -.115340759087843D+03 -.762084987647993D+03
 0.000000000000000D+00 -.000000000000000D+00 0.000000000000000D+00 -.000000000000000D+00
 0.145525678397980D+04 0.000000000000000D+00 0.000000000000000D+00 0.145525678397980D+04
 0.146316797468589D+04 0.000000000000000D+00 0.000000000000000D+00 -.146316797468589D+04
 0.596907118142788D+03 -.284199858189744D+03 0.117287054399515D+03 -.503445174592768D+03
 0.118918386692440D+03 0.347536904774910D+02 0.698742020174275D+01 0.113511848062886D+03
 0.132236968812340D+04 0.649169729908276D+03 -.969833166918401D+01 0.115201831417788D+04
 0.871700231073819D+03 -.396728442343231D+03 -.115667869988260D+03 -.762084987647993D+03
 0.852933463324199D+01 -.299511985279261D+01 0.109172705618674D+01 -.791119070608329D+01
0.198230981366D-02 0.000000000000D+00 0.000000000000D+00 0.358711606923D-06 0.000000000000D+00  7 -1 1 23 -13 13 23 21 0 0.12277167D+00 0.40810263D+00 0.51012974D+06 0.51012974D+06 0.51012974D+06 0.10678953D+01  1  2  2  1  7  1       -1 0.157733950480D-03 0.100000000000D+01
-.423410771947D-04 0.000000000000D+00 -.761259163863D-05 0.358711606923D-06 0.000000000000D+00  7 -1 1 23 -13 13 23 21 2 0.12277167D+00 0.40810263D+00 0.51012974D+06 0.51012974D+06 0.51012974D+06 0.10678953D+01  1  2  3  1  7  1       -1 -.384213763292D-05 0.100000000000D+01
0.124056015662D-03 0.000000000000D+00 0.000000000000D+00 0.358711606923D-06 0.000000000000D+00  7 -1 1 23 -13 13 23 21 2 0.12277167D+00 0.40810263D+00 0.51012974D+06 0.51012974D+06 0.51012974D+06 0.10678953D+01  1  2 15  1  7  1       -1 0.112571601373D-04 0.100000000000D+01
-.279953080368D-02 0.000000000000D+00 0.000000000000D+00 0.358711606923D-06 0.000000000000D+00  7 -1 1 23 -13 13 23 21 2 0.12277167D+00 0.40810263D+00 0.51012974D+06 0.51012974D+06 0.51012974D+06 0.10678953D+01  1  2  4  1  7  1       -1 -.254036584990D-03 0.100000000000D+01
0.413070791192D-04 0.000000000000D+00 0.000000000000D+00 0.358711606923D-06 0.000000000000D+00  7 -1 1 23 -13 13 23 21 2 0.12381435D+00 0.40810263D+00 0.51012974D+06 0.51012974D+06 0.51012974D+06 0.10678953D+01  1  2  5  1  7  1       -1 0.366911136664D-05 0.100000000000D+01
-.413056019974D-04 0.000000000000D+00 0.000000000000D+00 0.358711606923D-06 0.000000000000D+00  7 -1 1 23 -13 13 23 21 2 0.12277167D+00 0.40810263D+00 0.51012974D+06 0.51012974D+06 0.51012974D+06 0.10678953D+01  1  2  6  1  7  1       -1 -.374817596526D-05 0.100000000000D+01
0.279958038373D-02 0.000000000000D+00 0.000000000000D+00 0.358711606923D-06 0.214629464819D-06  7 -1 1 23 -13 13 23 21 2 0.12279782D+00 0.41040860D+00 0.51248078D+06 0.51248078D+06 0.51248078D+06 0.10677545D+01  1  2 11  1  7  1       -1 0.247574202896D-03 0.100000000000D+01
0.153686411447D-04 0.000000000000D+00 0.000000000000D+00 0.358711606923D-06 0.859694496742D-11  7 21 1 23 -13 13 23 1 2 0.12279782D+00 0.41040860D+00 0.51248078D+06 0.51248078D+06 0.51248078D+06 0.10677545D+01  1  2 11  3  7  1       -1 0.872827181264D-05 0.100000000000D+01
  </mgrwgt>
  </event>
  <event>
  9     66 0.58687835E-06 0.42609487E+03 0.75467711E-02 0.94701258E-01
       21 -1    0    0  502  501 0.00000000E+00 0.00000000E+00 0.26634755E+03 0.26634861E+03 0.75000000E+00 0.0000E+00 0.9000E+01
        1 -1    0    0  501    0 0.00000000E+00 0.00000000E+00 -.10441623E+04 0.10441624E+04 0.32000000E+00 0.0000E+00 0.9000E+01
       25  2    1    2    0    0 0.13590429E+03 -.41997026E+03 -.41787390E+03 0.67897226E+03 0.30255535E+03 0.0000E+00 0.0000E+00
       23  2    1    2    0    0 -.12534116E+03 0.28915822E+03 -.37646927E+03 0.49926381E+03 0.90622072E+02 0.0000E+00 0.0000E+00
       23  1    3    3    0    0 -.21898821E+02 -.30410709E+03 -.22900844E+03 0.39207244E+03 0.91188000E+02 0.0000E+00 0.9000E+01
      -11  1    4    4    0    0 -.11667354E+03 0.15766715E+03 -.22681687E+03 0.29986253E+03 0.51099893E-03 0.0000E+00 0.9000E+01
       11  1    4    4    0    0 -.86676144E+01 0.13149108E+03 -.14965240E+03 0.19940128E+03 0.51099893E-03 0.0000E+00 0.9000E+01
       23  1    3    3    0    0 0.15780311E+03 -.11586317E+03 -.18886546E+03 0.28689982E+03 0.91188000E+02 0.0000E+00 0.9000E+01
        1  1    1    2  502    0 -.10563133E+02 0.13081203E+03 0.16528373E+02 0.13227493E+03 0.32000000E+00 0.0000E+00 0.9000E+01
#aMCatNLO 2  0  0  1  2 0.13123783D+03 0.00000000D+00  -5  7  0 0.00000000D+00 0.00000000D+00 0.00000000D+00 0.00000000D+00 0.00000000D+00
  <mgrwgt>
 0.1289180491D-04    2    2    0
 0.430126667871850D+03 0.000000000000000D+00 0.000000000000000D+00 0.430126667871850D+03
 0.430126667871850D+03 0.000000000000000D+00 0.000000000000000D+00 -.430126667871850D+03
 0.279560728706852D+03 -.255697399677932D+02 -.258647055756195D+03 0.478209016826066D+02
 0.226672316482070D+03 -.119271715777806D+03 0.189842500263329D+03 -.333829592536897D+02
 0.155022466668865D+03 -.104280789284539D+02 0.153292366804309D+03 -.206075379775123D+02
 0.198997823885912D+03 0.155269534674053D+03 -.844878113114434D+02 0.616959554859537D+01
 0.000000000000000D+00 -.000000000000000D+00 0.000000000000000D+00 0.000000000000000D+00
 0.603756303127659D+03 0.000000000000000D+00 0.000000000000000D+00 0.603756303127659D+03
 0.460633958007240D+03 0.000000000000000D+00 0.000000000000000D+00 -.460633958007240D+03
 0.321811696010147D+03 -.218988213020336D+02 -.304107085305113D+03 0.478209016826066D+02
 0.198962474798807D+03 -.116673540943227D+03 0.157667147032290D+03 -.333829592536897D+02
 0.133378038191663D+03 -.866761444256535D+01 0.131491075401478D+03 -.206075379775123D+02
 0.216054185977583D+03 0.157803109722803D+03 -.115863171832192D+03 0.616959554859537D+01
 0.194183866156698D+03 -.105631330349768D+02 0.130812034703538D+03 0.143122345120419D+03
-.569966526025D-07 0.000000000000D+00 0.000000000000D+00 0.521858321688D-08 0.000000000000D+00  7 21 1 23 -11 11 23 1 2 0.41689589D-01 0.15000136D+00 0.24669154D+06 0.24669154D+06 0.24669154D+06 0.10908946D+01  1  2 13  3  7  1       -1 -.695660561871D-05 0.100000000000D+01
0.177080564901D-06 0.000000000000D+00 0.000000000000D+00 0.521858321688D-08 0.224692310411D-12  7 21 1 23 -11 11 23 1 2 0.40976620D-01 0.16064040D+00 0.24669154D+06 0.24669154D+06 0.24669154D+06 0.10908946D+01  1  2  1  3  7  1       -1 0.198484105286D-04 0.100000000000D+01
  </mgrwgt>
  </event>
  <event>
  8     66 0.58687835E-06 0.17060316E+03 0.75467711E-02 0.96098387E-01
       -1 -1    0    0    0  501 0.00000000E+00 0.00000000E+00 0.11127619E+03 0.11127665E+03 0.32000000E+00 0.0000E+00 0.9000E+01
        1 -1    0    0  501    0 0.00000000E+00 0.00000000E+00 -.77208567E+03 0.77208573E+03 0.32000000E+00 0.0000E+00 0.9000E+01
       25  2    1    2    0    0 -.62557445E+02 0.24145356E+02 -.69962294E+03 0.76425796E+03 0.30020250E+03 0.0000E+00 0.0000E+00
       23  2    1    2    0    0 0.62557445E+02 -.24145356E+02 0.38813468E+02 0.11910442E+03 0.90459635E+02 0.0000E+00 0.0000E+00
       23  1    3    3    0    0 -.12557269E+03 0.40349832E+02 -.57384642E+03 0.59582848E+03 0.91188000E+02 0.0000E+00 0.9000E+01
      -11  1    4    4    0    0 0.44662789E+02 -.93826459E+01 0.67954451E+02 0.81857230E+02 0.51099893E-03 0.0000E+00 0.9000E+01
       11  1    4    4    0    0 0.17894656E+02 -.14762710E+02 -.29140982E+02 0.37247190E+02 0.51099893E-03 0.0000E+00 0.9000E+01
       23  1    3    3    0    0 0.63015247E+02 -.16204476E+02 -.12577652E+03 0.16842948E+03 0.91188000E+02 0.0000E+00 0.9000E+01
#aMCatNLO 1  0  0  1  1 0.38272204D+03 0.00000000D+00  -5  7  0 0.00000000D+00 0.00000000D+00 0.00000000D+00 0.00000000D+00 0.00000000D+00
  <mgrwgt>
 0.2981302983D-03    3    2    0
 0.293112580937408D+03 0.000000000000000D+00 0.000000000000000D+00 0.293112580937408D+03
 0.293112580937408D+03 0.000000000000000D+00 0.000000000000000D+00 -.293112580937408D+03
 0.250977481098763D+03 -.125572692799522D+03 0.403498321133744D+02 -.193074686445891D+03
 0.199947989893143D+03 0.446627893922195D+02 -.938264589968227D+01 0.194669976786190D+03
 0.232779661603057D+02 0.178946559634582D+02 -.147627101301035D+02 -.192545738055801D+01
 0.112021724722605D+03 0.630152474438446D+02 -.162044760835886D+02 0.330167040259070D+00
 0.000000000000000D+00 -.000000000000000D+00 0.000000000000000D+00 -.000000000000000D+00
 0.381761484089839D+03 0.000000000000000D+00 0.000000000000000D+00 0.381761484089839D+03
 0.150475420552555D+04 0.000000000000000D+00 0.000000000000000D+00 -.150475420552555D+04
 0.216035742374275D+03 0.130040845123144D+02 0.301537705606041D+02 -.193074686445891D+03
 0.268316495192632D+03 0.183610853411053D+03 -.196060256091574D+02 0.194669976786190D+03
 0.401580267583978D+02 0.367180104690891D+02 -.161476758140517D+02 -.192545738055801D+01
 0.175586943909716D+03 0.148357332898339D+03 -.224836894786131D+02 0.330167040259070D+00
 0.118641848138037D+04 -.381690281290795D+03 0.280836203412180D+02 -.112299272143571D+04
0.408852895839D-05 0.000000000000D+00 0.000000000000D+00 0.789336073260D-06 0.000000000000D+00  7 -1 1 23 -11 11 23 21 0 0.17119455D-01 0.11878245D+00 0.29105437D+05 0.29105437D+05 0.29105437D+05 0.11685577D+01  1  2  2  1  7  1       -1 0.287628771650D-03 0.100000000000D+01
-.146246117419D-06 0.000000000000D+00 -.157010277346D-07 0.789336073260D-06 0.000000000000D+00  7 -1 1 23 -11 11 23 21 2 0.17119455D-01 0.11878245D+00 0.29105437D+05 0.29105437D+05 0.29105437D+05 0.11685577D+01  1  2  3  1  7  1       -1 -.140491456412D-04 0.100000000000D+01
0.255562907567D-06 0.000000000000D+00 0.000000000000D+00 0.789336073260D-06 0.000000000000D+00  7 -1 1 23 -11 11 23 21 2 0.17119455D-01 0.11878245D+00 0.29105437D+05 0.29105437D+05 0.29105437D+05 0.11685577D+01  1  2 15  1  7  1       -1 0.245506723342D-04 0.100000000000D+01
  </mgrwgt>
  </event>
  <event>
  8     66 0.58687835E-06 0.95488752E+02 0.75467711E-02 0.10339337E+00
       -1 -1    0    0    0  501 0.00000000E+00 0.00000000E+00 0.43728232E+03 0.43728244E+03 0.32000000E+00 0.0000E+00 0.9000E+01
        1 -1    0    0  501    0 0.00000000E+00 0.00000000E+00 -.10480438E+03 0.10480487E+03 0.32000000E+00 0.0000E+00 0.9000E+01
       25  2    1    2    0    0 -.62781223E+02 0.13735192E+02 0.18674431E+03 0.35862973E+03 0.29935215E+03 0.0000E+00 0.0000E+00
       23  2    1    2    0    0 0.62781223E+02 -.13735192E+02 0.14573364E+03 0.18345758E+03 0.91039842E+02 0.0000E+00 0.0000E+00
       23  1    3    3    0    0 0.57856149E+02 -.24383372E+02 0.16849343E+03 0.20161143E+03 0.91188000E+02 0.0000E+00 0.9000E+01
      -11  1    4    4    0    0 0.77373147E+02 -.34091730E+02 0.12517125E+03 0.15105195E+03 0.51099893E-03 0.0000E+00 0.9000E+01
       11  1    4    4    0    0 -.14591924E+02 0.20356539E+02 0.20562382E+02 0.32405624E+02 0.51099893E-03 0.0000E+00 0.9000E+01
       23  1    3    3    0    0 -.12063737E+03 0.38118564E+02 0.18250876E+02 0.15701830E+03 0.91188000E+02 0.0000E+00 0.9000E+01
#aMCatNLO 1  0  0  2  1 0.10363658D+03 0.00000000D+00  -5  7  0 0.00000000D+00 0.00000000D+00 0.00000000D+00 0.00000000D+00 0.00000000D+00
  <mgrwgt>
 0.8426885037D-04    7    2    0
 0.214077713867252D+03 0.000000000000000D+00 0.000000000000000D+00 0.214077713867252D+03
 0.214077713867252D+03 0.000000000000000D+00 0.000000000000000D+00 -.214077713867252D+03
 0.124418955007259D+03 0.578561487368424D+02 -.243833723992850D+02 0.567709628672662D+02
 0.940468435892086D+02 0.773731470804082D+02 -.340917303967654D+02 0.411820205735568D+02
 0.250613175669370D+02 -.145919240941630D+02 0.203565387177181D+02 0.869897037064886D+00
 0.184628311571100D+03 -.120637371723088D+03 0.381185640783324D+02 -.988228804778879D+02
 0.000000000000000D+00 0.000000000000000D+00 -.000000000000000D+00 -.000000000000000D+00
 0.228048289272260D+03 0.000000000000000D+00 0.000000000000000D+00 0.228048289272260D+03
 0.565019111721654D+03 0.000000000000000D+00 0.000000000000000D+00 -.565019111721654D+03
 0.114240849866400D+03 0.387570837768066D+02 -.326598628877814D+01 0.567709628672662D+02
 0.780799410147017D+02 0.635984746245564D+02 -.188613996237848D+02 0.411820205735568D+02
 0.318086757706265D+02 -.191430201516073D+02 0.253885783946424D+02 0.869897037064886D+00
 0.216390239970848D+03 -.152729409048492D+03 0.736019735903385D+02 -.988228804778879D+02
 0.352547694371336D+03 0.695168707987361D+02 -.768631660724180D+02 -.336970822449394D+03
0.216101027242D-05 0.000000000000D+00 0.000000000000D+00 0.862544705102D-07 0.000000000000D+00  7 -1 1 23 -11 11 23 21 0 0.67274250D-01 0.16123798D-01 0.35393468D+05 0.35393468D+05 0.35393468D+05 0.11607321D+01  1  2  2  2  7  2        1 0.212523832981D-03 0.100000000000D+01
-.117619571421D-06 0.000000000000D+00 -.829884845315D-08 0.862544705102D-07 0.000000000000D+00  7 -1 1 23 -11 11 23 21 2 0.67274250D-01 0.16123798D-01 0.35393468D+05 0.35393468D+05 0.35393468D+05 0.11607321D+01  1  2  3  2  7  2        1 -.155845536908D-04 0.100000000000D+01
0.138681817831D-06 0.000000000000D+00 0.000000000000D+00 0.862544705102D-07 0.000000000000D+00  7 -1 1 23 -11 11 23 21 2 0.67274250D-01 0.16123798D-01 0.35393468D+05 0.35393468D+05 0.35393468D+05 0.11607321D+01  1  2 15  2  7  2        1 0.183752942629D-04 0.100000000000D+01
0.323242591232D-05 0.000000000000D+00 0.000000000000D+00 0.862544705102D-07 0.000000000000D+00  7 -1 1 23 -11 11 23 21 2 0.67274250D-01 0.42121539D-01 0.60864033D+05 0.60864033D+05 0.60864033D+05 0.11398594D+01  1  2 12  2  7  2        1 0.119417686917D-03 0.100000000000D+01
-.569612507244D-05 0.000000000000D+00 -.710781357311D-06 0.862544705102D-07 0.000000000000D+00  7 -1 1 23 -11 11 23 21 2 0.67274250D-01 0.44379377D-01 0.35393468D+05 0.35393468D+05 0.35393468D+05 0.11607321D+01  1  2  5  2  7  2        1 -.205712594881D-03 0.100000000000D+01
0.344197736737D-06 0.000000000000D+00 0.000000000000D+00 0.862544705102D-07 0.000000000000D+00  7 -1 21 23 -11 11 23 -1 2 0.67274250D-01 0.42121539D-01 0.60864033D+05 0.60864033D+05 0.60864033D+05 0.11398594D+01  1  2 12  4  7  2        1 0.658904032086D-04 0.100000000000D+01
-.605081307037D-06 0.000000000000D+00 -.805587813933D-07 0.862544705102D-07 0.000000000000D+00  7 -1 21 23 -11 11 23 -1 2 0.67274250D-01 0.44379377D-01 0.35393468D+05 0.35393468D+05 0.35393468D+05 0.11607321D+01  1  2  5  4  7  2        1 -.110641218429D-03 0.100000000000D+01
  </mgrwgt>
  </event>
  <event>
  8     66 0.58687835E-06 0.28966081E+03 0.75467711E-02 0.88165766E-01
       -1 -1    0    0    0  501 0.00000000E+00 0.00000000E+00 0.19413409E+03 0.19413435E+03 0.32000000E+00 0.0000E+00 0.9000E+01
        1 -1    0    0  501    0 0.00000000E+00 0.00000000E+00 -.58192581E+03 0.58192590E+03 0.32000000E+00 0.0000E+00 0.9000E+01
       25  2    1    2    0    0 -.18478174E+03 -.11932885E+03 -.38807328E+03 0.53729094E+03 0.29949462E+03 0.0000E+00 0.0000E+00
       23  2    1    2    0    0 0.18478174E+03 0.11932885E+03 0.28155641E+00 0.23876931E+03 0.92881856E+02 0.0000E+00 0.0000E+00
       23  1    3    3    0    0 -.18353876E+03 -.15947044E+03 -.33664465E+03 0.42516134E+03 0.91188000E+02 0.0000E+00 0.9000E+01
      -11  1    4    4    0    0 0.16480801E+03 0.10797402E+03 0.31993767E+02 0.19960879E+03 0.51099893E-03 0.0000E+00 0.9000E+01
       11  1    4    4    0    0 0.19973733E+02 0.11354830E+02 -.31712210E+02 0.39160522E+02 0.51099893E-03 0.0000E+00 0.9000E+01
       23  1    3    3    0    0 -.12429766E+01 0.40141590E+02 -.51428627E+02 0.11212960E+03 0.91188000E+02 0.0000E+00 0.9000E+01
#aMCatNLO 1  0  0  1  1 0.84509071D+03 0.00000000D+00  -5  7  0 0.00000000D+00 0.00000000D+00 0.00000000D+00 0.00000000D+00 0.00000000D+00
  <mgrwgt>
 0.2600202497D-03    3    2    0
 0.336112741112457D+03 0.000000000000000D+00 0.000000000000000D+00 0.336112741112457D+03
 0.336112741112457D+03 0.000000000000000D+00 0.000000000000000D+00 -.336112741112457D+03
 0.296630845124112D+03 -.183538761741263D+03 -.159470437026249D+03 -.143378204718102D+03
 0.248897681518635D+03 0.164808005133018D+03 0.107974017350603D+03 0.152085465730946D+03
 0.269153613131689D+02 0.199737331780877D+02 0.113548295369069D+02 -.140197897179941D+02
 0.997815942689971D+02 -.124297656984285D+01 0.401415901387394D+02 0.531252870514917D+01
 0.000000000000000D+00 0.000000000000000D+00 -.000000000000000D+00 -.000000000000000D+00
 0.757240966847136D+03 0.000000000000000D+00 0.000000000000000D+00 0.757240966847136D+03
 0.136150303875348D+04 0.000000000000000D+00 0.000000000000000D+00 -.136150303875348D+04
 0.662488912048606D+03 -.636816005046375D+03 -.669654640238944D+02 -.143378204718102D+03
 0.223960331471844D+03 -.586633340820909D+02 0.153580123781538D+03 0.152085465730946D+03
 0.214875469421480D+02 -.290134228339015D+01 0.160231826678988D+02 -.140197897179941D+02
 0.171908296197450D+03 -.129642838697093D+03 0.663454773954227D+02 0.531252870514917D+01
 0.103889891894057D+04 0.828023520108950D+03 -.168983319820965D+03 -.604262071906342D+03
0.595084013661D-05 0.000000000000D+00 0.000000000000D+00 0.258504301747D-06 0.000000000000D+00  7 -1 1 23 -11 11 23 21 0 0.29866810D-01 0.89527075D-01 0.83903385D+05 0.83903385D+05 0.83903385D+05 0.11280310D+01  1  2  2  1  7  1       -1 0.256790963640D-03 0.100000000000D+01
-.321709817340D-06 0.000000000000D+00 -.228527930168D-07 0.258504301747D-06 0.000000000000D+00  7 -1 1 23 -11 11 23 21 2 0.29866810D-01 0.89527075D-01 0.83903385D+05 0.83903385D+05 0.83903385D+05 0.11280310D+01  1  2  3  1  7  1       -1 -.176647639866D-04 0.100000000000D+01
0.380521416898D-06 0.000000000000D+00 0.000000000000D+00 0.258504301747D-06 0.000000000000D+00  7 -1 1 23 -11 11 23 21 2 0.29866810D-01 0.89527075D-01 0.83903385D+05 0.83903385D+05 0.83903385D+05 0.11280310D+01  1  2 15  1  7  1       -1 0.208940500384D-04 0.100000000000D+01
  </mgrwgt>
  </event>
  <event>
  8     66 0.58687835E-06 0.25163362E+03 0.75467711E-02 0.91842259E-01
       -1 -1    0    0    0  501 0.00000000E+00 0.00000000E+00 0.58875074E+03 0.58875083E+03 0.32000000E+00 0.0000E+00 0.9000E+01
        1 -1    0    0  501    0 0.00000000E+00 0.00000000E+00 -.50299735E+03 0.50299745E+03 0.32000000E+00 0.0000E+00 0.9000E+01
       25  2    1    2    0    0 -.19888820E+03 0.45009495E+03 0.12494500E+03 0.59011390E+03 0.30080089E+03 0.0000E+00 0.0000E+00
       23  2    1    2    0    0 0.19888820E+03 -.45009495E+03 -.39191611E+02 0.50163439E+03 0.89213751E+02 0.0000E+00 0.0000E+00
       23  1    3    3    0    0 -.22051353E+03 0.39736662E+03 0.13318777E+03 0.48226620E+03 0.91188000E+02 0.0000E+00 0.9000E+01
      -13  1    4    4    0    0 0.16213986E+03 -.28978572E+03 -.54309035E+02 0.33647374E+03 0.10565837E+00 0.0000E+00 0.9000E+01
       13  1    4    4    0    0 0.36748342E+02 -.16030923E+03 0.15117424E+02 0.16516064E+03 0.10565837E+00 0.0000E+00 0.9000E+01
       23  1    3    3    0    0 0.21625331E+02 0.52728330E+02 -.82427699E+01 0.10784770E+03 0.91188000E+02 0.0000E+00 0.9000E+01
#aMCatNLO 1  0  0  2  1 0.20203265D+03 0.00000000D+00  -5  7  0 0.00000000D+00 0.00000000D+00 0.00000000D+00 0.00000000D+00 0.00000000D+00
  <mgrwgt>
 0.1436321531D-03    9    2    0
 0.544187622492446D+03 0.000000000000000D+00 0.000000000000000D+00 0.544187622492446D+03
 0.544187622492446D+03 0.000000000000000D+00 0.000000000000000D+00 -.544187622492446D+03
 0.473266911606783D+03 -.220513533770446D+03 0.397366622566809D+03 0.956026514890663D+02
 0.341795800866995D+03 0.162140036818051D+03 -.289785902479086D+03 -.809883243148880D+02
 0.164481146341424D+03 0.367481660964338D+02 -.160309050061941D+03 0.215133878684346D+01
 0.108831386169691D+03 0.216253308559616D+02 0.527283299742177D+02 -.167656659610217D+02
 0.000000000000000D+00 -.000000000000000D+00 0.000000000000000D+00 -.000000000000000D+00
 0.613763472154287D+03 0.000000000000000D+00 0.000000000000000D+00 0.613763472154287D+03
 0.722766887587712D+03 0.000000000000000D+00 0.000000000000000D+00 -.722766887587712D+03
 0.402627720003285D+03 -.209340801746544D+03 0.317538015556276D+03 0.956026514890663D+02
 0.405079517899731D+03 0.171667024986145D+03 -.357855752614026D+03 -.809883243148880D+02
 0.197707042211177D+03 0.413681642410533D+02 -.193318703876892D+03 0.215133878684346D+01
 0.101553590186580D+03 0.243089584041323D+02 0.335539464440972D+02 -.167656659610217D+02
 0.229562489441227D+03 -.280033458847866D+02 0.200082494490545D+03 -.109003415433425D+03
0.167468298007D-04 0.000000000000D+00 0.000000000000D+00 0.123306147772D-06 0.000000000000D+00  7 -1 1 23 -13 13 23 21 0 0.90577052D-01 0.77384223D-01 0.28492731D+06 0.28492731D+06 0.28492731D+06 0.10862121D+01  1  2  2  2  7  2        1 0.111274312768D-03 0.100000000000D+01
-.929958096714D-06 0.000000000000D+00 -.643122359761D-07 0.123306147772D-06 0.000000000000D+00  7 -1 1 23 -13 13 23 21 2 0.90577052D-01 0.77384223D-01 0.28492731D+06 0.28492731D+06 0.28492731D+06 0.10862121D+01  1  2  3  2  7  2        1 -.729046009960D-05 0.100000000000D+01
0.108553338165D-05 0.000000000000D+00 0.000000000000D+00 0.123306147772D-06 0.000000000000D+00  7 -1 1 23 -13 13 23 21 2 0.90577052D-01 0.77384223D-01 0.28492731D+06 0.28492731D+06 0.28492731D+06 0.10862121D+01  1  2 15  2  7  2        1 0.851010151283D-05 0.100000000000D+01
0.110591305916D-04 0.000000000000D+00 0.000000000000D+00 0.123306147772D-06 0.000000000000D+00  7 -1 1 23 -13 13 23 21 2 0.90577052D-01 0.10645561D+00 0.41467273D+06 0.41467273D+06 0.41467273D+06 0.10743016D+01  1  2 12  2  7  2        1 0.525024295539D-04 0.100000000000D+01
-.128214872032D-04 0.000000000000D+00 0.000000000000D+00 0.123306147772D-06 0.000000000000D+00  7 -1 1 23 -13 13 23 21 2 0.90577052D-01 0.77384223D-01 0.28492731D+06 0.28492731D+06 0.28492731D+06 0.10862121D+01  1  2  4  2  7  2        1 -.100514787928D-03 0.100000000000D+01
-.207610997763D-04 0.000000000000D+00 -.726361776816D-05 0.123306147772D-06 0.000000000000D+00  7 -1 1 23 -13 13 23 21 2 0.90577052D-01 0.11231833D+00 0.28492731D+06 0.28492731D+06 0.28492731D+06 0.10862121D+01  1  2  5  2  7  2        1 -.942746714748D-04 0.100000000000D+01
0.223729899407D-04 0.000000000000D+00 0.678712932596D-05 0.123306147772D-06 0.000000000000D+00  7 -1 1 23 -13 13 23 21 2 0.90577052D-01 0.77384223D-01 0.28492731D+06 0.28492731D+06 0.28492731D+06 0.10862121D+01  1  2  6  2  7  2        1 0.175394344162D-03 0.100000000000D+01
0.446801390669D-06 0.000000000000D+00 0.000000000000D+00 0.123306147772D-06 0.000000000000D+00  7 -1 21 23 -13 13 23 -1 2 0.90577052D-01 0.10645561D+00 0.41467273D+06 0.41467273D+06 0.41467273D+06 0.10743016D+01  1  2 12  4  7  2        1 0.430766614027D-05 0.100000000000D+01
-.713611793621D-06 0.000000000000D+00 -.328277327893D-06 0.123306147772D-06 0.000000000000D+00  7 -1 21 23 -13 13 23 -1 2 0.90577052D-01 0.11231833D+00 0.28492731D+06 0.28492731D+06 0.28492731D+06 0.10862121D+01  1  2  5  4  7  2        1 -.627678150745D-05 0.100000000000D+01
  </mgrwgt>
  </event>
  <event>
  8     66 0.58687835E-06 0.41523961E+03 0.75467711E-02 0.91212301E-01
       -1 -1    0    0    0  501 0.00000000E+00 0.00000000E+00 0.30096731E+03 0.30096748E+03 0.32000000E+00 0.0000E+00 0.9000E+01
        1 -1    0    0  501    0 0.00000000E+00 0.00000000E+00 -.10189144E+04 0.10189145E+04 0.32000000E+00 0.0000E+00 0.9000E+01
       25  2    1    2    0    0 0.36941348E+03 -.68966974E+02 0.21596435E+02 0.48531684E+03 0.30633849E+03 0.0000E+00 0.0000E+00
       23  2    1    2    0    0 -.36941348E+03 0.68966974E+02 -.73954355E+03 0.83456512E+03 0.91386576E+02 0.0000E+00 0.0000E+00
       23  1    3    3    0    0 0.33408961E+03 -.24599558E+02 -.57544293E+02 0.35191988E+03 0.91188000E+02 0.0000E+00 0.9000E+01
      -13  1    4    4    0    0 -.28415576E+02 0.28020826E+01 -.17971908E+02 0.33738662E+02 0.10565837E+00 0.0000E+00 0.9000E+01
       13  1    4    4    0    0 -.34099791E+03 0.66164891E+02 -.72157164E+03 0.80082645E+03 0.10565837E+00 0.0000E+00 0.9000E+01
       23  1    3    3    0    0 0.35323875E+02 -.44367416E+02 0.79140728E+02 0.13339696E+03 0.91188000E+02 0.0000E+00 0.9000E+01
#aMCatNLO 1  0  0  2  2 0.43600335D+03 0.00000000D+00  -5  7  0 0.00000000D+00 0.00000000D+00 0.00000000D+00 0.00000000D+00 0.00000000D+00
  <mgrwgt>
 0.3151401159D-03    3    2    0
 0.553768979431367D+03 0.000000000000000D+00 0.000000000000000D+00 0.553768979431367D+03
 0.553768979431367D+03 0.000000000000000D+00 0.000000000000000D+00 -.553768979431367D+03
 0.382089786921722D+03 0.334089609500965D+03 -.245995578797881D+02 0.159550457540862D+03
 0.285565772591368D+02 -.284151586057754D+02 0.280199792780560D+01 0.453512710132244D+00
 0.486616993031916D+03 -.340998325708405D+03 0.661649761876890D+02 -.340790897322054D+03
 0.210274601649959D+03 0.353238748132150D+02 -.443674162357065D+02 0.180786927071060D+03
 0.000000000000000D+00 -.000000000000000D+00 -.000000000000000D+00 0.000000000000000D+00
 0.175349441275503D+04 0.000000000000000D+00 0.000000000000000D+00 0.175349441275503D+04
 0.636161874873921D+03 0.000000000000000D+00 0.000000000000000D+00 -.636161874873921D+03
 0.429492006351721D+03 0.367246651440942D+03 0.125784262449418D+03 0.159550457540862D+03
 0.293583677248798D+02 -.260490529640493D+02 0.135334741056081D+02 0.453512710132244D+00
 0.519498858370505D+03 -.299893626517371D+03 0.252595409548445D+03 -.340790897322054D+03
 0.211919328887073D+03 0.525725390607918D+02 0.338639299085634D+02 0.180786927071060D+03
 0.119938772629477D+04 -.938765110203137D+02 -.425777076012034D+03 0.111733253788111D+04
0.373343032702D-04 0.000000000000D+00 0.000000000000D+00 0.394790809411D-07 0.000000000000D+00  7 -1 1 23 -13 13 23 21 0 0.46302680D-01 0.15675608D+00 0.17242393D+06 0.17242393D+06 0.17242393D+06 0.11028085D+01  1  2  2  2  7  2        1 0.309786417946D-03 0.100000000000D+01
-.186511372126D-05 0.000000000000D+00 -.143373554906D-06 0.394790809411D-07 0.000000000000D+00  7 -1 1 23 -13 13 23 21 2 0.46302680D-01 0.15675608D+00 0.17242393D+06 0.17242393D+06 0.17242393D+06 0.11028085D+01  1  2  3  2  7  2        1 -.188217440108D-04 0.100000000000D+01
0.239563073770D-05 0.000000000000D+00 0.000000000000D+00 0.394790809411D-07 0.000000000000D+00  7 -1 1 23 -13 13 23 21 2 0.46302680D-01 0.15675608D+00 0.17242393D+06 0.17242393D+06 0.17242393D+06 0.11028085D+01  1  2 15  2  7  2        1 0.241754419451D-04 0.100000000000D+01
  </mgrwgt>
  </event>
  <event>
  8     66 0.58687835E-06 0.87370878E+02 0.75467711E-02 0.10139912E+00
       -1 -1    0    0    0  501 0.00000000E+00 0.00000000E+00 0.82253792E+02 0.82254415E+02 0.32000000E+00 0.0000E+00 0.9000E+01
        1 -1    0    0  501    0 0.00000000E+00 0.00000000E+00 -.11396079E+04 0.11396079E+04 0.32000000E+00 0.0000E+00 0.9000E+01
       25  2    1    2    0    0 -.20116876E+03 -.69682348E+02 -.76103682E+03 0.84544596E+03 0.30046188E+03 0.0000E+00 0.0000E+00
       23  2    1    2    0    0 0.20116876E+03 0.69682348E+02 -.29631729E+03 0.37641640E+03 0.92524960E+02 0.0000E+00 0.0000E+00
       23  1    3    3    0    0 -.21905255E+03 -.85870665E+02 -.40543176E+03 0.47754367E+03 0.91188000E+02 0.0000E+00 0.9000E+01
      -11  1    4    4    0    0 0.17095108E+03 0.57254281E+02 -.17678157E+03 0.25249564E+03 0.51099893E-03 0.0000E+00 0.9000E+01
       11  1    4    4    0    0 0.30217676E+02 0.12428067E+02 -.11953573E+03 0.12392076E+03 0.51099893E-03 0.0000E+00 0.9000E+01
       23  1    3    3    0    0 0.17883792E+02 0.16188317E+02 -.35560505E+03 0.36790229E+03 0.91188000E+02 0.0000E+00 0.9000E+01
#aMCatNLO 1  0  0  2  1 0.12807447D+02 0.00000000D+00  -5  7  0 0.00000000D+00 0.00000000D+00 0.00000000D+00 0.00000000D+00 0.00000000D+00
  <mgrwgt>
 0.1937731678D-03    6    2    0
 0.306165771167202D+03 0.000000000000000D+00 0.000000000000000D+00 0.306165771167202D+03
 0.306165771167202D+03 0.000000000000000D+00 0.000000000000000D+00 -.306165771167202D+03
 0.252816791227585D+03 -.219052550529884D+03 -.858706648489307D+02 0.155976795507457D+02
 0.198575759939401D+03 0.170951081813855D+03 0.572542812349113D+02 0.832466656536882D+02
 0.408643344799717D+02 0.302176763760003D+02 0.124280669805293D+02 -.245423922642801D+02
 0.120074656687447D+03 0.178837923400285D+02 0.161883166334901D+02 -.743019529401537D+02
 0.000000000000000D+00 -.000000000000000D+00 0.000000000000000D+00 0.000000000000000D+00
 0.313734176207716D+03 0.000000000000000D+00 0.000000000000000D+00 0.313734176207716D+03
 0.311699371857489D+03 0.000000000000000D+00 0.000000000000000D+00 -.311699371857489D+03
 0.248714396136878D+03 -.213903400853193D+03 -.868656836604776D+02 0.155976795507457D+02
 0.201902630503761D+03 0.175062736735074D+03 0.564597473312413D+02 0.832466656536882D+02
 0.414445020806691D+02 0.310627295448613D+02 0.122647693775133D+02 -.245423922642801D+02
 0.120403938412897D+03 0.203527520207194D+02 0.157112162418741D+02 -.743019529401537D+02
 0.129680809310006D+02 -.125748174474616D+02 0.242995070984883D+01 0.203480435022677D+01
0.220802086148D-05 0.000000000000D+00 0.000000000000D+00 0.240149715476D-06 0.000000000000D+00  7 -1 1 23 -11 11 23 21 0 0.12654481D-01 0.17532434D+00 0.78292928D+05 0.78292928D+05 0.78292928D+05 0.11305491D+01  1  2  2  2  7  2        1 0.128622131258D-03 0.100000000000D+01
-.121459193429D-06 0.000000000000D+00 -.847938149332D-08 0.240149715476D-06 0.000000000000D+00  7 -1 1 23 -11 11 23 21 2 0.12654481D-01 0.17532434D+00 0.78292928D+05 0.78292928D+05 0.78292928D+05 0.11305491D+01  1  2  3  2  7  2        1 -.904319245010D-05 0.100000000000D+01
0.144106604114D-06 0.000000000000D+00 0.000000000000D+00 0.240149715476D-06 0.000000000000D+00  7 -1 1 23 -11 11 23 21 2 0.12654481D-01 0.17532434D+00 0.78292928D+05 0.78292928D+05 0.78292928D+05 0.11305491D+01  1  2 15  2  7  2        1 0.107293957546D-04 0.100000000000D+01
0.284435539005D-05 0.000000000000D+00 0.000000000000D+00 0.240149715476D-06 0.000000000000D+00  7 -1 1 23 -11 11 23 21 2 0.12654481D-01 0.18061460D+00 0.82114956D+05 0.82114956D+05 0.82114956D+05 0.11288131D+01  1  2 12  2  7  2        1 0.199531963016D-03 0.100000000000D+01
-.187635315963D-05 0.000000000000D+00 0.000000000000D+00 0.240149715476D-06 0.000000000000D+00  7 -1 1 23 -11 11 23 21 2 0.12654481D-01 0.17532434D+00 0.78292928D+05 0.78292928D+05 0.78292928D+05 0.11305491D+01  1  2  4  2  7  2        1 -.139703074324D-03 0.100000000000D+01
0.454442222849D-07 0.000000000000D+00 0.000000000000D+00 0.240149715476D-06 0.000000000000D+00  7 -1 21 23 -11 11 23 -1 2 0.12654481D-01 0.18061460D+00 0.82114956D+05 0.82114956D+05 0.82114956D+05 0.11288131D+01  1  2 12  4  7  2        1 0.363594454352D-05 0.100000000000D+01
  </mgrwgt>
  </event>
  <event>
  8     66 0.58687835E-06 0.29597559E+03 0.75467711E-02 0.93671152E-01
       -1 -1    0    0    0  501 0.00000000E+00 0.00000000E+00 0.21723992E+03 0.21724015E+03 0.32000000E+00 0.0000E+00 0.9000E+01
        1 -1    0    0  501    0 0.00000000E+00 0.00000000E+00 -.12035196E+04 0.12035197E+04 0.32000000E+00 0.0000E+00 0.9000E+01
       25  2    1    2    0    0 0.28058639E+03 -.34399050E+03 -.35045862E+03 0.64013028E+03 0.29981219E+03 0.0000E+00 0.0000E+00
       23  2    1    2    0    0 -.28058639E+03 0.34399050E+03 -.63582110E+03 0.78062955E+03 0.89754325E+02 0.0000E+00 0.0000E+00
       23  1    3    3    0    0 0.20399885E+03 -.78671806E+02 -.21254077E+03 0.31826658E+03 0.91188000E+02 0.0000E+00 0.9000E+01
      -13  1    4    4    0    0 -.18449313E+03 0.22276094E+03 -.33672155E+03 0.44389365E+03 0.10565837E+00 0.0000E+00 0.9000E+01
       13  1    4    4    0    0 -.96093256E+02 0.12122956E+03 -.29909955E+03 0.33673591E+03 0.10565837E+00 0.0000E+00 0.9000E+01
       23  1    3    3    0    0 0.76587536E+02 -.26531869E+03 -.13791785E+03 0.32186370E+03 0.91188000E+02 0.0000E+00 0.9000E+01
#aMCatNLO 1  0  0  1  2 0.11209162D+03 0.00000000D+00  -5  7  0 0.00000000D+00 0.00000000D+00 0.00000000D+00 0.00000000D+00 0.00000000D+00
  <mgrwgt>
 0.1620777400D-03    9    2    0
 0.511324461276439D+03 0.000000000000000D+00 0.000000000000000D+00 0.511324461276439D+03
 0.511324461276439D+03 0.000000000000000D+00 0.000000000000000D+00 -.511324461276439D+03
 0.237183764017209D+03 0.203998852676301D+03 -.786718063728360D+02 0.116662572472504D+02
 0.291952375313594D+03 -.184493255368012D+03 0.222761081440530D+03 -.396979693486807D+02
 0.179362504600953D+03 -.960931336786969D+02 0.121229417166029D+03 -.907769030652611D+02
 0.314150278621123D+03 0.765875363704077D+02 -.265318692233724D+03 0.118808615166691D+03
 0.000000000000000D+00 -.000000000000000D+00 0.000000000000000D+00 0.000000000000000D+00
 0.841085408255810D+03 0.000000000000000D+00 0.000000000000000D+00 0.841085408255810D+03
 0.524001630512791D+03 0.000000000000000D+00 0.000000000000000D+00 -.524001630512791D+03
 0.261691056904044D+03 0.225868471514182D+03 -.949436145153729D+02 0.116662572472504D+02
 0.262901771436309D+03 -.160169621079094D+03 0.204663394717571D+03 -.396979693486807D+02
 0.164054496857358D+03 -.810384574164792D+02 0.110028179247676D+03 -.907769030652611D+02
 0.340126386784225D+03 0.105269643959063D+03 -.286659244863649D+03 0.118808615166691D+03
 0.336313326786664D+03 -.899300369776725D+02 0.669112854137755D+02 0.317083777743019D+03
0.135259316075D-04 0.000000000000D+00 0.000000000000D+00 0.977231554574D-06 0.000000000000D+00  7 -1 1 23 -13 13 23 21 0 0.33421547D-01 0.18515689D+00 0.23602589D+06 0.23602589D+06 0.23602589D+06 0.10923434D+01  1  2  2  1  7  1       -1 0.143845862377D-03 0.100000000000D+01
-.749049705142D-06 0.000000000000D+00 -.519431388324D-07 0.977231554574D-06 0.000000000000D+00  7 -1 1 23 -13 13 23 21 2 0.33421547D-01 0.18515689D+00 0.23602589D+06 0.23602589D+06 0.23602589D+06 0.10923434D+01  1  2  3  1  7  1       -1 -.950515432365D-05 0.100000000000D+01
0.868358308867D-06 0.000000000000D+00 0.000000000000D+00 0.977231554574D-06 0.000000000000D+00  7 -1 1 23 -13 13 23 21 2 0.33421547D-01 0.18515689D+00 0.23602589D+06 0.23602589D+06 0.23602589D+06 0.10923434D+01  1  2 15  1  7  1       -1 0.110191348816D-04 0.100000000000D+01
0.537571952790D-04 0.000000000000D+00 0.000000000000D+00 0.977231554574D-06 0.000000000000D+00  7 -1 1 23 -13 13 23 21 2 0.55160390D-01 0.18515689D+00 0.29635057D+06 0.29635057D+06 0.29635057D+06 0.10849453D+01  1  2 12  1  7  1       -1 0.274149484837D-03 0.100000000000D+01
-.501596534663D-04 0.000000000000D+00 0.000000000000D+00 0.977231554574D-06 0.000000000000D+00  7 -1 1 23 -13 13 23 21 2 0.33421547D-01 0.18515689D+00 0.23602589D+06 0.23602589D+06 0.23602589D+06 0.10923434D+01  1  2  4  1  7  1       -1 -.636506821570D-03 0.100000000000D+01
-.568633360344D-04 0.000000000000D+00 -.494792196461D-05 0.977231554574D-06 0.000000000000D+00  7 -1 1 23 -13 13 23 21 2 0.55712546D-01 0.18515689D+00 0.23602589D+06 0.23602589D+06 0.23602589D+06 0.10923434D+01  1  2  5  1  7  1       -1 -.291432138970D-03 0.100000000000D+01
0.529139756737D-04 0.000000000000D+00 0.436544585993D-05 0.977231554574D-06 0.000000000000D+00  7 -1 1 23 -13 13 23 21 2 0.33421547D-01 0.18515689D+00 0.23602589D+06 0.23602589D+06 0.23602589D+06 0.10923434D+01  1  2  6  1  7  1       -1 0.671458117137D-03 0.100000000000D+01
0.303598654458D-05 0.000000000000D+00 0.000000000000D+00 0.977231554574D-06 0.000000000000D+00  7 21 1 23 -13 13 23 1 2 0.55160390D-01 0.18515689D+00 0.29635057D+06 0.29635057D+06 0.29635057D+06 0.10849453D+01  1  2 12  3  7  1       -1 0.134490046165D-03 0.100000000000D+01
-.303354324026D-05 0.000000000000D+00 -.283857489919D-06 0.977231554574D-06 0.000000000000D+00  7 21 1 23 -13 13 23 1 2 0.55712546D-01 0.18515689D+00 0.23602589D+06 0.23602589D+06 0.23602589D+06 0.10923434D+01  1  2  5  3  7  1       -1 -.135440790574D-03 0.100000000000D+01
  </mgrwgt>
  </event>
  <event>
  8     66 0.58687835E-06 0.18364289E+03 0.75467711E-02 0.97316190E-01
       -1 -1    0    0    0  501 0.00000000E+00 0.00000000E+00 0.79596662E+02 0.79597305E+02 0.32000000E+00 0.0000E+00 0.9000E+01
        1 -1    0    0  501    0 0.00000000E+00 0.00000000E+00 -.28171645E+04 0.28171645E+04 0.32000000E+00 0.0000E+00 0.9000E+01
       25  2    1    2    0    0 0.34757175E+01 -.28092082E+03 -.24469819E+04 0.24813062E+04 0.30038534E+03 0.0000E+00 0.0000E+00
       23  2    1    2    0    0 -.34757175E+01 0.28092082E+03 -.29058595E+03 0.41545566E+03 0.96096926E+02 0.0000E+00 0.0000E+00
       23  1    3    3    0    0 0.26781641E+02 -.26408606E+03 -.21744524E+04 0.21924911E+04 0.91188000E+02 0.0000E+00 0.9000E+01
      -11  1    4    4    0    0 -.32778531E+02 0.46713650E+02 -.32333661E+02 0.65590112E+02 0.51099893E-03 0.0000E+00 0.9000E+01
       11  1    4    4    0    0 0.29302813E+02 0.23420717E+03 -.25825229E+03 0.34986554E+03 0.51099893E-03 0.0000E+00 0.9000E+01
       23  1    3    3    0    0 -.23305923E+02 -.16834756E+02 -.27252952E+03 0.28881510E+03 0.91188000E+02 0.0000E+00 0.9000E+01
#aMCatNLO 1  0  0  2  1 0.11626253D+03 0.00000000D+00  -5  7  0 0.00000000D+00 0.00000000D+00 0.00000000D+00 0.00000000D+00 0.00000000D+00
  <mgrwgt>
 0.2310419634D-03    9    2    0
 0.473537588695068D+03 0.000000000000000D+00 0.000000000000000D+00 0.473537588695068D+03
 0.473537588695068D+03 0.000000000000000D+00 0.000000000000000D+00 -.473537588695068D+03
 0.420677838112773D+03 0.267816408216435D+02 -.264086064376216D+03 -.313362228822202D+03
 0.107154472765535D+03 -.327785307948162D+02 0.467136499156409D+02 0.906944533262752D+02
 0.323621602764615D+03 0.293028132931100D+02 0.234207170655101D+03 0.221402999353622D+03
 0.956212637472131D+02 -.233059233199373D+02 -.168347561945263D+02 0.126477614230505D+01
 0.000000000000000D+00 -.000000000000000D+00 0.000000000000000D+00 -.000000000000000D+00
 0.508400036059888D+03 0.000000000000000D+00 0.000000000000000D+00 0.508400036059888D+03
 0.585028823673538D+03 0.000000000000000D+00 0.000000000000000D+00 -.585028823673538D+03
 0.439894875647374D+03 0.749543343312993D+02 -.285268665628303D+03 -.313362228822202D+03
 0.101967063014394D+03 -.210724338104273D+02 0.415662195651070D+02 0.906944533262752D+02
 0.317770787984109D+03 0.652063442381722D+02 0.218419592171478D+03 0.221402999353622D+03
 0.945519344138651D+02 -.126605065616761D+02 -.215157819359525D+02 0.126477614230505D+01
 0.139244198673684D+03 -.106427738197368D+03 0.467986358276706D+02 -.766287876136499D+02
0.337911663379D-04 0.000000000000D+00 0.000000000000D+00 0.686268237118D-07 0.000000000000D+00  7 -1 1 23 -11 11 23 21 0 0.12245691D-01 0.43340997D+00 0.11201728D+06 0.11201728D+06 0.11201728D+06 0.11176999D+01  1  2  2  2  7  2        1 0.152689292685D-03 0.100000000000D+01
-.160240968664D-05 0.000000000000D+00 -.129766976156D-06 0.686268237118D-07 0.000000000000D+00  7 -1 1 23 -11 11 23 21 2 0.12245691D-01 0.43340997D+00 0.11201728D+06 0.11201728D+06 0.11201728D+06 0.11176999D+01  1  2  3  2  7  2        1 -.904543415022D-05 0.100000000000D+01
0.218188526028D-05 0.000000000000D+00 0.000000000000D+00 0.686268237118D-07 0.000000000000D+00  7 -1 1 23 -11 11 23 21 2 0.12245691D-01 0.43340997D+00 0.11201728D+06 0.11201728D+06 0.11201728D+06 0.11176999D+01  1  2 15  2  7  2        1 0.123165128180D-04 0.100000000000D+01
0.252729482103D-04 0.000000000000D+00 0.000000000000D+00 0.686268237118D-07 0.000000000000D+00  7 -1 1 23 -11 11 23 21 2 0.12245691D-01 0.54861122D+00 0.15764056D+06 0.15764056D+06 0.15764056D+06 0.11058532D+01  1  2 12  2  7  2        1 0.365365081557D-04 0.100000000000D+01
-.285616565294D-04 0.000000000000D+00 0.000000000000D+00 0.686268237118D-07 0.000000000000D+00  7 -1 1 23 -11 11 23 21 2 0.12245691D-01 0.43340997D+00 0.11201728D+06 0.11201728D+06 0.11201728D+06 0.11176999D+01  1  2  4  2  7  2        1 -.161227547182D-03 0.100000000000D+01
-.463111703648D-04 0.000000000000D+00 -.131208991999D-04 0.686268237118D-07 0.000000000000D+00  7 -1 1 23 -11 11 23 21 2 0.12245691D-01 0.54490076D+00 0.11201728D+06 0.11201728D+06 0.11201728D+06 0.11176999D+01  1  2  5  2  7  2        1 -.731992822635D-04 0.100000000000D+01
0.483780935731D-04 0.000000000000D+00 0.127844543798D-04 0.686268237118D-07 0.000000000000D+00  7 -1 1 23 -11 11 23 21 2 0.12245691D-01 0.43340997D+00 0.11201728D+06 0.11201728D+06 0.11201728D+06 0.11176999D+01  1  2  6  2  7  2        1 0.273089250133D-03 0.100000000000D+01
0.818799692503D-06 0.000000000000D+00 0.000000000000D+00 0.686268237118D-07 0.000000000000D+00  7 -1 21 23 -11 11 23 -1 2 0.12245691D-01 0.54861122D+00 0.15764056D+06 0.15764056D+06 0.15764056D+06 0.11058532D+01  1  2 12  4  7  2        1 0.149875995101D-06 0.100000000000D+01
-.127799551700D-05 0.000000000000D+00 -.415924172810D-06 0.686268237118D-07 0.000000000000D+00  7 -1 21 23 -11 11 23 -1 2 0.12245691D-01 0.54490076D+00 0.11201728D+06 0.11201728D+06 0.11201728D+06 0.11176999D+01  1  2  5  4  7  2        1 -.267212827348D-06 0.100000000000D+01
  </mgrwgt>
  </event>
  <event>
  8     66 0.58687835E-06 0.31665618E+03 0.75467711E-02 0.87085767E-01
       -1 -1    0    0    0  501 0.00000000E+00 0.00000000E+00 0.12064875E+04 0.12064875E+04 0.32000000E+00 0.0000E+00 0.9000E+01
        1 -1    0    0  501    0 0.00000000E+00 0.00000000E+00 -.99838376E+02 0.99838889E+02 0.32000000E+00 0.0000E+00 0.9000E+01
       25  2    1    2    0    0 0.26630339E+03 0.58782022E+02 0.68289411E+03 0.79431284E+03 0.30035930E+03 0.0000E+00 0.0000E+00
       23  2    1    2    0    0 -.26630339E+03 -.58782022E+02 0.42375497E+03 0.51201354E+03 0.90646396E+02 0.0000E+00 0.0000E+00
       23  1    3    3    0    0 0.56096809E+02 0.54186150E+02 0.45710723E+03 0.47259419E+03 0.91188000E+02 0.0000E+00 0.9000E+01
      -11  1    4    4    0    0 -.24427326E+03 -.76388798E+02 0.40127904E+03 0.47595120E+03 0.51099893E-03 0.0000E+00 0.9000E+01
       11  1    4    4    0    0 -.22030129E+02 0.17606776E+02 0.22475930E+02 0.36062343E+02 0.51099893E-03 0.0000E+00 0.9000E+01
       23  1    3    3    0    0 0.21020658E+03 0.45958722E+01 0.22578687E+03 0.32171866E+03 0.91188000E+02 0.0000E+00 0.9000E+01
#aMCatNLO 1  0  0  2  2 0.94502775D+03 0.00000000D+00  -5  7  0 0.00000000D+00 0.00000000D+00 0.00000000D+00 0.00000000D+00 0.00000000D+00
  <mgrwgt>
 0.2913349075D-03    3    2    0
 0.347064995370840D+03 0.000000000000000D+00 0.000000000000000D+00 0.347064995370840D+03
 0.347064995370840D+03 0.000000000000000D+00 0.000000000000000D+00 -.347064995370840D+03
 0.160639878438280D+03 0.560968093354118D+02 0.541861500352236D+02 0.106803222457995D+03
 0.255964347932587D+03 -.244273264637885D+03 -.763887980374104D+02 -.361540179008246D+01
 0.320346663405414D+02 -.220301289440538D+02 0.176067758085487D+02 -.151952200341319D+02
 0.245491098030272D+03 0.210206584246527D+03 0.459587219363817D+01 -.879926006337810D+02
 0.000000000000000D+00 0.000000000000000D+00 0.000000000000000D+00 0.000000000000000D+00
 0.156744110768990D+04 0.000000000000000D+00 0.000000000000000D+00 0.156744110768990D+04
 0.813835469924540D+03 0.000000000000000D+00 0.000000000000000D+00 -.813835469924540D+03
 0.168542710634173D+03 -.310431698002191D+02 -.878680103635980D+02 0.106803222457995D+03
 0.694932662105699D+03 -.495991151201541D+03 -.486735155563044D+03 -.361540179008246D+01
 0.493647204456114D+02 -.435778690179899D+02 -.175199955661695D+02 -.151952200341319D+02
 0.259718604608636D+03 0.764693684626662D+02 -.213420336792167D+03 -.879926006337810D+02
 0.120871787982032D+04 0.494142821557083D+03 0.805543498284979D+03 0.753605637765365D+03
0.326606272681D-04 0.000000000000D+00 0.000000000000D+00 0.443611062516D-06 0.000000000000D+00  7 -1 1 23 -11 11 23 21 0 0.18561350D+00 0.15359793D-01 0.10027114D+06 0.10027114D+06 0.10027114D+06 0.11216256D+01  1  2  2  2  7  2        1 0.287993083025D-03 0.100000000000D+01
-.179592991244D-05 0.000000000000D+00 -.125425408450D-06 0.443611062516D-06 0.000000000000D+00  7 -1 1 23 -11 11 23 21 2 0.18561350D+00 0.15359793D-01 0.10027114D+06 0.10027114D+06 0.10027114D+06 0.11216256D+01  1  2  3  2  7  2        1 -.199224484977D-04 0.100000000000D+01
0.209718216606D-05 0.000000000000D+00 0.000000000000D+00 0.443611062516D-06 0.000000000000D+00  7 -1 1 23 -11 11 23 21 2 0.18561350D+00 0.15359793D-01 0.10027114D+06 0.10027114D+06 0.10027114D+06 0.11216256D+01  1  2 15  2  7  2        1 0.232642729564D-04 0.100000000000D+01
  </mgrwgt>
  </event>
  <event>
  8     66 0.58687835E-06 0.42170281E+03 0.75467711E-02 0.91841293E-01
       -1 -1    0    0    0  501 0.00000000E+00 0.00000000E+00 0.13335442E+03 0.13335481E+03 0.32000000E+00 0.0000E+00 0.9000E+01
        1 -1    0    0  501    0 0.00000000E+00 0.00000000E+00 -.17626426E+04 0.17626427E+04 0.32000000E+00 0.0000E+00 0.9000E+01
       25  2    1    2    0    0 -.80016141E+02 0.37293062E+03 -.48597355E+03 0.68734022E+03 0.30130792E+03 0.0000E+00 0.0000E+00
       23  2    1    2    0    0 0.80016141E+02 -.37293062E+03 -.11433147E+04 0.12086572E+04 0.90576395E+02 0.0000E+00 0.0000E+00
       23  1    3    3    0    0 0.20628381E+02 0.26914257E+03 -.18045535E+03 0.33725752E+03 0.91188000E+02 0.0000E+00 0.9000E+01
      -11  1    4    4    0    0 0.17716479E+01 -.17084763E+03 -.41522481E+03 0.44900300E+03 0.51099893E-03 0.0000E+00 0.9000E+01
       11  1    4    4    0    0 0.78244493E+02 -.20208299E+03 -.72808985E+03 0.75965424E+03 0.51099893E-03 0.0000E+00 0.9000E+01
       23  1    3    3    0    0 -.10064452E+03 0.10378806E+03 -.30551819E+03 0.35008270E+03 0.91188000E+02 0.0000E+00 0.9000E+01
#aMCatNLO 1  0  0  2  2 0.36957008D+03 0.00000000D+00  -5  7  0 0.00000000D+00 0.00000000D+00 0.00000000D+00 0.00000000D+00 0.00000000D+00
  <mgrwgt>
 0.1690788144D-03    3    2    0
 0.484826343834688D+03 0.000000000000000D+00 0.000000000000000D+00 0.484826343834688D+03
 0.484826343834688D+03 0.000000000000000D+00 0.000000000000000D+00 -.484826343834688D+03
 0.356236448906514D+03 0.206283808473290D+02 0.269142565099233D+03 0.213836165652460D+03
 0.180258009932674D+03 0.177164788353492D+01 -.170847628537152D+03 -.574534527412959D+02
 0.261984848848655D+03 0.782444932563133D+02 -.202082994612580D+03 -.147228813721117D+03
 0.171173379981534D+03 -.100644521987177D+03 0.103788058050498D+03 -.915389919004694D+01
 0.000000000000000D+00 -.000000000000000D+00 0.000000000000000D+00 0.000000000000000D+00
 0.100959174130792D+04 0.000000000000000D+00 0.000000000000000D+00 0.100959174130792D+04
 0.588425837120240D+03 0.000000000000000D+00 0.000000000000000D+00 -.588425837120240D+03
 0.328606300831371D+03 0.123722996158287D+03 0.196554226824934D+03 0.213836165652460D+03
 0.230946829813942D+03 0.636734564138973D+02 -.214432343450145D+03 -.574534527412959D+02
 0.349094136558844D+03 0.170234885137235D+03 -.266852911680479D+03 -.147228813721117D+03
 0.129046510883630D+03 -.554501263842627D+02 0.719669385261487D+02 -.915389919004694D+01
 0.560323800340380D+03 -.302181211325157D+03 0.212764089779541D+03 0.421165904187685D+03
0.165010542083D-04 0.000000000000D+00 0.000000000000D+00 0.176975544926D-06 0.000000000000D+00  7 -1 1 23 -11 11 23 21 0 0.20516097D-01 0.27117582D+00 0.17783326D+06 0.17783326D+06 0.17783326D+06 0.11017652D+01  1  2  2  2  7  2        1 0.166964548385D-03 0.100000000000D+01
-.895037883734D-06 0.000000000000D+00 -.633683929873D-07 0.176975544926D-06 0.000000000000D+00  7 -1 1 23 -11 11 23 21 2 0.20516097D-01 0.27117582D+00 0.17783326D+06 0.17783326D+06 0.17783326D+06 0.11017652D+01  1  2  3  2  7  2        1 -.109934026257D-04 0.100000000000D+01
0.106717277230D-05 0.000000000000D+00 0.000000000000D+00 0.176975544926D-06 0.000000000000D+00  7 -1 1 23 -11 11 23 21 2 0.20516097D-01 0.27117582D+00 0.17783326D+06 0.17783326D+06 0.17783326D+06 0.11017652D+01  1  2 15  2  7  2        1 0.131076685917D-04 0.100000000000D+01
  </mgrwgt>
  </event>
  <event>
  8     66 0.58687835E-06 0.24006893E+03 0.75467711E-02 0.94558931E-01
       -1 -1    0    0    0  501 0.00000000E+00 0.00000000E+00 0.94902368E+03 0.94902373E+03 0.32000000E+00 0.0000E+00 0.9000E+01
        1 -1    0    0  501    0 0.00000000E+00 0.00000000E+00 -.13326571E+03 0.13326610E+03 0.32000000E+00 0.0000E+00 0.9000E+01
       25  2    1    2    0    0 0.24020043E+03 -.14964598E+03 0.50188625E+03 0.64983553E+03 0.30050997E+03 0.0000E+00 0.0000E+00
       23  2    1    2    0    0 -.24020043E+03 0.14964598E+03 0.31387171E+03 0.43245430E+03 0.91712085E+02 0.0000E+00 0.0000E+00
       23  1    3    3    0    0 0.26219075E+03 -.62396850E+02 0.35444075E+03 0.45451166E+03 0.91188000E+02 0.0000E+00 0.9000E+01
      -13  1    4    4    0    0 -.19665298E+03 0.12028079E+03 0.19293969E+03 0.30060872E+03 0.10565837E+00 0.0000E+00 0.9000E+01
       13  1    4    4    0    0 -.43547445E+02 0.29365191E+02 0.12093201E+03 0.13184558E+03 0.10565837E+00 0.0000E+00 0.9000E+01
       23  1    3    3    0    0 -.21990320E+02 -.87249129E+02 0.14744550E+03 0.19532387E+03 0.91188000E+02 0.0000E+00 0.9000E+01
#aMCatNLO 1  0  0  2  1 0.26197184D+03 0.00000000D+00  -5  7  0 0.00000000D+00 0.00000000D+00 0.00000000D+00 0.00000000D+00 0.00000000D+00
  <mgrwgt>
 0.1287086417D-03    7    2    0
 0.355629801542100D+03 0.000000000000000D+00 0.000000000000000D+00 0.355629801542100D+03
 0.355629801542100D+03 0.000000000000000D+00 0.000000000000000D+00 -.355629801542100D+03
 0.285093497010619D+03 0.262190749432447D+03 -.623968506369591D+02 0.180470118408818D+02
 0.236135765119385D+03 -.196653187592622D+03 0.120280909634654D+03 -.511871678806169D+02
 0.619235433226669D+02 -.435472420055105D+02 0.293650701923236D+02 0.328002375593168D+02
 0.128106797631529D+03 -.219903198343144D+02 -.872491291900190D+02 0.339918480418350D+00
 0.000000000000000D+00 0.000000000000000D+00 0.000000000000000D+00 -.000000000000000D+00
 0.439045917787545D+03 0.000000000000000D+00 0.000000000000000D+00 0.439045917787545D+03
 0.664651950465946D+03 0.000000000000000D+00 0.000000000000000D+00 -.664651950465946D+03
 0.258737849525447D+03 0.199351011654864D+03 -.136247946585812D+03 0.180470118408818D+02
 0.264842087051496D+03 -.254541202072322D+03 0.522492235897450D+02 -.511871678806169D+02
 0.681472121852246D+02 -.585769239477334D+02 0.117017488219435D+02 0.328002375593168D+02
 0.166243475949426D+03 -.560025078488574D+02 -.127221246345933D+03 0.339918480418350D+00
 0.345727243541897D+03 0.169769622214048D+03 0.199518220520057D+03 -.225606032678400D+03
0.123824107658D-04 0.000000000000D+00 0.000000000000D+00 0.444808157767D-06 0.000000000000D+00  7 -1 1 23 -13 13 23 21 0 0.14600368D+00 0.20502451D-01 0.12098995D+06 0.12098995D+06 0.12098995D+06 0.11149941D+01  1  2  2  2  7  2        1 0.155532577721D-03 0.100000000000D+01
-.687501021668D-06 0.000000000000D+00 -.475517177041D-07 0.444808157767D-06 0.000000000000D+00  7 -1 1 23 -13 13 23 21 2 0.14600368D+00 0.20502451D-01 0.12098995D+06 0.12098995D+06 0.12098995D+06 0.11149941D+01  1  2  3  2  7  2        1 -.107358059358D-04 0.100000000000D+01
0.807386942328D-06 0.000000000000D+00 0.000000000000D+00 0.444808157767D-06 0.000000000000D+00  7 -1 1 23 -13 13 23 21 2 0.14600368D+00 0.20502451D-01 0.12098995D+06 0.12098995D+06 0.12098995D+06 0.11149941D+01  1  2 15  2  7  2        1 0.126079078500D-04 0.100000000000D+01
0.955180647575D-06 0.000000000000D+00 0.000000000000D+00 0.444808157767D-06 0.000000000000D+00  7 -1 1 23 -13 13 23 21 2 0.14600368D+00 0.38943975D-01 0.25296141D+06 0.25296141D+06 0.25296141D+06 0.10900746D+01  1  2 12  2  7  2        1 0.600115526550D-05 0.100000000000D+01
-.569061153956D-05 0.000000000000D+00 -.401473153428D-05 0.444808157767D-06 0.000000000000D+00  7 -1 1 23 -13 13 23 21 2 0.14600368D+00 0.46474571D-01 0.12098995D+06 0.12098995D+06 0.12098995D+06 0.11149941D+01  1  2  5  2  7  2        1 -.305428625814D-04 0.100000000000D+01
0.665905298227D-07 0.000000000000D+00 0.000000000000D+00 0.444808157767D-06 0.000000000000D+00  7 -1 21 23 -13 13 23 -1 2 0.14600368D+00 0.38943975D-01 0.25296141D+06 0.25296141D+06 0.25296141D+06 0.10900746D+01  1  2 12  4  7  2        1 0.220720548210D-05 0.100000000000D+01
-.252124424029D-06 0.000000000000D+00 -.357022313081D-06 0.444808157767D-06 0.000000000000D+00  7 -1 21 23 -13 13 23 -1 2 0.14600368D+00 0.46474571D-01 0.12098995D+06 0.12098995D+06 0.12098995D+06 0.11149941D+01  1  2  5  4  7  2        1 -.636153612800D-05 0.100000000000D+01
  </mgrwgt>
  </event>
  <event>
  8     66 0.58687835E-06 0.77875704E+02 0.75467711E-02 0.11165886E+00
       -1 -1    0    0    0  501 0.00000000E+00 0.00000000E+00 0.71012045E+02 0.71012766E+02 0.32000000E+00 0.0000E+00 0.9000E+01
        1 -1    0    0  501    0 0.00000000E+00 0.00000000E+00 -.80425001E+03 0.80425007E+03 0.32000000E+00 0.0000E+00 0.9000E+01
       25  2    1    2    0    0 0.86430878E+01 0.11102758E+02 -.72187862E+03 0.78182276E+03 0.29990018E+03 0.0000E+00 0.0000E+00
       23  2    1    2    0    0 -.86430878E+01 -.11102758E+02 -.11359345E+02 0.93440075E+02 0.91673544E+02 0.0000E+00 0.0000E+00
       23  1    3    3    0    0 0.29222530E+02 0.37160490E+02 -.65724821E+03 0.66522577E+03 0.91188000E+02 0.0000E+00 0.9000E+01
      -11  1    4    4    0    0 -.14306006E+01 0.27303502E+02 -.37512043E+02 0.46418544E+02 0.51099893E-03 0.0000E+00 0.9000E+01
       11  1    4    4    0    0 -.72124871E+01 -.38406260E+02 0.26152698E+02 0.47021531E+02 0.51099893E-03 0.0000E+00 0.9000E+01
       23  1    3    3    0    0 -.20579442E+02 -.26057731E+02 -.64630411E+02 0.11659700E+03 0.91188000E+02 0.0000E+00 0.9000E+01
#aMCatNLO 1  0  0  2  1 0.15861608D+02 0.00000000D+00  -5  7  0 0.00000000D+00 0.00000000D+00 0.00000000D+00 0.00000000D+00 0.00000000D+00
  <mgrwgt>
 0.1582897863D-03    9    2    0
 0.238980712658176D+03 0.000000000000000D+00 0.000000000000000D+00 0.238980712658176D+03
 0.238980712658176D+03 0.000000000000000D+00 0.000000000000000D+00 -.238980712658176D+03
 0.209908261950643D+03 0.292225295628454D+02 0.371604897366350D+02 -.183061106900461D+03
 0.274565508719379D+02 -.143060063641297D+01 0.273035016496252D+02 0.251681649536128D+01
 0.126228493360693D+03 -.721248714271448D+01 -.384062600473951D+02 0.120027379186995D+03
 0.114368119133078D+03 -.205794417837180D+02 -.260577313388651D+02 0.605169112181046D+02
 0.000000000000000D+00 0.000000000000000D+00 -.000000000000000D+00 -.000000000000000D+00
 0.244655943119889D+03 0.000000000000000D+00 0.000000000000000D+00 0.244655943119889D+03
 0.250458120227563D+03 0.000000000000000D+00 0.000000000000000D+00 -.250458120227563D+03
 0.210126116066784D+03 0.240379938163462D+02 0.418155390133284D+02 -.183061106900461D+03
 0.281123427152304D+02 -.211649429244160D+01 0.279193463314832D+02 0.251681649536128D+01
 0.125624568264403D+03 -.103211403130186D+02 -.356150875298392D+02 0.120027379186995D+03
 0.114361517166694D+03 -.234026796845708D+02 -.235228251889418D+02 0.605169112181046D+02
 0.168895191343395D+02 0.118023204736848D+02 -.105969726260306D+02 -.580217710767432D+01
0.534395415473D-06 0.000000000000D+00 0.000000000000D+00 0.295072852580D-06 0.000000000000D+00  7 -1 1 23 -11 11 23 21 0 0.10924990D-01 0.12373083D+00 0.17712616D+05 0.17712616D+05 0.17712616D+05 0.11891828D+01  1  2  2  2  7  2        1 0.703521917033D-04 0.100000000000D+01
-.173198316901D-07 0.000000000000D+00 -.205221910496D-08 0.295072852580D-06 0.000000000000D+00  7 -1 1 23 -11 11 23 21 2 0.10924990D-01 0.12373083D+00 0.17712616D+05 0.17712616D+05 0.17712616D+05 0.11891828D+01  1  2  3  2  7  2        1 -.322445105295D-05 0.100000000000D+01
0.333062743653D-07 0.000000000000D+00 0.000000000000D+00 0.295072852580D-06 0.000000000000D+00  7 -1 1 23 -11 11 23 21 2 0.10924990D-01 0.12373083D+00 0.17712616D+05 0.17712616D+05 0.17712616D+05 0.11891828D+01  1  2 15  2  7  2        1 0.620066368821D-05 0.100000000000D+01
0.151615424478D-05 0.000000000000D+00 0.000000000000D+00 0.295072852580D-06 0.000000000000D+00  7 -1 1 23 -11 11 23 21 2 0.10924990D-01 0.13108881D+00 0.19759523D+05 0.19759523D+05 0.19759523D+05 0.11845449D+01  1  2 12  2  7  2        1 0.256189314910D-03 0.100000000000D+01
-.141783939144D-05 0.000000000000D+00 0.000000000000D+00 0.295072852580D-06 0.000000000000D+00  7 -1 1 23 -11 11 23 21 2 0.10924990D-01 0.12373083D+00 0.17712616D+05 0.17712616D+05 0.17712616D+05 0.11891828D+01  1  2  4  2  7  2        1 -.263960631975D-03 0.100000000000D+01
-.538418765363D-05 0.000000000000D+00 -.104492169527D-05 0.295072852580D-06 0.000000000000D+00  7 -1 1 23 -11 11 23 21 2 0.10924990D-01 0.13181793D+00 0.17712616D+05 0.17712616D+05 0.17712616D+05 0.11891828D+01  1  2  5  2  7  2        1 -.908710653248D-03 0.100000000000D+01
0.544152576966D-05 0.000000000000D+00 0.104283087605D-05 0.295072852580D-06 0.000000000000D+00  7 -1 1 23 -11 11 23 21 2 0.10924990D-01 0.12373083D+00 0.17712616D+05 0.17712616D+05 0.17712616D+05 0.11891828D+01  1  2  6  2  7  2        1 0.101305450374D-02 0.100000000000D+01
0.184429122283D-07 0.000000000000D+00 0.000000000000D+00 0.295072852580D-06 0.000000000000D+00  7 -1 21 23 -11 11 23 -1 2 0.10924990D-01 0.13108881D+00 0.19759523D+05 0.19759523D+05 0.19759523D+05 0.11845449D+01  1  2 12  4  7  2        1 0.560883739306D-05 0.100000000000D+01
-.568179542105D-07 0.000000000000D+00 -.113080569193D-07 0.295072852580D-06 0.000000000000D+00  7 -1 21 23 -11 11 23 -1 2 0.10924990D-01 0.13181793D+00 0.17712616D+05 0.17712616D+05 0.17712616D+05 0.11891828D+01  1  2  5  4  7  2        1 -.172199888271D-04 0.100000000000D+01
  </mgrwgt>
  </event>
  <event>
  8     66 0.58687835E-06 0.21722338E+03 0.75467711E-02 0.88215324E-01
       -1 -1    0    0    0  501 0.00000000E+00 0.00000000E+00 0.75276635E+02 0.75277315E+02 0.32000000E+00 0.0000E+00 0.9000E+01
        1 -1    0    0  501    0 0.00000000E+00 0.00000000E+00 -.82113410E+03 0.82113417E+03 0.32000000E+00 0.0000E+00 0.9000E+01
       25  2    1    2    0    0 0.60590521E+02 0.12290634E+03 -.55111021E+03 0.64182884E+03 0.29907293E+03 0.0000E+00 0.0000E+00
       23  2    1    2    0    0 -.60590521E+02 -.12290634E+03 -.19474726E+03 0.25458264E+03 0.90048024E+02 0.0000E+00 0.0000E+00
       23  1    3    3    0    0 0.20526164E+02 -.41686362E+02 -.70866512E+02 0.12448450E+03 0.91188000E+02 0.0000E+00 0.9000E+01
      -13  1    4    4    0    0 -.65686735E+01 -.41517961E+02 -.13187740E+03 0.13841441E+03 0.10565837E+00 0.0000E+00 0.9000E+01
       13  1    4    4    0    0 -.54021847E+02 -.81388376E+02 -.62869858E+02 0.11616823E+03 0.10565837E+00 0.0000E+00 0.9000E+01
       23  1    3    3    0    0 0.40064357E+02 0.16459270E+03 -.48024370E+03 0.51734435E+03 0.91188000E+02 0.0000E+00 0.9000E+01
#aMCatNLO 1  0  0  1  2 0.86640030D+03 0.00000000D+00  -5  7  0 0.00000000D+00 0.00000000D+00 0.00000000D+00 0.00000000D+00 0.00000000D+00
  <mgrwgt>
 0.2462032762D-03    3    2    0
 0.248621288313495D+03 0.000000000000000D+00 0.000000000000000D+00 0.248621288313495D+03
 0.248621288313495D+03 0.000000000000000D+00 0.000000000000000D+00 -.248621288313495D+03
 0.118117429327094D+03 0.205261647382482D+02 -.416863603559189D+02 0.589694809902182D+02
 0.517141480589955D+02 -.656861034381804D+01 -.415179072638966D+02 -.301242401405458D+02
 0.115120123190727D+03 -.540219123311707D+02 -.813884346597439D+02 0.609113984010217D+02
 0.212290876050174D+03 0.400643579367405D+02 0.164592702279559D+03 -.897566392506941D+02
 0.000000000000000D+00 0.000000000000000D+00 0.000000000000000D+00 -.000000000000000D+00
 0.830394279303326D+03 0.000000000000000D+00 0.000000000000000D+00 0.830394279303326D+03
 0.106656810913446D+04 0.000000000000000D+00 0.000000000000000D+00 -.106656810913446D+04
 0.208091650713113D+03 -.167632213282552D+03 -.583860011838922D+02 0.589694809902182D+02
 0.121688338143938D+03 -.106587685670283D+03 -.503949110490447D+02 -.301242401405458D+02
 0.337570492662727D+03 -.315135220439347D+03 -.104563052270066D+03 0.609113984010217D+02
 0.331598793479363D+03 -.273652838495478D+03 0.136749326092518D+03 -.897566392506941D+02
 0.898013113438644D+03 0.863007957887660D+03 0.765946384104851D+02 -.236173829831133D+03
0.207571759461D-05 0.000000000000D+00 0.000000000000D+00 0.412993403865D-07 0.000000000000D+00  7 -1 1 23 -13 13 23 21 0 0.11581078D-01 0.12632838D+00 0.47185997D+05 0.47185997D+05 0.47185997D+05 0.11495148D+01  1  2  2  1  7  1       -1 0.242714817041D-03 0.100000000000D+01
-.112762153530D-06 0.000000000000D+00 -.797130211231D-08 0.412993403865D-07 0.000000000000D+00  7 -1 1 23 -13 13 23 21 2 0.11581078D-01 0.12632838D+00 0.47185997D+05 0.47185997D+05 0.47185997D+05 0.11495148D+01  1  2  3  1  7  1       -1 -.174229020646D-04 0.100000000000D+01
0.135339687911D-06 0.000000000000D+00 0.000000000000D+00 0.412993403865D-07 0.000000000000D+00  7 -1 1 23 -13 13 23 21 2 0.11581078D-01 0.12632838D+00 0.47185997D+05 0.47185997D+05 0.47185997D+05 0.11495148D+01  1  2 15  1  7  1       -1 0.209113612512D-04 0.100000000000D+01
  </mgrwgt>
  </event>
  <event>
  9     66 0.58687835E-06 0.21654271E+03 0.75467711E-02 0.10019364E+00
       21 -1    0    0  502  501 0.00000000E+00 0.00000000E+00 0.16819311E+04 0.16819313E+04 0.75000000E+00 0.0000E+00 0.9000E+01
        1 -1    0    0  501    0 0.00000000E+00 0.00000000E+00 -.21437292E+03 0.21437316E+03 0.32000000E+00 0.0000E+00 0.9000E+01
       25  2    1    2    0    0 -.13759528E+03 -.96514679E+01 -.39810144E+02 0.33249901E+03 0.29990854E+03 0.0000E+00 0.0000E+00
       23  2    1    2    0    0 0.41424597E+02 0.15713289E+03 0.11543337E+04 0.11693018E+04 0.91507572E+02 0.0000E+00 0.0000E+00
       23  1    3    3    0    0 0.11811830E+02 -.95794903E+01 -.11019749E+03 0.14384027E+03 0.91188000E+02 0.0000E+00 0.9000E+01
      -11  1    4    4    0    0 0.62712176E+02 0.15108131E+03 0.10479866E+04 0.10606763E+04 0.51099893E-03 0.0000E+00 0.9000E+01
       11  1    4    4    0    0 -.21287578E+02 0.60515754E+01 0.10634716E+03 0.10862551E+03 0.51099893E-03 0.0000E+00 0.9000E+01
       23  1    3    3    0    0 -.14940711E+03 -.71977623E-01 0.70387345E+02 0.18865874E+03 0.91188000E+02 0.0000E+00 0.9000E+01
        1  1    1    2  502    0 0.96170685E+02 -.14748142E+03 0.35303459E+03 0.39450360E+03 0.32000000E+00 0.0000E+00 0.9000E+01
#aMCatNLO 2  0  0  1  2 0.17606695D+03 0.00000000D+00  -5  7  0 0.00000000D+00 0.00000000D+00 0.00000000D+00 0.00000000D+00 0.00000000D+00
  <mgrwgt>
 0.2730252154D-04    2    2    0
 0.495540952949374D+03 0.000000000000000D+00 0.000000000000000D+00 0.495540952949374D+03
 0.495540952949374D+03 0.000000000000000D+00 0.000000000000000D+00 -.495540952949374D+03
 0.344457799458761D+03 0.445994847039291D+02 -.598606116306379D+02 -.323671928661294D+03
 0.412345537177912D+03 0.102884924279299D+03 0.894748672321609D+02 0.389150077117262D+03
 0.420426632396342D+02 -.171302215206671D+02 -.323890050936001D+00 0.383931782764735D+02
 0.192235906022442D+03 -.130354187462561D+03 -.292903655505869D+02 -.103871326732441D+03
 0.000000000000000D+00 0.000000000000000D+00 -.000000000000000D+00 0.000000000000000D+00
 0.647102903617958D+03 0.000000000000000D+00 0.000000000000000D+00 0.647102903617958D+03
 0.557192240919527D+03 0.000000000000000D+00 0.000000000000000D+00 -.557192240919527D+03
 0.336615588923969D+03 0.118118299016678D+02 -.957949026215908D+01 -.323671928661294D+03
 0.422132872903575D+03 0.627121756205065D+02 0.151081312194453D+03 0.389150077117262D+03
 0.443149939836229D+02 -.212875782796674D+02 0.605157538055140D+01 0.383931782764735D+02
 0.203536223298526D+03 -.149407112122186D+03 -.719776234020095D-01 -.103871326732441D+03
 0.197695465427792D+03 0.961706848796794D+02 -.147481419689443D+03 0.899106626984310D+02
-.179395524856D-06 0.000000000000D+00 0.000000000000D+00 0.419326805579D-05 0.000000000000D+00  7 21 1 23 -11 11 23 1 2 0.26813864D+00 0.29331305D-01 0.98992588D+05 0.98992588D+05 0.98992588D+05 0.11220831D+01  1  2 13  3  7  1       -1 -.146761501723D-05 0.100000000000D+01
0.354683677176D-05 0.000000000000D+00 0.000000000000D+00 0.419326805579D-05 0.361899015573D-10  7 21 1 23 -11 11 23 1 2 0.25875861D+00 0.32980474D-01 0.98992588D+05 0.98992588D+05 0.98992588D+05 0.11220831D+01  1  2  1  3  7  1       -1 0.287701365611D-04 0.100000000000D+01
  </mgrwgt>
  </event>
  <event>
  8     66 0.58687835E-06 0.37112912E+03 0.75467711E-02 0.88152997E-01
       -1 -1    0    0    0  501 0.00000000E+00 0.00000000E+00 0.11198496E+04 0.11198497E+04 0.32000000E+00 0.0000E+00 0.9000E+01
        1 -1    0    0  501    0 0.00000000E+00 0.00000000E+00 -.21707142E+03 0.21707166E+03 0.32000000E+00 0.0000E+00 0.9000E+01
       25  2    1    2    0    0 -.64641053E+02 -.30346435E+03 0.62439315E+02 0.43630825E+03 0.30032838E+03 0.0000E+00 0.0000E+00
       23  2    1    2    0    0 0.64641053E+02 0.30346435E+03 0.84033891E+03 0.90061311E+03 0.93088195E+02 0.0000E+00 0.0000E+00
       23  1    3    3    0    0 -.13680568E+03 -.87707325E+02 0.17976688E+02 0.18720785E+03 0.91188000E+02 0.0000E+00 0.9000E+01
      -13  1    4    4    0    0 0.52229791E+02 0.20401711E+03 0.67680795E+03 0.70881587E+03 0.10565837E+00 0.0000E+00 0.9000E+01
       13  1    4    4    0    0 0.12411262E+02 0.99447242E+02 0.16353096E+03 0.19179723E+03 0.10565837E+00 0.0000E+00 0.9000E+01
       23  1    3    3    0    0 0.72164624E+02 -.21575703E+03 0.44462627E+02 0.24910039E+03 0.91188000E+02 0.0000E+00 0.9000E+01
#aMCatNLO 1  0  0  2  2 0.78652249D+03 0.00000000D+00  -5  7  0 0.00000000D+00 0.00000000D+00 0.00000000D+00 0.00000000D+00 0.00000000D+00
  <mgrwgt>
 0.1787399720D-03    3    2    0
 0.493039092057514D+03 0.000000000000000D+00 0.000000000000000D+00 0.493039092057514D+03
 0.493039092057514D+03 0.000000000000000D+00 0.000000000000000D+00 -.493039092057514D+03
 0.237357665946798D+03 -.136805677164605D+03 -.877073254904633D+02 -.147020549551944D+03
 0.341376474431013D+03 0.522298418798891D+02 0.204017245654411D+03 0.268676207334660D+03
 0.110321207285333D+03 0.124112108322616D+02 0.994471071998488D+02 0.461194480902842D+02
 0.297022836451884D+03 0.721646244524546D+02 -.215757027363797D+03 -.167775105873001D+03
 0.000000000000000D+00 -.000000000000000D+00 -.000000000000000D+00 0.000000000000000D+00
 0.116322159534897D+04 0.000000000000000D+00 0.000000000000000D+00 0.116322159534897D+04
 0.921069368208565D+03 0.000000000000000D+00 0.000000000000000D+00 -.921069368208565D+03
 0.177354872904966D+03 -.355097805158991D+02 0.162330864684985D+02 -.147020549551944D+03
 0.582285833666611D+03 0.277839614756339D+03 0.435516975757699D+03 0.268676207334660D+03
 0.204832830653848D+03 0.893893773084882D+02 0.178434930005075D+03 0.461194480902842D+02
 0.296862187195612D+03 0.217224419710090D+03 -.669101798942466D+02 -.167775105873001D+03
 0.822955239136495D+03 -.548943631259018D+03 -.563274812337027D+03 0.242152227140401D+03
0.434863077524D-04 0.000000000000D+00 0.000000000000D+00 0.728244180183D-06 0.000000000000D+00  7 -1 1 23 -13 13 23 21 0 0.17228458D+00 0.33395625D-01 0.13773682D+06 0.13773682D+06 0.13773682D+06 0.11104869D+01  1  2  2  2  7  2        1 0.175698009952D-03 0.100000000000D+01
-.217892375816D-05 0.000000000000D+00 -.166998871977D-06 0.728244180183D-06 0.000000000000D+00  7 -1 1 23 -13 13 23 21 2 0.17228458D+00 0.33395625D-01 0.13773682D+06 0.13773682D+06 0.13773682D+06 0.11104869D+01  1  2  3  2  7  2        1 -.108563343987D-04 0.100000000000D+01
0.278946164427D-05 0.000000000000D+00 0.000000000000D+00 0.728244180183D-06 0.000000000000D+00  7 -1 1 23 -13 13 23 21 2 0.17228458D+00 0.33395625D-01 0.13773682D+06 0.13773682D+06 0.13773682D+06 0.11104869D+01  1  2 15  2  7  2        1 0.138982964819D-04 0.100000000000D+01
  </mgrwgt>
  </event>
  <event>
  8     66 0.58687835E-06 0.18472555E+03 0.75467711E-02 0.94130874E-01
       -1 -1    0    0    0  501 0.00000000E+00 0.00000000E+00 0.84146186E+03 0.84146192E+03 0.32000000E+00 0.0000E+00 0.9000E+01
        1 -1    0    0  501    0 0.00000000E+00 0.00000000E+00 -.21435321E+03 0.21435344E+03 0.32000000E+00 0.0000E+00 0.9000E+01
       25  2    1    2    0    0 0.25994229E+03 -.24954942E+03 0.42559466E+03 0.63374401E+03 0.30109092E+03 0.0000E+00 0.0000E+00
       23  2    1    2    0    0 -.25994229E+03 0.24954942E+03 0.20151399E+03 0.42207136E+03 0.87700821E+02 0.0000E+00 0.0000E+00
       23  1    3    3    0    0 0.23675189E+03 -.17809310E+03 0.41086868E+03 0.51468139E+03 0.91188000E+02 0.0000E+00 0.9000E+01
      -13  1    4    4    0    0 -.40506305E+01 0.33043845E+02 0.54155404E+01 0.33728957E+02 0.10565837E+00 0.0000E+00 0.9000E+01
       13  1    4    4    0    0 -.25589166E+03 0.21650557E+03 0.19609845E+03 0.38834240E+03 0.10565837E+00 0.0000E+00 0.9000E+01
       23  1    3    3    0    0 0.23190398E+02 -.71456317E+02 0.14725980E+02 0.11906261E+03 0.91188000E+02 0.0000E+00 0.9000E+01
#aMCatNLO 1  0  0  1  2 0.21811970D+03 0.00000000D+00  -5  7  0 0.00000000D+00 0.00000000D+00 0.00000000D+00 0.00000000D+00 0.00000000D+00
  <mgrwgt>
 0.2765052547D-03    9    2    0
 0.424700134693464D+03 0.000000000000000D+00 0.000000000000000D+00 0.424700134693464D+03
 0.424700134693464D+03 0.000000000000000D+00 0.000000000000000D+00 -.424700134693464D+03
 0.336412910966484D+03 0.236751894720242D+03 -.178093100797593D+03 0.130727897235506D+03
 0.379268170372236D+02 -.405026509659705D+01 0.330435784808907D+02 -.181703253795725D+02
 0.337936326097419D+03 -.255892027742510D+03 0.216505839297664D+03 -.429587265181552D+02
 0.137124215285802D+03 0.231903981188652D+02 -.714563169809614D+02 -.695988453377779D+02
 0.000000000000000D+00 0.000000000000000D+00 0.000000000000000D+00 0.000000000000000D+00
 0.569712898906395D+03 0.000000000000000D+00 0.000000000000000D+00 0.569712898906395D+03
 0.529112271661467D+03 0.000000000000000D+00 0.000000000000000D+00 -.529112271661467D+03
 0.350297027432657D+03 0.187340566514916D+03 -.249412279381767D+03 0.130727897235506D+03
 0.327747529731842D+02 -.913750540734611D+01 0.257007724199961D+02 -.181703253795725D+02
 0.340622233959275D+03 -.304716834029218D+03 0.146033233007269D+03 -.429587265181552D+02
 0.153264947714089D+03 0.229582030962753D+01 -.101615071670282D+03 -.695988453377779D+02
 0.221866208488657D+03 0.124217952612020D+03 0.179293345624784D+03 0.406006272449286D+02
0.223913510922D-04 0.000000000000D+00 0.000000000000D+00 0.277239982595D-07 0.000000000000D+00  7 -1 1 23 -13 13 23 21 0 0.12945569D+00 0.32977439D-01 0.15864608D+06 0.15864608D+06 0.15864608D+06 0.11056364D+01  1  2  2  1  7  1       -1 0.206695277664D-03 0.100000000000D+01
-.123773630724D-05 0.000000000000D+00 -.859886839723D-07 0.277239982595D-07 0.000000000000D+00  7 -1 1 23 -13 13 23 21 2 0.12945569D+00 0.32977439D-01 0.15864608D+06 0.15864608D+06 0.15864608D+06 0.11056364D+01  1  2  3  1  7  1       -1 -.139669966836D-04 0.100000000000D+01
0.144072682300D-05 0.000000000000D+00 0.000000000000D+00 0.277239982595D-07 0.000000000000D+00  7 -1 1 23 -13 13 23 21 2 0.12945569D+00 0.32977439D-01 0.15864608D+06 0.15864608D+06 0.15864608D+06 0.11056364D+01  1  2 15  1  7  1       -1 0.162576040156D-04 0.100000000000D+01
0.511537639302D-05 0.000000000000D+00 0.000000000000D+00 0.277239982595D-07 0.000000000000D+00  7 -1 1 23 -13 13 23 21 2 0.18504382D+00 0.32977439D-01 0.27292234D+06 0.27292234D+06 0.27292234D+06 0.10876045D+01  1  2 12  1  7  1       -1 0.190140007559D-04 0.100000000000D+01
-.907030153075D-05 0.000000000000D+00 0.000000000000D+00 0.277239982595D-07 0.000000000000D+00  7 -1 1 23 -13 13 23 21 2 0.12945569D+00 0.32977439D-01 0.15864608D+06 0.15864608D+06 0.15864608D+06 0.11056364D+01  1  2  4  1  7  1       -1 -.102352068578D-03 0.100000000000D+01
-.150095315560D-04 0.000000000000D+00 -.800719210067D-05 0.277239982595D-07 0.000000000000D+00  7 -1 1 23 -13 13 23 21 2 0.20151944D+00 0.32977439D-01 0.15864608D+06 0.15864608D+06 0.15864608D+06 0.11056364D+01  1  2  5  1  7  1       -1 -.435552659223D-04 0.100000000000D+01
0.175328347771D-04 0.000000000000D+00 0.728235951096D-05 0.277239982595D-07 0.000000000000D+00  7 -1 1 23 -13 13 23 21 2 0.12945569D+00 0.32977439D-01 0.15864608D+06 0.15864608D+06 0.15864608D+06 0.11056364D+01  1  2  6  1  7  1       -1 0.197845893147D-03 0.100000000000D+01
0.224274969718D-06 0.000000000000D+00 0.000000000000D+00 0.277239982595D-07 0.000000000000D+00  7 21 1 23 -13 13 23 1 2 0.18504382D+00 0.32977439D-01 0.27292234D+06 0.27292234D+06 0.27292234D+06 0.10876045D+01  1  2 12  3  7  1       -1 0.525468919585D-05 0.100000000000D+01
-.458155705900D-06 0.000000000000D+00 -.410873837798D-06 0.277239982595D-07 0.000000000000D+00  7 21 1 23 -13 13 23 1 2 0.20151944D+00 0.32977439D-01 0.15864608D+06 0.15864608D+06 0.15864608D+06 0.11056364D+01  1  2  5  3  7  1       -1 -.868787892997D-05 0.100000000000D+01
  </mgrwgt>
  </event>
  <event>
  8     66 0.58687835E-06 0.45485834E+03 0.75467711E-02 0.94400951E-01
       -1 -1    0    0    0  501 0.00000000E+00 0.00000000E+00 0.63252134E+03 0.63252142E+03 0.32000000E+00 0.0000E+00 0.9000E+01
        1 -1    0    0  501    0 0.00000000E+00 0.00000000E+00 -.37237478E+03 0.37237492E+03 0.32000000E+00 0.0000E+00 0.9000E+01
       25  2    1    2    0    0 0.42778210E+03 -.57186431E+02 0.82950266E+02 0.53214645E+03 0.30005213E+03 0.0000E+00 0.0000E+00
       23  2    1    2    0    0 -.42778210E+03 0.57186431E+02 0.17719630E+03 0.47274989E+03 0.76329001E+02 0.0000E+00 0.0000E+00
       23  1    3    3    0    0 0.23511248E+03 -.57358254E+01 -.73550203E+02 0.26274639E+03 0.91188000E+02 0.0000E+00 0.9000E+01
      -11  1    4    4    0    0 -.75298105E+02 -.18806908E+02 0.27726395E+02 0.82415152E+02 0.51099893E-03 0.0000E+00 0.9000E+01
       11  1    4    4    0    0 -.35248400E+03 0.75993339E+02 0.14946990E+03 0.39033474E+03 0.51099893E-03 0.0000E+00 0.9000E+01
       23  1    3    3    0    0 0.19266962E+03 -.51450605E+02 0.15650047E+03 0.26940006E+03 0.91188000E+02 0.0000E+00 0.9000E+01
#aMCatNLO 1  0  0  2  1 0.10292569D+03 0.00000000D+00  -5  7  0 0.00000000D+00 0.00000000D+00 0.00000000D+00 0.00000000D+00 0.00000000D+00
  <mgrwgt>
 0.4656793131D-03    4    2    0
 0.485319590348381D+03 0.000000000000000D+00 0.000000000000000D+00 0.485319590348381D+03
 0.485319590348381D+03 0.000000000000000D+00 0.000000000000000D+00 -.485319590348381D+03
 0.291732210587115D+03 0.235112483369052D+03 -.573582536624434D+01 -.146566202862222D+03
 0.778927535432422D+02 -.752981045649004D+02 -.188069082853821D+02 0.661639661952082D+01
 0.364050694138354D+03 -.352483996691749D+03 0.759933390525264D+02 0.501293566533269D+02
 0.236963522428050D+03 0.192669617887597D+03 -.514506054008999D+02 0.898204495893739D+02
 0.000000000000000D+00 -.000000000000000D+00 -.000000000000000D+00 0.000000000000000D+00
 0.734461072374375D+03 0.000000000000000D+00 0.000000000000000D+00 0.734461072374375D+03
 0.498788078205389D+03 0.000000000000000D+00 0.000000000000000D+00 -.498788078205389D+03
 0.302991547909666D+03 0.247950506141223D+03 0.229678349775693D+02 -.146566202862222D+03
 0.732490144471283D+02 -.720354781243646D+02 -.115122241397133D+02 0.661639661952082D+01
 0.358187271575087D+03 -.336893384549077D+03 0.110851326410632D+03 0.501293566533269D+02
 0.241653165271330D+03 0.203001291791724D+03 -.283507197105613D+02 0.898204495893739D+02
 0.257168151376553D+03 -.420229352595044D+02 -.939562175379263D+02 0.235672994168986D+03
0.564924534595D-04 0.000000000000D+00 0.000000000000D+00 0.535914202818D-08 0.000000000000D+00  7 -1 1 23 -11 11 23 21 0 0.97310993D-01 0.57288444D-01 0.20689611D+06 0.20689611D+06 0.20689611D+06 0.10966965D+01  1  2  2  2  7  2        1 0.490076426749D-03 0.100000000000D+01
-.312243575118D-05 0.000000000000D+00 -.216945896089D-06 0.535914202818D-08 0.000000000000D+00  7 -1 1 23 -11 11 23 21 2 0.97310993D-01 0.57288444D-01 0.20689611D+06 0.20689611D+06 0.20689611D+06 0.10966965D+01  1  2  3  2  7  2        1 -.325791514221D-04 0.100000000000D+01
0.362121401849D-05 0.000000000000D+00 0.000000000000D+00 0.535914202818D-08 0.000000000000D+00  7 -1 1 23 -11 11 23 21 2 0.97310993D-01 0.57288444D-01 0.20689611D+06 0.20689611D+06 0.20689611D+06 0.10966965D+01  1  2 15  2  7  2        1 0.377833490396D-04 0.100000000000D+01
-.283703498856D-05 0.000000000000D+00 0.000000000000D+00 0.535914202818D-08 0.000000000000D+00  7 -1 1 23 -11 11 23 21 2 0.97310993D-01 0.57288444D-01 0.20689611D+06 0.20689611D+06 0.20689611D+06 0.10966965D+01  1  2  4  2  7  2        1 -.296013112351D-04 0.100000000000D+01
  </mgrwgt>
  </event>
  <event>
  8     66 0.58687835E-06 0.19250371E+03 0.75467711E-02 0.98044939E-01
       -1 -1    0    0    0  501 0.00000000E+00 0.00000000E+00 0.31775151E+03 0.31775167E+03 0.32000000E+00 0.0000E+00 0.9000E+01
        1 -1    0    0  501    0 0.00000000E+00 0.00000000E+00 -.40122293E+03 0.40122306E+03 0.32000000E+00 0.0000E+00 0.9000E+01
       25  2    1    2    0    0 -.27761746E+03 0.11787196E+02 -.23841468E+02 0.41006646E+03 0.30062551E+03 0.0000E+00 0.0000E+00
       23  2    1    2    0    0 0.27761746E+03 -.11787196E+02 -.59629952E+02 0.30890826E+03 0.12107101E+03 0.0000E+00 0.0000E+00
       23  1    3    3    0    0 -.23785769E+03 -.70681871E+02 0.37533614E+02 0.26701354E+03 0.91188000E+02 0.0000E+00 0.9000E+01
      -13  1    4    4    0    0 0.18948303E+03 -.26332694E+02 -.94058335E+02 0.21317648E+03 0.10565837E+00 0.0000E+00 0.9000E+01
       13  1    4    4    0    0 0.88134428E+02 0.14545498E+02 0.34428383E+02 0.95731780E+02 0.10565837E+00 0.0000E+00 0.9000E+01
       23  1    3    3    0    0 -.39759768E+02 0.82469067E+02 -.61375082E+02 0.14305292E+03 0.91188000E+02 0.0000E+00 0.9000E+01
#aMCatNLO 1  0  0  2  1 0.70553681D+02 0.00000000D+00  -5  7  0 0.00000000D+00 0.00000000D+00 0.00000000D+00 0.00000000D+00 0.00000000D+00
  <mgrwgt>
 0.2071258543D-03    9    2    0
 0.357056430027889D+03 0.000000000000000D+00 0.000000000000000D+00 0.357056430027889D+03
 0.357056430027889D+03 0.000000000000000D+00 0.000000000000000D+00 -.357056430027889D+03
 0.273218838058136D+03 -.237857872166669D+03 -.706818630141882D+02 0.689999203986930D+02
 0.203633561126110D+03 0.189483258038475D+03 -.263325676847135D+02 -.697804988457079D+02
 0.100407600225253D+03 0.881344720772113D+02 0.145453599320981D+02 0.458523011321266D+02
 0.136852860646279D+03 -.397598579490177D+02 0.824690707668037D+02 -.450717226851117D+02
 0.000000000000000D+00 0.000000000000000D+00 -.000000000000000D+00 -.000000000000000D+00
 0.392028719607350D+03 0.000000000000000D+00 0.000000000000000D+00 0.392028719607350D+03
 0.396240263642065D+03 0.000000000000000D+00 0.000000000000000D+00 -.396240263642065D+03
 0.284777629730798D+03 -.255973741367562D+03 -.499950174153152D+02 0.689999203986930D+02
 0.190334328123718D+03 0.176692727698234D+03 -.117268248775603D+02 -.697804988457079D+02
 0.962409156437402D+02 0.817500969105570D+02 0.218357958396031D+02 0.458523011321266D+02
 0.146236841299008D+03 -.489506258276785D+02 0.929641783397575D+02 -.450717226851117D+02
 0.706792684521522D+02 0.464815425864498D+02 -.530781318864851D+02 -.421154403471496D+01
0.386085681495D-05 0.000000000000D+00 0.000000000000D+00 0.894513501543D-09 0.000000000000D+00  7 -1 1 23 -13 13 23 21 0 0.48884870D-01 0.61726626D-01 0.11364020D+06 0.11364020D+06 0.11364020D+06 0.11171933D+01  1  2  2  2  7  2        1 0.118424662491D-03 0.100000000000D+01
-.213629878560D-06 0.000000000000D+00 -.148267067564D-07 0.894513501543D-09 0.000000000000D+00  7 -1 1 23 -13 13 23 21 2 0.48884870D-01 0.61726626D-01 0.11364020D+06 0.11364020D+06 0.11364020D+06 0.11171933D+01  1  2  3  2  7  2        1 -.817856465879D-05 0.100000000000D+01
0.251230550965D-06 0.000000000000D+00 0.000000000000D+00 0.894513501543D-09 0.000000000000D+00  7 -1 1 23 -13 13 23 21 2 0.48884870D-01 0.61726626D-01 0.11364020D+06 0.11364020D+06 0.11364020D+06 0.11171933D+01  1  2 15  2  7  2        1 0.961806147705D-05 0.100000000000D+01
0.379097557550D-05 0.000000000000D+00 0.000000000000D+00 0.894513501543D-09 0.000000000000D+00  7 -1 1 23 -13 13 23 21 2 0.48884870D-01 0.71220031D-01 0.13974926D+06 0.13974926D+06 0.13974926D+06 0.11099861D+01  1  2 12  2  7  2        1 0.117606535882D-03 0.100000000000D+01
-.317738880854D-05 0.000000000000D+00 0.000000000000D+00 0.894513501543D-09 0.000000000000D+00  7 -1 1 23 -13 13 23 21 2 0.48884870D-01 0.61726626D-01 0.11364020D+06 0.11364020D+06 0.11364020D+06 0.11171933D+01  1  2  4  2  7  2        1 -.121642534237D-03 0.100000000000D+01
-.107401956100D-04 0.000000000000D+00 -.298016008669D-05 0.894513501543D-09 0.000000000000D+00  7 -1 1 23 -13 13 23 21 2 0.48884870D-01 0.74273372D-01 0.11364020D+06 0.11364020D+06 0.11364020D+06 0.11171933D+01  1  2  5  2  7  2        1 -.319872177071D-03 0.100000000000D+01
0.111505016510D-04 0.000000000000D+00 0.292985947122D-05 0.894513501543D-09 0.000000000000D+00  7 -1 1 23 -13 13 23 21 2 0.48884870D-01 0.61726626D-01 0.11364020D+06 0.11364020D+06 0.11364020D+06 0.11171933D+01  1  2  6  2  7  2        1 0.426883633251D-03 0.100000000000D+01
0.832082745517D-07 0.000000000000D+00 0.000000000000D+00 0.894513501543D-09 0.000000000000D+00  7 -1 21 23 -13 13 23 -1 2 0.48884870D-01 0.71220031D-01 0.13974926D+06 0.13974926D+06 0.13974926D+06 0.11099861D+01  1  2 12  4  7  2        1 0.829511053761D-05 0.100000000000D+01
-.259430853444D-06 0.000000000000D+00 -.803096827027D-07 0.894513501543D-09 0.000000000000D+00  7 -1 21 23 -13 13 23 -1 2 0.48884870D-01 0.74273372D-01 0.11364020D+06 0.11364020D+06 0.11364020D+06 0.11171933D+01  1  2  5  4  7  2        1 -.240088733967D-04 0.100000000000D+01
  </mgrwgt>
  </event>
  <event>
  8     66 0.58687835E-06 0.27413410E+03 0.75467711E-02 0.98371180E-01
       -1 -1    0    0    0  501 0.00000000E+00 0.00000000E+00 0.77860015E+03 0.77860021E+03 0.32000000E+00 0.0000E+00 0.9000E+01
        1 -1    0    0  501    0 0.00000000E+00 0.00000000E+00 -.10736348E+03 0.10736396E+03 0.32000000E+00 0.0000E+00 0.9000E+01
       25  2    1    2    0    0 -.12210013E+03 0.14881689E+03 0.46173773E+03 0.58672407E+03 0.30657544E+03 0.0000E+00 0.0000E+00
       23  2    1    2    0    0 0.12210013E+03 -.14881689E+03 0.20949894E+03 0.29924010E+03 0.92735765E+02 0.0000E+00 0.0000E+00
       23  1    3    3    0    0 0.62300571E+02 0.83343021E+02 0.12347566E+03 0.18544247E+03 0.91188000E+02 0.0000E+00 0.9000E+01
      -13  1    4    4    0    0 0.12098371E+03 -.14979000E+03 0.16175547E+03 0.25147355E+03 0.10565837E+00 0.0000E+00 0.9000E+01
       13  1    4    4    0    0 0.11164180E+01 0.97310825E+00 0.47743467E+02 0.47766548E+02 0.10565837E+00 0.0000E+00 0.9000E+01
       23  1    3    3    0    0 -.18440070E+03 0.65473869E+02 0.33826207E+03 0.40128160E+03 0.91188000E+02 0.0000E+00 0.9000E+01
#aMCatNLO 1  0  0  1  2 0.15599479D+03 0.00000000D+00  -5  7  0 0.00000000D+00 0.00000000D+00 0.00000000D+00 0.00000000D+00 0.00000000D+00
  <mgrwgt>
 0.1424285830D-03    4    2    0
 0.289125340211193D+03 0.000000000000000D+00 0.000000000000000D+00 0.289125340211193D+03
 0.289125340211193D+03 0.000000000000000D+00 0.000000000000000D+00 -.289125340211193D+03
 0.140793522219095D+03 0.623003934456115D+02 0.833430394810426D+02 -.260799405950643D+02
 0.197527761414504D+03 0.120983951605766D+03 -.149790295485110D+03 -.440791034591500D+02
 0.177641783776044D+02 0.111627031300911D+01 0.973294156736252D+00 0.177023352274242D+02
 0.222165218411183D+03 -.184400615364386D+03 0.654739618473314D+02 0.524567088267900D+02
 0.000000000000000D+00 0.000000000000000D+00 -.000000000000000D+00 -.000000000000000D+00
 0.359976220542289D+03 0.000000000000000D+00 0.000000000000000D+00 0.359976220542289D+03
 0.399991706768940D+03 0.000000000000000D+00 0.000000000000000D+00 -.399991706768940D+03
 0.158100516790157D+03 0.441382151217259D+02 0.118541877535919D+03 -.260799405950643D+02
 0.153712987645732D+03 0.996409461039073D+02 -.108426920406017D+03 -.440791034591500D+02
 0.184944800723817D+02 -.108697275846989D+01 0.524324430729320D+01 0.177023352274242D+02
 0.268614567416686D+03 -.214222655367293D+03 0.123269956237930D+03 0.524567088267900D+02
 0.161045375386271D+03 0.715304669001293D+02 -.138628157675124D+03 -.400154862266512D+02
0.709380930443D-05 0.000000000000D+00 0.000000000000D+00 0.254104190928D-08 0.000000000000D+00  7 -1 1 23 -13 13 23 21 0 0.11978468D+00 0.16517500D-01 0.75149506D+05 0.75149506D+05 0.75149506D+05 0.11320482D+01  1  2  2  1  7  1       -1 0.199405527441D-03 0.100000000000D+01
-.392742166777D-06 0.000000000000D+00 -.272420955719D-07 0.254104190928D-08 0.000000000000D+00  7 -1 1 23 -13 13 23 21 2 0.11978468D+00 0.16517500D-01 0.75149506D+05 0.75149506D+05 0.75149506D+05 0.11320482D+01  1  2  3  1  7  1       -1 -.141480002210D-04 0.100000000000D+01
0.458402278758D-06 0.000000000000D+00 0.000000000000D+00 0.254104190928D-08 0.000000000000D+00  7 -1 1 23 -13 13 23 21 2 0.11978468D+00 0.16517500D-01 0.75149506D+05 0.75149506D+05 0.75149506D+05 0.11320482D+01  1  2 15  1  7  1       -1 0.165133160883D-04 0.100000000000D+01
-.164731464041D-05 0.000000000000D+00 0.000000000000D+00 0.254104190928D-08 0.000000000000D+00  7 -1 1 23 -13 13 23 21 2 0.11978468D+00 0.16517500D-01 0.75149506D+05 0.75149506D+05 0.75149506D+05 0.11320482D+01  1  2  4  1  7  1       -1 -.593422603126D-04 0.100000000000D+01
  </mgrwgt>
  </event>
  <event>
  8     66 0.58687835E-06 0.10380232E+03 0.75467711E-02 0.96664359E-01
       -1 -1    0    0    0  501 0.00000000E+00 0.00000000E+00 0.19335257E+03 0.19335283E+03 0.32000000E+00 0.0000E+00 0.9000E+01
        1 -1    0    0  501    0 0.00000000E+00 0.00000000E+00 -.12652519E+04 0.12652519E+04 0.32000000E+00 0.0000E+00 0.9000E+01
       25  2    1    2    0    0 0.18015968E+03 -.29149324E+03 -.99705389E+03 0.10963259E+04 0.30064648E+03 0.0000E+00 0.0000E+00
       23  2    1    2    0    0 -.18015968E+03 0.29149324E+03 -.74845456E+02 0.36227884E+03 0.90654809E+02 0.0000E+00 0.0000E+00
       23  1    3    3    0    0 0.15832788E+03 -.24841024E+03 -.49058323E+03 0.57945019E+03 0.91188000E+02 0.0000E+00 0.9000E+01
      -11  1    4    4    0    0 -.54529455E+02 0.35240309E+02 -.36048567E+02 0.74261969E+02 0.51099893E-03 0.0000E+00 0.9000E+01
       11  1    4    4    0    0 -.12563023E+03 0.25625293E+03 -.38796889E+02 0.28801687E+03 0.51099893E-03 0.0000E+00 0.9000E+01
       23  1    3    3    0    0 0.21831805E+02 -.43083002E+02 -.50647066E+03 0.51687576E+03 0.91188000E+02 0.0000E+00 0.9000E+01
#aMCatNLO 1  0  0  1  2 0.71448697D+02 0.00000000D+00  -5  7  0 0.00000000D+00 0.00000000D+00 0.00000000D+00 0.00000000D+00 0.00000000D+00
  <mgrwgt>
 0.1505718391D-03    9    2    0
 0.494610883400986D+03 0.000000000000000D+00 0.000000000000000D+00 0.494610883400986D+03
 0.494610883400986D+03 0.000000000000000D+00 0.000000000000000D+00 -.494610883400986D+03
 0.322812315771187D+03 0.158327875382818D+03 -.248410235362145D+03 -.954839186127335D+02
 0.704376210504733D+02 -.545294551099262D+02 0.352403094337380D+02 0.273151528584230D+02
 0.382640607421041D+03 -.125630225355378D+03 0.256252927733259D+03 0.254882949513758D+03
 0.213331222559271D+03 0.218318050824863D+02 -.430830018048524D+02 -.186714183759448D+03
 0.000000000000000D+00 0.000000000000000D+00 -.000000000000000D+00 0.000000000000000D+00
 0.586242122772114D+03 0.000000000000000D+00 0.000000000000000D+00 0.586242122772114D+03
 0.510025859059623D+03 0.000000000000000D+00 0.000000000000000D+00 -.510025859059623D+03
 0.303303741997758D+03 0.152278982810176D+03 -.226653570998777D+03 -.954839186127335D+02
 0.741283919015367D+02 -.559261039758217D+02 0.402637778197026D+02 0.273151528584230D+02
 0.403900028694148D+03 -.133228976022837D+03 0.283584123628610D+03 0.254882949513758D+03
 0.210466516693224D+03 0.177375050474390D+02 -.283566183229691D+02 -.186714183759448D+03
 0.104469302545070D+03 0.191385921410441D+02 -.688377121265662D+02 0.762162637124916D+02
0.103194437585D-04 0.000000000000D+00 0.000000000000D+00 0.663906732427D-06 0.000000000000D+00  7 -1 1 23 -11 11 23 21 0 0.29746572D-01 0.19465416D+00 0.14511317D+06 0.14511317D+06 0.14511317D+06 0.11086888D+01  1  2  2  1  7  1       -1 0.122895166470D-03 0.100000000000D+01
-.525768761451D-06 0.000000000000D+00 -.396293812045D-07 0.663906732427D-06 0.000000000000D+00  7 -1 1 23 -11 11 23 21 2 0.29746572D-01 0.19465416D+00 0.14511317D+06 0.14511317D+06 0.14511317D+06 0.11086888D+01  1  2  3  1  7  1       -1 -.769648864074D-05 0.100000000000D+01
0.661888451659D-06 0.000000000000D+00 0.000000000000D+00 0.663906732427D-06 0.000000000000D+00  7 -1 1 23 -11 11 23 21 2 0.29746572D-01 0.19465416D+00 0.14511317D+06 0.14511317D+06 0.14511317D+06 0.11086888D+01  1  2 15  1  7  1       -1 0.968908258371D-05 0.100000000000D+01
0.264668609583D-04 0.000000000000D+00 0.000000000000D+00 0.663906732427D-06 0.000000000000D+00  7 -1 1 23 -11 11 23 21 2 0.35662275D-01 0.19465416D+00 0.17585118D+06 0.17585118D+06 0.17585118D+06 0.11021434D+01  1  2 12  1  7  1       -1 0.279776297710D-03 0.100000000000D+01
-.270891171964D-04 0.000000000000D+00 0.000000000000D+00 0.663906732427D-06 0.000000000000D+00  7 -1 1 23 -11 11 23 21 2 0.29746572D-01 0.19465416D+00 0.14511317D+06 0.14511317D+06 0.14511317D+06 0.11086888D+01  1  2  4  1  7  1       -1 -.396545207849D-03 0.100000000000D+01
-.407340612342D-04 0.000000000000D+00 -.767415966452D-05 0.663906732427D-06 0.000000000000D+00  7 -1 1 23 -11 11 23 21 2 0.36172658D-01 0.19465416D+00 0.14511317D+06 0.14511317D+06 0.14511317D+06 0.11086888D+01  1  2  5  1  7  1       -1 -.428158437746D-03 0.100000000000D+01
0.415816341892D-04 0.000000000000D+00 0.752967495750D-05 0.663906732427D-06 0.000000000000D+00  7 -1 1 23 -11 11 23 21 2 0.29746572D-01 0.19465416D+00 0.14511317D+06 0.14511317D+06 0.14511317D+06 0.11086888D+01  1  2  6  1  7  1       -1 0.608694541527D-03 0.100000000000D+01
0.702213188840D-06 0.000000000000D+00 0.000000000000D+00 0.663906732427D-06 0.000000000000D+00  7 21 1 23 -11 11 23 1 2 0.35662275D-01 0.19465416D+00 0.17585118D+06 0.17585118D+06 0.17585118D+06 0.11021434D+01  1  2 12  3  7  1       -1 0.756614810203D-04 0.100000000000D+01
-.106082321578D-05 0.000000000000D+00 -.215878322000D-06 0.663906732427D-06 0.000000000000D+00  7 21 1 23 -11 11 23 1 2 0.36172658D-01 0.19465416D+00 0.14511317D+06 0.14511317D+06 0.14511317D+06 0.11086888D+01  1  2  5  3  7  1       -1 -.113744596001D-03 0.100000000000D+01
  </mgrwgt>
  </event>
  <event>
  8     66 0.58687835E-06 0.28883630E+03 0.75467711E-02 0.98306434E-01
       -1 -1    0    0    0  501 0.00000000E+00 0.00000000E+00 0.50389862E+03 0.50389872E+03 0.32000000E+00 0.0000E+00 0.9000E+01
        1 -1    0    0  501    0 0.00000000E+00 0.00000000E+00 -.21695782E+03 0.21695806E+03 0.32000000E+00 0.0000E+00 0.9000E+01
       25  2    1    2    0    0 -.17163719E+03 0.10043257E+03 -.59588986E+00 0.35988304E+03 0.29994903E+03 0.0000E+00 0.0000E+00
       23  2    1    2    0    0 0.17163719E+03 -.10043257E+03 0.28753669E+03 0.36097374E+03 0.89881398E+02 0.0000E+00 0.0000E+00
       23  1    3    3    0    0 -.20882355E+03 0.13635903E+02 -.79091821E+01 0.22840976E+03 0.91188000E+02 0.0000E+00 0.9000E+01
      -13  1    4    4    0    0 0.81065580E+02 -.98458242E+02 0.16269151E+03 0.20672250E+03 0.10565837E+00 0.0000E+00 0.9000E+01
       13  1    4    4    0    0 0.90571607E+02 -.19743301E+01 0.12484519E+03 0.15425124E+03 0.10565837E+00 0.0000E+00 0.9000E+01
       23  1    3    3    0    0 0.37186363E+02 0.86796669E+02 0.73132923E+01 0.13147328E+03 0.91188000E+02 0.0000E+00 0.9000E+01
#aMCatNLO 1  0  0  1  2 0.13878320D+03 0.00000000D+00  -5  7  0 0.00000000D+00 0.00000000D+00 0.00000000D+00 0.00000000D+00 0.00000000D+00
  <mgrwgt>
 0.1270981718D-03    4    2    0
 0.330643113290944D+03 0.000000000000000D+00 0.000000000000000D+00 0.330643113290944D+03
 0.330643113290944D+03 0.000000000000000D+00 0.000000000000000D+00 -.330643113290944D+03
 0.252417464890500D+03 -.208823550085242D+03 0.136359030235254D+02 -.107731668121662D+03
 0.154750720132349D+03 0.810655670331685D+02 -.984583744061125D+02 0.876476339234390D+02
 0.113974608369949D+03 0.905716204306987D+02 -.197419748165949D+01 0.691599267635832D+02
 0.140143433189090D+03 0.371863626213751D+02 0.867966688642466D+02 -.490758925653599D+02
 0.000000000000000D+00 0.000000000000000D+00 0.000000000000000D+00 -.000000000000000D+00
 0.359108073153450D+03 0.000000000000000D+00 0.000000000000000D+00 0.359108073153450D+03
 0.564317187589371D+03 0.000000000000000D+00 0.000000000000000D+00 -.564317187589371D+03
 0.281567719366145D+03 -.241653560144698D+03 -.310253734573671D+02 -.107731668121662D+03
 0.164694455560825D+03 0.614257181372652D+02 -.125176024507174D+03 0.876476339234390D+02
 0.105533190549302D+03 0.770760339254662D+02 -.203333182705483D+02 0.691599267635832D+02
 0.123897058182058D+03 0.209528560684064D+02 0.647129374519349D+02 -.490758925653599D+02
 0.247732837084492D+03 0.821989520135604D+02 0.111821778783155D+03 -.205209114435921D+03
0.472523804317D-05 0.000000000000D+00 0.000000000000D+00 0.191717419893D-06 0.000000000000D+00  7 -1 1 23 -13 13 23 21 0 0.77522891D-01 0.33378152D-01 0.83426409D+05 0.83426409D+05 0.83426409D+05 0.11282378D+01  1  2  2  1  7  1       -1 0.137155499451D-03 0.100000000000D+01
-.256680730535D-06 0.000000000000D+00 -.181461582695D-07 0.191717419893D-06 0.000000000000D+00  7 -1 1 23 -13 13 23 21 2 0.77522891D-01 0.33378152D-01 0.83426409D+05 0.83426409D+05 0.83426409D+05 0.11282378D+01  1  2  3  1  7  1       -1 -.948383688134D-05 0.100000000000D+01
0.310190538298D-06 0.000000000000D+00 0.000000000000D+00 0.191717419893D-06 0.000000000000D+00  7 -1 1 23 -13 13 23 21 2 0.77522891D-01 0.33378152D-01 0.83426409D+05 0.83426409D+05 0.83426409D+05 0.11282378D+01  1  2 15  1  7  1       -1 0.114609166852D-04 0.100000000000D+01
-.325712107460D-06 0.000000000000D+00 0.000000000000D+00 0.191717419893D-06 0.000000000000D+00  7 -1 1 23 -13 13 23 21 2 0.77522891D-01 0.33378152D-01 0.83426409D+05 0.83426409D+05 0.83426409D+05 0.11282378D+01  1  2  4  1  7  1       -1 -.120344074563D-04 0.100000000000D+01
  </mgrwgt>
  </event>
  <event>
  8     66 0.58687835E-06 0.13852205E+04 0.75467711E-02 0.79090852E-01
       -1 -1    0    0    0  501 0.00000000E+00 0.00000000E+00 0.98702521E+03 0.98702526E+03 0.32000000E+00 0.0000E+00 0.9000E+01
        1 -1    0    0  501    0 0.00000000E+00 0.00000000E+00 -.25632350E+04 0.25632350E+04 0.32000000E+00 0.0000E+00 0.9000E+01
       25  2    1    2    0    0 -.65824903E+03 -.11989770E+04 0.77432782E+02 0.14023535E+04 0.29960297E+03 0.0000E+00 0.0000E+00
       23  2    1    2    0    0 0.65824903E+03 0.11989770E+04 -.16536426E+04 0.21479067E+04 0.90176840E+02 0.0000E+00 0.0000E+00
       23  1    3    3    0    0 -.73343160E+02 -.11200337E+03 -.31598562E+01 0.16201608E+03 0.91188000E+02 0.0000E+00 0.9000E+01
      -13  1    4    4    0    0 0.95212571E+02 0.11535789E+03 -.17724269E+03 0.23192210E+03 0.10565837E+00 0.0000E+00 0.9000E+01
       13  1    4    4    0    0 0.56303645E+03 0.10836191E+04 -.14763999E+04 0.19159846E+04 0.10565837E+00 0.0000E+00 0.9000E+01
       23  1    3    3    0    0 -.58490587E+03 -.10869737E+04 0.80592638E+02 0.12403375E+04 0.91188000E+02 0.0000E+00 0.9000E+01
#aMCatNLO 1  0  0  2  2 0.19039446D+04 0.00000000D+00  -5  7  0 0.00000000D+00 0.00000000D+00 0.00000000D+00 0.00000000D+00 0.00000000D+00
  <mgrwgt>
 0.2007708190D-03    6    2    0
 0.159059035665174D+04 0.000000000000000D+00 0.000000000000000D+00 0.159059035665174D+04
 0.159059035665174D+04 0.000000000000000D+00 0.000000000000000D+00 -.159059035665174D+04
 0.179247486076640D+03 -.733431602947358D+02 -.112003366019340D+03 0.767491808367601D+02
 0.171007810656836D+03 0.952119289749570D+02 0.115356561133255D+03 -.828928446249838D+02
 0.140675239191024D+04 0.563037096335066D+03 0.108362047026669D+04 -.698361079037752D+03
 0.142417302465976D+04 -.584905865015287D+03 -.108697366538060D+04 0.704504742825976D+03
 0.000000000000000D+00 -.000000000000000D+00 -.000000000000000D+00 -.000000000000000D+00
 0.278013539768254D+04 0.000000000000000D+00 0.000000000000000D+00 0.278013539768254D+04
 0.283192717527448D+04 0.000000000000000D+00 0.000000000000000D+00 -.283192717527448D+04
 0.140744601463305D+03 -.710411576150799D+02 -.235904358302330D+02 0.767491808367601D+02
 0.269797033342314D+03 0.983830509232916D+02 0.237149722330254D+03 -.828928446249838D+02
 0.229655904454050D+04 0.589678482738865D+03 0.210683519415753D+04 -.698361079037752D+03
 0.100031296085203D+04 -.567464267385973D+03 -.417094882347374D+03 0.704504742825976D+03
 0.190464893275886D+04 -.495561086611038D+02 -.190329959831018D+04 -.517917775919382D+02
0.344746693040D-02 0.000000000000D+00 0.000000000000D+00 0.108785193983D-04 0.000000000000D+00  7 -1 1 23 -13 13 23 21 0 0.15185004D+00 0.39434385D+00 0.19188357D+07 0.19188357D+07 0.19188357D+07 0.10295271D+01  1  2  2  2  7  2        1 0.157342629707D-03 0.100000000000D+01
-.187075389081D-03 0.000000000000D+00 -.132391807516D-04 0.108785193983D-04 0.000000000000D+00  7 -1 1 23 -13 13 23 21 2 0.15185004D+00 0.39434385D+00 0.19188357D+07 0.19188357D+07 0.19188357D+07 0.10295271D+01  1  2  3  2  7  2        1 -.904979032777D-05 0.100000000000D+01
0.224201625046D-03 0.000000000000D+00 0.000000000000D+00 0.108785193983D-04 0.000000000000D+00  7 -1 1 23 -13 13 23 21 2 0.15185004D+00 0.39434385D+00 0.19188357D+07 0.19188357D+07 0.19188357D+07 0.10295271D+01  1  2 15  2  7  2        1 0.108457756404D-04 0.100000000000D+01
-.444671433243D-03 0.000000000000D+00 -.719807989765D-03 0.108785193983D-04 0.000000000000D+00  7 -1 1 23 -13 13 23 21 2 0.15185004D+00 0.77185817D+00 0.19188357D+07 0.19188357D+07 0.19188357D+07 0.10295271D+01  1  2  5  2  7  2        1 -.994214127381D-07 0.100000000000D+01
0.862665896609D-03 0.000000000000D+00 0.583259704312D-03 0.108785193983D-04 0.000000000000D+00  7 -1 1 23 -13 13 23 21 2 0.15185004D+00 0.39434385D+00 0.19188357D+07 0.19188357D+07 0.19188357D+07 0.10295271D+01  1  2  6  2  7  2        1 0.417315475091D-04 0.100000000000D+01
0.100336468310D-04 0.000000000000D+00 -.523718627562D-04 0.108785193983D-04 0.000000000000D+00  7 -1 21 23 -13 13 23 -1 2 0.15185004D+00 0.77185817D+00 0.19188357D+07 0.19188357D+07 0.19188357D+07 0.10295271D+01  1  2  5  4  7  2        1 0.778605221002D-10 0.100000000000D+01
  </mgrwgt>
  </event>
  <event>
  8     66 0.58687835E-06 0.10582084E+03 0.75467711E-02 0.10385241E+00
       -1 -1    0    0    0  501 0.00000000E+00 0.00000000E+00 0.15548785E+03 0.15548818E+03 0.32000000E+00 0.0000E+00 0.9000E+01
        1 -1    0    0  501    0 0.00000000E+00 0.00000000E+00 -.90410934E+03 0.90410940E+03 0.32000000E+00 0.0000E+00 0.9000E+01
       25  2    1    2    0    0 -.34340296E+02 -.17433876E+03 -.78148426E+03 0.85581768E+03 0.30022158E+03 0.0000E+00 0.0000E+00
       23  2    1    2    0    0 0.34340296E+02 0.17433876E+03 0.32862769E+02 0.20377990E+03 0.94196754E+02 0.0000E+00 0.0000E+00
       23  1    3    3    0    0 0.16673654E+02 -.75184510E+01 -.52146561E+03 0.52969441E+03 0.91188000E+02 0.0000E+00 0.9000E+01
      -13  1    4    4    0    0 0.15872238E+02 0.12527705E+03 0.65269661E+02 0.14214925E+03 0.10565837E+00 0.0000E+00 0.9000E+01
       13  1    4    4    0    0 0.18468058E+02 0.49061701E+02 -.32406892E+02 0.61630654E+02 0.10565837E+00 0.0000E+00 0.9000E+01
       23  1    3    3    0    0 -.51013950E+02 -.16682030E+03 -.26001865E+03 0.32612327E+03 0.91188000E+02 0.0000E+00 0.9000E+01
#aMCatNLO 1  0  0  2  1 0.79497907D+01 0.00000000D+00  -5  7  0 0.00000000D+00 0.00000000D+00 0.00000000D+00 0.00000000D+00 0.00000000D+00
  <mgrwgt>
 0.3040203671D-03   11    2    0
 0.374937628640862D+03 0.000000000000000D+00 0.000000000000000D+00 0.374937628640862D+03
 0.374937628640862D+03 0.000000000000000D+00 0.000000000000000D+00 -.374937628640862D+03
 0.227881313241266D+03 0.166736537484317D+02 -.751845146436901D+01 -.208038707309047D+03
 0.266022203531289D+03 0.158722356014654D+02 0.125277153199090D+03 0.234139957706894D+03
 0.547330978616505D+02 0.184680602910409D+02 0.490616034684579D+02 0.157353683059309D+02
 0.201238642647517D+03 -.510139496409380D+02 -.166820305203179D+03 -.418366187037772D+02
 0.000000000000000D+00 0.000000000000000D+00 -.000000000000000D+00 -.000000000000000D+00
 0.377170581567395D+03 0.000000000000000D+00 0.000000000000000D+00 0.377170581567395D+03
 0.382101837255604D+03 0.000000000000000D+00 0.000000000000000D+00 -.382101837255604D+03
 0.227707553836907D+03 0.148260896535696D+02 -.596339309057127D+01 -.208038707309047D+03
 0.266763653773028D+03 0.137116120846558D+02 0.127095707533298D+03 0.234139957706894D+03
 0.549213137863774D+02 0.180233752505494D+02 0.494358861241135D+02 0.157353683059309D+02
 0.200524874491256D+03 -.526432340737460D+02 -.165448968529349D+03 -.418366187037772D+02
 0.935502293543115D+01 0.608215708497110D+01 -.511923203749191D+01 -.493125568820914D+01
0.326491486512D-05 0.000000000000D+00 0.000000000000D+00 0.258113567140D-06 0.000000000000D+00  7 -1 1 23 -13 13 23 21 0 0.23921238D-01 0.13909377D+00 0.54884092D+05 0.54884092D+05 0.54884092D+05 0.11437520D+01  1  2  2  2  7  2        1 0.104565369967D-03 0.100000000000D+01
-.132611557829D-06 0.000000000000D+00 -.125381327539D-07 0.258113567140D-06 0.000000000000D+00  7 -1 1 23 -13 13 23 21 2 0.23921238D-01 0.13909377D+00 0.54884092D+05 0.54884092D+05 0.54884092D+05 0.11437520D+01  1  2  3  2  7  2        1 -.555598604579D-05 0.100000000000D+01
0.203172236973D-06 0.000000000000D+00 0.000000000000D+00 0.258113567140D-06 0.000000000000D+00  7 -1 1 23 -13 13 23 21 2 0.23921238D-01 0.13909377D+00 0.54884092D+05 0.54884092D+05 0.54884092D+05 0.11437520D+01  1  2 15  2  7  2        1 0.851224532759D-05 0.100000000000D+01
0.388218970020D-05 0.000000000000D+00 0.000000000000D+00 0.258113567140D-06 0.000000000000D+00  7 -1 1 23 -13 13 23 21 2 0.23921238D-01 0.14216047D+00 0.56904095D+05 0.56904095D+05 0.56904095D+05 0.11423869D+01  1  2 12  2  7  2        1 0.156443445604D-03 0.100000000000D+01
-.406121694342D-05 0.000000000000D+00 0.000000000000D+00 0.258113567140D-06 0.000000000000D+00  7 -1 1 23 -13 13 23 21 2 0.23921238D-01 0.13909377D+00 0.54884092D+05 0.54884092D+05 0.54884092D+05 0.11437520D+01  1  2  4  2  7  2        1 -.170151569260D-03 0.100000000000D+01
-.138249552342D-03 0.000000000000D+00 -.171948887119D-04 0.258113567140D-06 0.000000000000D+00  7 -1 1 23 -13 13 23 21 2 0.23921238D-01 0.14227204D+00 0.54884092D+05 0.54884092D+05 0.54884092D+05 0.11437520D+01  1  2  5  2  7  2        1 -.558076114691D-02 0.100000000000D+01
0.138607042198D-03 0.000000000000D+00 0.171905012631D-04 0.258113567140D-06 0.000000000000D+00  7 -1 1 23 -13 13 23 21 2 0.23921238D-01 0.13909377D+00 0.54884092D+05 0.54884092D+05 0.54884092D+05 0.11437520D+01  1  2  6  2  7  2        1 0.580717702821D-02 0.100000000000D+01
0.229426964702D-06 0.000000000000D+00 0.000000000000D+00 0.258113567140D-06 0.284312936761D-07  7 -1 1 23 -13 13 23 21 2 0.24063702D-01 0.14175154D+00 0.56904095D+05 0.56904095D+05 0.56904095D+05 0.11423869D+01  1  2 11  2  7  2        1 0.920070985889D-05 0.100000000000D+01
0.160382281172D-06 0.000000000000D+00 0.000000000000D+00 0.258113567140D-06 0.000000000000D+00  7 -1 21 23 -13 13 23 -1 2 0.23921238D-01 0.14216047D+00 0.56904095D+05 0.56904095D+05 0.56904095D+05 0.11423869D+01  1  2 12  4  7  2        1 0.101105660463D-04 0.100000000000D+01
-.563092106371D-06 0.000000000000D+00 -.704328816910D-07 0.258113567140D-06 0.000000000000D+00  7 -1 21 23 -13 13 23 -1 2 0.23921238D-01 0.14227204D+00 0.54884092D+05 0.54884092D+05 0.54884092D+05 0.11437520D+01  1  2  5  4  7  2        1 -.355789164505D-04 0.100000000000D+01
0.931140523171D-09 0.000000000000D+00 0.000000000000D+00 0.258113567140D-06 0.981456103564D-10  7 -1 21 23 -13 13 23 -1 2 0.24063702D-01 0.14175154D+00 0.56904095D+05 0.56904095D+05 0.56904095D+05 0.11423869D+01  1  2 11  4  7  2        1 0.586206980603D-07 0.100000000000D+01
  </mgrwgt>
  </event>
  <event>
  9     66 0.58687835E-06 0.24304768E+03 0.75467711E-02 0.10152739E+00
       -3 -1    0    0    0  501 0.00000000E+00 0.00000000E+00 0.23788166E+03 0.23788219E+03 0.50000000E+00 0.0000E+00 0.9000E+01
       21 -1    0    0  501  502 0.00000000E+00 0.00000000E+00 -.47432814E+03 0.47432874E+03 0.75000000E+00 0.0000E+00 0.9000E+01
       25  2    1    2    0    0 0.29418826E+02 -.12348536E+03 -.29836250E+03 0.44072789E+03 0.29850761E+03 0.0000E+00 0.0000E+00
       23  2    1    2    0    0 0.29040692E+02 0.16409808E+03 0.63094629E+02 0.20028930E+03 0.91451250E+02 0.0000E+00 0.0000E+00
       23  1    3    3    0    0 -.17807866E+02 0.62147134E+02 -.92000676E+02 0.14477141E+03 0.91188000E+02 0.0000E+00 0.9000E+01
      -13  1    4    4    0    0 0.36664582E+02 0.80365230E+02 0.74351223E+02 0.11545985E+03 0.10565837E+00 0.0000E+00 0.9000E+01
       13  1    4    4    0    0 -.76238896E+01 0.83732846E+02 -.11256595E+02 0.84829448E+02 0.10565837E+00 0.0000E+00 0.9000E+01
       23  1    3    3    0    0 0.47226692E+02 -.18563250E+03 -.20636183E+03 0.29595648E+03 0.91188000E+02 0.0000E+00 0.9000E+01
       -3  1    1    2    0  502 -.58459518E+02 -.40612715E+02 -.11786050E+01 0.71193729E+02 0.50000000E+00 0.0000E+00 0.9000E+01
#aMCatNLO 2  0  0  2  2 0.71182216D+02 0.00000000D+00  -5  7  0 0.00000000D+00 0.00000000D+00 0.00000000D+00 0.00000000D+00 0.00000000D+00
  <mgrwgt>
 0.4885985827D-05    1    2    0
 0.296008936991827D+03 0.000000000000000D+00 0.000000000000000D+00 0.296008936991827D+03
 0.296008936991827D+03 0.000000000000000D+00 0.000000000000000D+00 -.296008936991827D+03
 0.117687725335169D+03 -.294683272226296D+02 0.540464337668585D+02 -.417821736910701D+02
 0.145429748972964D+03 0.219605754541427D+02 0.701500890556976D+02 0.125485098786828D+03
 0.823857567674308D+02 -.159448487410839D+02 0.779521944581712D+02 0.213689048835376D+02
 0.246514642908090D+03 0.234526005095707D+02 -.202148717280727D+03 -.105071829979295D+03
 0.000000000000000D+00 -.000000000000000D+00 -.000000000000000D+00 0.000000000000000D+00
 0.349586550103803D+03 0.000000000000000D+00 0.000000000000000D+00 0.349586550103803D+03
 0.322763578810548D+03 0.000000000000000D+00 0.000000000000000D+00 -.322763578810548D+03
 0.119333095360450D+03 -.178078661330402D+02 0.621471332383347D+02 -.417821736910701D+02
 0.153458057989424D+03 0.366646408312231D+02 0.803652266659087D+02 0.125485098786828D+03
 0.867522040300512D+02 -.762394847222412D+01 0.837328502909271D+02 0.213689048835376D+02
 0.236738514740019D+03 0.472266918515855D+02 -.185632494835542D+03 -.105071829979295D+03
 0.760682567944062D+02 -.584595180775444D+02 -.406127153596285D+02 0.268229712932551D+02
0.458958984158D-07 0.000000000000D+00 0.000000000000D+00 0.843626008909D-07 0.168901193314D-11  7 -3 21 23 -13 13 23 -3 2 0.36597174D-01 0.72973466D-01 0.80519335D+05 0.80519335D+05 0.80519335D+05 0.11295268D+01  1  2  1  4  7  2        3 0.488598582696D-05 0.100000000000D+01
  </mgrwgt>
  </event>
  <event>
  8     66 0.58687835E-06 0.17270070E+03 0.75467711E-02 0.10741320E+00
       -1 -1    0    0    0  501 0.00000000E+00 0.00000000E+00 0.49101894E+03 0.49101904E+03 0.32000000E+00 0.0000E+00 0.9000E+01
        1 -1    0    0  501    0 0.00000000E+00 0.00000000E+00 -.60112286E+03 0.60112294E+03 0.32000000E+00 0.0000E+00 0.9000E+01
       25  2    1    2    0    0 -.39000979E+01 0.49609004E+02 0.43887526E+03 0.53399382E+03 0.30010272E+03 0.0000E+00 0.0000E+00
       23  2    1    2    0    0 0.39000979E+01 -.49609004E+02 -.54897918E+03 0.55814817E+03 0.87606908E+02 0.0000E+00 0.0000E+00
       23  1    3    3    0    0 0.67426736E+02 -.63149164E+02 0.27363827E+03 0.30286521E+03 0.91188000E+02 0.0000E+00 0.9000E+01
      -11  1    4    4    0    0 -.75330537E+01 -.86845833E+01 -.50414683E+01 0.12553298E+02 0.51099893E-03 0.0000E+00 0.9000E+01
       11  1    4    4    0    0 0.11433152E+02 -.40924421E+02 -.54393771E+03 0.54559487E+03 0.51099893E-03 0.0000E+00 0.9000E+01
       23  1    3    3    0    0 -.71326834E+02 0.11275817E+03 0.16523699E+03 0.23112861E+03 0.91188000E+02 0.0000E+00 0.9000E+01
#aMCatNLO 1  0  0  2  2 0.39473995D+02 0.00000000D+00  -5  7  0 0.00000000D+00 0.00000000D+00 0.00000000D+00 0.00000000D+00 0.00000000D+00
  <mgrwgt>
 0.3052376643D-03    4    2    0
 0.543288885386616D+03 0.000000000000000D+00 0.000000000000000D+00 0.543288885386616D+03
 0.543288885386616D+03 0.000000000000000D+00 0.000000000000000D+00 -.543288885386616D+03
 0.332144157272243D+03 0.674267358432397D+02 -.631491638703002D+02 0.305729141990253D+03
 0.121067250164783D+02 -.753305370424960D+01 -.868458325235783D+01 -.379524785045458D+01
 0.493271079616870D+03 0.114331516189718D+02 -.409244206917611D+02 -.491437516701253D+03
 0.249055808867641D+03 -.713268337579619D+02 0.112758167814419D+03 0.189503622561454D+03
 0.000000000000000D+00 0.000000000000000D+00 -.000000000000000D+00 0.000000000000000D+00
 0.698667487371071D+03 0.000000000000000D+00 0.000000000000000D+00 0.698667487371071D+03
 0.546160169415944D+03 0.000000000000000D+00 0.000000000000000D+00 -.546160169415944D+03
 0.329016216592687D+03 0.580862053308319D+02 -.556066895717974D+02 0.305729141990253D+03
 0.121294161473406D+02 -.787544932412067D+01 -.840809893924874D+01 -.379524785045458D+01
 0.492339292169280D+03 -.249104002185204D+01 -.296806420392710D+02 -.491437516701253D+03
 0.253809629582449D+03 -.784310556035952D+02 0.118494823843793D+03 0.189503622561454D+03
 0.157533102295257D+03 0.307113396187359D+02 -.247993932934756D+02 0.152507317955127D+03
0.350811078643D-04 0.000000000000D+00 0.000000000000D+00 0.662652411178D-06 0.000000000000D+00  7 -1 1 23 -11 11 23 21 0 0.75541390D-01 0.92480454D-01 0.29825531D+05 0.29825531D+05 0.29825531D+05 0.11675710D+01  1  2  2  2  7  2        1 0.284466488660D-03 0.100000000000D+01
0.116357602510D-05 0.000000000000D+00 -.134720691267D-06 0.662652411178D-06 0.000000000000D+00  7 -1 1 23 -11 11 23 21 2 0.75541390D-01 0.92480454D-01 0.29825531D+05 0.29825531D+05 0.29825531D+05 0.11675710D+01  1  2  3  2  7  2        1 0.128623162964D-04 0.100000000000D+01
0.219396968284D-05 0.000000000000D+00 0.000000000000D+00 0.662652411178D-06 0.000000000000D+00  7 -1 1 23 -11 11 23 21 2 0.75541390D-01 0.92480454D-01 0.29825531D+05 0.29825531D+05 0.29825531D+05 0.11675710D+01  1  2 15  2  7  2        1 0.242524178882D-04 0.100000000000D+01
-.147850297703D-05 0.000000000000D+00 0.000000000000D+00 0.662652411178D-06 0.000000000000D+00  7 -1 1 23 -11 11 23 21 2 0.75541390D-01 0.92480454D-01 0.29825531D+05 0.29825531D+05 0.29825531D+05 0.11675710D+01  1  2  4  2  7  2        1 -.163435585862D-04 0.100000000000D+01
  </mgrwgt>
  </event>
  <event>
  8     66 0.58687835E-06 0.19069367E+03 0.75467711E-02 0.92769043E-01
       -1 -1    0    0    0  501 0.00000000E+00 0.00000000E+00 0.17567143E+03 0.17567172E+03 0.32000000E+00 0.0000E+00 0.9000E+01
        1 -1    0    0  501    0 0.00000000E+00 0.00000000E+00 -.11092351E+04 0.11092352E+04 0.32000000E+00 0.0000E+00 0.9000E+01
       25  2    1    2    0    0 0.29047944E+02 0.57698319E+02 0.29128381E+02 0.31564730E+03 0.30759043E+03 0.0000E+00 0.0000E+00
       23  2    1    2    0    0 -.29047944E+02 -.57698319E+02 -.96269208E+03 0.96925961E+03 0.92278135E+02 0.0000E+00 0.0000E+00
       23  1    3    3    0    0 -.79052430E+02 -.40883259E+02 -.34299764E+02 0.13195625E+03 0.91188000E+02 0.0000E+00 0.9000E+01
      -13  1    4    4    0    0 -.10749762E+02 0.79840685E+01 -.19785621E+02 0.23891101E+02 0.10565837E+00 0.0000E+00 0.9000E+01
       13  1    4    4    0    0 -.18298182E+02 -.65682388E+02 -.94290646E+03 0.94536850E+03 0.10565837E+00 0.0000E+00 0.9000E+01
       23  1    3    3    0    0 0.10810037E+03 0.98581578E+02 0.63428144E+02 0.18369104E+03 0.91188000E+02 0.0000E+00 0.9000E+01
#aMCatNLO 1  0  0  1  2 0.51570263D+03 0.00000000D+00  -5  7  0 0.00000000D+00 0.00000000D+00 0.00000000D+00 0.00000000D+00 0.00000000D+00
  <mgrwgt>
 0.2764255963D-03    5    2    0
 0.441430786360733D+03 0.000000000000000D+00 0.000000000000000D+00 0.441430786360733D+03
 0.441430786360733D+03 0.000000000000000D+00 0.000000000000000D+00 -.441430786360733D+03
 0.155778081585163D+03 -.790524116624940D+02 -.408832456601807D+02 0.896149306365111D+02
 0.138484681974759D+02 -.107497524199635D+02 0.798416492136008D+01 -.353213884700417D+01
 0.378822355170579D+03 -.182981930613380D+02 -.656824865164131D+02 -.372635698602127D+03
 0.334412667768248D+03 0.108100357143795D+03 0.985815672552337D+02 0.286552906812620D+03
 0.000000000000000D+00 -.000000000000000D+00 -.000000000000000D+00 0.000000000000000D+00
 0.113946829002879D+04 0.000000000000000D+00 0.000000000000000D+00 0.113946829002879D+04
 0.617052573638692D+03 0.000000000000000D+00 0.000000000000000D+00 -.617052573638692D+03
 0.133452892542840D+03 -.811638481963527D+00 -.382482500781250D+02 0.896149306365111D+02
 0.991928066862894D+01 -.432026452140349D+01 0.820069744677999D+01 -.353213884700417D+01
 0.426741671349509D+03 0.199617445024710D+03 -.583435157946813D+02 -.372635698602127D+03
 0.452331147312446D+03 0.320924881116361D+03 0.105749079252167D+03 0.286552906812620D+03
 0.734075871794062D+03 -.515410423137704D+03 -.173580108261409D+02 0.522415716390103D+03
0.121485624390D-04 0.000000000000D+00 0.000000000000D+00 0.127626992080D-07 0.000000000000D+00  7 -1 1 23 -13 13 23 21 0 0.27026400D-01 0.17065158D+00 0.36364076D+05 0.36364076D+05 0.36364076D+05 0.11596624D+01  1  2  2  1  7  1       -1 0.226634906698D-03 0.100000000000D+01
-.967933535266D-07 0.000000000000D+00 -.466536785558D-07 0.127626992080D-07 0.000000000000D+00  7 -1 1 23 -13 13 23 21 2 0.27026400D-01 0.17065158D+00 0.36364076D+05 0.36364076D+05 0.36364076D+05 0.11596624D+01  1  2  3  1  7  1       -1 -.242834602975D-05 0.100000000000D+01
0.762395831121D-06 0.000000000000D+00 0.000000000000D+00 0.127626992080D-07 0.000000000000D+00  7 -1 1 23 -13 13 23 21 2 0.27026400D-01 0.17065158D+00 0.36364076D+05 0.36364076D+05 0.36364076D+05 0.11596624D+01  1  2 15  1  7  1       -1 0.191269423173D-04 0.100000000000D+01
0.532831098289D-05 0.000000000000D+00 -.415682928064D-05 0.127626992080D-07 0.000000000000D+00  7 -1 1 23 -13 13 23 21 2 0.93171076D-01 0.17065158D+00 0.36364076D+05 0.36364076D+05 0.36364076D+05 0.11596624D+01  1  2  5  1  7  1       -1 0.143679242123D-04 0.100000000000D+01
0.910854886771D-06 0.000000000000D+00 -.600344875935D-06 0.127626992080D-07 0.000000000000D+00  7 21 1 23 -13 13 23 1 2 0.93171076D-01 0.17065158D+00 0.36364076D+05 0.36364076D+05 0.36364076D+05 0.11596624D+01  1  2  5  3  7  1       -1 0.187241691345D-04 0.100000000000D+01
  </mgrwgt>
  </event>
  <event>
  8     66 0.58687835E-06 0.26387571E+03 0.75467711E-02 0.93476540E-01
       -1 -1    0    0    0  501 0.00000000E+00 0.00000000E+00 0.77771514E+03 0.77771521E+03 0.32000000E+00 0.0000E+00 0.9000E+01
        1 -1    0    0  501    0 0.00000000E+00 0.00000000E+00 -.90477960E+03 0.90477965E+03 0.32000000E+00 0.0000E+00 0.9000E+01
       25  2    1    2    0    0 0.18987094E+03 -.39729681E+03 0.61553703E+03 0.81437330E+03 0.30070303E+03 0.0000E+00 0.0000E+00
       23  2    1    2    0    0 -.18987094E+03 0.39729681E+03 -.74260148E+03 0.86812156E+03 0.91007474E+02 0.0000E+00 0.0000E+00
       23  1    3    3    0    0 0.15835184E+03 -.95739466E+02 0.16737349E+03 0.26565106E+03 0.91188000E+02 0.0000E+00 0.9000E+01
      -11  1    4    4    0    0 -.76667869E+02 0.78073261E+02 -.15195488E+03 0.18725299E+03 0.51099893E-03 0.0000E+00 0.9000E+01
       11  1    4    4    0    0 -.11320307E+03 0.31922355E+03 -.59064659E+03 0.68086857E+03 0.51099893E-03 0.0000E+00 0.9000E+01
       23  1    3    3    0    0 0.31519100E+02 -.30155734E+03 0.44816354E+03 0.54872224E+03 0.91188000E+02 0.0000E+00 0.9000E+01
#aMCatNLO 1  0  0  1  2 0.13234446D+03 0.00000000D+00  -5  7  0 0.00000000D+00 0.00000000D+00 0.00000000D+00 0.00000000D+00 0.00000000D+00
  <mgrwgt>
 0.3665480581D-03    9    2    0
 0.838844977013988D+03 0.000000000000000D+00 0.000000000000000D+00 0.838844977013988D+03
 0.838844977013988D+03 0.000000000000000D+00 0.000000000000000D+00 -.838844977013988D+03
 0.279088378418608D+03 0.158351842720902D+03 -.957394656564667D+02 0.187972658243260D+03
 0.176280564247551D+03 -.766678685403566D+02 0.780732607829849D+02 -.138207963647633D+03
 0.638084337966836D+03 -.113203074419099D+03 0.319223549148872D+03 -.540770757317217D+03
 0.584236673394980D+03 0.315191002385541D+02 -.301557344275390D+03 0.491006062721590D+03
 0.000000000000000D+00 0.000000000000000D+00 0.000000000000000D+00 0.000000000000000D+00
 0.962311095403112D+03 0.000000000000000D+00 0.000000000000000D+00 0.962311095403112D+03
 0.877680926191312D+03 0.000000000000000D+00 0.000000000000000D+00 -.877680926191312D+03
 0.282474197867989D+03 0.150347011633159D+03 -.116354961059273D+03 0.187972658243260D+03
 0.173276134393001D+03 -.816506477467448D+02 0.652407024570778D+02 -.138207963647633D+03
 0.619824534126408D+03 -.131134020087638D+03 0.273044520016858D+03 -.540770757317217D+03
 0.607326984042961D+03 0.145338768442944D+02 -.345300777579831D+03 0.491006062721590D+03
 0.157090171164065D+03 0.479037793569295D+02 0.123370516165168D+03 0.846301692117997D+02
0.172692097114D-03 0.000000000000D+00 0.000000000000D+00 0.347402549698D-05 0.000000000000D+00  7 -1 1 23 -11 11 23 21 0 0.11964849D+00 0.13919687D+00 0.23572610D+06 0.23572610D+06 0.23572610D+06 0.10923851D+01  1  2  2  1  7  1       -1 0.251559800164D-03 0.100000000000D+01
-.610614465878D-05 0.000000000000D+00 -.663183123792D-06 0.347402549698D-05 0.000000000000D+00  7 -1 1 23 -11 11 23 21 2 0.11964849D+00 0.13919687D+00 0.23572610D+06 0.23572610D+06 0.23572610D+06 0.10923851D+01  1  2  3  1  7  1       -1 -.106142034972D-04 0.100000000000D+01
0.107919928469D-04 0.000000000000D+00 0.000000000000D+00 0.347402549698D-05 0.000000000000D+00  7 -1 1 23 -11 11 23 21 2 0.11964849D+00 0.13919687D+00 0.23572610D+06 0.23572610D+06 0.23572610D+06 0.10923851D+01  1  2 15  1  7  1       -1 0.187595307053D-04 0.100000000000D+01
0.286414270649D-03 0.000000000000D+00 0.000000000000D+00 0.347402549698D-05 0.000000000000D+00  7 -1 1 23 -11 11 23 21 2 0.13973653D+00 0.13919687D+00 0.30694081D+06 0.30694081D+06 0.30694081D+06 0.10838177D+01  1  2 12  1  7  1       -1 0.323207229481D-03 0.100000000000D+01
-.300123759268D-03 0.000000000000D+00 0.000000000000D+00 0.347402549698D-05 0.000000000000D+00  7 -1 1 23 -11 11 23 21 2 0.11964849D+00 0.13919687D+00 0.23572610D+06 0.23572610D+06 0.23572610D+06 0.10923851D+01  1  2  4  1  7  1       -1 -.521699834057D-03 0.100000000000D+01
-.513049777498D-03 0.000000000000D+00 -.134643597311D-03 0.347402549698D-05 0.000000000000D+00  7 -1 1 23 -11 11 23 21 2 0.14125016D+00 0.13919687D+00 0.23572610D+06 0.23572610D+06 0.23572610D+06 0.10923851D+01  1  2  5  1  7  1       -1 -.580451743489D-03 0.100000000000D+01
0.529914967943D-03 0.000000000000D+00 0.132810103629D-03 0.347402549698D-05 0.000000000000D+00  7 -1 1 23 -11 11 23 21 2 0.11964849D+00 0.13919687D+00 0.23572610D+06 0.23572610D+06 0.23572610D+06 0.10923851D+01  1  2  6  1  7  1       -1 0.921141836669D-03 0.100000000000D+01
0.671558191532D-05 0.000000000000D+00 0.000000000000D+00 0.347402549698D-05 0.000000000000D+00  7 21 1 23 -11 11 23 1 2 0.13973653D+00 0.13919687D+00 0.30694081D+06 0.30694081D+06 0.30694081D+06 0.10838177D+01  1  2 12  3  7  1       -1 0.479374394594D-04 0.100000000000D+01
-.115732119622D-04 0.000000000000D+00 -.333103558954D-05 0.347402549698D-05 0.000000000000D+00  7 21 1 23 -11 11 23 1 2 0.14125016D+00 0.13919687D+00 0.23572610D+06 0.23572610D+06 0.23572610D+06 0.10923851D+01  1  2  5  3  7  1       -1 -.832919972887D-04 0.100000000000D+01
  </mgrwgt>
  </event>
  <event>
  8     66 0.58687835E-06 0.18812085E+03 0.75467711E-02 0.93820678E-01
       -1 -1    0    0    0  501 0.00000000E+00 0.00000000E+00 0.32578770E+03 0.32578786E+03 0.32000000E+00 0.0000E+00 0.9000E+01
        1 -1    0    0  501    0 0.00000000E+00 0.00000000E+00 -.98121659E+03 0.98121664E+03 0.32000000E+00 0.0000E+00 0.9000E+01
       25  2    1    2    0    0 -.43150709E+03 0.65173603E+02 -.19034686E+02 0.53004183E+03 0.30022668E+03 0.0000E+00 0.0000E+00
       23  2    1    2    0    0 0.43150709E+03 -.65173603E+02 -.63639420E+03 0.77696267E+03 0.90705282E+02 0.0000E+00 0.0000E+00
       23  1    3    3    0    0 -.17381697E+03 0.10212640E+03 -.99650555E+02 0.24266773E+03 0.91188000E+02 0.0000E+00 0.9000E+01
      -11  1    4    4    0    0 0.37790295E+03 -.73619553E+02 -.50672599E+03 0.63639744E+03 0.51099893E-03 0.0000E+00 0.9000E+01
       11  1    4    4    0    0 0.53604132E+02 0.84459506E+01 -.12966821E+03 0.14056522E+03 0.51099893E-03 0.0000E+00 0.9000E+01
       23  1    3    3    0    0 -.25769012E+03 -.36952800E+02 0.80615869E+02 0.28737410E+03 0.91188000E+02 0.0000E+00 0.9000E+01
#aMCatNLO 1  0  0  2  1 0.12854616D+03 0.00000000D+00  -5  7  0 0.00000000D+00 0.00000000D+00 0.00000000D+00 0.00000000D+00 0.00000000D+00
  <mgrwgt>
 0.2776062845D-03    9    2    0
 0.565392283282333D+03 0.000000000000000D+00 0.000000000000000D+00 0.565392283282333D+03
 0.565392283282333D+03 0.000000000000000D+00 0.000000000000000D+00 -.565392283282333D+03
 0.222724969956104D+03 -.173816969990013D+03 0.102126403010439D+03 0.254758640596932D+02
 0.441862657928812D+03 0.377902954567005D+03 -.736195533347933D+02 -.216822800388308D+03
 0.873120236460689D+02 0.536041316105214D+02 0.844595057774978D+01 -.684006759198460D+02
 0.378884915033680D+03 -.257690116187514D+03 -.369528002533954D+02 0.259747612248461D+03
 0.000000000000000D+00 0.000000000000000D+00 0.000000000000000D+00 -.000000000000000D+00
 0.602938423217061D+03 0.000000000000000D+00 0.000000000000000D+00 0.602938423217061D+03
 0.690876427205807D+03 0.000000000000000D+00 0.000000000000000D+00 -.690876427205807D+03
 0.232343225580952D+03 -.193955035883835D+03 0.860264350945305D+02 0.254758640596932D+02
 0.416380262991865D+03 0.339923256877937D+03 -.103983537516485D+03 -.216822800388308D+03
 0.825152760982184D+02 0.460887891050223D+02 0.243758940475779D+01 -.684006759198460D+02
 0.406828830413206D+03 -.292460190947008D+03 -.647507571680814D+02 0.259747612248461D+03
 0.155747255338627D+03 0.100403180847884D+03 0.802702701852786D+02 -.879380039887469D+02
0.253613913570D-04 0.000000000000D+00 0.000000000000D+00 0.206838920737D-05 0.000000000000D+00  7 -1 1 23 -11 11 23 21 0 0.50121201D-01 0.15095641D+00 0.21919754D+06 0.21919754D+06 0.21919754D+06 0.10947812D+01  1  2  2  2  7  2        1 0.193288814242D-03 0.100000000000D+01
-.134799551834D-05 0.000000000000D+00 -.973944206184D-07 0.206838920737D-05 0.000000000000D+00  7 -1 1 23 -11 11 23 21 2 0.50121201D-01 0.15095641D+00 0.21919754D+06 0.21919754D+06 0.21919754D+06 0.10947812D+01  1  2  3  2  7  2        1 -.123133656982D-04 0.100000000000D+01
0.161011391671D-05 0.000000000000D+00 0.000000000000D+00 0.206838920737D-05 0.000000000000D+00  7 -1 1 23 -11 11 23 21 2 0.50121201D-01 0.15095641D+00 0.21919754D+06 0.21919754D+06 0.21919754D+06 0.10947812D+01  1  2 15  2  7  2        1 0.147077057768D-04 0.100000000000D+01
0.308148305664D-04 0.000000000000D+00 0.000000000000D+00 0.206838920737D-05 0.000000000000D+00  7 -1 1 23 -11 11 23 21 2 0.50121201D-01 0.18865268D+00 0.28849175D+06 0.28849175D+06 0.28849175D+06 0.10858109D+01  1  2 12  2  7  2        1 0.181102128397D-03 0.100000000000D+01
-.323286239009D-04 0.000000000000D+00 0.000000000000D+00 0.206838920737D-05 0.000000000000D+00  7 -1 1 23 -11 11 23 21 2 0.50121201D-01 0.15095641D+00 0.21919754D+06 0.21919754D+06 0.21919754D+06 0.10947812D+01  1  2  4  2  7  2        1 -.295308228548D-03 0.100000000000D+01
-.553902987052D-04 0.000000000000D+00 -.143784061527D-04 0.206838920737D-05 0.000000000000D+00  7 -1 1 23 -11 11 23 21 2 0.50121201D-01 0.19116648D+00 0.21919754D+06 0.21919754D+06 0.21919754D+06 0.10947812D+01  1  2  5  2  7  2        1 -.326023428760D-03 0.100000000000D+01
0.575650010256D-04 0.000000000000D+00 0.139865849636D-04 0.206838920737D-05 0.000000000000D+00  7 -1 1 23 -11 11 23 21 2 0.50121201D-01 0.15095641D+00 0.21919754D+06 0.21919754D+06 0.21919754D+06 0.10947812D+01  1  2  6  2  7  2        1 0.525831799440D-03 0.100000000000D+01
0.957533063015D-06 0.000000000000D+00 0.000000000000D+00 0.206838920737D-05 0.000000000000D+00  7 -1 21 23 -11 11 23 -1 2 0.50121201D-01 0.18865268D+00 0.28849175D+06 0.28849175D+06 0.28849175D+06 0.10858109D+01  1  2 12  4  7  2        1 0.574916015650D-05 0.100000000000D+01
-.157774446361D-05 0.000000000000D+00 -.466493870390D-06 0.206838920737D-05 0.000000000000D+00  7 -1 21 23 -11 11 23 -1 2 0.50121201D-01 0.19116648D+00 0.21919754D+06 0.21919754D+06 0.21919754D+06 0.10947812D+01  1  2  5  4  7  2        1 -.942830052371D-05 0.100000000000D+01
  </mgrwgt>
  </event>
  <event>
  8     66 0.58687835E-06 0.73347013E+02 0.75467711E-02 0.10406591E+00
       -3 -1    0    0    0  501 0.00000000E+00 0.00000000E+00 0.41246650E+03 0.41246681E+03 0.50000000E+00 0.0000E+00 0.9000E+01
        3 -1    0    0  501    0 0.00000000E+00 0.00000000E+00 -.18814850E+03 0.18814916E+03 0.50000000E+00 0.0000E+00 0.9000E+01
       25  2    1    2    0    0 -.11511140E+03 0.10439264E+03 0.24882915E+03 0.41929013E+03 0.29956603E+03 0.0000E+00 0.0000E+00
       23  2    1    2    0    0 0.11511140E+03 -.10439264E+03 -.24511144E+02 0.18132584E+03 0.90165438E+02 0.0000E+00 0.0000E+00
       23  1    3    3    0    0 -.14290499E+03 0.22244987E+02 0.23791465E+03 0.29297663E+03 0.91188000E+02 0.0000E+00 0.9000E+01
      -13  1    4    4    0    0 0.13224425E+02 0.66188323E+01 -.26821012E+02 0.30627964E+02 0.10565837E+00 0.0000E+00 0.9000E+01
       13  1    4    4    0    0 0.10188698E+03 -.11101148E+03 0.23098679E+01 0.15069788E+03 0.10565837E+00 0.0000E+00 0.9000E+01
       23  1    3    3    0    0 0.27793587E+02 0.82147655E+02 0.10914499E+02 0.12631349E+03 0.91188000E+02 0.0000E+00 0.9000E+01
#aMCatNLO 1  0  0  1  2 0.75632898D+01 0.00000000D+00  -5  7  0 0.00000000D+00 0.00000000D+00 0.00000000D+00 0.00000000D+00 0.00000000D+00
  <mgrwgt>
 0.4480150391D-04    8    2    0
 0.278577178230249D+03 0.000000000000000D+00 0.000000000000000D+00 0.278577178230249D+03
 0.278577178230249D+03 0.000000000000000D+00 0.000000000000000D+00 -.278577178230249D+03
 0.220042981841879D+03 -.142904991311829D+03 0.222449879190096D+02 0.138517098166669D+03
 0.438154885654859D+02 0.132243033379299D+02 0.661899337033863D+01 -.412444392157543D+02
 0.161523458150956D+03 0.101887101223619D+03 -.111011636710968D+03 -.581830099947037D+02
 0.131772427902176D+03 0.277935867502794D+02 0.821476554216194D+02 -.390896489562109D+02
 0.000000000000000D+00 -.000000000000000D+00 0.000000000000000D+00 -.000000000000000D+00
 0.282261428907915D+03 0.000000000000000D+00 0.000000000000000D+00 0.282261428907915D+03
 0.282511689568744D+03 0.000000000000000D+00 0.000000000000000D+00 -.282511689568744D+03
 0.218176365728048D+03 -.140206849946945D+03 0.209935218993637D+02 0.138517098166669D+03
 0.439445717786091D+02 0.137646470044342D+02 0.636836834884712D+01 -.412444392157543D+02
 0.163427129955637D+03 0.103887840415478D+03 -.111939630012346D+03 -.581830099947037D+02
 0.131657621916117D+03 0.294155405004039D+02 0.813953523621371D+02 -.390896489562109D+02
 0.756742909824891D+01 -.686117797337076D+01 0.318238740199834D+01 -.250260660828781D+00
0.230791695474D-05 0.000000000000D+00 0.000000000000D+00 0.168909110265D-06 0.000000000000D+00  7 -3 3 23 -13 13 23 21 0 0.63456460D-01 0.28945997D-01 0.53426428D+05 0.53426428D+05 0.53426428D+05 0.11447719D+01  1  2  2  1  7  1       -3 0.265000123549D-04 0.100000000000D+01
-.122785683759D-06 0.000000000000D+00 -.886300879470D-08 0.168909110265D-06 0.000000000000D+00  7 -3 3 23 -13 13 23 21 2 0.63456460D-01 0.28945997D-01 0.53426428D+05 0.53426428D+05 0.53426428D+05 0.11447719D+01  1  2  3  1  7  1       -3 -.184761547264D-05 0.100000000000D+01
0.151419073222D-06 0.000000000000D+00 0.000000000000D+00 0.168909110265D-06 0.000000000000D+00  7 -3 3 23 -13 13 23 21 2 0.63456460D-01 0.28945997D-01 0.53426428D+05 0.53426428D+05 0.53426428D+05 0.11447719D+01  1  2 15  1  7  1       -3 0.227847591000D-05 0.100000000000D+01
0.172763090703D-05 0.000000000000D+00 0.000000000000D+00 0.168909110265D-06 0.000000000000D+00  7 -3 3 23 -13 13 23 21 2 0.64737723D-01 0.28945997D-01 0.55162548D+05 0.55162548D+05 0.55162548D+05 0.11435606D+01  1  2 12  1  7  1       -3 0.248402118282D-04 0.100000000000D+01
-.142410834709D-05 0.000000000000D+00 0.000000000000D+00 0.168909110265D-06 0.000000000000D+00  7 -3 3 23 -13 13 23 21 2 0.63456460D-01 0.28945997D-01 0.53426428D+05 0.53426428D+05 0.53426428D+05 0.11447719D+01  1  2  4  1  7  1       -3 -.214292459532D-04 0.100000000000D+01
0.152454786187D-06 0.000000000000D+00 0.000000000000D+00 0.168909110265D-06 0.205991993086D-07  7 -3 3 23 -13 13 23 21 2 0.64295687D-01 0.29354819D-01 0.55162548D+05 0.55162548D+05 0.55162548D+05 0.11435606D+01  1  2 11  1  7  1       -3 0.216871002022D-05 0.100000000000D+01
0.531879177148D-07 0.000000000000D+00 0.000000000000D+00 0.168909110265D-06 0.000000000000D+00  7 21 3 23 -13 13 23 3 2 0.64737723D-01 0.28945997D-01 0.55162548D+05 0.55162548D+05 0.55162548D+05 0.11435606D+01  1  2 12  3  7  1       -3 0.121162527265D-04 0.100000000000D+01
0.774881719396D-09 0.000000000000D+00 0.000000000000D+00 0.168909110265D-06 0.497887845176D-10  7 21 3 23 -13 13 23 3 2 0.64295687D-01 0.29354819D-01 0.55162548D+05 0.55162548D+05 0.55162548D+05 0.11435606D+01  1  2 11  3  7  1       -3 0.174702497514D-06 0.100000000000D+01
  </mgrwgt>
  </event>
  <event>
  8     66 0.58687835E-06 0.81699034E+03 0.75467711E-02 0.88667196E-01
       -1 -1    0    0    0  501 0.00000000E+00 0.00000000E+00 0.90004597E+03 0.90004603E+03 0.32000000E+00 0.0000E+00 0.9000E+01
        1 -1    0    0  501    0 0.00000000E+00 0.00000000E+00 -.10240949E+04 0.10240949E+04 0.32000000E+00 0.0000E+00 0.9000E+01
       25  2    1    2    0    0 0.50756905E+03 0.61365982E+03 0.42618112E+03 0.95217990E+03 0.30134949E+03 0.0000E+00 0.0000E+00
       23  2    1    2    0    0 -.50756905E+03 -.61365982E+03 -.55023001E+03 0.97196104E+03 0.88036823E+02 0.0000E+00 0.0000E+00
       23  1    3    3    0    0 0.38388215E+03 0.33182852E+03 0.34733187E+03 0.62163522E+03 0.91188000E+02 0.0000E+00 0.9000E+01
      -13  1    4    4    0    0 -.17247325E+03 -.17867514E+03 -.12856236E+03 0.27964284E+03 0.10565837E+00 0.0000E+00 0.9000E+01
       13  1    4    4    0    0 -.33509580E+03 -.43498467E+03 -.42166765E+03 0.69231820E+03 0.10565837E+00 0.0000E+00 0.9000E+01
       23  1    3    3    0    0 0.12368690E+03 0.28183130E+03 0.78849244E+02 0.33054468E+03 0.91188000E+02 0.0000E+00 0.9000E+01
#aMCatNLO 1  0  0  1  2 0.11639721D+03 0.00000000D+00  -5  7  0 0.00000000D+00 0.00000000D+00 0.00000000D+00 0.00000000D+00 0.00000000D+00
  <mgrwgt>
 0.2577766329D-03    4    2    0
 0.960069037580958D+03 0.000000000000000D+00 0.000000000000000D+00 0.960069037580958D+03
 0.960069037580958D+03 0.000000000000000D+00 0.000000000000000D+00 -.960069037580958D+03
 0.645370211619150D+03 0.383882149568491D+03 0.331828515535608D+03 0.388216164296975D+03
 0.271919574351948D+03 -.172473013119581D+03 -.178674773341223D+03 -.110763893181217D+03
 0.666520541995196D+03 -.335096037889885D+03 -.434985041881701D+03 -.377820448932089D+03
 0.336327747195621D+03 0.123686901440976D+03 0.281831299687316D+03 0.100368177816331D+03
 0.000000000000000D+00 0.000000000000000D+00 0.000000000000000D+00 -.000000000000000D+00
 0.974544729941412D+03 0.000000000000000D+00 0.000000000000000D+00 0.974544729941412D+03
 0.122825068195963D+04 0.000000000000000D+00 0.000000000000000D+00 -.122825068195963D+04
 0.617339945709286D+03 0.348582915852470D+03 0.317130127516573D+03 0.388216164296975D+03
 0.286234080895681D+03 -.188076274257293D+03 -.185171877170997D+03 -.110763893181217D+03
 0.696632602723610D+03 -.373203168942005D+03 -.450852621416213D+03 -.377820448932089D+03
 0.323456162617996D+03 0.105242552752235D+03 0.274151184136749D+03 0.100368177816331D+03
 0.279132619954472D+03 0.107453974594594D+03 0.447431869338874D+02 -.253705952018220D+03
0.364275341331D-03 0.000000000000D+00 0.000000000000D+00 0.182746450886D-06 0.000000000000D+00  7 -1 1 23 -13 13 23 21 0 0.13846862D+00 0.15755306D+00 0.66747322D+06 0.66747322D+06 0.66747322D+06 0.10597547D+01  1  2  2  1  7  1       -1 0.275639731239D-03 0.100000000000D+01
-.195967123417D-04 0.000000000000D+00 -.139891322661D-05 0.182746450886D-06 0.000000000000D+00  7 -1 1 23 -13 13 23 21 2 0.13846862D+00 0.15755306D+00 0.66747322D+06 0.66747322D+06 0.66747322D+06 0.10597547D+01  1  2  3  1  7  1       -1 -.166535157956D-04 0.100000000000D+01
0.235553281388D-04 0.000000000000D+00 0.000000000000D+00 0.182746450886D-06 0.000000000000D+00  7 -1 1 23 -13 13 23 21 2 0.13846862D+00 0.15755306D+00 0.66747322D+06 0.66747322D+06 0.66747322D+06 0.10597547D+01  1  2 15  1  7  1       -1 0.200175938897D-04 0.100000000000D+01
-.249786816773D-04 0.000000000000D+00 0.000000000000D+00 0.182746450886D-06 0.000000000000D+00  7 -1 1 23 -13 13 23 21 2 0.13846862D+00 0.15755306D+00 0.66747322D+06 0.66747322D+06 0.66747322D+06 0.10597547D+01  1  2  4  1  7  1       -1 -.212271764066D-04 0.100000000000D+01
  </mgrwgt>
  </event>
  <event>
  7     66 0.58687835E-06 0.34245901E+03 0.75467711E-02 0.93408352E-01
       -1 -1    0    0    0  501 0.00000000E+00 0.00000000E+00 0.37061581E+03 0.37061595E+03 0.32000000E+00 0.0000E+00 0.9000E+01
        1 -1    0    0  501    0 0.00000000E+00 0.00000000E+00 -.89231344E+03 0.89231350E+03 0.32000000E+00 0.0000E+00 0.9000E+01
       25  2    1    2    0    0 0.10129916E+02 -.22291058E+03 -.73898022E+03 0.82831758E+03 0.30037728E+03 0.0000E+00 0.0000E+00
       23  1    3    3    0    0 -.10209343E+03 -.58865914E+02 -.22635355E+03 0.27099713E+03 0.91188000E+02 0.0000E+00 0.9000E+01
      -11  1    1    2    0    0 -.75449695E+02 0.23843899E+03 0.25535843E+03 0.35742654E+03 0.51099893E-03 0.0000E+00 0.9000E+01
       11  1    1    2    0    0 0.65319779E+02 -.15528412E+02 -.38075844E+02 0.77185329E+02 0.51099893E-03 0.0000E+00 0.9000E+01
       23  1    3    3    0    0 0.11222334E+03 -.16404466E+03 -.51262667E+03 0.55732045E+03 0.91188000E+02 0.0000E+00 0.9000E+01
#aMCatNLO 1  0  0  1  2 0.37117703D+03 0.00000000D+00  -5  7  0 0.00000000D+00 0.00000000D+00 0.00000000D+00 0.00000000D+00 0.00000000D+00
  <mgrwgt>
 0.1389523255D-02    4    2    0
 0.575070077228658D+03 0.000000000000000D+00 0.000000000000000D+00 0.575070077228658D+03
 0.575070077228658D+03 0.000000000000000D+00 0.000000000000000D+00 -.575070077228658D+03
 0.194899853077488D+03 -.102093427422038D+03 -.588659152788050D+02 -.125628171527075D+03
 0.508307090382512D+03 -.754496888897952D+02 0.238438987288944D+03 0.442527165177677D+03
 0.674835487667604D+02 0.653197731863638D+02 -.155284082380636D+02 -.679890598771280D+01
 0.379449662230554D+03 0.112223343125469D+03 -.164044663772075D+03 -.310100087662889D+03
 0.000000000000000D+00 0.000000000000000D+00 0.000000000000000D+00 -.000000000000000D+00
 0.714697321945018D+03 0.000000000000000D+00 0.000000000000000D+00 0.714697321945018D+03
 0.916197829659349D+03 0.000000000000000D+00 0.000000000000000D+00 -.916197829659349D+03
 0.237660048456945D+03 -.135930328858391D+03 -.117930299345718D+03 -.125628171527075D+03
 0.479456249865571D+03 -.152717254995336D+03 0.103563717785987D+03 0.442527165177677D+03
 0.647803666218998D+02 0.549734580223447D+02 -.335885350991004D+02 -.679890598771280D+01
 0.426654023287957D+03 0.491660628329266D+02 -.274115008966633D+03 -.310100087662889D+03
 0.422344463371995D+03 0.184508062998455D+03 0.322070125625465D+03 -.201500507714332D+03
0.224904753105D-03 0.000000000000D+00 0.000000000000D+00 0.383284319017D-09 0.000000000000D+00  7 -1 1 23 -11 11 23 21 0 0.57017832D-01 0.13727901D+00 0.11727817D+06 0.11727817D+06 0.11727817D+06 0.11160858D+01  1  2  2  1  7  1       -1 0.162558765474D-02 0.100000000000D+01
-.841304721874D-05 0.000000000000D+00 -.863693470706D-06 0.383284319017D-09 0.000000000000D+00  7 -1 1 23 -11 11 23 21 2 0.57017832D-01 0.13727901D+00 0.11727817D+06 0.11727817D+06 0.11727817D+06 0.11160858D+01  1  2  3  1  7  1       -1 -.757461014842D-04 0.100000000000D+01
0.140039889706D-04 0.000000000000D+00 0.000000000000D+00 0.383284319017D-09 0.000000000000D+00  7 -1 1 23 -11 11 23 21 2 0.57017832D-01 0.13727901D+00 0.11727817D+06 0.11727817D+06 0.11727817D+06 0.11160858D+01  1  2 15  1  7  1       -1 0.126083634404D-03 0.100000000000D+01
-.318103893486D-04 0.000000000000D+00 0.000000000000D+00 0.383284319017D-09 0.000000000000D+00  7 -1 1 23 -11 11 23 21 2 0.57017832D-01 0.13727901D+00 0.11727817D+06 0.11727817D+06 0.11727817D+06 0.11160858D+01  1  2  4  1  7  1       -1 -.286401932285D-03 0.100000000000D+01
  </mgrwgt>
  </event>
  <event>
  8     66 0.58687835E-06 0.24338034E+03 0.75467711E-02 0.10071746E+00
       -3 -1    0    0    0  502 0.00000000E+00 0.00000000E+00 0.60997638E+03 0.60997658E+03 0.50000000E+00 0.0000E+00 0.9000E+01
        3 -1    0    0  501    0 0.00000000E+00 0.00000000E+00 -.10132437E+04 0.10132438E+04 0.50000000E+00 0.0000E+00 0.9000E+01
       25  2    1    2    0    0 -.56736790E+02 0.21964087E+02 0.25317603E+02 0.30717461E+03 0.30002296E+03 0.0000E+00 0.0000E+00
       23  1    3    3    0    0 -.36398682E+01 0.11983550E+03 -.28906350E+02 0.15337739E+03 0.91188000E+02 0.0000E+00 0.9000E+01
      -13  1    1    2    0    0 -.36081296E+02 -.20421260E+02 -.23274405E+03 0.23640789E+03 0.10565837E+00 0.0000E+00 0.9000E+01
       13  1    1    2    0    0 0.14698158E+03 -.84070178E+02 -.62074092E+03 0.64342107E+03 0.10565837E+00 0.0000E+00 0.9000E+01
       23  1    3    3    0    0 -.53096922E+02 -.97871411E+02 0.54223953E+02 0.15379722E+03 0.91188000E+02 0.0000E+00 0.9000E+01
       21  1    1    2  501  502 -.54163498E+02 0.82527352E+02 0.42490008E+03 0.43621679E+03 0.75000000E+00 0.0000E+00 0.9000E+01
#aMCatNLO 2  0  0  1  2 0.98713972D+02 0.00000000D+00  -5  7  0 0.00000000D+00 0.00000000D+00 0.00000000D+00 0.00000000D+00 0.00000000D+00
  <mgrwgt>
 0.5942286122D-05    2    2    0
 0.422306718270825D+03 0.000000000000000D+00 0.000000000000000D+00 0.422306718270825D+03
 0.422306718270825D+03 0.000000000000000D+00 0.000000000000000D+00 -.422306718270825D+03
 0.199152849460159D+03 -.159458182883542D+02 0.138585682978366D+03 0.109024517685864D+03
 0.104349115225480D+03 -.427169315035089D+02 -.103096804008467D+02 -.946451905872534D+02
 0.277957506573329D+03 0.128716657221576D+03 -.562414138257635D+02 -.239852665161437D+03
 0.263153965282682D+03 -.700539074297132D+02 -.720345887517553D+02 0.225473338062827D+03
 0.000000000000000D+00 -.000000000000000D+00 0.000000000000000D+00 0.000000000000000D+00
 0.144550903298885D+04 0.000000000000000D+00 0.000000000000000D+00 0.144550903298885D+04
 0.427568805540389D+03 0.000000000000000D+00 0.000000000000000D+00 -.427568805540389D+03
 0.185944609171760D+03 -.363990552667972D+01 0.119835520473523D+03 0.109024517685864D+03
 0.103327390076646D+03 -.360805621907212D+02 -.204213239226871D+02 -.946451905872534D+02
 0.293599197459368D+03 0.146980934953150D+03 -.840701642917291D+02 -.239852665161437D+03
 0.267491258655960D+03 -.530969691617054D+02 -.978713839791630D+02 0.225473338062827D+03
 0.102271538316550D+04 -.541634980740438D+02 0.825273517200561D+02 0.101794022744846D+04
-.149861590441D-03 0.000000000000D+00 0.000000000000D+00 0.146500803771D-08 0.000000000000D+00  7 -3 3 23 -13 13 23 21 2 0.93472603D-01 0.15396516D+00 0.91218708D+05 0.91218708D+05 0.91218708D+05 0.11250124D+01  1  2 13  1  7  1       -3 -.221977002202D-04 0.100000000000D+01
0.199020771234D-03 0.000000000000D+00 0.000000000000D+00 0.146500803771D-08 0.196142494307D-11  7 -3 3 23 -13 13 23 21 2 0.93842515D-01 0.15588362D+00 0.91218708D+05 0.91218708D+05 0.91218708D+05 0.11250124D+01  1  2  1  1  7  1       -3 0.281399863419D-04 0.100000000000D+01
  </mgrwgt>
  </event>
  <event>
  8     66 0.58687835E-06 0.19751665E+03 0.75467711E-02 0.93864592E-01
       -1 -1    0    0    0  501 0.00000000E+00 0.00000000E+00 0.31961921E+03 0.31961937E+03 0.32000000E+00 0.0000E+00 0.9000E+01
        1 -1    0    0  501    0 0.00000000E+00 0.00000000E+00 -.16657680E+03 0.16657710E+03 0.32000000E+00 0.0000E+00 0.9000E+01
       25  2    1    2    0    0 -.96980822E+02 -.44392868E+02 0.12431109E+03 0.34231747E+03 0.30058609E+03 0.0000E+00 0.0000E+00
       23  2    1    2    0    0 0.96980822E+02 0.44392868E+02 0.28731332E+02 0.14387900E+03 0.92193663E+02 0.0000E+00 0.0000E+00
       23  1    3    3    0    0 -.13314532E+02 -.86026235E+02 -.40168487E+02 0.13231231E+03 0.91188000E+02 0.0000E+00 0.9000E+01
      -11  1    4    4    0    0 0.80867306E+02 0.70786222E+02 0.10505324E+02 0.10798413E+03 0.51099893E-03 0.0000E+00 0.9000E+01
       11  1    4    4    0    0 0.16113516E+02 -.26393354E+02 0.18226008E+02 0.35894873E+02 0.51099893E-03 0.0000E+00 0.9000E+01
       23  1    3    3    0    0 -.83666291E+02 0.41633367E+02 0.16447957E+03 0.21000516E+03 0.91188000E+02 0.0000E+00 0.9000E+01
#aMCatNLO 1  0  0  2  2 0.47167811D+03 0.00000000D+00  -5  7  0 0.00000000D+00 0.00000000D+00 0.00000000D+00 0.00000000D+00 0.00000000D+00
  <mgrwgt>
 0.1367210518D-03    5    2    0
 0.230740672315045D+03 0.000000000000000D+00 0.000000000000000D+00 0.230740672315045D+03
 0.230740672315045D+03 0.000000000000000D+00 0.000000000000000D+00 -.230740672315045D+03
 0.152719636797370D+03 -.133145316978328D+02 -.860262348625548D+02 -.861988763300337D+02
 0.110283424690516D+03 0.808673060443860D+02 0.707862221247653D+02 -.247431471703928D+02
 0.317729171078575D+02 0.161135162659235D+02 -.263933541322033D+02 0.729819928082982D+01
 0.166705366034347D+03 -.836662906124767D+02 0.416333668699929D+02 0.103643824219597D+03
 0.000000000000000D+00 -.000000000000000D+00 0.000000000000000D+00 -.000000000000000D+00
 0.501299294513082D+03 0.000000000000000D+00 0.000000000000000D+00 0.501299294513082D+03
 0.654525537420521D+03 0.000000000000000D+00 0.000000000000000D+00 -.654525537420521D+03
 0.209215752053047D+03 0.138732602550516D+03 -.936963087433127D+02 -.861988763300337D+02
 0.236600861948603D+03 0.226591552205511D+03 0.634351086703811D+02 -.247431471703928D+02
 0.632405778236851D+02 0.560281807731613D+02 -.284068641349379D+02 0.729819928082982D+01
 0.150825581885499D+03 0.497267738781788D+02 0.349043044323353D+02 0.103643824219597D+03
 0.495942058222769D+03 -.471079109407367D+03 0.237637597755342D+02 -.153226242907439D+03
0.123741781152D-05 0.000000000000D+00 0.000000000000D+00 0.437542988573D-07 0.000000000000D+00  7 -1 1 23 -11 11 23 21 0 0.49172223D-01 0.25627235D-01 0.39012828D+05 0.39012828D+05 0.39012828D+05 0.11568965D+01  1  2  2  2  7  2        1 0.118748417483D-03 0.100000000000D+01
-.667250811164D-07 0.000000000000D+00 -.475201021581D-08 0.437542988573D-07 0.000000000000D+00  7 -1 1 23 -11 11 23 21 2 0.49172223D-01 0.25627235D-01 0.39012828D+05 0.39012828D+05 0.39012828D+05 0.11568965D+01  1  2  3  2  7  2        1 -.857017324459D-05 0.100000000000D+01
0.814316790069D-07 0.000000000000D+00 0.000000000000D+00 0.437542988573D-07 0.000000000000D+00  7 -1 1 23 -11 11 23 21 2 0.49172223D-01 0.25627235D-01 0.39012828D+05 0.39012828D+05 0.39012828D+05 0.11568965D+01  1  2 15  2  7  2        1 0.104590895209D-04 0.100000000000D+01
0.984393578760D-06 0.000000000000D+00 -.570746475343D-06 0.437542988573D-07 0.000000000000D+00  7 -1 1 23 -11 11 23 21 2 0.49172223D-01 0.14052384D+00 0.39012828D+05 0.39012828D+05 0.39012828D+05 0.11568965D+01  1  2  5  2  7  2        1 0.124433858519D-04 0.100000000000D+01
0.178605220104D-06 0.000000000000D+00 -.118856447606D-06 0.437542988573D-07 0.000000000000D+00  7 -1 21 23 -11 11 23 -1 2 0.49172223D-01 0.14052384D+00 0.39012828D+05 0.39012828D+05 0.39012828D+05 0.11568965D+01  1  2  5  4  7  2        1 0.364033222638D-05 0.100000000000D+01
  </mgrwgt>
  </event>
  <event>
  8     66 0.58687835E-06 0.27342593E+03 0.75467711E-02 0.98290456E-01
       -1 -1    0    0    0  501 0.00000000E+00 0.00000000E+00 0.15931697E+03 0.15931730E+03 0.32000000E+00 0.0000E+00 0.9000E+01
        1 -1    0    0  501    0 0.00000000E+00 0.00000000E+00 -.12020705E+04 0.12020705E+04 0.32000000E+00 0.0000E+00 0.9000E+01
       25  2    1    2    0    0 0.19475039E+03 0.14996468E+01 -.10850922E+04 0.11422201E+04 0.29885049E+03 0.0000E+00 0.0000E+00
       23  2    1    2    0    0 -.19475039E+03 -.14996468E+01 0.42338741E+02 0.21916772E+03 0.91169933E+02 0.0000E+00 0.0000E+00
       23  1    3    3    0    0 -.31978310E+02 0.39925882E+02 -.24290463E+03 0.26445151E+03 0.91188000E+02 0.0000E+00 0.9000E+01
      -11  1    4    4    0    0 -.94566880E+01 0.16188745E+01 -.21190270E+02 0.23261067E+02 0.51099893E-03 0.0000E+00 0.9000E+01
       11  1    4    4    0    0 -.18529370E+03 -.31185213E+01 0.63529010E+02 0.19590665E+03 0.51099893E-03 0.0000E+00 0.9000E+01
       23  1    3    3    0    0 0.22672870E+03 -.38426235E+02 -.84218760E+03 0.87776858E+03 0.91188000E+02 0.0000E+00 0.9000E+01
#aMCatNLO 1  0  0  2  1 0.17666872D+03 0.00000000D+00  -5  7  0 0.00000000D+00 0.00000000D+00 0.00000000D+00 0.00000000D+00 0.00000000D+00
  <mgrwgt>
 0.2014976150D-03    7    2    0
 0.437619101712054D+03 0.000000000000000D+00 0.000000000000000D+00 0.437619101712054D+03
 0.437619101712054D+03 0.000000000000000D+00 0.000000000000000D+00 -.437619101712054D+03
 0.121945550843412D+03 -.319783104912070D+02 0.399258819573518D+02 -.627596816002013D+02
 0.109354288289887D+02 -.945668803372567D+01 0.161887452842397D+01 -.524727551857974D+01
 0.380410748878379D+03 -.185293698846922D+03 -.311852134571400D+01 0.332218087789410D+03
 0.361946474873329D+03 0.226728697371855D+03 -.384262351400618D+02 -.264211130670628D+03
 0.000000000000000D+00 -.000000000000000D+00 0.000000000000000D+00 -.000000000000000D+00
 0.534092676863229D+03 0.000000000000000D+00 0.000000000000000D+00 0.534092676863229D+03
 0.535472099837449D+03 0.000000000000000D+00 0.000000000000000D+00 -.535472099837449D+03
 0.114178729723677D+03 -.148250297575257D+02 0.237270275306938D+02 -.627596816002013D+02
 0.954380294745720D+01 -.796897143368846D+01 0.213936020957858D+00 -.524727551857974D+01
 0.361322498732480D+03 -.131410385384971D+03 -.540037114354590D+02 0.332218087789410D+03
 0.407845639218487D+03 0.282650351036096D+03 -.912363500719723D+02 -.264211130670628D+03
 0.176674106078577D+03 -.128445964459911D+03 0.121299097955780D+03 -.137942297422037D+01
0.100753334870D-04 0.000000000000D+00 0.000000000000D+00 0.420828205318D-06 0.000000000000D+00  7 -1 1 23 -11 11 23 21 0 0.24510332D-01 0.18493395D+00 0.74761739D+05 0.74761739D+05 0.74761739D+05 0.11322379D+01  1  2  2  2  7  2        1 0.186227769506D-03 0.100000000000D+01
-.409200756801D-06 0.000000000000D+00 -.386919334865D-07 0.420828205318D-06 0.000000000000D+00  7 -1 1 23 -11 11 23 21 2 0.24510332D-01 0.18493395D+00 0.74761739D+05 0.74761739D+05 0.74761739D+05 0.11322379D+01  1  2  3  2  7  2        1 -.969609400775D-05 0.100000000000D+01
0.635060612368D-06 0.000000000000D+00 0.000000000000D+00 0.420828205318D-06 0.000000000000D+00  7 -1 1 23 -11 11 23 21 2 0.24510332D-01 0.18493395D+00 0.74761739D+05 0.74761739D+05 0.74761739D+05 0.11322379D+01  1  2 15  2  7  2        1 0.150478885872D-04 0.100000000000D+01
-.406201507698D-05 0.000000000000D+00 0.000000000000D+00 0.420828205318D-06 0.000000000000D+00  7 -1 1 23 -11 11 23 21 2 0.24510332D-01 0.18493395D+00 0.74761739D+05 0.74761739D+05 0.74761739D+05 0.11322379D+01  1  2  4  2  7  2        1 -.962502619867D-04 0.100000000000D+01
-.656366423728D-05 0.000000000000D+00 -.423951431796D-05 0.420828205318D-06 0.000000000000D+00  7 -1 1 23 -11 11 23 21 2 0.24510332D-01 0.25646951D+00 0.74761739D+05 0.74761739D+05 0.74761739D+05 0.11322379D+01  1  2  5  2  7  2        1 -.761139301681D-04 0.100000000000D+01
0.774900217640D-05 0.000000000000D+00 0.402251455004D-05 0.420828205318D-06 0.000000000000D+00  7 -1 1 23 -11 11 23 21 2 0.24510332D-01 0.18493395D+00 0.74761739D+05 0.74761739D+05 0.74761739D+05 0.11322379D+01  1  2  6  2  7  2        1 0.183614160824D-03 0.100000000000D+01
-.161564773128D-06 0.000000000000D+00 -.174390616280D-06 0.420828205318D-06 0.000000000000D+00  7 -1 21 23 -11 11 23 -1 2 0.24510332D-01 0.25646951D+00 0.74761739D+05 0.74761739D+05 0.74761739D+05 0.11322379D+01  1  2  5  4  7  2        1 -.133191770854D-05 0.100000000000D+01
  </mgrwgt>
  </event>
  <event>
  8     66 0.58687835E-06 0.52517161E+03 0.75467711E-02 0.93892952E-01
       -1 -1    0    0    0  501 0.00000000E+00 0.00000000E+00 0.11172161E+04 0.11172162E+04 0.32000000E+00 0.0000E+00 0.9000E+01
        1 -1    0    0  501    0 0.00000000E+00 0.00000000E+00 -.33941918E+03 0.33941933E+03 0.32000000E+00 0.0000E+00 0.9000E+01
       25  2    1    2    0    0 0.13854235E+03 -.47717909E+03 0.75341150E+03 0.95108749E+03 0.30007440E+03 0.0000E+00 0.0000E+00
       23  2    1    2    0    0 -.13854235E+03 0.47717909E+03 0.24385442E+02 0.50554802E+03 0.89945993E+02 0.0000E+00 0.0000E+00
       23  1    3    3    0    0 0.68144710E+01 -.98499770E+02 0.65153660E+02 0.14936162E+03 0.91188000E+02 0.0000E+00 0.9000E+01
      -13  1    4    4    0    0 -.90136879E+01 -.12606385E+01 -.14255292E+01 0.92129841E+01 0.10565837E+00 0.0000E+00 0.9000E+01
       13  1    4    4    0    0 -.12952866E+03 0.47843973E+03 0.25810971E+02 0.49633503E+03 0.10565837E+00 0.0000E+00 0.9000E+01
       23  1    3    3    0    0 0.13172788E+03 -.37867932E+03 0.68825784E+03 0.80172587E+03 0.91188000E+02 0.0000E+00 0.9000E+01
#aMCatNLO 1  0  0  1  1 0.16567821D+02 0.00000000D+00  -5  7  0 0.00000000D+00 0.00000000D+00 0.00000000D+00 0.00000000D+00 0.00000000D+00
  <mgrwgt>
 0.1015509125D-03    4    2    0
 0.615796011330869D+03 0.000000000000000D+00 0.000000000000000D+00 0.615796011330869D+03
 0.615796011330869D+03 0.000000000000000D+00 0.000000000000000D+00 -.615796011330869D+03
 0.135506818117153D+03 0.681447096696754D+01 -.984997701490491D+02 -.172686038306489D+02
 0.117959371712438D+02 -.901352155484199D+01 -.126130046368699D+01 -.750397788300538D+01
 0.570728355539746D+03 -.129528827366784D+03 0.478440391873075D+03 -.282927429074006D+03
 0.513560911833596D+03 0.131727877954658D+03 -.378679321260339D+03 0.307700010787660D+03
 0.000000000000000D+00 -.000000000000000D+00 0.000000000000000D+00 -.000000000000000D+00
 0.621574993279195D+03 0.000000000000000D+00 0.000000000000000D+00 0.621574993279195D+03
 0.627841941210541D+03 0.000000000000000D+00 0.000000000000000D+00 -.627841941210541D+03
 0.136189005817767D+03 0.845224299577687D+01 -.993103663859530D+02 -.172686038306489D+02
 0.116958596566406D+02 -.887191390260072D+01 -.133138752586927D+01 -.750397788300538D+01
 0.566363380250993D+03 -.122674481900236D+03 0.475047913222880D+03 -.282927429074006D+03
 0.517455210052704D+03 0.137942803680132D+03 -.381755326538906D+03 0.307700010787660D+03
 0.177134787116326D+02 -.148486508730720D+02 0.734916722784805D+01 -.626694793134595D+01
0.792537380620D-04 0.000000000000D+00 0.000000000000D+00 0.258609165970D-05 0.000000000000D+00  7 -1 1 23 -13 13 23 21 0 0.17187942D+00 0.52218351D-01 0.27580522D+06 0.27580522D+06 0.27580522D+06 0.10872641D+01  1  2  2  1  7  1       -1 0.173262454755D-03 0.100000000000D+01
-.426732164795D-05 0.000000000000D+00 -.304355222146D-06 0.258609165970D-05 0.000000000000D+00  7 -1 1 23 -13 13 23 21 2 0.17187942D+00 0.52218351D-01 0.27580522D+06 0.27580522D+06 0.27580522D+06 0.10872641D+01  1  2  3  1  7  1       -1 -.110283402903D-04 0.100000000000D+01
0.492146719609D-05 0.000000000000D+00 0.000000000000D+00 0.258609165970D-05 0.000000000000D+00  7 -1 1 23 -13 13 23 21 2 0.17187942D+00 0.52218351D-01 0.27580522D+06 0.27580522D+06 0.27580522D+06 0.10872641D+01  1  2 15  1  7  1       -1 0.127188947644D-04 0.100000000000D+01
-.284023114919D-04 0.000000000000D+00 0.000000000000D+00 0.258609165970D-05 0.000000000000D+00  7 -1 1 23 -13 13 23 21 2 0.17187942D+00 0.52218351D-01 0.27580522D+06 0.27580522D+06 0.27580522D+06 0.10872641D+01  1  2  4  1  7  1       -1 -.734020966790D-04 0.100000000000D+01
  </mgrwgt>
  </event>
  <event>
  9     66 -.58687835E-06 0.51349702E+03 0.75467711E-02 0.94223659E-01
       -1 -1    0    0    0  501 0.00000000E+00 0.00000000E+00 0.77580611E+03 0.77580618E+03 0.32000000E+00 0.0000E+00 0.9000E+01
        1 -1    0    0  502    0 0.00000000E+00 0.00000000E+00 -.38750785E+03 0.38750798E+03 0.32000000E+00 0.0000E+00 0.9000E+01
       25  2    1    2    0    0 -.17113458E+03 -.44196242E+03 0.60463819E+02 0.56464221E+03 0.30091049E+03 0.0000E+00 0.0000E+00
       23  2    1    2    0    0 0.16921646E+03 0.45102802E+03 0.32590166E+03 0.58917656E+03 0.94109749E+02 0.0000E+00 0.0000E+00
       23  1    3    3    0    0 -.13709763E+03 -.10781248E+03 0.87853026E+02 0.21552888E+03 0.91188000E+02 0.0000E+00 0.9000E+01
      -11  1    4    4    0    0 0.14673269E+03 0.40794858E+03 0.32274870E+03 0.54048057E+03 0.51099893E-03 0.0000E+00 0.9000E+01
       11  1    4    4    0    0 0.22483769E+02 0.43079441E+02 0.31529556E+01 0.48695988E+02 0.51099893E-03 0.0000E+00 0.9000E+01
       23  1    3    3    0    0 -.34036949E+02 -.33414994E+03 -.27389207E+02 0.34911333E+03 0.91188000E+02 0.0000E+00 0.9000E+01
       21  1    1    2  502  501 0.19181213E+01 -.90655989E+01 0.19327926E+01 0.94953915E+01 0.75000000E+00 0.0000E+00 0.9000E+01
#aMCatNLO 2  0  0  2  1 0.92662977D+01 0.00000000D+00  -5  7  0 0.00000000D+00 0.00000000D+00 0.00000000D+00 0.00000000D+00 0.00000000D+00
  <mgrwgt>
 -.4164273353D-04    3    2    0
 0.543583848910375D+03 0.000000000000000D+00 0.000000000000000D+00 0.543583848910375D+03
 0.543583848910375D+03 0.000000000000000D+00 0.000000000000000D+00 -.543583848910375D+03
 0.198177614172313D+03 -.136748572980327D+03 -.109462227900267D+03 0.166422314003969D+02
 0.455772210834017D+03 0.147539564466485D+03 0.404135051780807D+03 0.150450141268432D+03
 0.502413172813634D+02 0.225726900207571D+02 0.426591750913434D+02 -.139591693133779D+02
 0.382976555533056D+03 -.333636815069150D+02 -.337331998971884D+03 -.153133203355451D+03
 0.000000000000000D+00 0.000000000000000D+00 -.000000000000000D+00 -.000000000000000D+00
 0.547622154204507D+03 0.000000000000000D+00 0.000000000000000D+00 0.547622154204507D+03
 0.548945323983530D+03 0.000000000000000D+00 0.000000000000000D+00 -.548945323983530D+03
 0.197513305955253D+03 -.137097631085074D+03 -.107812477804056D+03 0.166422314003969D+02
 0.458898430995893D+03 0.146732689240230D+03 0.407948578709536D+03 0.150450141268432D+03
 0.505590399317583D+02 0.224837691487914D+02 0.430794409871512D+02 -.139591693133779D+02
 0.380236410114029D+03 -.340369485892666D+02 -.334149942979546D+03 -.153133203355451D+03
 0.936029119110347D+01 0.191812128531980D+01 -.906559891308532D+01 -.132316977902257D+01
-.824479523931D-05 0.000000000000D+00 0.000000000000D+00 0.142499753986D-06 0.000000000000D+00  7 -1 1 23 -11 11 23 21 2 0.11847141D+00 0.59832360D-01 0.26845001D+06 0.26845001D+06 0.26845001D+06 0.10881403D+01  1  2 13  2  7  2        1 -.501743599668D-04 0.100000000000D+01
-.162696755208D-03 0.000000000000D+00 0.000000000000D+00 0.142499753986D-06 0.000000000000D+00  7 -1 1 23 -11 11 23 21 2 0.11847141D+00 0.59032724D-01 0.26367919D+06 0.26367919D+06 0.26367919D+06 0.10887229D+01  1  2  8  2  7  2        1 -.101005048015D-02 0.100000000000D+01
0.169605779746D-03 0.000000000000D+00 0.000000000000D+00 0.142499753986D-06 0.104812451701D-07  7 -1 1 23 -11 11 23 21 2 0.11935154D+00 0.59614976D-01 0.26845001D+06 0.26845001D+06 0.26845001D+06 0.10881403D+01  1  2  1  2  7  2        1 0.101858210659D-02 0.100000000000D+01
  </mgrwgt>
  </event>
  <event>
  8     66 0.58687835E-06 0.25838736E+03 0.75467711E-02 0.88240571E-01
       -1 -1    0    0    0  501 0.00000000E+00 0.00000000E+00 0.75640614E+03 0.75640620E+03 0.32000000E+00 0.0000E+00 0.9000E+01
        1 -1    0    0  501    0 0.00000000E+00 0.00000000E+00 -.94106668E+02 0.94107212E+02 0.32000000E+00 0.0000E+00 0.9000E+01
       25  2    1    2    0    0 -.14930648E+03 -.50873523E+02 0.43419313E+03 0.55861037E+03 0.31407217E+03 0.0000E+00 0.0000E+00
       23  2    1    2    0    0 0.14930648E+03 0.50873523E+02 0.22810634E+03 0.29190304E+03 0.91073300E+02 0.0000E+00 0.0000E+00
       23  1    3    3    0    0 0.46482419E+02 -.60027895E+02 0.78154914E+02 0.14208239E+03 0.91188000E+02 0.0000E+00 0.9000E+01
      -13  1    4    4    0    0 0.67247539E+02 -.23458601E+02 0.95984980E+02 0.11952266E+03 0.10565837E+00 0.0000E+00 0.9000E+01
       13  1    4    4    0    0 0.82058942E+02 0.74332124E+02 0.13212136E+03 0.17238039E+03 0.10565837E+00 0.0000E+00 0.9000E+01
       23  1    3    3    0    0 -.19578890E+03 0.91543717E+01 0.35603822E+03 0.41652798E+03 0.91188000E+02 0.0000E+00 0.9000E+01
#aMCatNLO 1  0  0  2  2 0.84378976D+03 0.00000000D+00  -5  7  0 0.00000000D+00 0.00000000D+00 0.00000000D+00 0.00000000D+00 0.00000000D+00
  <mgrwgt>
 0.6697128702D-04    5    2    0
 0.266801651036270D+03 0.000000000000000D+00 0.000000000000000D+00 0.266801651036270D+03
 0.266801651036270D+03 0.000000000000000D+00 0.000000000000000D+00 -.266801651036270D+03
 0.129460558960295D+03 0.464809345403319D+02 -.600276852636826D+02 -.517782262003412D+02
 0.713732670586348D+02 0.672480135706755D+02 -.234585636777593D+02 0.464152039723557D+01
 0.110772093732605D+03 0.820597301214268D+02 0.743325171175807D+02 -.336665134344109D+01
 0.221997382321005D+03 -.195788678232434D+03 0.915373182386123D+01 0.505033571465467D+02
 0.000000000000000D+00 -.000000000000000D+00 -.000000000000000D+00 -.000000000000000D+00
 0.844509712919632D+03 0.000000000000000D+00 0.000000000000000D+00 0.844509712919632D+03
 0.101461013059644D+04 0.000000000000000D+00 0.000000000000000D+00 -.101461013059644D+04
 0.197887893567036D+03 0.138205494792717D+03 0.951978128795243D+02 -.517782262003412D+02
 0.155699306404454D+03 0.130874805710590D+03 0.842170738831822D+02 0.464152039723557D+01
 0.374460151885031D+03 0.218024064169528D+03 0.304424996430144D+03 -.336665134344109D+01
 0.270308116563292D+03 -.578423856920010D+02 0.242600280029476D+03 0.505033571465467D+02
 0.860764375096255D+03 -.429261978980835D+03 -.726440163222327D+03 -.170100417676803D+03
0.163174199573D-05 0.000000000000D+00 0.000000000000D+00 0.219662829933D-09 0.000000000000D+00  7 -1 1 23 -13 13 23 21 0 0.11637022D+00 0.14477996D-01 0.66764026D+05 0.66764026D+05 0.66764026D+05 0.11364112D+01  1  2  2  2  7  2        1 0.585208314283D-04 0.100000000000D+01
-.905391454869D-07 0.000000000000D+00 -.626631891114D-08 0.219662829933D-09 0.000000000000D+00  7 -1 1 23 -13 13 23 21 2 0.11637022D+00 0.14477996D-01 0.66764026D+05 0.66764026D+05 0.66764026D+05 0.11364112D+01  1  2  3  2  7  2        1 -.419340102421D-05 0.100000000000D+01
0.107016561469D-06 0.000000000000D+00 0.000000000000D+00 0.219662829933D-09 0.000000000000D+00  7 -1 1 23 -13 13 23 21 2 0.11637022D+00 0.14477996D-01 0.66764026D+05 0.66764026D+05 0.66764026D+05 0.11364112D+01  1  2 15  2  7  2        1 0.495656719598D-05 0.100000000000D+01
0.383480559581D-05 0.000000000000D+00 -.140290833044D-05 0.219662829933D-09 0.000000000000D+00  7 -1 1 23 -13 13 23 21 2 0.11637022D+00 0.16767761D+00 0.66764026D+05 0.66764026D+05 0.66764026D+05 0.11364112D+01  1  2  5  2  7  2        1 0.601725909639D-05 0.100000000000D+01
0.840717640336D-06 0.000000000000D+00 -.401831546501D-06 0.219662829933D-09 0.000000000000D+00  7 -1 21 23 -13 13 23 -1 2 0.11637022D+00 0.16767761D+00 0.66764026D+05 0.66764026D+05 0.66764026D+05 0.11364112D+01  1  2  5  4  7  2        1 0.167003032818D-05 0.100000000000D+01
  </mgrwgt>
  </event>
  <event>
  8     66 0.58687835E-06 0.11189993E+03 0.75467711E-02 0.10405607E+00
       -1 -1    0    0    0  501 0.00000000E+00 0.00000000E+00 0.59645628E+02 0.59646486E+02 0.32000000E+00 0.0000E+00 0.9000E+01
        1 -1    0    0  501    0 0.00000000E+00 0.00000000E+00 -.25477172E+04 0.25477173E+04 0.32000000E+00 0.0000E+00 0.9000E+01
       25  2    1    2    0    0 -.11483478E+03 0.59239696E+02 -.41684636E+03 0.53017926E+03 0.30105280E+03 0.0000E+00 0.0000E+00
       23  2    1    2    0    0 0.11483478E+03 -.59239696E+02 -.20712252E+04 0.20771845E+04 0.89582257E+02 0.0000E+00 0.0000E+00
       23  1    3    3    0    0 -.26365465E+02 -.90538615E+02 -.17024407E+03 0.21492016E+03 0.91188000E+02 0.0000E+00 0.9000E+01
      -11  1    4    4    0    0 0.97139514E+02 -.48956867E+02 -.20030997E+04 0.20060512E+04 0.51099893E-03 0.0000E+00 0.9000E+01
       11  1    4    4    0    0 0.17695265E+02 -.10282828E+02 -.68125548E+02 0.71133320E+02 0.51099893E-03 0.0000E+00 0.9000E+01
       23  1    3    3    0    0 -.88469314E+02 0.14977831E+03 -.24660229E+03 0.31525910E+03 0.91188000E+02 0.0000E+00 0.9000E+01
#aMCatNLO 1  0  0  2  1 0.11308646D+02 0.00000000D+00  -5  7  0 0.00000000D+00 0.00000000D+00 0.00000000D+00 0.00000000D+00 0.00000000D+00
  <mgrwgt>
 0.5561763446D-03    9    2    0
 0.389822189213343D+03 0.000000000000000D+00 0.000000000000000D+00 0.389822189213343D+03
 0.389822189213343D+03 0.000000000000000D+00 0.000000000000000D+00 -.389822189213343D+03
 0.175458949362217D+03 -.263654647937280D+02 -.905386149054461D+02 0.116525589655264D+03
 0.316361641060624D+03 0.971395136553214D+02 -.489568674178289D+02 -.297072092183045D+03
 0.204826695333477D+02 0.176952646525688D+02 -.102828283894929D+02 -.825106296254319D+00
 0.267341118470497D+03 -.884693135141622D+02 0.149778310712768D+03 0.181371608824035D+03
 0.000000000000000D+00 -.000000000000000D+00 -.000000000000000D+00 -.000000000000000D+00
 0.391828648438315D+03 0.000000000000000D+00 0.000000000000000D+00 0.391828648438315D+03
 0.406129853670874D+03 0.000000000000000D+00 0.000000000000000D+00 -.406129853670874D+03
 0.174817410290310D+03 -.238865568115360D+02 -.899838594181910D+02 0.116525589655264D+03
 0.317614824888018D+03 0.101626169059417D+03 -.479527975924359D+02 -.297072092183045D+03
 0.207027233954876D+02 0.179867339352298D+02 -.102176003999572D+02 -.825106296254319D+00
 0.266591430793796D+03 -.846906695324891D+02 0.150623934470598D+03 0.181371608824035D+03
 0.182321127415778D+02 -.110356766506216D+02 -.246967706001410D+01 -.143012052325588D+02
0.124890241892D-04 0.000000000000D+00 0.000000000000D+00 0.136763302825D-06 0.000000000000D+00  7 -1 1 23 -11 11 23 21 0 0.91763180D-02 0.39195656D+00 0.52173322D+05 0.52173322D+05 0.52173322D+05 0.11456736D+01  1  2  2  2  7  2        1 0.140119610675D-03 0.100000000000D+01
-.452801131058D-06 0.000000000000D+00 -.479611413223D-07 0.136763302825D-06 0.000000000000D+00  7 -1 1 23 -11 11 23 21 2 0.91763180D-02 0.39195656D+00 0.52173322D+05 0.52173322D+05 0.52173322D+05 0.11456736D+01  1  2  3  2  7  2        1 -.666806317306D-05 0.100000000000D+01
0.791187854604D-06 0.000000000000D+00 0.000000000000D+00 0.136763302825D-06 0.000000000000D+00  7 -1 1 23 -11 11 23 21 2 0.91763180D-02 0.39195656D+00 0.52173322D+05 0.52173322D+05 0.52173322D+05 0.11456736D+01  1  2 15  2  7  2        1 0.116512310469D-04 0.100000000000D+01
0.475599717192D-04 0.000000000000D+00 0.000000000000D+00 0.136763302825D-06 0.000000000000D+00  7 -1 1 23 -11 11 23 21 2 0.91763180D-02 0.40933743D+00 0.55241449D+05 0.55241449D+05 0.55241449D+05 0.11435065D+01  1  2 12  2  7  2        1 0.582269390285D-03 0.100000000000D+01
-.484768863577D-04 0.000000000000D+00 0.000000000000D+00 0.136763302825D-06 0.000000000000D+00  7 -1 1 23 -11 11 23 21 2 0.91763180D-02 0.39195656D+00 0.52173322D+05 0.52173322D+05 0.52173322D+05 0.11456736D+01  1  2  4  2  7  2        1 -.713882803056D-03 0.100000000000D+01
-.225283262090D-03 0.000000000000D+00 -.249146849476D-04 0.136763302825D-06 0.000000000000D+00  7 -1 1 23 -11 11 23 21 2 0.91763180D-02 0.40900405D+00 0.52173322D+05 0.52173322D+05 0.52173322D+05 0.11456736D+01  1  2  5  2  7  2        1 -.278463381148D-02 0.100000000000D+01
0.226161548011D-03 0.000000000000D+00 0.248921224445D-04 0.136763302825D-06 0.000000000000D+00  7 -1 1 23 -11 11 23 21 2 0.91763180D-02 0.39195656D+00 0.52173322D+05 0.52173322D+05 0.52173322D+05 0.11456736D+01  1  2  6  2  7  2        1 0.333051175453D-02 0.100000000000D+01
0.902095004509D-06 0.000000000000D+00 0.000000000000D+00 0.136763302825D-06 0.000000000000D+00  7 -1 21 23 -11 11 23 -1 2 0.91763180D-02 0.40933743D+00 0.55241449D+05 0.55241449D+05 0.55241449D+05 0.11435065D+01  1  2 12  4  7  2        1 0.361793955150D-05 0.100000000000D+01
-.167283983409D-05 0.000000000000D+00 -.186778606906D-06 0.136763302825D-06 0.000000000000D+00  7 -1 21 23 -11 11 23 -1 2 0.91763180D-02 0.40900405D+00 0.52173322D+05 0.52173322D+05 0.52173322D+05 0.11456736D+01  1  2  5  4  7  2        1 -.680890381516D-05 0.100000000000D+01
  </mgrwgt>
  </event>
  <event>
  8     66 0.58687835E-06 0.34830079E+03 0.75467711E-02 0.94937880E-01
       -1 -1    0    0    0  501 0.00000000E+00 0.00000000E+00 0.11688142E+03 0.11688185E+03 0.32000000E+00 0.0000E+00 0.9000E+01
        1 -1    0    0  501    0 0.00000000E+00 0.00000000E+00 -.11572713E+04 0.11572713E+04 0.32000000E+00 0.0000E+00 0.9000E+01
       25  2    1    2    0    0 -.25397806E+03 0.14158261E+03 -.72948415E+03 0.83882903E+03 0.29484999E+03 0.0000E+00 0.0000E+00
       23  2    1    2    0    0 0.25397806E+03 -.14158261E+03 -.31090572E+03 0.43532417E+03 0.91072881E+02 0.0000E+00 0.0000E+00
       23  1    3    3    0    0 0.29709555E+01 -.13371382E+02 -.24422307E+03 0.26105130E+03 0.91188000E+02 0.0000E+00 0.9000E+01
      -13  1    4    4    0    0 0.58379959E+02 -.31458048E+02 -.13404358E+03 0.14955107E+03 0.10565837E+00 0.0000E+00 0.9000E+01
       13  1    4    4    0    0 0.19559810E+03 -.11012456E+03 -.17686214E+03 0.28577310E+03 0.10565837E+00 0.0000E+00 0.9000E+01
       23  1    3    3    0    0 -.25694902E+03 0.15495399E+03 -.48526108E+03 0.57777773E+03 0.91188000E+02 0.0000E+00 0.9000E+01
#aMCatNLO 1  0  0  1  1 0.23652829D+03 0.00000000D+00  -5  7  0 0.00000000D+00 0.00000000D+00 0.00000000D+00 0.00000000D+00 0.00000000D+00
  <mgrwgt>
 0.7528557729D-03    7    2    0
 0.367782293301913D+03 0.000000000000000D+00 0.000000000000000D+00 0.367782293301913D+03
 0.367782293301913D+03 0.000000000000000D+00 0.000000000000000D+00 -.367782293301913D+03
 0.106764430067219D+03 0.297095544969766D+01 -.133713821937078D+02 -.538123753938043D+02
 0.694612140441629D+02 0.583797747043199D+02 -.314579422982693D+02 -.206654307557484D+02
 0.244864013981740D+03 0.195598285531176D+03 -.110124664712395D+03 0.978378978847009D+02
 0.314474928510705D+03 -.256949015685194D+03 0.154953989204372D+03 -.233600917351481D+02
 0.000000000000000D+00 -.000000000000000D+00 -.000000000000000D+00 0.000000000000000D+00
 0.517853173194937D+03 0.000000000000000D+00 0.000000000000000D+00 0.517853173194937D+03
 0.492670266476676D+03 0.000000000000000D+00 0.000000000000000D+00 -.492670266476676D+03
 0.109401804118280D+03 0.242565286253017D+02 0.130135496257092D+02 -.538123753938043D+02
 0.768780533575672D+02 0.727895885056317D+02 -.135959870884435D+02 -.206654307557484D+02
 0.269142919862311D+03 0.246211797138714D+03 -.473857362424426D+02 0.978378978847009D+02
 0.317235551551316D+03 -.194745407893158D+03 0.232059638978261D+03 -.233600917351481D+02
 0.237865110782137D+03 -.148512506376489D+03 -.184091465273084D+03 0.251829067182610D+02
0.215211900807D-04 0.000000000000D+00 0.000000000000D+00 0.271083063416D-07 0.000000000000D+00  7 -1 1 23 -13 13 23 21 0 0.17981793D-01 0.17804177D+00 0.12131344D+06 0.12131344D+06 0.12131344D+06 0.11149007D+01  1  2  2  1  7  1       -1 0.696464975416D-03 0.100000000000D+01
-.119131573436D-05 0.000000000000D+00 -.826470365694D-07 0.271083063416D-07 0.000000000000D+00  7 -1 1 23 -13 13 23 21 2 0.17981793D-01 0.17804177D+00 0.12131344D+06 0.12131344D+06 0.12131344D+06 0.11149007D+01  1  2  3  1  7  1       -1 -.479217039805D-04 0.100000000000D+01
0.139763352932D-05 0.000000000000D+00 0.000000000000D+00 0.271083063416D-07 0.000000000000D+00  7 -1 1 23 -13 13 23 21 2 0.17981793D-01 0.17804177D+00 0.12131344D+06 0.12131344D+06 0.12131344D+06 0.11149007D+01  1  2 15  1  7  1       -1 0.562210154145D-04 0.100000000000D+01
-.672049987863D-05 0.000000000000D+00 0.000000000000D+00 0.271083063416D-07 0.000000000000D+00  7 -1 1 23 -13 13 23 21 2 0.17981793D-01 0.17804177D+00 0.12131344D+06 0.12131344D+06 0.12131344D+06 0.11149007D+01  1  2  4  1  7  1       -1 -.270337910006D-03 0.100000000000D+01
-.693163529315D-05 0.000000000000D+00 -.722694340654D-05 0.271083063416D-07 0.000000000000D+00  7 -1 1 23 -13 13 23 21 2 0.34203138D-01 0.17804177D+00 0.12131344D+06 0.12131344D+06 0.12131344D+06 0.11149007D+01  1  2  5  1  7  1       -1 -.970757654129D-04 0.100000000000D+01
0.105870421535D-04 0.000000000000D+00 0.595340949623D-05 0.271083063416D-07 0.000000000000D+00  7 -1 1 23 -13 13 23 21 2 0.17981793D-01 0.17804177D+00 0.12131344D+06 0.12131344D+06 0.12131344D+06 0.11149007D+01  1  2  6  1  7  1       -1 0.425872911331D-03 0.100000000000D+01
-.709997267701D-07 0.000000000000D+00 -.504823887023D-06 0.271083063416D-07 0.000000000000D+00  7 21 1 23 -13 13 23 1 2 0.34203138D-01 0.17804177D+00 0.12131344D+06 0.12131344D+06 0.12131344D+06 0.11149007D+01  1  2  5  3  7  1       -1 -.103677498146D-04 0.100000000000D+01
  </mgrwgt>
  </event>
  <event>
  9     66 0.58687835E-06 0.21294285E+03 0.75467711E-02 0.94636481E-01
       -1 -1    0    0    0  502 0.00000000E+00 0.00000000E+00 0.57790895E+03 0.57790903E+03 0.32000000E+00 0.0000E+00 0.9000E+01
        1 -1    0    0  501    0 0.00000000E+00 0.00000000E+00 -.95852982E+03 0.95852988E+03 0.32000000E+00 0.0000E+00 0.9000E+01
       25  2    1    2    0    0 -.22438448E+03 0.35739254E+03 -.18758081E+03 0.55097079E+03 0.30050695E+03 0.0000E+00 0.0000E+00
       23  2    1    2    0    0 -.22815857E+02 -.43455798E+01 -.46750473E+03 0.47450668E+03 0.77823316E+02 0.0000E+00 0.0000E+00
       23  1    3    3    0    0 0.52771965E+01 0.14230598E+03 -.14080933E+03 0.22004854E+03 0.91188000E+02 0.0000E+00 0.9000E+01
      -13  1    4    4    0    0 0.50344944E+01 -.31833574E+02 -.10343148E+03 0.10833654E+03 0.10565837E+00 0.0000E+00 0.9000E+01
       13  1    4    4    0    0 -.27850352E+02 0.27487995E+02 -.36407325E+03 0.36617015E+03 0.10565837E+00 0.0000E+00 0.9000E+01
       23  1    3    3    0    0 -.22966168E+03 0.21508656E+03 -.46771484E+02 0.33092225E+03 0.91188000E+02 0.0000E+00 0.9000E+01
       21  1    1    2  501  502 0.24720034E+03 -.35304697E+03 0.27446467E+03 0.51096143E+03 0.75000000E+00 0.0000E+00 0.9000E+01
#aMCatNLO 2  0  0  1  1 0.43098743D+03 0.00000000D+00  -5  7  0 0.00000000D+00 0.00000000D+00 0.00000000D+00 0.00000000D+00 0.00000000D+00
  <mgrwgt>
 0.3022275461D-04    1    2    0
 0.330422765345524D+03 0.000000000000000D+00 0.000000000000000D+00 0.330422765345524D+03
 0.330422765345524D+03 0.000000000000000D+00 0.000000000000000D+00 -.330422765345524D+03
 0.127830924611858D+03 0.559051448598318D+02 0.700000811578623D+02 -.312024384270259D+00
 0.844726393648205D+02 0.288038911362089D+02 -.657806110157695D+02 -.444845351899341D+02
 0.182207574899639D+03 0.328243657603435D+02 -.591664960634790D+02 -.169178861288309D+03
 0.266334391814731D+03 -.117533401756384D+03 0.549470259213862D+02 0.213975420862513D+03
 0.000000000000000D+00 0.000000000000000D+00 -.000000000000000D+00 0.000000000000000D+00
 0.123099411874019D+04 0.000000000000000D+00 0.000000000000000D+00 0.123099411874019D+04
 0.449996234400344D+03 0.000000000000000D+00 0.000000000000000D+00 -.449996234400344D+03
 0.169098168704200D+03 0.527719608352410D+01 0.142305984264168D+03 -.312024384270259D+00
 0.549327223225465D+02 0.503455472046674D+01 -.318336829391156D+02 -.444845351899341D+02
 0.173645409758073D+03 -.278504117696916D+02 0.274881026536710D+02 -.169178861288309D+03
 0.391289466474644D+03 -.229661676691415D+03 0.215086561077185D+03 0.213975420862513D+03
 0.892024585881067D+03 0.247200337657116D+03 -.353046965055909D+03 0.780997884339842D+03
0.982192635302D-05 0.000000000000D+00 0.000000000000D+00 0.464503365802D-08 0.315955059265D-12  7 -1 1 23 -13 13 23 21 2 0.88909051D-01 0.14746609D+00 0.24952325D+06 0.24952325D+06 0.24952325D+06 0.10905215D+01  1  2  1  1  7  1       -1 0.302227546113D-04 0.100000000000D+01
  </mgrwgt>
  </event>
  <event>
  8     66 0.58687835E-06 0.75165366E+03 0.75467711E-02 0.82252824E-01
       -1 -1    0    0    0  501 0.00000000E+00 0.00000000E+00 0.76912775E+03 0.76912782E+03 0.32000000E+00 0.0000E+00 0.9000E+01
        1 -1    0    0  501    0 0.00000000E+00 0.00000000E+00 -.94815555E+03 0.94815561E+03 0.32000000E+00 0.0000E+00 0.9000E+01
       25  2    1    2    0    0 0.71364899E+03 0.12875762E+03 -.48797204E+03 0.92411248E+03 0.29998961E+03 0.0000E+00 0.0000E+00
       23  2    1    2    0    0 -.71364899E+03 -.12875762E+03 0.30894423E+03 0.79317094E+03 0.88318783E+02 0.0000E+00 0.0000E+00
       23  1    3    3    0    0 0.39541054E+03 -.35204728E+02 -.18977552E+03 0.44935383E+03 0.91188000E+02 0.0000E+00 0.9000E+01
      -13  1    4    4    0    0 -.59548553E+03 -.12430936E+03 0.22695513E+03 0.64927997E+03 0.10565837E+00 0.0000E+00 0.9000E+01
       13  1    4    4    0    0 -.11816346E+03 -.44482569E+01 0.81989095E+02 0.14389097E+03 0.10565837E+00 0.0000E+00 0.9000E+01
       23  1    3    3    0    0 0.31823845E+03 0.16396235E+03 -.29819652E+03 0.47475865E+03 0.91188000E+02 0.0000E+00 0.9000E+01
#aMCatNLO 1  0  0  1  1 0.14935160D+04 0.00000000D+00  -5  7  0 0.00000000D+00 0.00000000D+00 0.00000000D+00 0.00000000D+00 0.00000000D+00
  <mgrwgt>
 0.4691548010D-03    5    2    0
 0.853963026819524D+03 0.000000000000000D+00 0.000000000000000D+00 0.853963026819524D+03
 0.853963026819524D+03 0.000000000000000D+00 0.000000000000000D+00 -.853963026819524D+03
 0.431923144182916D+03 0.395410538214723D+03 -.352047277418337D+02 -.143713202421428D+03
 0.676627824949909D+03 -.595486215372474D+03 -.124309534525327D+03 0.296257523826667D+03
 0.153272813232445D+03 -.118162771995949D+03 -.444808534532904D+01 0.975209163573736D+02
 0.446102271273778D+03 0.318238449153701D+03 0.163962347612489D+03 -.250065237762612D+03
 0.000000000000000D+00 0.000000000000000D+00 0.000000000000000D+00 0.000000000000000D+00
 0.211514474325839D+04 0.000000000000000D+00 0.000000000000000D+00 0.211514474325839D+04
 0.170302175542155D+04 0.000000000000000D+00 0.000000000000000D+00 -.170302175542155D+04
 0.269573146806956D+03 0.154197911474720D+03 -.141152221668725D+03 -.143713202421428D+03
 0.141932411223800D+04 -.131618863216856D+04 -.440862676699358D+03 0.296257523826667D+03
 0.299779258904005D+03 -.273946746585221D+03 -.728728685947320D+02 0.975209163573736D+02
 0.280156109599797D+03 0.685112674244019D+02 0.542750172798076D+02 -.250065237762612D+03
 0.154933387113118D+04 0.136742619985466D+04 0.600612749683008D+03 0.412122987836845D+03
0.350921205606D-03 0.000000000000D+00 0.000000000000D+00 0.123861445271D-05 0.000000000000D+00  7 -1 1 23 -13 13 23 21 0 0.11832736D+00 0.14587009D+00 0.56498322D+06 0.56498322D+06 0.56498322D+06 0.10647801D+01  1  2  2  1  7  1       -1 0.461918528097D-03 0.100000000000D+01
-.191096083219D-04 0.000000000000D+00 -.134762982920D-05 0.123861445271D-05 0.000000000000D+00  7 -1 1 23 -13 13 23 21 2 0.11832736D+00 0.14587009D+00 0.56498322D+06 0.56498322D+06 0.56498322D+06 0.10647801D+01  1  2  3  1  7  1       -1 -.285185477268D-04 0.100000000000D+01
0.230309134018D-04 0.000000000000D+00 0.000000000000D+00 0.123861445271D-05 0.000000000000D+00  7 -1 1 23 -13 13 23 21 2 0.11832736D+00 0.14587009D+00 0.56498322D+06 0.56498322D+06 0.56498322D+06 0.10647801D+01  1  2 15  1  7  1       -1 0.343705737959D-04 0.100000000000D+01
0.909151723164D-04 0.000000000000D+00 -.110002488376D-03 0.123861445271D-05 0.000000000000D+00  7 -1 1 23 -13 13 23 21 2 0.41803515D+00 0.14587009D+00 0.56498322D+06 0.56498322D+06 0.56498322D+06 0.10647801D+01  1  2  5  1  7  1       -1 0.336885226931D-06 0.100000000000D+01
0.168165873205D-04 0.000000000000D+00 -.162677605849D-04 0.123861445271D-05 0.000000000000D+00  7 21 1 23 -13 13 23 1 2 0.41803515D+00 0.14587009D+00 0.56498322D+06 0.56498322D+06 0.56498322D+06 0.10647801D+01  1  2  5  3  7  1       -1 0.104736162793D-05 0.100000000000D+01
  </mgrwgt>
  </event>
  <event>
  8     66 0.58687835E-06 0.24098637E+03 0.75467711E-02 0.93683755E-01
       -3 -1    0    0    0  501 0.00000000E+00 0.00000000E+00 0.11017228E+04 0.11017229E+04 0.50000000E+00 0.0000E+00 0.9000E+01
        3 -1    0    0  501    0 0.00000000E+00 0.00000000E+00 -.22164462E+03 0.22164518E+03 0.50000000E+00 0.0000E+00 0.9000E+01
       25  2    1    2    0    0 0.17297534E+03 0.25930189E+03 0.53575723E+02 0.43458689E+03 0.29805615E+03 0.0000E+00 0.0000E+00
       23  2    1    2    0    0 -.17297534E+03 -.25930189E+03 0.82650244E+03 0.88878118E+03 0.98324813E+02 0.0000E+00 0.0000E+00
       23  1    3    3    0    0 -.46106530E+02 0.88942813E+02 0.43540070E+02 0.14229415E+03 0.91188000E+02 0.0000E+00 0.9000E+01
      -13  1    4    4    0    0 -.23285948E+02 -.14498415E+02 0.17155878E+03 0.17373792E+03 0.10565837E+00 0.0000E+00 0.9000E+01
       13  1    4    4    0    0 -.14968939E+03 -.24480348E+03 0.65494366E+03 0.71504326E+03 0.10565837E+00 0.0000E+00 0.9000E+01
       23  1    3    3    0    0 0.21908187E+03 0.17035908E+03 0.10035653E+02 0.29229274E+03 0.91188000E+02 0.0000E+00 0.9000E+01
#aMCatNLO 1  0  0  1  2 0.30002515D+03 0.00000000D+00  -5  7  0 0.00000000D+00 0.00000000D+00 0.00000000D+00 0.00000000D+00 0.00000000D+00
  <mgrwgt>
 0.2149195688D-04    7    2    0
 0.494157232707682D+03 0.000000000000000D+00 0.000000000000000D+00 0.494157232707682D+03
 0.494157232707682D+03 0.000000000000000D+00 0.000000000000000D+00 -.494157232707682D+03
 0.151762294205008D+03 -.461065297155336D+02 0.889428135906025D+02 -.684098415912887D+02
 0.798670359781612D+02 -.232858028036499D+02 -.144981516036257D+02 0.750087889770573D+02
 0.374237306630221D+03 -.149689535381148D+03 -.244803739720579D+03 0.240245153312271D+03
 0.382447828601975D+03 0.219081867900332D+03 0.170359077733602D+03 -.246844100698040D+03
 0.000000000000000D+00 0.000000000000000D+00 -.000000000000000D+00 0.000000000000000D+00
 0.119614809785076D+04 0.000000000000000D+00 0.000000000000000D+00 0.119614809785076D+04
 0.549532633099158D+03 0.000000000000000D+00 0.000000000000000D+00 -.549532633099158D+03
 0.187880530829071D+03 -.563391907034302D+02 0.138310634750011D+03 -.684098415912887D+02
 0.805911413258236D+02 -.281200404499854D+02 0.882479243298963D+01 0.750087889770573D+02
 0.327555357527481D+03 -.170832942180329D+03 -.142796654095715D+03 0.240245153312271D+03
 0.436823672559415D+03 0.194399092612532D+03 0.289441967078541D+03 -.246844100698040D+03
 0.712830028708132D+03 0.608930807212127D+02 -.293780740165826D+03 0.646615464751607D+03
0.369651229466D-04 0.000000000000D+00 0.000000000000D+00 0.477370813961D-08 0.000000000000D+00  7 -3 3 23 -13 13 23 21 0 0.16949586D+00 0.34099224D-01 0.13762694D+06 0.13762694D+06 0.13762694D+06 0.11105145D+01  1  2  2  1  7  1       -3 0.217126613043D-04 0.100000000000D+01
-.184837659057D-05 0.000000000000D+00 -.141955805255D-06 0.477370813961D-08 0.000000000000D+00  7 -3 3 23 -13 13 23 21 2 0.16949586D+00 0.34099224D-01 0.13762694D+06 0.13762694D+06 0.13762694D+06 0.11105145D+01  1  2  3  1  7  1       -3 -.133893594508D-05 0.100000000000D+01
0.242795471135D-05 0.000000000000D+00 0.000000000000D+00 0.477370813961D-08 0.000000000000D+00  7 -3 3 23 -13 13 23 21 2 0.16949586D+00 0.34099224D-01 0.13762694D+06 0.13762694D+06 0.13762694D+06 0.11105145D+01  1  2 15  1  7  1       -3 0.175877353817D-05 0.100000000000D+01
0.345733890100D-05 0.000000000000D+00 0.000000000000D+00 0.477370813961D-08 0.000000000000D+00  7 -3 3 23 -13 13 23 21 2 0.40588120D+00 0.34099224D-01 0.29567899D+06 0.29567899D+06 0.29567899D+06 0.10850183D+01  1  2 12  1  7  1       -3 0.224144468646D-09 0.100000000000D+01
-.373122094730D-04 0.000000000000D+00 -.990795514358D-05 0.477370813961D-08 0.000000000000D+00  7 -3 3 23 -13 13 23 21 2 0.42057788D+00 0.34099224D-01 0.13762694D+06 0.13762694D+06 0.13762694D+06 0.11105145D+01  1  2  5  1  7  1       -3 -.237834817904D-08 0.100000000000D+01
0.330210168738D-06 0.000000000000D+00 0.000000000000D+00 0.477370813961D-08 0.000000000000D+00  7 21 3 23 -13 13 23 3 2 0.40588120D+00 0.34099224D-01 0.29567899D+06 0.29567899D+06 0.29567899D+06 0.10850183D+01  1  2 12  3  7  1       -3 0.851421787758D-07 0.100000000000D+01
-.311357562950D-05 0.000000000000D+00 -.990002107694D-06 0.477370813961D-08 0.000000000000D+00  7 21 3 23 -13 13 23 3 2 0.42057788D+00 0.34099224D-01 0.13762694D+06 0.13762694D+06 0.13762694D+06 0.11105145D+01  1  2  5  3  7  1       -3 -.723529988015D-06 0.100000000000D+01
  </mgrwgt>
  </event>
  <event>
  8     66 0.58687835E-06 0.28763152E+03 0.75467711E-02 0.94929449E-01
       -1 -1    0    0    0  501 0.00000000E+00 0.00000000E+00 0.84761729E+02 0.84762333E+02 0.32000000E+00 0.0000E+00 0.9000E+01
        1 -1    0    0  501    0 0.00000000E+00 0.00000000E+00 -.17872267E+04 0.17872267E+04 0.32000000E+00 0.0000E+00 0.9000E+01
       25  2    1    2    0    0 -.13945086E+03 0.15900895E+03 -.38319813E+03 0.53259697E+03 0.30346060E+03 0.0000E+00 0.0000E+00
       23  2    1    2    0    0 0.13945086E+03 -.15900895E+03 -.13192669E+04 0.13393921E+04 0.93679160E+02 0.0000E+00 0.0000E+00
       23  1    3    3    0    0 -.76705113E+02 -.43809603E+02 -.75178452E+02 0.14754663E+03 0.91188000E+02 0.0000E+00 0.9000E+01
      -11  1    4    4    0    0 0.13956561E+03 -.13811133E+03 -.97967516E+03 0.99915801E+03 0.51099893E-03 0.0000E+00 0.9000E+01
       11  1    4    4    0    0 -.11474135E+00 -.20897617E+02 -.33959170E+03 0.34023410E+03 0.51099893E-03 0.0000E+00 0.9000E+01
       23  1    3    3    0    0 -.62745752E+02 0.20281855E+03 -.30801967E+03 0.38505034E+03 0.91188000E+02 0.0000E+00 0.9000E+01
#aMCatNLO 1  0  0  2  2 0.30553858D+03 0.00000000D+00  -5  7  0 0.00000000D+00 0.00000000D+00 0.00000000D+00 0.00000000D+00 0.00000000D+00
  <mgrwgt>
 0.2493018005D-03    6    2    0
 0.389215901498163D+03 0.000000000000000D+00 0.000000000000000D+00 0.389215901498163D+03
 0.389215901498163D+03 0.000000000000000D+00 0.000000000000000D+00 -.389215901498163D+03
 0.190404590902332D+03 -.767051128078631D+02 -.438096032413259D+02 0.141900321443100D+03
 0.260202898761598D+03 0.139565606205417D+03 -.138111330911831D+03 -.170740300931606D+03
 0.754999331047363D+02 -.114741341325832D+00 -.208976174095633D+02 -.725500952435472D+02
 0.252324380227660D+03 -.627457520562283D+02 0.202818551562720D+03 0.101390074732053D+03
 0.000000000000000D+00 -.000000000000000D+00 0.000000000000000D+00 -.000000000000000D+00
 0.540753679982791D+03 0.000000000000000D+00 0.000000000000000D+00 0.540753679982791D+03
 0.608439913136760D+03 0.000000000000000D+00 0.000000000000000D+00 -.608439913136760D+03
 0.205994639730305D+03 -.422575690995922D+02 -.110440648684062D+03 0.141900321443100D+03
 0.352841034325583D+03 0.192839820805702D+03 -.241158347675042D+03 -.170740300931606D+03
 0.883730707377659D+02 0.141260089584692D+02 -.484431541363653D+02 -.725500952435472D+02
 0.189038764647783D+03 -.243907930921254D+02 0.128629487885655D+03 0.101390074732053D+03
 0.312946083678114D+03 -.140317467572454D+03 0.271412662609814D+03 -.676862331539691D+02
0.845823738054D-05 0.000000000000D+00 0.000000000000D+00 0.587735127791D-08 0.000000000000D+00  7 -1 1 23 -11 11 23 21 0 0.13040315D-01 0.27495800D+00 0.82731891D+05 0.82731891D+05 0.82731891D+05 0.11285412D+01  1  2  2  2  7  2        1 0.173349372343D-03 0.100000000000D+01
-.417637491452D-06 0.000000000000D+00 -.324818586463D-07 0.587735127791D-08 0.000000000000D+00  7 -1 1 23 -11 11 23 21 2 0.13040315D-01 0.27495800D+00 0.82731891D+05 0.82731891D+05 0.82731891D+05 0.11285412D+01  1  2  3  2  7  2        1 -.109012604342D-04 0.100000000000D+01
0.531319734331D-06 0.000000000000D+00 0.000000000000D+00 0.587735127791D-08 0.000000000000D+00  7 -1 1 23 -11 11 23 21 2 0.13040315D-01 0.27495800D+00 0.82731891D+05 0.82731891D+05 0.82731891D+05 0.11285412D+01  1  2 15  2  7  2        1 0.138686179195D-04 0.100000000000D+01
-.191426514834D-05 0.000000000000D+00 -.225213839554D-05 0.587735127791D-08 0.000000000000D+00  7 -1 1 23 -11 11 23 21 2 0.13040315D-01 0.48569876D+00 0.82731891D+05 0.82731891D+05 0.82731891D+05 0.11285412D+01  1  2  5  2  7  2        1 -.572034905093D-05 0.100000000000D+01
0.301536695997D-05 0.000000000000D+00 0.193104833328D-05 0.587735127791D-08 0.000000000000D+00  7 -1 1 23 -11 11 23 21 2 0.13040315D-01 0.27495800D+00 0.82731891D+05 0.82731891D+05 0.82731891D+05 0.11285412D+01  1  2  6  2  7  2        1 0.787077338797D-04 0.100000000000D+01
-.379907528113D-08 0.000000000000D+00 -.141179927603D-06 0.587735127791D-08 0.000000000000D+00  7 -1 21 23 -11 11 23 -1 2 0.13040315D-01 0.48569876D+00 0.82731891D+05 0.82731891D+05 0.82731891D+05 0.11285412D+01  1  2  5  4  7  2        1 -.231418382043D-08 0.100000000000D+01
  </mgrwgt>
  </event>
  <event>
  8     66 0.58687835E-06 0.19551007E+03 0.75467711E-02 0.97354062E-01
       -1 -1    0    0    0  501 0.00000000E+00 0.00000000E+00 0.67118527E+02 0.67119289E+02 0.32000000E+00 0.0000E+00 0.9000E+01
        1 -1    0    0  501    0 0.00000000E+00 0.00000000E+00 -.60591524E+03 0.60591532E+03 0.32000000E+00 0.0000E+00 0.9000E+01
       25  2    1    2    0    0 0.37563748E+02 0.25541185E+02 -.40021702E+03 0.50250391E+03 0.30045488E+03 0.0000E+00 0.0000E+00
       23  2    1    2    0    0 -.37563748E+02 -.25541185E+02 -.13857969E+03 0.17053070E+03 0.88391182E+02 0.0000E+00 0.0000E+00
       23  1    3    3    0    0 0.11941801E+03 -.51219042E+02 -.19456336E+03 0.25110596E+03 0.91188000E+02 0.0000E+00 0.9000E+01
      -11  1    4    4    0    0 -.87147342E+01 0.26655765E+02 -.87905312E+02 0.92270365E+02 0.51099893E-03 0.0000E+00 0.9000E+01
       11  1    4    4    0    0 -.28849014E+02 -.52196949E+02 -.50674382E+02 0.78260335E+02 0.51099893E-03 0.0000E+00 0.9000E+01
       23  1    3    3    0    0 -.81854258E+02 0.76760227E+02 -.20565365E+03 0.25139795E+03 0.91188000E+02 0.0000E+00 0.9000E+01
#aMCatNLO 1  0  0  2  2 0.30180326D+03 0.00000000D+00  -5  7  0 0.00000000D+00 0.00000000D+00 0.00000000D+00 0.00000000D+00 0.00000000D+00
  <mgrwgt>
 0.2617034090D-03    5    2    0
 0.201664134304404D+03 0.000000000000000D+00 0.000000000000000D+00 0.201664134304404D+03
 0.201664134304404D+03 0.000000000000000D+00 0.000000000000000D+00 -.201664134304404D+03
 0.159108372735699D+03 0.119418011728171D+03 -.512190381098505D+02 0.107782902444823D+02
 0.365410896922940D+02 -.871473855846656D+01 0.266557585132887D+02 -.234259494116906D+02
 0.628984560418998D+02 -.288490203317252D+02 -.521969503648510D+02 0.199856991612450D+02
 0.144780350138915D+03 -.818542528379790D+02 0.767602299614129D+02 -.733803999403677D+01
 0.000000000000000D+00 -.000000000000000D+00 0.000000000000000D+00 -.000000000000000D+00
 0.312068692104106D+03 0.000000000000000D+00 0.000000000000000D+00 0.312068692104106D+03
 0.630156799363020D+03 0.000000000000000D+00 0.000000000000000D+00 -.630156799363020D+03
 0.295690697078063D+03 0.253740905573200D+03 -.120901274984214D+03 0.107782902444823D+02
 0.306652305770955D+02 0.111343509019779D+02 0.163587129841858D+02 -.234259494116906D+02
 0.773819509935801D+02 0.125821774727918D+02 -.736900738135891D+02 0.199856991612450D+02
 0.100006996461663D+03 -.955739263221747D+01 0.392550304088868D+02 -.733803999403677D+01
 0.438480616356725D+03 -.267900041315753D+03 0.138977605404730D+03 -.318088107258914D+03
0.118176498843D-05 0.000000000000D+00 0.000000000000D+00 0.936046806791D-08 0.000000000000D+00  7 -1 1 23 -11 11 23 21 0 0.10325992D-01 0.93217794D-01 0.38224188D+05 0.38224188D+05 0.38224188D+05 0.11576978D+01  1  2  2  2  7  2        1 0.258486104185D-03 0.100000000000D+01
-.655769394311D-07 0.000000000000D+00 -.453828872143D-08 0.936046806791D-08 0.000000000000D+00  7 -1 1 23 -11 11 23 21 2 0.10325992D-01 0.93217794D-01 0.38224188D+05 0.38224188D+05 0.38224188D+05 0.11576978D+01  1  2  3  2  7  2        1 -.192241714157D-04 0.100000000000D+01
0.779650482372D-07 0.000000000000D+00 0.000000000000D+00 0.936046806791D-08 0.000000000000D+00  7 -1 1 23 -11 11 23 21 2 0.10325992D-01 0.93217794D-01 0.38224188D+05 0.38224188D+05 0.38224188D+05 0.11576978D+01  1  2 15  2  7  2        1 0.228558006023D-04 0.100000000000D+01
-.243623338098D-07 0.000000000000D+00 -.404511538628D-06 0.936046806791D-08 0.000000000000D+00  7 -1 1 23 -11 11 23 21 2 0.10325992D-01 0.35566581D+00 0.38224188D+05 0.38224188D+05 0.38224188D+05 0.11576978D+01  1  2  5  2  7  2        1 -.445988672831D-06 0.100000000000D+01
0.392164981068D-08 0.000000000000D+00 -.642261060415D-07 0.936046806791D-08 0.000000000000D+00  7 -1 21 23 -11 11 23 -1 2 0.10325992D-01 0.35566581D+00 0.38224188D+05 0.38224188D+05 0.38224188D+05 0.11576978D+01  1  2  5  4  7  2        1 0.316642715411D-07 0.100000000000D+01
  </mgrwgt>
  </event>
  <event>
  8     66 0.58687835E-06 0.34008249E+03 0.75467711E-02 0.94834250E-01
       -1 -1    0    0    0  501 0.00000000E+00 0.00000000E+00 0.67168163E+02 0.67168925E+02 0.32000000E+00 0.0000E+00 0.9000E+01
        1 -1    0    0  501    0 0.00000000E+00 0.00000000E+00 -.19534919E+04 0.19534919E+04 0.32000000E+00 0.0000E+00 0.9000E+01
       25  2    1    2    0    0 0.45351790E+02 0.26960520E+03 -.80396408E+03 0.90083379E+03 0.30066513E+03 0.0000E+00 0.0000E+00
       23  2    1    2    0    0 -.45351790E+02 -.26960520E+03 -.10823597E+04 0.11198271E+04 0.88127627E+02 0.0000E+00 0.0000E+00
       23  1    3    3    0    0 -.20891575E+02 -.18909243E+02 -.16137995E+03 0.18749069E+03 0.91188000E+02 0.0000E+00 0.9000E+01
      -13  1    4    4    0    0 -.35372227E+02 -.12179593E+03 -.34127011E+03 0.36407518E+03 0.10565837E+00 0.0000E+00 0.9000E+01
       13  1    4    4    0    0 -.99795630E+01 -.14780927E+03 -.74108956E+03 0.75575189E+03 0.10565837E+00 0.0000E+00 0.9000E+01
       23  1    3    3    0    0 0.66243365E+02 0.28851444E+03 -.64258413E+03 0.71334310E+03 0.91188000E+02 0.0000E+00 0.9000E+01
#aMCatNLO 1  0  0  2  2 0.26309957D+03 0.00000000D+00  -5  7  0 0.00000000D+00 0.00000000D+00 0.00000000D+00 0.00000000D+00 0.00000000D+00
  <mgrwgt>
 0.2068537040D-03    6    2    0
 0.362233708372449D+03 0.000000000000000D+00 0.000000000000000D+00 0.362233708372449D+03
 0.362233708372449D+03 0.000000000000000D+00 0.000000000000000D+00 -.362233708372449D+03
 0.102751697574660D+03 -.208915747974494D+02 -.189092425724189D+02 0.380610385866484D+02
 0.126888402893126D+03 -.353722631674614D+02 -.121795889320569D+03 -.390270826375566D+01
 0.178315105177472D+03 -.997952665776114D+01 -.147809309298833D+03 -.992426010679978D+02
 0.316512211099640D+03 0.662433646226719D+02 0.288514441191821D+03 0.650842707451050D+02
 0.000000000000000D+00 -.000000000000000D+00 -.000000000000000D+00 -.000000000000000D+00
 0.489151163336058D+03 0.000000000000000D+00 0.000000000000000D+00 0.489151163336058D+03
 0.552147402965489D+03 0.000000000000000D+00 0.000000000000000D+00 -.552147402965489D+03
 0.992804091143285D+02 0.313557383754780D+00 0.962326937070691D+01 0.380610385866484D+02
 0.918332153712855D+02 -.124154128816621D+02 -.909063575148338D+02 -.390270826375566D+01
 0.144464504721766D+03 0.238991691865956D+02 -.102223915841421D+03 -.992426010679978D+02
 0.435184103569186D+03 0.145140822922280D+03 0.394674716543050D+03 0.650842707451050D+02
 0.270536333524981D+03 -.156938136610969D+03 -.211167712557503D+03 -.629962396294317D+02
0.573623973361D-05 0.000000000000D+00 0.000000000000D+00 0.615365274781D-07 0.000000000000D+00  7 -1 1 23 -13 13 23 21 0 0.10333624D-01 0.30053728D+00 0.11565610D+06 0.11565610D+06 0.11565610D+06 0.11165749D+01  1  2  2  2  7  2        1 0.129908058793D-03 0.100000000000D+01
-.317137169301D-06 0.000000000000D+00 -.220286709637D-07 0.615365274781D-07 0.000000000000D+00  7 -1 1 23 -13 13 23 21 2 0.10333624D-01 0.30053728D+00 0.11565610D+06 0.11565610D+06 0.11565610D+06 0.11165749D+01  1  2  3  2  7  2        1 -.895430056854D-05 0.100000000000D+01
0.376744951960D-06 0.000000000000D+00 0.000000000000D+00 0.615365274781D-07 0.000000000000D+00  7 -1 1 23 -13 13 23 21 2 0.10333624D-01 0.30053728D+00 0.11565610D+06 0.11565610D+06 0.11565610D+06 0.11165749D+01  1  2 15  2  7  2        1 0.106373136424D-04 0.100000000000D+01
-.235251166530D-05 0.000000000000D+00 -.153174580963D-05 0.615365274781D-07 0.000000000000D+00  7 -1 1 23 -13 13 23 21 2 0.10333624D-01 0.50791528D+00 0.11565610D+06 0.11565610D+06 0.11565610D+06 0.11165749D+01  1  2  5  2  7  2        1 -.749579673000D-05 0.100000000000D+01
0.293234581597D-05 0.000000000000D+00 0.134261692662D-05 0.615365274781D-07 0.000000000000D+00  7 -1 1 23 -13 13 23 21 2 0.10333624D-01 0.30053728D+00 0.11565610D+06 0.11565610D+06 0.11565610D+06 0.11165749D+01  1  2  6  2  7  2        1 0.827941608516D-04 0.100000000000D+01
-.650334952476D-07 0.000000000000D+00 -.897754268781D-07 0.615365274781D-07 0.000000000000D+00  7 -1 21 23 -13 13 23 -1 2 0.10333624D-01 0.50791528D+00 0.11565610D+06 0.11565610D+06 0.11565610D+06 0.11165749D+01  1  2  5  4  7  2        1 -.357319481547D-07 0.100000000000D+01
  </mgrwgt>
  </event>
  <event>
  8     66 0.58687835E-06 0.36346162E+03 0.75467711E-02 0.96438549E-01
       -1 -1    0    0    0  501 0.00000000E+00 0.00000000E+00 0.11027046E+04 0.11027046E+04 0.32000000E+00 0.0000E+00 0.9000E+01
        1 -1    0    0  501    0 0.00000000E+00 0.00000000E+00 -.13012702E+03 0.13012741E+03 0.32000000E+00 0.0000E+00 0.9000E+01
       25  2    1    2    0    0 -.27789876E+03 0.10387538E+03 0.40223346E+03 0.58305363E+03 0.30023652E+03 0.0000E+00 0.0000E+00
       23  2    1    2    0    0 0.27789876E+03 -.10387538E+03 0.57034411E+03 0.64977842E+03 0.94349224E+02 0.0000E+00 0.0000E+00
       23  1    3    3    0    0 -.39031682E+02 -.58765410E+02 0.77633849E+02 0.13899321E+03 0.91188000E+02 0.0000E+00 0.9000E+01
      -13  1    4    4    0    0 0.20399774E+03 -.11451662E+03 0.39302845E+03 0.45738441E+03 0.10565837E+00 0.0000E+00 0.9000E+01
       13  1    4    4    0    0 0.73901019E+02 0.10641240E+02 0.17731567E+03 0.19239401E+03 0.10565837E+00 0.0000E+00 0.9000E+01
       23  1    3    3    0    0 -.23886707E+03 0.16264079E+03 0.32459961E+03 0.44406042E+03 0.91188000E+02 0.0000E+00 0.9000E+01
#aMCatNLO 1  0  0  1  2 0.11833409D+03 0.00000000D+00  -5  7  0 0.00000000D+00 0.00000000D+00 0.00000000D+00 0.00000000D+00 0.00000000D+00
  <mgrwgt>
 0.8879719267D-04    4    2    0
 0.378803292202416D+03 0.000000000000000D+00 0.000000000000000D+00 0.378803292202416D+03
 0.378803292202416D+03 0.000000000000000D+00 0.000000000000000D+00 -.378803292202416D+03
 0.126517300013092D+03 -.390316822860122D+02 -.587654095270549D+02 -.521011543024155D+02
 0.239738756786098D+03 0.203997899618372D+03 -.114516771176806D+03 0.523969233436020D+02
 0.854481881670948D+02 0.739008561678468D+02 0.106413947558928D+02 0.415549881042904D+02
 0.305902339438546D+03 -.238867073500207D+03 0.162640785947968D+03 -.418507571454769D+02
 0.000000000000000D+00 -.000000000000000D+00 -.000000000000000D+00 -.000000000000000D+00
 0.424860304123475D+03 0.000000000000000D+00 0.000000000000000D+00 0.424860304123475D+03
 0.467824496693500D+03 0.000000000000000D+00 0.000000000000000D+00 -.467824496693500D+03
 0.117083121154736D+03 -.271061927358634D+02 -.440900209917917D+02 -.521011543024155D+02
 0.248858659440280D+03 0.227917248170824D+03 -.850818593401481D+02 0.523969233436020D+02
 0.950536809972687D+02 0.827373480925424D+02 0.215154936126568D+02 0.415549881042904D+02
 0.305797009416017D+03 -.208921254204713D+03 0.199491812593048D+03 -.418507571454769D+02
 0.125892329808674D+03 -.746271493227903D+02 -.918354258737650D+02 -.429641925700248D+02
0.165576294318D-04 0.000000000000D+00 0.000000000000D+00 0.743408610635D-07 0.000000000000D+00  7 -1 1 23 -13 13 23 21 0 0.16964689D+00 0.20019575D-01 0.13210435D+06 0.13210435D+06 0.13210435D+06 0.11119324D+01  1  2  2  1  7  1       -1 0.137262705068D-03 0.100000000000D+01
-.917956607355D-06 0.000000000000D+00 -.635856567422D-07 0.743408610635D-07 0.000000000000D+00  7 -1 1 23 -13 13 23 21 2 0.16964689D+00 0.20019575D-01 0.13210435D+06 0.13210435D+06 0.13210435D+06 0.11119324D+01  1  2  3  1  7  1       -1 -.940878035087D-05 0.100000000000D+01
0.107886182119D-05 0.000000000000D+00 0.000000000000D+00 0.743408610635D-07 0.000000000000D+00  7 -1 1 23 -13 13 23 21 2 0.16964689D+00 0.20019575D-01 0.13210435D+06 0.13210435D+06 0.13210435D+06 0.11119324D+01  1  2 15  1  7  1       -1 0.110580106109D-04 0.100000000000D+01
-.488938602432D-05 0.000000000000D+00 0.000000000000D+00 0.743408610635D-07 0.000000000000D+00  7 -1 1 23 -13 13 23 21 2 0.16964689D+00 0.20019575D-01 0.13210435D+06 0.13210435D+06 0.13210435D+06 0.11119324D+01  1  2  4  1  7  1       -1 -.501147426630D-04 0.100000000000D+01
  </mgrwgt>
  </event>
  <event>
  8     66 0.58687835E-06 0.39566861E+03 0.75467711E-02 0.91328474E-01
       -1 -1    0    0    0  501 0.00000000E+00 0.00000000E+00 0.35478710E+03 0.35478724E+03 0.32000000E+00 0.0000E+00 0.9000E+01
        1 -1    0    0  501    0 0.00000000E+00 0.00000000E+00 -.55977868E+03 0.55977877E+03 0.32000000E+00 0.0000E+00 0.9000E+01
       25  2    1    2    0    0 -.10591511E+03 0.32665811E+03 -.30116161E+03 0.54651965E+03 0.30010312E+03 0.0000E+00 0.0000E+00
       23  2    1    2    0    0 0.10591511E+03 -.32665811E+03 0.96170027E+02 0.36804637E+03 0.91027071E+02 0.0000E+00 0.0000E+00
       23  1    3    3    0    0 0.40534996E+02 0.20385151E+03 -.22996628E+03 0.32310720E+03 0.91188000E+02 0.0000E+00 0.9000E+01
      -11  1    4    4    0    0 0.11522750E+03 -.24873780E+03 0.93108865E+02 0.28951188E+03 0.51099893E-03 0.0000E+00 0.9000E+01
       11  1    4    4    0    0 -.93123919E+01 -.77920312E+02 0.30611621E+01 0.78534491E+02 0.51099893E-03 0.0000E+00 0.9000E+01
       23  1    3    3    0    0 -.14645010E+03 0.12280660E+03 -.71195323E+02 0.22341244E+03 0.91188000E+02 0.0000E+00 0.9000E+01
#aMCatNLO 1  0  0  1  1 0.43814300D+03 0.00000000D+00  -5  7  0 0.00000000D+00 0.00000000D+00 0.00000000D+00 0.00000000D+00 0.00000000D+00
  <mgrwgt>
 0.1708565420D-03    3    2    0
 0.445648249808269D+03 0.000000000000000D+00 0.000000000000000D+00 0.445648249808269D+03
 0.445648249808269D+03 0.000000000000000D+00 0.000000000000000D+00 -.445648249808269D+03
 0.278652183965533D+03 0.405349964523410D+02 0.203851505155319D+03 -.161657867712280D+03
 0.318484656022928D+03 0.115227497731263D+03 -.248737795790218D+03 0.162125287460218D+03
 0.812888745226651D+02 -.931239194691203D+01 -.779203116645130D+02 0.212034315027981D+02
 0.212870785105413D+03 -.146450102236692D+03 0.122806602299412D+03 -.216708512507361D+02
 0.000000000000000D+00 -.000000000000000D+00 -.000000000000000D+00 -.000000000000000D+00
 0.706101729697793D+03 0.000000000000000D+00 0.000000000000000D+00 0.706101729697793D+03
 0.725642839842445D+03 0.000000000000000D+00 0.000000000000000D+00 -.725642839842445D+03
 0.350319135021808D+03 0.183738824090252D+03 0.233484524855671D+03 -.161657867712280D+03
 0.385576576336150D+03 0.275527753596052D+03 -.215567029908013D+03 0.162125287460218D+03
 0.783350906219474D+02 0.270307004984672D+02 -.703998731946090D+02 0.212034315027981D+02
 0.178935216650153D+03 -.572439374258088D+02 0.141265941570131D+03 -.216708512507361D+02
 0.438578550910180D+03 -.429053340758963D+03 -.887835633231797D+02 -.195411101446520D+02
0.106978082867D-04 0.000000000000D+00 0.000000000000D+00 0.153416615191D-05 0.000000000000D+00  7 -1 1 23 -11 11 23 21 0 0.54582649D-01 0.86119815D-01 0.15655365D+06 0.15655365D+06 0.15655365D+06 0.11060893D+01  1  2  2  1  7  1       -1 0.168738748474D-03 0.100000000000D+01
-.584097896134D-06 0.000000000000D+00 -.410824006185D-07 0.153416615191D-05 0.000000000000D+00  7 -1 1 23 -11 11 23 21 2 0.54582649D-01 0.86119815D-01 0.15655365D+06 0.15655365D+06 0.15655365D+06 0.11060893D+01  1  2  3  1  7  1       -1 -.112716118723D-04 0.100000000000D+01
0.693842515321D-06 0.000000000000D+00 0.000000000000D+00 0.153416615191D-05 0.000000000000D+00  7 -1 1 23 -11 11 23 21 2 0.54582649D-01 0.86119815D-01 0.15655365D+06 0.15655365D+06 0.15655365D+06 0.11060893D+01  1  2 15  1  7  1       -1 0.133894054146D-04 0.100000000000D+01
  </mgrwgt>
  </event>
  <event>
  8     66 0.58687835E-06 0.33497175E+03 0.75467711E-02 0.92787836E-01
       -1 -1    0    0    0  501 0.00000000E+00 0.00000000E+00 0.38601297E+03 0.38601310E+03 0.32000000E+00 0.0000E+00 0.9000E+01
        1 -1    0    0  501    0 0.00000000E+00 0.00000000E+00 -.34587395E+03 0.34587410E+03 0.32000000E+00 0.0000E+00 0.9000E+01
       25  2    1    2    0    0 -.24766120E+03 -.71504419E+02 0.16590496E+03 0.43102451E+03 0.30299955E+03 0.0000E+00 0.0000E+00
       23  2    1    2    0    0 0.24766120E+03 0.71504419E+02 -.12576594E+03 0.30086268E+03 0.90842348E+02 0.0000E+00 0.0000E+00
       23  1    3    3    0    0 -.27079531E+03 -.10982644E+02 0.12028714E+03 0.31021761E+03 0.91188000E+02 0.0000E+00 0.9000E+01
      -11  1    4    4    0    0 0.20963652E+03 0.92001081E+02 -.11568557E+03 0.25650501E+03 0.51099893E-03 0.0000E+00 0.9000E+01
       11  1    4    4    0    0 0.38024679E+02 -.20496662E+02 -.10080369E+02 0.44357674E+02 0.51099893E-03 0.0000E+00 0.9000E+01
       23  1    3    3    0    0 0.23134111E+02 -.60521774E+02 0.45617815E+02 0.12080691E+03 0.91188000E+02 0.0000E+00 0.9000E+01
#aMCatNLO 1  0  0  1  1 0.39866472D+03 0.00000000D+00  -5  7  0 0.00000000D+00 0.00000000D+00 0.00000000D+00 0.00000000D+00 0.00000000D+00
  <mgrwgt>
 0.1789834520D-03    3    2    0
 0.365392846115479D+03 0.000000000000000D+00 0.000000000000000D+00 0.365392846115479D+03
 0.365392846115479D+03 0.000000000000000D+00 0.000000000000000D+00 -.365392846115479D+03
 0.304078323413676D+03 -.270795306409886D+03 -.109826444213275D+02 0.103429487932421D+03
 0.263245761837044D+03 0.209636515863738D+03 0.920010810525911D+02 -.129948695364106D+03
 0.449782065665754D+02 0.380246792058461D+02 -.204966624381453D+02 -.125319458239630D+02
 0.118483400413663D+03 0.231341113403016D+02 -.605217741931183D+02 0.390511532556476D+02
 0.000000000000000D+00 -.000000000000000D+00 -.000000000000000D+00 -.000000000000000D+00
 0.517551369704272D+03 0.000000000000000D+00 0.000000000000000D+00 0.517551369704272D+03
 0.808369896264589D+03 0.000000000000000D+00 0.000000000000000D+00 -.808369896264589D+03
 0.257702884550418D+03 -.189578714668258D+03 0.107041007713747D+03 0.103429487932421D+03
 0.406045729711079D+03 0.306395846817868D+03 0.232611384593555D+03 -.129948695364106D+03
 0.537836548263346D+02 0.523026608518677D+02 0.252047928105039D+00 -.125319458239630D+02
 0.114922708740044D+03 0.568775837249279D+02 -.114858843441310D+02 0.390511532556476D+02
 0.493466288140986D+03 -.225997376726406D+03 -.328418555891276D+03 -.290818526560318D+03
0.673895034006D-05 0.000000000000D+00 0.000000000000D+00 0.246031652755D-07 0.000000000000D+00  7 -1 1 23 -11 11 23 21 0 0.59386632D-01 0.53211399D-01 0.11220608D+06 0.11220608D+06 0.11220608D+06 0.11176406D+01  1  2  2  1  7  1       -1 0.176592249642D-03 0.100000000000D+01
-.370946519941D-06 0.000000000000D+00 -.258793437122D-07 0.246031652755D-07 0.000000000000D+00  7 -1 1 23 -11 11 23 21 2 0.59386632D-01 0.53211399D-01 0.11220608D+06 0.11220608D+06 0.11220608D+06 0.11176406D+01  1  2  3  1  7  1       -1 -.121421337749D-04 0.100000000000D+01
0.443998604479D-06 0.000000000000D+00 0.000000000000D+00 0.246031652755D-07 0.000000000000D+00  7 -1 1 23 -11 11 23 21 2 0.59386632D-01 0.53211399D-01 0.11220608D+06 0.11220608D+06 0.11220608D+06 0.11176406D+01  1  2 15  1  7  1       -1 0.145333361054D-04 0.100000000000D+01
  </mgrwgt>
  </event>
  <event>
  9     66 0.58687835E-06 0.52862103E+03 0.75467711E-02 0.90953902E-01
       -1 -1    0    0    0  501 0.00000000E+00 0.00000000E+00 0.69742413E+03 0.69742420E+03 0.32000000E+00 0.0000E+00 0.9000E+01
        1 -1    0    0  502    0 0.00000000E+00 0.00000000E+00 -.10260536E+04 0.10260537E+04 0.32000000E+00 0.0000E+00 0.9000E+01
       25  2    1    2    0    0 -.12842635E+03 0.63718782E+03 -.52079375E+03 0.88531402E+03 0.30008855E+03 0.0000E+00 0.0000E+00
       23  2    1    2    0    0 0.18764115E+03 -.33922535E+03 -.10541728E+03 0.41290709E+03 0.95375178E+02 0.0000E+00 0.0000E+00
       23  1    3    3    0    0 0.42328399E+02 0.11923332E+03 -.16889364E+03 0.22988822E+03 0.91188000E+02 0.0000E+00 0.9000E+01
      -11  1    4    4    0    0 0.11573634E+02 -.12613780E+02 -.29601199E+02 0.34194845E+02 0.51099893E-03 0.0000E+00 0.9000E+01
       11  1    4    4    0    0 0.17606752E+03 -.32661157E+03 -.75816079E+02 0.37871224E+03 0.51099893E-03 0.0000E+00 0.9000E+01
       23  1    3    3    0    0 -.17075475E+03 0.51795450E+03 -.35190010E+03 0.65542580E+03 0.91188000E+02 0.0000E+00 0.9000E+01
       21  1    1    2  502  501 -.59214800E+02 -.29796248E+03 0.29758150E+03 0.42525680E+03 0.75000000E+00 0.0000E+00 0.9000E+01
#aMCatNLO 2  0  0  2  1 0.30378945D+03 0.00000000D+00  -5  7  0 0.00000000D+00 0.00000000D+00 0.00000000D+00 0.00000000D+00 0.00000000D+00
  <mgrwgt>
 0.4523194321D-05    1    2    0
 0.547939267492937D+03 0.000000000000000D+00 0.000000000000000D+00 0.547939267492937D+03
 0.547939267492937D+03 0.000000000000000D+00 0.000000000000000D+00 -.547939267492937D+03
 0.141118878415996D+03 0.340934251231003D+02 0.777958213392285D+02 -.662173319223832D+02
 0.263979756411988D+02 0.102707378621667D+02 -.191698112320798D+02 -.149627336755824D+02
 0.484604390313734D+03 0.152860088490943D+03 -.443388830041291D+03 0.121989974393399D+03
 0.443757290614945D+03 -.197224251476210D+03 0.384762819934143D+03 -.408099087954334D+02
 0.000000000000000D+00 -.000000000000000D+00 -.000000000000000D+00 0.000000000000000D+00
 0.118021265093113D+04 0.000000000000000D+00 0.000000000000000D+00 0.118021265093113D+04
 0.606326490737558D+03 0.000000000000000D+00 0.000000000000000D+00 -.606326490737558D+03
 0.169435132776797D+03 0.423283988765921D+02 0.119233319490468D+03 -.662173319223832D+02
 0.227363109401430D+02 0.115736338023602D+02 -.126137796369417D+02 -.149627336755824D+02
 0.390584739214977D+03 0.176067515383704D+03 -.326611565443937D+03 0.121989974393399D+03
 0.554449951689928D+03 -.170754748122016D+03 0.517954500823054D+03 -.408099087954334D+02
 0.649333007046845D+03 -.592147999406402D+02 -.297962475232643D+03 0.573886160193574D+03
0.271318942297D-05 0.000000000000D+00 0.000000000000D+00 0.231579282261D-06 0.213729268606D-10  7 -1 1 23 -11 11 23 21 2 0.10729599D+00 0.15785436D+00 0.49060222D+06 0.49060222D+06 0.49060222D+06 0.10690933D+01  1  2  1  2  7  2        1 0.452319432088D-05 0.100000000000D+01
  </mgrwgt>
  </event>
  <event>
  8     66 0.58687835E-06 0.72973906E+02 0.75467711E-02 0.10350708E+00
       -1 -1    0    0    0  501 0.00000000E+00 0.00000000E+00 0.12764290E+02 0.12768301E+02 0.32000000E+00 0.0000E+00 0.9000E+01
        1 -1    0    0  501    0 0.00000000E+00 0.00000000E+00 -.31556162E+04 0.31556162E+04 0.32000000E+00 0.0000E+00 0.9000E+01
       25  2    1    2    0    0 0.90858989E+01 0.13765002E+02 -.26260917E+04 0.26432993E+04 0.30066815E+03 0.0000E+00 0.0000E+00
       23  2    1    2    0    0 -.90858989E+01 -.13765002E+02 -.51676014E+03 0.52508519E+03 0.91659054E+02 0.0000E+00 0.0000E+00
       23  1    3    3    0    0 0.12177357E+03 0.14837538E+02 -.11519607E+04 0.11620575E+04 0.91188000E+02 0.0000E+00 0.9000E+01
      -11  1    4    4    0    0 -.34220194E+02 -.30468990E+02 -.14419193E+03 0.15129671E+03 0.51099893E-03 0.0000E+00 0.9000E+01
       11  1    4    4    0    0 0.25134295E+02 0.16703988E+02 -.37256821E+03 0.37378848E+03 0.51099893E-03 0.0000E+00 0.9000E+01
       23  1    3    3    0    0 -.11268767E+03 -.10725361E+01 -.14741310E+04 0.14812418E+04 0.91188000E+02 0.0000E+00 0.9000E+01
#aMCatNLO 1  0  0  2  1 0.99394945D+02 0.00000000D+00  -5  7  0 0.00000000D+00 0.00000000D+00 0.00000000D+00 0.00000000D+00 0.00000000D+00
  <mgrwgt>
 0.3863725366D-03    9    2    0
 0.200712679585285D+03 0.000000000000000D+00 0.000000000000000D+00 0.200712679585285D+03
 0.200712679585285D+03 0.000000000000000D+00 0.000000000000000D+00 -.200712679585285D+03
 0.152962786838347D+03 0.121773569866485D+03 0.148375401335646D+02 0.577995658380554D+01
 0.652481596040857D+02 -.342201965154188D+02 -.304689929529400D+02 0.464536430282929D+02
 0.333285328141805D+02 0.251342944053561D+02 0.167039862906231D+02 -.141433795923557D+02
 0.149885879913957D+03 -.112687667756422D+03 -.107253347124771D+01 -.380902200197427D+02
 0.000000000000000D+00 0.000000000000000D+00 0.000000000000000D+00 -.000000000000000D+00
 0.234124338617389D+03 0.000000000000000D+00 0.000000000000000D+00 0.234124338617389D+03
 0.297077058910119D+03 0.000000000000000D+00 0.000000000000000D+00 -.297077058910119D+03
 0.137146364266729D+03 0.101310040915284D+03 -.140264606802694D+02 0.577995658380554D+01
 0.782735139791048D+02 -.443438341576893D+02 -.447484794404503D+02 0.464536430282929D+02
 0.273615754508855D+02 0.208533753691830D+02 0.106657095672526D+02 -.141433795923557D+02
 0.170766214638804D+03 -.135305614812381D+03 -.329753613650712D+02 -.380902200197427D+02
 0.117653729191985D+03 0.574860326856039D+02 0.810845919185383D+02 -.629527202927308D+02
0.740694980590D-05 0.000000000000D+00 0.000000000000D+00 0.619547842857D-07 0.000000000000D+00  7 -1 1 23 -11 11 23 21 0 0.19640467D-02 0.48547972D+00 0.34934693D+05 0.34934693D+05 0.34934693D+05 0.11612490D+01  1  2  2  2  7  2        1 0.295517957149D-03 0.100000000000D+01
-.408956832723D-06 0.000000000000D+00 -.284446375493D-07 0.619547842857D-07 0.000000000000D+00  7 -1 1 23 -11 11 23 21 2 0.19640467D-02 0.48547972D+00 0.34934693D+05 0.34934693D+05 0.34934693D+05 0.11612490D+01  1  2  3  2  7  2        1 -.220025324281D-04 0.100000000000D+01
0.475102637975D-06 0.000000000000D+00 0.000000000000D+00 0.619547842857D-07 0.000000000000D+00  7 -1 1 23 -11 11 23 21 2 0.19640467D-02 0.48547972D+00 0.34934693D+05 0.34934693D+05 0.34934693D+05 0.11612490D+01  1  2 15  2  7  2        1 0.255612826643D-04 0.100000000000D+01
0.175236141009D-05 0.000000000000D+00 0.000000000000D+00 0.619547842857D-07 0.000000000000D+00  7 -1 1 23 -11 11 23 21 2 0.19640467D-02 0.74343402D+00 0.59854712D+05 0.59854712D+05 0.59854712D+05 0.11404860D+01  1  2 12  2  7  2        1 0.235563873584D-05 0.100000000000D+01
-.309740059009D-05 0.000000000000D+00 0.000000000000D+00 0.619547842857D-07 0.000000000000D+00  7 -1 1 23 -11 11 23 21 2 0.19640467D-02 0.48547972D+00 0.34934693D+05 0.34934693D+05 0.34934693D+05 0.11612490D+01  1  2  4  2  7  2        1 -.166645111350D-03 0.100000000000D+01
-.441135737209D-05 0.000000000000D+00 -.167153896577D-05 0.619547842857D-07 0.000000000000D+00  7 -1 1 23 -11 11 23 21 2 0.19640467D-02 0.73387626D+00 0.34934693D+05 0.34934693D+05 0.34934693D+05 0.11612490D+01  1  2  5  2  7  2        1 -.762611028778D-05 0.100000000000D+01
0.481805182633D-05 0.000000000000D+00 0.153833473661D-05 0.619547842857D-07 0.000000000000D+00  7 -1 1 23 -11 11 23 21 2 0.19640467D-02 0.48547972D+00 0.34934693D+05 0.34934693D+05 0.34934693D+05 0.11612490D+01  1  2  6  2  7  2        1 0.259218902991D-03 0.100000000000D+01
0.874089853921D-07 0.000000000000D+00 0.000000000000D+00 0.619547842857D-07 0.000000000000D+00  7 -1 21 23 -11 11 23 -1 2 0.19640467D-02 0.74343402D+00 0.59854712D+05 0.59854712D+05 0.59854712D+05 0.11404860D+01  1  2 12  4  7  2        1 0.515841983317D-08 0.100000000000D+01
-.155467900956D-06 0.000000000000D+00 -.814909347514D-07 0.619547842857D-07 0.000000000000D+00  7 -1 21 23 -11 11 23 -1 2 0.19640467D-02 0.73387626D+00 0.34934693D+05 0.34934693D+05 0.34934693D+05 0.11612490D+01  1  2  5  4  7  2        1 -.126493174198D-07 0.100000000000D+01
  </mgrwgt>
  </event>
  <event>
  8     66 0.58687835E-06 0.41542952E+03 0.75467711E-02 0.96557150E-01
       -1 -1    0    0    0  501 0.00000000E+00 0.00000000E+00 0.56345429E+03 0.56345438E+03 0.32000000E+00 0.0000E+00 0.9000E+01
        1 -1    0    0  501    0 0.00000000E+00 0.00000000E+00 -.69293192E+03 0.69293200E+03 0.32000000E+00 0.0000E+00 0.9000E+01
       25  2    1    2    0    0 0.10644250E+02 0.36537214E+03 -.52749704E+03 0.70838721E+03 0.29991533E+03 0.0000E+00 0.0000E+00
       23  2    1    2    0    0 -.10644250E+02 -.36537214E+03 0.39801941E+03 0.54799917E+03 0.90958984E+02 0.0000E+00 0.0000E+00
       23  1    3    3    0    0 0.99864962E+02 0.94370370E+02 -.12632291E+03 0.20772940E+03 0.91188000E+02 0.0000E+00 0.9000E+01
      -11  1    4    4    0    0 0.65583015E+01 -.21001838E+03 0.28950409E+03 0.35771965E+03 0.51099893E-03 0.0000E+00 0.9000E+01
       11  1    4    4    0    0 -.17202552E+02 -.15535377E+03 0.10851531E+03 0.19027951E+03 0.51099893E-03 0.0000E+00 0.9000E+01
       23  1    3    3    0    0 -.89220712E+02 0.27100177E+03 -.40117414E+03 0.50065780E+03 0.91188000E+02 0.0000E+00 0.9000E+01
#aMCatNLO 1  0  0  2  1 0.16124969D+02 0.00000000D+00  -5  7  0 0.00000000D+00 0.00000000D+00 0.00000000D+00 0.00000000D+00 0.00000000D+00
  <mgrwgt>
 0.9139473522D-04    4    2    0
 0.624848432861203D+03 0.000000000000000D+00 0.000000000000000D+00 0.624848432861203D+03
 0.624848432861203D+03 0.000000000000000D+00 0.000000000000000D+00 -.624848432861203D+03
 0.195753392105300D+03 0.998649623960810D+02 0.943703700554440D+02 -.105476830242283D+03
 0.389629209116577D+03 0.655830145775522D+01 -.210018375610810D+03 0.328116124542204D+03
 0.202541032744840D+03 -.172025516865529D+02 -.155353766057383D+03 0.128810517942464D+03
 0.461773231755689D+03 -.892207121672833D+02 0.271001771612748D+03 -.351449812242385D+03
 0.000000000000000D+00 -.000000000000000D+00 -.000000000000000D+00 0.000000000000000D+00
 0.654036344782013D+03 0.000000000000000D+00 0.000000000000000D+00 0.654036344782013D+03
 0.627131496487083D+03 0.000000000000000D+00 0.000000000000000D+00 -.627131496487083D+03
 0.197538230642243D+03 0.101826466169096D+03 0.959797389599620D+02 -.105476830242283D+03
 0.388008180134160D+03 0.104366924145651D+02 -.206836244690991D+03 0.328116124542204D+03
 0.201114809716125D+03 -.151893573742623D+02 -.153701986249704D+03 0.128810517942464D+03
 0.463139671974658D+03 -.846077988850132D+02 0.274786561271506D+03 -.351449812242385D+03
 0.313669488019102D+02 -.124660023243860D+02 -.102280692907734D+02 0.269048482949300D+02
0.251132078392D-04 0.000000000000D+00 0.000000000000D+00 0.461034109185D-05 0.000000000000D+00  7 -1 1 23 -11 11 23 21 0 0.86685287D-01 0.10660492D+00 0.17258169D+06 0.17258169D+06 0.17258169D+06 0.11027776D+01  1  2  2  2  7  2        1 0.117325825321D-03 0.100000000000D+01
-.111252822741D-05 0.000000000000D+00 -.964413305618D-07 0.461034109185D-05 0.000000000000D+00  7 -1 1 23 -11 11 23 21 2 0.86685287D-01 0.10660492D+00 0.17258169D+06 0.17258169D+06 0.17258169D+06 0.11027776D+01  1  2  3  2  7  2        1 -.632089138755D-05 0.100000000000D+01
0.156407540645D-05 0.000000000000D+00 0.000000000000D+00 0.461034109185D-05 0.000000000000D+00  7 -1 1 23 -11 11 23 21 2 0.86685287D-01 0.10660492D+00 0.17258169D+06 0.17258169D+06 0.17258169D+06 0.11027776D+01  1  2 15  2  7  2        1 0.888638195644D-05 0.100000000000D+01
-.501562966880D-05 0.000000000000D+00 0.000000000000D+00 0.461034109185D-05 0.000000000000D+00  7 -1 1 23 -11 11 23 21 2 0.86685287D-01 0.10660492D+00 0.17258169D+06 0.17258169D+06 0.17258169D+06 0.11027776D+01  1  2  4  2  7  2        1 -.284965806669D-04 0.100000000000D+01
  </mgrwgt>
  </event>
  <event>
  8     66 0.58687835E-06 0.82598490E+02 0.75467711E-02 0.95623926E-01
       -1 -1    0    0    0  501 0.00000000E+00 0.00000000E+00 0.14368926E+03 0.14368962E+03 0.32000000E+00 0.0000E+00 0.9000E+01
        1 -1    0    0  501    0 0.00000000E+00 0.00000000E+00 -.16577107E+04 0.16577107E+04 0.32000000E+00 0.0000E+00 0.9000E+01
       25  2    1    2    0    0 0.37963746E+03 -.99555387E+02 -.11759034E+04 0.12754222E+04 0.29986165E+03 0.0000E+00 0.0000E+00
       23  2    1    2    0    0 -.37963746E+03 0.99555387E+02 -.33811804E+03 0.52597818E+03 0.91067943E+02 0.0000E+00 0.0000E+00
       23  1    3    3    0    0 0.29832810E+02 -.90789878E+02 -.29787717E+03 0.32585098E+03 0.91188000E+02 0.0000E+00 0.9000E+01
      -11  1    4    4    0    0 -.19166865E+02 -.83561718E+01 -.42859828E+02 0.47688145E+02 0.51099893E-03 0.0000E+00 0.9000E+01
       11  1    4    4    0    0 -.36047059E+03 0.10791156E+03 -.29525821E+03 0.47829004E+03 0.51099893E-03 0.0000E+00 0.9000E+01
       23  1    3    3    0    0 0.34980465E+03 -.87655083E+01 -.87802624E+03 0.94957120E+03 0.91188000E+02 0.0000E+00 0.9000E+01
#aMCatNLO 1  0  0  2  1 0.25671464D+02 0.00000000D+00  -5  7  0 0.00000000D+00 0.00000000D+00 0.00000000D+00 0.00000000D+00 0.00000000D+00
  <mgrwgt>
 0.3754558789D-03    9    2    0
 0.488052839299572D+03 0.000000000000000D+00 0.000000000000000D+00 0.488052839299572D+03
 0.488052839299572D+03 0.000000000000000D+00 0.000000000000000D+00 -.488052839299572D+03
 0.139324708786298D+03 0.298328097923530D+02 -.907898783986887D+02 -.443094185769952D+02
 0.215291672959474D+02 -.191668648153310D+02 -.835617179029754D+01 -.512939866054028D+01
 0.424712809878181D+03 -.360470590690314D+03 0.107911558447243D+03 0.196969590737969D+03
 0.390538992638717D+03 0.349804645713292D+03 -.876550825825716D+01 -.147530773500433D+03
 0.000000000000000D+00 -.000000000000000D+00 -.000000000000000D+00 -.000000000000000D+00
 0.495380913821588D+03 0.000000000000000D+00 0.000000000000000D+00 0.495380913821588D+03
 0.511234418884869D+03 0.000000000000000D+00 0.000000000000000D+00 -.511234418884869D+03
 0.138881828568420D+03 0.330177222351925D+02 -.889911029613424D+02 -.443094185769952D+02
 0.209896165303139D+02 -.186801091662716D+02 -.808126184497516D+01 -.512939866054028D+01
 0.418000565743545D+03 -.350823195840125D+03 0.113360215891474D+03 0.196969590737969D+03
 0.398571187636047D+03 0.358838390411836D+03 -.366342825994160D+01 -.147530773500433D+03
 0.301721342281317D+02 -.223528076406320D+02 -.126244228252153D+02 -.158535050632812D+02
0.130260107871D-04 0.000000000000D+00 0.000000000000D+00 0.203142709730D-05 0.000000000000D+00  7 -1 1 23 -11 11 23 21 0 0.22106070D-01 0.25503245D+00 0.19841582D+06 0.19841582D+06 0.19841582D+06 0.10980907D+01  1  2  2  2  7  2        1 0.136416521234D-03 0.100000000000D+01
-.716322692763D-06 0.000000000000D+00 -.500233112499D-07 0.203142709730D-05 0.000000000000D+00  7 -1 1 23 -11 11 23 21 2 0.22106070D-01 0.25503245D+00 0.19841582D+06 0.19841582D+06 0.19841582D+06 0.10980907D+01  1  2  3  2  7  2        1 -.904566918120D-05 0.100000000000D+01
0.830151529383D-06 0.000000000000D+00 0.000000000000D+00 0.203142709730D-05 0.000000000000D+00  7 -1 1 23 -11 11 23 21 2 0.22106070D-01 0.25503245D+00 0.19841582D+06 0.19841582D+06 0.19841582D+06 0.10980907D+01  1  2 15  2  7  2        1 0.104830911835D-04 0.100000000000D+01
0.405951862918D-04 0.000000000000D+00 0.000000000000D+00 0.203142709730D-05 0.000000000000D+00  7 -1 1 23 -11 11 23 21 2 0.22106070D-01 0.26899889D+00 0.21003593D+06 0.21003593D+06 0.21003593D+06 0.10961960D+01  1  2 12  2  7  2        1 0.443957300060D-03 0.100000000000D+01
-.401363008227D-04 0.000000000000D+00 0.000000000000D+00 0.203142709730D-05 0.000000000000D+00  7 -1 1 23 -11 11 23 21 2 0.22106070D-01 0.25503245D+00 0.19841582D+06 0.19841582D+06 0.19841582D+06 0.10980907D+01  1  2  4  2  7  2        1 -.506838193272D-03 0.100000000000D+01
-.180350176568D-03 0.000000000000D+00 -.255994778818D-04 0.203142709730D-05 0.000000000000D+00  7 -1 1 23 -11 11 23 21 2 0.22106070D-01 0.26898294D+00 0.19841582D+06 0.19841582D+06 0.19841582D+06 0.10980907D+01  1  2  5  2  7  2        1 -.198376536486D-02 0.100000000000D+01
0.181492347513D-03 0.000000000000D+00 0.255632164704D-04 0.203142709730D-05 0.000000000000D+00  7 -1 1 23 -11 11 23 21 2 0.22106070D-01 0.25503245D+00 0.19841582D+06 0.19841582D+06 0.19841582D+06 0.10980907D+01  1  2  6  2  7  2        1 0.229187173757D-02 0.100000000000D+01
0.549618834055D-06 0.000000000000D+00 0.000000000000D+00 0.203142709730D-05 0.000000000000D+00  7 -1 21 23 -11 11 23 -1 2 0.22106070D-01 0.26899889D+00 0.21003593D+06 0.21003593D+06 0.21003593D+06 0.10961960D+01  1  2 12  4  7  2        1 0.379349180905D-05 0.100000000000D+01
-.164001397302D-05 0.000000000000D+00 -.236401355462D-06 0.203142709730D-05 0.000000000000D+00  7 -1 21 23 -11 11 23 -1 2 0.22106070D-01 0.26898294D+00 0.19841582D+06 0.19841582D+06 0.19841582D+06 0.10980907D+01  1  2  5  4  7  2        1 -.114170355876D-04 0.100000000000D+01
  </mgrwgt>
  </event>
  <event>
  8     66 0.58687835E-06 0.18062255E+03 0.75467711E-02 0.10104989E+00
       -1 -1    0    0    0  501 0.00000000E+00 0.00000000E+00 0.66074968E+02 0.66075743E+02 0.32000000E+00 0.0000E+00 0.9000E+01
        1 -1    0    0  501    0 0.00000000E+00 0.00000000E+00 -.70839397E+03 0.70839404E+03 0.32000000E+00 0.0000E+00 0.9000E+01
       25  2    1    2    0    0 -.18998298E+02 -.56511354E+02 -.55852670E+03 0.63668563E+03 0.29977000E+03 0.0000E+00 0.0000E+00
       23  2    1    2    0    0 0.18998298E+02 0.56511354E+02 -.83792299E+02 0.13778415E+03 0.91699805E+02 0.0000E+00 0.0000E+00
       23  1    3    3    0    0 0.10095390E+03 -.38740630E+01 -.17819731E+03 0.22422362E+03 0.91188000E+02 0.0000E+00 0.9000E+01
      -11  1    4    4    0    0 0.26094079E+02 0.43732101E+02 -.10225580E+03 0.11423505E+03 0.51099893E-03 0.0000E+00 0.9000E+01
       11  1    4    4    0    0 -.70957812E+01 0.12779253E+02 0.18463500E+02 0.23549103E+02 0.51099893E-03 0.0000E+00 0.9000E+01
       23  1    3    3    0    0 -.11995220E+03 -.52637291E+02 -.38032939E+03 0.41246201E+03 0.91188000E+02 0.0000E+00 0.9000E+01
#aMCatNLO 1  0  0  1  1 0.18182659D+03 0.00000000D+00  -5  7  0 0.00000000D+00 0.00000000D+00 0.00000000D+00 0.00000000D+00 0.00000000D+00
  <mgrwgt>
 0.1851221376D-03    5    2    0
 0.216350263977229D+03 0.000000000000000D+00 0.000000000000000D+00 0.216350263977229D+03
 0.216350263977229D+03 0.000000000000000D+00 0.000000000000000D+00 -.216350263977229D+03
 0.136803392525450D+03 0.100953903932556D+03 -.387406314620485D+01 0.139002797809189D+02
 0.526709543589868D+02 0.260940787070281D+02 0.437321013728571D+02 -.134473714543790D+02
 0.695574043395451D+02 -.709578102032623D+01 0.127792530996985D+02 0.680042136957732D+02
 0.173668776730476D+03 -.119952201619258D+03 -.526372913263507D+02 -.684571220223131D+02
 0.000000000000000D+00 -.000000000000000D+00 -.000000000000000D+00 0.000000000000000D+00
 0.376335343729425D+03 0.000000000000000D+00 0.000000000000000D+00 0.376335343729425D+03
 0.293021307689856D+03 0.000000000000000D+00 0.000000000000000D+00 -.293021307689856D+03
 0.182346532012521D+03 0.153850705711068D+03 0.327375772960022D+02 0.139002797809189D+02
 0.766069401866715D+02 0.475209587917562D+02 0.585623595942344D+02 -.134473714543790D+02
 0.760534647960144D+02 0.170381719881578D+02 0.294831667634290D+02 0.680042136957732D+02
 0.134344375012984D+03 -.689012397350093D+02 -.173032182275465D+02 -.684571220223131D+02
 0.200005339411090D+03 -.149508596755973D+03 -.103479885426119D+03 0.833140360395693D+02
0.102495434076D-05 0.000000000000D+00 0.000000000000D+00 0.142883934290D-06 0.000000000000D+00  7 -1 1 23 -11 11 23 21 0 0.10165445D-01 0.10898375D+00 0.32624506D+05 0.32624506D+05 0.32624506D+05 0.11639716D+01  1  2  2  1  7  1       -1 0.182818933321D-03 0.100000000000D+01
-.546865478708D-07 0.000000000000D+00 -.393609454519D-08 0.142883934290D-06 0.000000000000D+00  7 -1 1 23 -11 11 23 21 2 0.10165445D-01 0.10898375D+00 0.32624506D+05 0.32624506D+05 0.32624506D+05 0.11639716D+01  1  2  3  1  7  1       -1 -.132154485453D-04 0.100000000000D+01
0.672602601961D-07 0.000000000000D+00 0.000000000000D+00 0.142883934290D-06 0.000000000000D+00  7 -1 1 23 -11 11 23 21 2 0.10165445D-01 0.10898375D+00 0.32624506D+05 0.32624506D+05 0.32624506D+05 0.11639716D+01  1  2 15  1  7  1       -1 0.162539882727D-04 0.100000000000D+01
-.122452852398D-06 0.000000000000D+00 -.327473863961D-06 0.142883934290D-06 0.000000000000D+00  7 -1 1 23 -11 11 23 21 2 0.23824445D-01 0.10898375D+00 0.32624506D+05 0.32624506D+05 0.32624506D+05 0.11639716D+01  1  2  5  1  7  1       -1 -.786678120096D-05 0.100000000000D+01
0.930577834354D-08 0.000000000000D+00 -.304211127371D-07 0.142883934290D-06 0.000000000000D+00  7 21 1 23 -11 11 23 1 2 0.23824445D-01 0.10898375D+00 0.32624506D+05 0.32624506D+05 0.32624506D+05 0.11639716D+01  1  2  5  3  7  1       -1 0.713144578167D-05 0.100000000000D+01
  </mgrwgt>
  </event>
  <event>
  8     66 0.58687835E-06 0.36461927E+03 0.75467711E-02 0.94217303E-01
       -3 -1    0    0    0  501 0.00000000E+00 0.00000000E+00 0.31334705E+03 0.31334745E+03 0.50000000E+00 0.0000E+00 0.9000E+01
        3 -1    0    0  501    0 0.00000000E+00 0.00000000E+00 -.56078490E+03 0.56078512E+03 0.50000000E+00 0.0000E+00 0.9000E+01
       25  2    1    2    0    0 0.37800272E+02 -.29427270E+03 -.34904777E+03 0.54737878E+03 0.29960624E+03 0.0000E+00 0.0000E+00
       23  2    1    2    0    0 -.37800272E+02 0.29427270E+03 0.10160992E+03 0.32675380E+03 0.91750654E+02 0.0000E+00 0.0000E+00
       23  1    3    3    0    0 -.92079732E+02 -.71122842E+02 -.12201898E+03 0.19167947E+03 0.91188000E+02 0.0000E+00 0.9000E+01
      -11  1    4    4    0    0 0.23984131E+02 0.47668461E+02 0.10811660E+01 0.53373117E+02 0.51099893E-03 0.0000E+00 0.9000E+01
       11  1    4    4    0    0 -.61784403E+02 0.24660424E+03 0.10052876E+03 0.27338068E+03 0.51099893E-03 0.0000E+00 0.9000E+01
       23  1    3    3    0    0 0.12988000E+03 -.22314986E+03 -.22702879E+03 0.35569931E+03 0.91188000E+02 0.0000E+00 0.9000E+01
#aMCatNLO 1  0  0  1  1 0.27638159D+03 0.00000000D+00  -5  7  0 0.00000000D+00 0.00000000D+00 0.00000000D+00 0.00000000D+00 0.00000000D+00
  <mgrwgt>
 0.2213273585D-04    3    2    0
 0.419190372730957D+03 0.000000000000000D+00 0.000000000000000D+00 0.419190372730957D+03
 0.419190372730957D+03 0.000000000000000D+00 0.000000000000000D+00 -.419190372730957D+03
 0.163841016402880D+03 -.920797321445741D+02 -.711228415686459D+02 -.706504893635810D+02
 0.559682487383975D+02 0.239841312009532D+02 0.476684612647684D+02 0.168796954364667D+02
 0.314708537318618D+03 -.617844029037978D+02 0.246604243719057D+03 0.185500668459164D+03
 0.303862943002019D+03 0.129880003847419D+03 -.223149863415180D+03 -.131729874532050D+03
 0.000000000000000D+00 -.000000000000000D+00 0.000000000000000D+00 -.000000000000000D+00
 0.522889903066229D+03 0.000000000000000D+00 0.000000000000000D+00 0.522889903066229D+03
 0.675671032547667D+03 0.000000000000000D+00 0.000000000000000D+00 -.675671032547667D+03
 0.193338912147718D+03 -.872811368795420D+02 -.128277804409665D+03 -.706504893635810D+02
 0.439331917780049D+02 0.253262743089862D+02 0.316825038688717D+02 0.168796954364667D+02
 0.248653410996822D+03 -.542158197847642D+02 0.156456593618243D+03 0.185500668459164D+03
 0.396836660256917D+03 0.139293673344617D+03 -.335273912348988D+03 -.131729874532050D+03
 0.315798760434434D+03 -.231229909892966D+02 0.275412619271539D+03 -.152781129481438D+03
0.965137521952D-05 0.000000000000D+00 0.000000000000D+00 0.633842329086D-06 0.000000000000D+00  7 -3 3 23 -11 11 23 21 0 0.48207287D-01 0.86274648D-01 0.13294721D+06 0.13294721D+06 0.13294721D+06 0.11117119D+01  1  2  2  1  7  1       -3 0.218676856296D-04 0.100000000000D+01
-.523506062699D-06 0.000000000000D+00 -.370638221084D-07 0.633842329086D-06 0.000000000000D+00  7 -3 3 23 -11 11 23 21 2 0.48207287D-01 0.86274648D-01 0.13294721D+06 0.13294721D+06 0.13294721D+06 0.11117119D+01  1  2  3  1  7  1       -3 -.146595219565D-05 0.100000000000D+01
0.618158125277D-06 0.000000000000D+00 0.000000000000D+00 0.633842329086D-06 0.000000000000D+00  7 -3 3 23 -11 11 23 21 2 0.48207287D-01 0.86274648D-01 0.13294721D+06 0.13294721D+06 0.13294721D+06 0.11117119D+01  1  2 15  1  7  1       -3 0.173100241922D-05 0.100000000000D+01
  </mgrwgt>
  </event>
  <event>
  8     66 0.58687835E-06 0.59094029E+02 0.75467711E-02 0.10721731E+00
       -1 -1    0    0    0  501 0.00000000E+00 0.00000000E+00 0.18891169E+02 0.18893879E+02 0.32000000E+00 0.0000E+00 0.9000E+01
        1 -1    0    0  501    0 0.00000000E+00 0.00000000E+00 -.29530389E+04 0.29530389E+04 0.32000000E+00 0.0000E+00 0.9000E+01
       25  2    1    2    0    0 -.47712378E+02 -.19236023E+02 -.26470508E+04 0.26662625E+04 0.31532749E+03 0.0000E+00 0.0000E+00
       23  2    1    2    0    0 0.47712378E+02 0.19236023E+02 -.28709696E+03 0.30567030E+03 0.91450373E+02 0.0000E+00 0.0000E+00
       23  1    3    3    0    0 -.12385800E+03 -.92004525E+02 -.15907222E+04 0.16007866E+04 0.91188000E+02 0.0000E+00 0.9000E+01
      -13  1    4    4    0    0 0.81392383E+01 -.59624802E+01 0.39727026E+01 0.10843980E+02 0.10565837E+00 0.0000E+00 0.9000E+01
       13  1    4    4    0    0 0.39573139E+02 0.25198503E+02 -.29106966E+03 0.29482632E+03 0.10565837E+00 0.0000E+00 0.9000E+01
       23  1    3    3    0    0 0.76145621E+02 0.72768502E+02 -.10563286E+04 0.10654759E+04 0.91188000E+02 0.0000E+00 0.9000E+01
#aMCatNLO 1  0  0  2  1 0.60178392D+00 0.00000000D+00  -5  7  0 0.00000000D+00 0.00000000D+00 0.00000000D+00 0.00000000D+00 0.00000000D+00
  <mgrwgt>
 0.3166671271D-03   11    2    0
 0.236199933057643D+03 0.000000000000000D+00 0.000000000000000D+00 0.236199933057643D+03
 0.236199933057643D+03 0.000000000000000D+00 0.000000000000000D+00 -.236199933057643D+03
 0.190550254306212D+03 -.123856244484057D+03 -.920023356896845D+02 -.647251805876987D+02
 0.928999845393355D+02 0.814115315095661D+01 -.596173255428553D+01 0.923503464949245D+02
 0.469159285163650D+02 0.395741682591648D+02 0.251989419928075D+02 0.536431832166997D-01
 0.142033698753373D+03 0.761409230739358D+02 0.727651262511626D+02 -.276788090904425D+02
 0.000000000000000D+00 -.000000000000000D+00 -.000000000000000D+00 -.000000000000000D+00
 0.236217182688515D+03 0.000000000000000D+00 0.000000000000000D+00 0.236217182688515D+03
 0.241507668319704D+03 0.000000000000000D+00 0.000000000000000D+00 -.241507668319704D+03
 0.190365565116921D+03 -.123623898627305D+03 -.919324737204450D+02 -.647251805876987D+02
 0.929078047545563D+02 0.825448966205279D+01 -.592765442626301D+01 0.923503464949245D+02
 0.469734876716360D+02 0.396314376497541D+02 0.252161618066644D+02 0.536431832166997D-01
 0.142153391874292D+03 0.763142676547670D+02 0.728172476616457D+02 -.276788090904425D+02
 0.532460159081367D+01 -.576296339269068D+00 -.173281321602138D+00 -.529048563118967D+01
0.263708506561D-05 0.000000000000D+00 0.000000000000D+00 0.128776260305D-08 0.000000000000D+00  7 -1 1 23 -13 13 23 21 0 0.29065434D-02 0.45431389D+00 0.35257167D+05 0.35257167D+05 0.35257167D+05 0.11608849D+01  1  2  2  2  7  2        1 0.847749459339D-04 0.100000000000D+01
-.137125392100D-06 0.000000000000D+00 -.101271010124D-07 0.128776260305D-08 0.000000000000D+00  7 -1 1 23 -13 13 23 21 2 0.29065434D-02 0.45431389D+00 0.35257167D+05 0.35257167D+05 0.35257167D+05 0.11608849D+01  1  2  3  2  7  2        1 -.594072672057D-05 0.100000000000D+01
0.166474835426D-06 0.000000000000D+00 0.000000000000D+00 0.128776260305D-08 0.000000000000D+00  7 -1 1 23 -13 13 23 21 2 0.29065434D-02 0.45431389D+00 0.35257167D+05 0.35257167D+05 0.35257167D+05 0.11608849D+01  1  2 15  2  7  2        1 0.721224193396D-05 0.100000000000D+01
0.139325259929D-11 0.000000000000D+00 0.000000000000D+00 0.128776260305D-08 0.000000000000D+00  7 -1 1 23 -13 13 23 21 2 0.29065434D-02 0.46453934D+00 0.35380590D+05 0.35380590D+05 0.35380590D+05 0.11607465D+01  1  2 12  2  7  2        1 0.540136370030D-10 0.100000000000D+01
-.136876993681D-02 0.000000000000D+00 0.000000000000D+00 0.128776260305D-08 0.000000000000D+00  7 -1 1 23 -13 13 23 21 2 0.29065434D-02 0.45431389D+00 0.35257167D+05 0.35257167D+05 0.35257167D+05 0.11608849D+01  1  2  4  2  7  2        1 -.592996527729D-01 0.100000000000D+01
-.142262876596D-02 0.000000000000D+00 -.894033352927D-05 0.128776260305D-08 0.000000000000D+00  7 -1 1 23 -13 13 23 21 2 0.29065434D-02 0.46453194D+00 0.35257167D+05 0.35257167D+05 0.35257167D+05 0.11608849D+01  1  2  5  2  7  2        1 -.551754104922D-01 0.100000000000D+01
0.142247795944D-02 0.000000000000D+00 0.893812257045D-05 0.128776260305D-08 0.000000000000D+00  7 -1 1 23 -13 13 23 21 2 0.29065434D-02 0.45431389D+00 0.35257167D+05 0.35257167D+05 0.35257167D+05 0.11608849D+01  1  2  6  2  7  2        1 0.616264624196D-01 0.100000000000D+01
0.136910221297D-02 0.000000000000D+00 0.000000000000D+00 0.128776260305D-08 0.255583930083D-07  7 -1 1 23 -13 13 23 21 2 0.29067557D-02 0.46452294D+00 0.35380590D+05 0.35380590D+05 0.35380590D+05 0.11607465D+01  1  2 11  2  7  2        1 0.530813181884D-01 0.100000000000D+01
0.759334734738D-13 0.000000000000D+00 0.000000000000D+00 0.128776260305D-08 0.000000000000D+00  7 -1 21 23 -13 13 23 -1 2 0.29065434D-02 0.46453934D+00 0.35380590D+05 0.35380590D+05 0.35380590D+05 0.11607465D+01  1  2 12  4  7  2        1 0.724654094831D-12 0.100000000000D+01
-.573820233941D-05 0.000000000000D+00 -.360711540183D-07 0.128776260305D-08 0.000000000000D+00  7 -1 21 23 -13 13 23 -1 2 0.29065434D-02 0.46453194D+00 0.35257167D+05 0.35257167D+05 0.35257167D+05 0.11608849D+01  1  2  5  4  7  2        1 -.547986597083D-04 0.100000000000D+01
0.552144402415D-05 0.000000000000D+00 0.000000000000D+00 0.128776260305D-08 0.103054877358D-09  7 -1 21 23 -13 13 23 -1 2 0.29067557D-02 0.46452294D+00 0.35380590D+05 0.35380590D+05 0.35380590D+05 0.11607465D+01  1  2 11  4  7  2        1 0.527019280200D-04 0.100000000000D+01
  </mgrwgt>
  </event>
  <event>
  8     66 0.58687835E-06 0.41813682E+03 0.75467711E-02 0.92551386E-01
       -1 -1    0    0    0  501 0.00000000E+00 0.00000000E+00 0.64183666E+03 0.64183674E+03 0.32000000E+00 0.0000E+00 0.9000E+01
        1 -1    0    0  501    0 0.00000000E+00 0.00000000E+00 -.41919839E+03 0.41919851E+03 0.32000000E+00 0.0000E+00 0.9000E+01
       25  2    1    2    0    0 -.43835286E+03 -.17253640E+02 -.52977438E+02 0.53401415E+03 0.29985593E+03 0.0000E+00 0.0000E+00
       23  2    1    2    0    0 0.43835286E+03 0.17253640E+02 0.27561571E+03 0.52702111E+03 0.96624597E+02 0.0000E+00 0.0000E+00
       23  1    3    3    0    0 -.54941815E+02 0.70408666E+02 -.13734123E+02 0.12837391E+03 0.91188000E+02 0.0000E+00 0.9000E+01
      -11  1    4    4    0    0 0.41471864E+03 -.39097802E+01 0.26978919E+03 0.49476565E+03 0.51099893E-03 0.0000E+00 0.9000E+01
       11  1    4    4    0    0 0.23634222E+02 0.21163420E+02 0.58265209E+01 0.32255466E+02 0.51099893E-03 0.0000E+00 0.9000E+01
       23  1    3    3    0    0 -.38341105E+03 -.87662305E+02 -.39243315E+02 0.40564024E+03 0.91188000E+02 0.0000E+00 0.9000E+01
#aMCatNLO 1  0  0  2  1 0.20951812D+03 0.00000000D+00  -5  7  0 0.00000000D+00 0.00000000D+00 0.00000000D+00 0.00000000D+00 0.00000000D+00
  <mgrwgt>
 0.3098204263D-03    9    2    0
 0.518707050662596D+03 0.000000000000000D+00 0.000000000000000D+00 0.518707050662596D+03
 0.518707050662596D+03 0.000000000000000D+00 0.000000000000000D+00 -.518707050662596D+03
 0.134244353729183D+03 -.549418149324770D+02 0.704086655336464D+02 -.415970185693942D+02
 0.448131941812035D+03 0.414718641609206D+03 -.390978016196255D+01 0.169750991729430D+03
 0.317394765825335D+02 0.236342216961765D+02 0.211634196914551D+02 -.963122792019796D+00
 0.423298329201442D+03 -.383411048372905D+03 -.876623050631389D+02 -.127190850368016D+03
 0.000000000000000D+00 0.000000000000000D+00 -.000000000000000D+00 -.000000000000000D+00
 0.612551100971514D+03 0.000000000000000D+00 0.000000000000000D+00 0.612551100971514D+03
 0.660813853469770D+03 0.000000000000000D+00 0.000000000000000D+00 -.660813853469770D+03
 0.153498705424567D+03 -.802081284069480D+02 0.841602364933109D+02 -.415970185693942D+02
 0.383235485549348D+03 0.341717436666315D+03 0.358222231208864D+02 0.169750991729430D+03
 0.302311044865466D+02 0.181926720994932D+02 0.241250648671524D+02 -.963122792019796D+00
 0.491394690868653D+03 -.463728956460665D+03 -.439480760951251D+02 -.127190850368016D+03
 0.215004968112169D+03 0.184026976101804D+03 -.100159448386225D+03 -.482627524982570D+02
0.331503529974D-04 0.000000000000D+00 0.000000000000D+00 0.141860026946D-06 0.000000000000D+00  7 -1 1 23 -11 11 23 21 0 0.98744118D-01 0.64492076D-01 0.23904108D+06 0.23904108D+06 0.23904108D+06 0.10919267D+01  1  2  2  2  7  2        1 0.236111787796D-03 0.100000000000D+01
-.183385346888D-05 0.000000000000D+00 -.127306084198D-06 0.141860026946D-06 0.000000000000D+00  7 -1 1 23 -11 11 23 21 2 0.98744118D-01 0.64492076D-01 0.23904108D+06 0.23904108D+06 0.23904108D+06 0.10919267D+01  1  2  3  2  7  2        1 -.155733157240D-04 0.100000000000D+01
0.213173709697D-05 0.000000000000D+00 0.000000000000D+00 0.141860026946D-06 0.000000000000D+00  7 -1 1 23 -11 11 23 21 2 0.98744118D-01 0.64492076D-01 0.23904108D+06 0.23904108D+06 0.23904108D+06 0.10919267D+01  1  2 15  2  7  2        1 0.181029811895D-04 0.100000000000D+01
0.147461729670D-04 0.000000000000D+00 0.000000000000D+00 0.141860026946D-06 0.000000000000D+00  7 -1 1 23 -11 11 23 21 2 0.98744118D-01 0.86669889D-01 0.36344461D+06 0.36344461D+06 0.36344461D+06 0.10784410D+01  1  2 12  2  7  2        1 0.795829624357D-04 0.100000000000D+01
-.177785626413D-04 0.000000000000D+00 0.000000000000D+00 0.141860026946D-06 0.000000000000D+00  7 -1 1 23 -11 11 23 21 2 0.98744118D-01 0.64492076D-01 0.23904108D+06 0.23904108D+06 0.23904108D+06 0.10919267D+01  1  2  4  2  7  2        1 -.150977803750D-03 0.100000000000D+01
-.327955499505D-04 0.000000000000D+00 -.143950315619D-04 0.141860026946D-06 0.000000000000D+00  7 -1 1 23 -11 11 23 21 2 0.98744118D-01 0.94258363D-01 0.23904108D+06 0.23904108D+06 0.23904108D+06 0.10919267D+01  1  2  5  2  7  2        1 -.163421892887D-03 0.100000000000D+01
0.365710333799D-04 0.000000000000D+00 0.134172190350D-04 0.141860026946D-06 0.000000000000D+00  7 -1 1 23 -11 11 23 21 2 0.98744118D-01 0.64492076D-01 0.23904108D+06 0.23904108D+06 0.23904108D+06 0.10919267D+01  1  2  6  2  7  2        1 0.310565843368D-03 0.100000000000D+01
0.563911465351D-06 0.000000000000D+00 0.000000000000D+00 0.141860026946D-06 0.000000000000D+00  7 -1 21 23 -11 11 23 -1 2 0.98744118D-01 0.86669889D-01 0.36344461D+06 0.36344461D+06 0.36344461D+06 0.10784410D+01  1  2 12  4  7  2        1 0.776942313914D-05 0.100000000000D+01
-.104522159859D-05 0.000000000000D+00 -.659364910568D-06 0.141860026946D-06 0.000000000000D+00  7 -1 21 23 -11 11 23 -1 2 0.98744118D-01 0.94258363D-01 0.23904108D+06 0.23904108D+06 0.23904108D+06 0.10919267D+01  1  2  5  4  7  2        1 -.123395593065D-04 0.100000000000D+01
  </mgrwgt>
  </event>
  <event>
  7     66 0.58687835E-06 0.85726071E+02 0.75467711E-02 0.10314253E+00
       -1 -1    0    0    0  501 0.00000000E+00 0.00000000E+00 0.30472240E+03 0.30472256E+03 0.32000000E+00 0.0000E+00 0.9000E+01
        1 -1    0    0  501    0 0.00000000E+00 0.00000000E+00 -.45034556E+03 0.45034568E+03 0.32000000E+00 0.0000E+00 0.9000E+01
       25  2    1    2    0    0 0.47425135E+02 0.13594471E+03 -.31461061E+03 0.45894502E+03 0.30153042E+03 0.0000E+00 0.0000E+00
       23  1    3    3    0    0 -.15137493E+02 0.35413004E+02 -.29133363E+03 0.30769102E+03 0.91188000E+02 0.0000E+00 0.9000E+01
      -13  1    1    2    0    0 0.25817110E+02 -.14643504E+03 0.16487182E+03 0.22201908E+03 0.10565837E+00 0.0000E+00 0.9000E+01
       13  1    1    2    0    0 -.73242245E+02 0.10490336E+02 0.41156266E+01 0.74104137E+02 0.10565837E+00 0.0000E+00 0.9000E+01
       23  1    3    3    0    0 0.62562628E+02 0.10053170E+03 -.23276976E+02 0.15125401E+03 0.91188000E+02 0.0000E+00 0.9000E+01
#aMCatNLO 1  0  0  1  2 0.32762214D+02 0.00000000D+00  -5  7  0 0.00000000D+00 0.00000000D+00 0.00000000D+00 0.00000000D+00 0.00000000D+00
  <mgrwgt>
 0.3814537965D-03    9    2    0
 0.370446332858647D+03 0.000000000000000D+00 0.000000000000000D+00 0.370446332858647D+03
 0.370446332858647D+03 0.000000000000000D+00 0.000000000000000D+00 -.370446332858647D+03
 0.256318824596951D+03 -.151369473356014D+02 0.354145686403408D+02 -.236433435985988D+03
 0.258672765052487D+03 0.258124782528580D+02 -.146434349870467D+03 0.211665529844514D+03
 0.763275374978819D+02 -.732384774779065D+02 0.104871648918206D+02 0.187626695792608D+02
 0.149573538569975D+03 0.625629465606498D+02 0.100532616338305D+03 0.600523656221344D+01
 0.000000000000000D+00 0.000000000000000D+00 -.000000000000000D+00 0.000000000000000D+00
 0.394333805836163D+03 0.000000000000000D+00 0.000000000000000D+00 0.394333805836163D+03
 0.382214733526094D+03 0.000000000000000D+00 0.000000000000000D+00 -.382214733526094D+03
 0.258240450502494D+03 -.175069555263480D+02 0.465361771935447D+02 -.236433435985988D+03
 0.252354536577741D+03 0.234587379761431D+02 -.135389080872773D+03 0.211665529844514D+03
 0.775306718675216D+02 -.739471328924632D+02 0.138126336182919D+02 0.187626695792608D+02
 0.153491024235757D+03 0.611670617113566D+02 0.107083009260912D+03 0.600523656221344D+01
 0.349318561787440D+02 0.682828873131151D+01 -.320427391999755D+02 0.121190723100680D+02
0.843146184390D-05 0.000000000000D+00 0.000000000000D+00 0.533923796824D-10 0.000000000000D+00  7 -1 1 23 -13 13 23 21 0 0.46880390D-01 0.69283955D-01 0.55488077D+05 0.55488077D+05 0.55488077D+05 0.11433381D+01  1  2  2  1  7  1       -1 0.241267115879D-03 0.100000000000D+01
-.351673717502D-06 0.000000000000D+00 -.323790335355D-07 0.533923796824D-10 0.000000000000D+00  7 -1 1 23 -13 13 23 21 2 0.46880390D-01 0.69283955D-01 0.55488077D+05 0.55488077D+05 0.55488077D+05 0.11433381D+01  1  2  3  1  7  1       -1 -.131548088864D-04 0.100000000000D+01
0.515662771791D-06 0.000000000000D+00 0.000000000000D+00 0.533923796824D-10 0.000000000000D+00  7 -1 1 23 -13 13 23 21 2 0.46880390D-01 0.69283955D-01 0.55488077D+05 0.55488077D+05 0.55488077D+05 0.11433381D+01  1  2 15  1  7  1       -1 0.192890309260D-04 0.100000000000D+01
0.218592082268D-04 0.000000000000D+00 0.000000000000D+00 0.533923796824D-10 0.000000000000D+00  7 -1 1 23 -13 13 23 21 2 0.50611455D-01 0.69283955D-01 0.63159338D+05 0.63159338D+05 0.63159338D+05 0.11384759D+01  1  2 12  1  7  1       -1 0.706052183162D-03 0.100000000000D+01
-.205401071420D-04 0.000000000000D+00 0.000000000000D+00 0.533923796824D-10 0.000000000000D+00  7 -1 1 23 -13 13 23 21 2 0.46880390D-01 0.69283955D-01 0.55488077D+05 0.55488077D+05 0.55488077D+05 0.11433381D+01  1  2  4  1  7  1       -1 -.768329194115D-03 0.100000000000D+01
-.594022595567D-04 0.000000000000D+00 -.125809315128D-04 0.533923796824D-10 0.000000000000D+00  7 -1 1 23 -13 13 23 21 2 0.51273491D-01 0.69283955D-01 0.55488077D+05 0.55488077D+05 0.55488077D+05 0.11433381D+01  1  2  5  1  7  1       -1 -.189499218691D-02 0.100000000000D+01
0.603372706931D-04 0.000000000000D+00 0.125306276791D-04 0.533923796824D-10 0.000000000000D+00  7 -1 1 23 -13 13 23 21 2 0.46880390D-01 0.69283955D-01 0.55488077D+05 0.55488077D+05 0.55488077D+05 0.11433381D+01  1  2  6  1  7  1       -1 0.225699341518D-02 0.100000000000D+01
0.284686378767D-06 0.000000000000D+00 0.000000000000D+00 0.533923796824D-10 0.000000000000D+00  7 21 1 23 -13 13 23 1 2 0.50611455D-01 0.69283955D-01 0.63159338D+05 0.63159338D+05 0.63159338D+05 0.11384759D+01  1  2 12  3  7  1       -1 0.861548238133D-04 0.100000000000D+01
-.842920616325D-06 0.000000000000D+00 -.185672571070D-06 0.533923796824D-10 0.000000000000D+00  7 21 1 23 -13 13 23 1 2 0.51273491D-01 0.69283955D-01 0.55488077D+05 0.55488077D+05 0.55488077D+05 0.11433381D+01  1  2  5  3  7  1       -1 -.251826582599D-03 0.100000000000D+01
  </mgrwgt>
  </event>
  <event>
  9     66 0.58687835E-06 0.48616922E+03 0.75467711E-02 0.93324771E-01
       21 -1    0    0  502  501 0.00000000E+00 0.00000000E+00 0.57157796E+03 0.57157845E+03 0.75000000E+00 0.0000E+00 0.9000E+01
        1 -1    0    0  501    0 0.00000000E+00 0.00000000E+00 -.60945508E+03 0.60945516E+03 0.32000000E+00 0.0000E+00 0.9000E+01
       25  2    1    2    0    0 0.37542172E+03 -.28058520E+03 0.87013449E+02 0.56344375E+03 0.30037976E+03 0.0000E+00 0.0000E+00
       23  2    1    2    0    0 -.41517388E+03 0.14620152E+03 -.15440934E+03 0.47437441E+03 0.86282114E+02 0.0000E+00 0.0000E+00
       23  1    3    3    0    0 0.36604538E+02 -.19223106E+02 -.40067766E+02 0.10784293E+03 0.91188000E+02 0.0000E+00 0.9000E+01
      -11  1    4    4    0    0 -.39639177E+03 0.15400434E+03 -.13477040E+03 0.44610182E+03 0.51099893E-03 0.0000E+00 0.9000E+01
       11  1    4    4    0    0 -.18782113E+02 -.78028217E+01 -.19638934E+02 0.28272593E+02 0.51099893E-03 0.0000E+00 0.9000E+01
       23  1    3    3    0    0 0.33881718E+03 -.26136209E+03 0.12708121E+03 0.45560082E+03 0.91188000E+02 0.0000E+00 0.9000E+01
        1  1    1    2  502    0 0.39752162E+02 0.13438368E+03 0.29518772E+02 0.14321546E+03 0.32000000E+00 0.0000E+00 0.9000E+01
#aMCatNLO 2  0  0  1  2 0.14013996D+03 0.00000000D+00  -5  7  0 0.00000000D+00 0.00000000D+00 0.00000000D+00 0.00000000D+00 0.00000000D+00
  <mgrwgt>
 0.1263409448D-04    2    2    0
 0.513050952668392D+03 0.000000000000000D+00 0.000000000000000D+00 0.513050952668392D+03
 0.513050952668392D+03 0.000000000000000D+00 0.000000000000000D+00 -.513050952668392D+03
 0.105343128368108D+03 0.406690970684295D+02 -.548271168305157D+01 -.331343894861359D+02
 0.447156206056538D+03 -.379319785327565D+03 0.211716811262430D+03 -.106024359949946D+03
 0.255559661949091D+02 -.177677345166305D+02 -.437367743596033D+01 -.178405707304459D+02
 0.448046604717228D+03 0.356418422775766D+03 -.201860422143419D+03 0.156999320166528D+03
 0.000000000000000D+00 0.000000000000000D+00 0.000000000000000D+00 0.000000000000000D+00
 0.609983917394565D+03 0.000000000000000D+00 0.000000000000000D+00 0.609983917394565D+03
 0.571082635116926D+03 0.000000000000000D+00 0.000000000000000D+00 -.571082635116926D+03
 0.105463544063432D+03 0.366045379466898D+02 -.192231063439263D+02 -.331343894861359D+02
 0.438274952423926D+03 -.396391765309807D+03 0.154004342191946D+03 -.106024359949946D+03
 0.270543481732201D+02 -.187821129074854D+02 -.780282165759562D+01 -.178405707304459D+02
 0.464834659408677D+03 0.338817177870327D+03 -.261362091150986D+03 0.156999320166528D+03
 0.145439048442236D+03 0.397521624002756D+02 0.134383676960562D+03 0.389012822776379D+02
-.779898154837D-06 0.000000000000D+00 0.000000000000D+00 0.844390544208D-07 0.000000000000D+00  7 21 1 23 -11 11 23 1 2 0.91474328D-01 0.84234492D-01 0.31549426D+06 0.31549426D+06 0.31549426D+06 0.10829375D+01  1  2 13  3  7  1       -1 -.377111855536D-04 0.100000000000D+01
0.110107720936D-05 0.000000000000D+00 0.000000000000D+00 0.844390544208D-07 0.780531882310D-12  7 21 1 23 -11 11 23 1 2 0.87935089D-01 0.93762336D-01 0.31549426D+06 0.31549426D+06 0.31549426D+06 0.10829375D+01  1  2  1  3  7  1       -1 0.503452800384D-04 0.100000000000D+01
  </mgrwgt>
  </event>
  <event>
  8     66 0.58687835E-06 0.26006470E+03 0.75467711E-02 0.10018394E+00
       -1 -1    0    0    0  501 0.00000000E+00 0.00000000E+00 0.45237963E+03 0.45237975E+03 0.32000000E+00 0.0000E+00 0.9000E+01
        1 -1    0    0  501    0 0.00000000E+00 0.00000000E+00 -.20410500E+03 0.20410525E+03 0.32000000E+00 0.0000E+00 0.9000E+01
       25  2    1    2    0    0 0.13653911E+03 0.14137371E+03 0.48487052E+02 0.36133577E+03 0.29930434E+03 0.0000E+00 0.0000E+00
       23  2    1    2    0    0 -.13653911E+03 -.14137371E+03 0.19978758E+03 0.29514923E+03 0.92566404E+02 0.0000E+00 0.0000E+00
       23  1    3    3    0    0 0.80729759E+02 0.17223173E+03 -.45367608E+02 0.21576499E+03 0.91188000E+02 0.0000E+00 0.9000E+01
      -13  1    4    4    0    0 -.37423425E+02 -.54512697E+02 0.14368953E+02 0.67665537E+02 0.10565837E+00 0.0000E+00 0.9000E+01
       13  1    4    4    0    0 -.99115688E+02 -.86861010E+02 0.18541862E+03 0.22748370E+03 0.10565837E+00 0.0000E+00 0.9000E+01
       23  1    3    3    0    0 0.55809355E+02 -.30858019E+02 0.93854660E+02 0.14557077E+03 0.91188000E+02 0.0000E+00 0.9000E+01
#aMCatNLO 1  0  0  2  1 0.10172298D+03 0.00000000D+00  -5  7  0 0.00000000D+00 0.00000000D+00 0.00000000D+00 0.00000000D+00 0.00000000D+00
  <mgrwgt>
 0.1645815596D-03    4    2    0
 0.303863564345790D+03 0.000000000000000D+00 0.000000000000000D+00 0.303863564345790D+03
 0.303863564345790D+03 0.000000000000000D+00 0.000000000000000D+00 -.303863564345790D+03
 0.251609810839500D+03 0.807297590603906D+02 0.172231725518241D+03 -.137153870866810D+03
 0.672240546179122D+02 -.374233449068449D+02 -.545126545213132D+02 -.121217685300175D+02
 0.169985788961496D+03 -.991157692865705D+02 -.868610526763579D+02 0.107361027638285D+03
 0.118907474272671D+03 0.558093551330248D+02 -.308580183205695D+02 0.419146117585423D+02
 0.000000000000000D+00 -.000000000000000D+00 0.000000000000000D+00 0.000000000000000D+00
 0.468612519989718D+03 0.000000000000000D+00 0.000000000000000D+00 0.468612519989718D+03
 0.324206349221109D+03 0.000000000000000D+00 0.000000000000000D+00 -.324206349221109D+03
 0.254322333006252D+03 0.118351062134503D+03 0.153448491421806D+03 -.137153870866810D+03
 0.666307426550981D+02 -.274698522154077D+02 -.594821470168844D+02 -.121217685300175D+02
 0.164001945730051D+03 -.742803166617263D+02 -.992606795479839D+02 0.107361027638285D+03
 0.131226629999504D+03 0.744094204984392D+02 -.401444957527656D+02 0.419146117585423D+02
 0.176637217819923D+03 -.910103137558085D+02 0.454388308958276D+02 0.144406170768609D+03
0.464721537451D-05 0.000000000000D+00 0.000000000000D+00 0.106985149392D-06 0.000000000000D+00  7 -1 1 23 -13 13 23 21 0 0.69596895D-01 0.31400798D-01 0.67633649D+05 0.67633649D+05 0.67633649D+05 0.11359315D+01  1  2  2  2  7  2        1 0.180789318609D-03 0.100000000000D+01
-.250573779256D-06 0.000000000000D+00 -.178465306780D-07 0.106985149392D-06 0.000000000000D+00  7 -1 1 23 -13 13 23 21 2 0.69596895D-01 0.31400798D-01 0.67633649D+05 0.67633649D+05 0.67633649D+05 0.11359315D+01  1  2  3  2  7  2        1 -.125782389668D-04 0.100000000000D+01
0.300033300447D-06 0.000000000000D+00 0.000000000000D+00 0.106985149392D-06 0.000000000000D+00  7 -1 1 23 -13 13 23 21 2 0.69596895D-01 0.31400798D-01 0.67633649D+05 0.67633649D+05 0.67633649D+05 0.11359315D+01  1  2 15  2  7  2        1 0.150609954570D-04 0.100000000000D+01
-.372337742975D-06 0.000000000000D+00 0.000000000000D+00 0.106985149392D-06 0.000000000000D+00  7 -1 1 23 -13 13 23 21 2 0.69596895D-01 0.31400798D-01 0.67633649D+05 0.67633649D+05 0.67633649D+05 0.11359315D+01  1  2  4  2  7  2        1 -.186905155096D-04 0.100000000000D+01
  </mgrwgt>
  </event>
  <event>
  8     66 0.58687835E-06 0.54167276E+03 0.75467711E-02 0.81631136E-01
       -1 -1    0    0    0  501 0.00000000E+00 0.00000000E+00 0.83248388E+03 0.83248394E+03 0.32000000E+00 0.0000E+00 0.9000E+01
        1 -1    0    0  501    0 0.00000000E+00 0.00000000E+00 -.48169435E+03 0.48169445E+03 0.32000000E+00 0.0000E+00 0.9000E+01
       25  2    1    2    0    0 -.22719124E+03 0.45667196E+03 0.50045675E+03 0.77490777E+03 0.29976651E+03 0.0000E+00 0.0000E+00
       23  2    1    2    0    0 0.22719124E+03 -.45667196E+03 -.14966722E+03 0.53927062E+03 0.90815137E+02 0.0000E+00 0.0000E+00
       23  1    3    3    0    0 -.14375188E+03 0.40031327E+03 0.28450398E+03 0.51978177E+03 0.91188000E+02 0.0000E+00 0.9000E+01
      -13  1    4    4    0    0 -.24593883E+01 -.93271701E+01 -.16458327E+02 0.19077012E+02 0.10565837E+00 0.0000E+00 0.9000E+01
       13  1    4    4    0    0 0.22965063E+03 -.44734479E+03 -.13320889E+03 0.52019361E+03 0.10565837E+00 0.0000E+00 0.9000E+01
       23  1    3    3    0    0 -.83439356E+02 0.56358686E+02 0.21595277E+03 0.25512600E+03 0.91188000E+02 0.0000E+00 0.9000E+01
#aMCatNLO 1  0  0  2  2 0.17683547D+04 0.00000000D+00  -5  7  0 0.00000000D+00 0.00000000D+00 0.00000000D+00 0.00000000D+00 0.00000000D+00
  <mgrwgt>
 0.3908641613D-03    5    2    0
 0.633247887451658D+03 0.000000000000000D+00 0.000000000000000D+00 0.633247887451658D+03
 0.633247887451658D+03 0.000000000000000D+00 0.000000000000000D+00 -.633247887451658D+03
 0.460550254418272D+03 -.143751881628320D+03 0.400313274484558D+03 0.151248022468075D+03
 0.243530690600365D+02 -.245970250583209D+01 -.932657717401840D+01 -.223615025086149D+02
 0.576674983587750D+03 0.229650939639642D+03 -.447345382873860D+03 -.282305846627378D+03
 0.204917467837259D+03 -.834393555054896D+02 0.563586855633200D+02 0.153419326667918D+03
 0.000000000000000D+00 -.000000000000000D+00 0.000000000000000D+00 -.000000000000000D+00
 0.168902748731096D+04 0.000000000000000D+00 0.000000000000000D+00 0.168902748731096D+04
 0.238730967193308D+04 0.000000000000000D+00 0.000000000000000D+00 -.238730967193308D+04
 0.203119615100279D+03 0.160061186961269D+02 0.990462849291566D+02 0.151248022468075D+03
 0.517202938132354D+02 0.158526074072372D+02 -.438593984919608D+02 -.223615025086149D+02
 0.169243917674644D+04 0.775870012423304D+03 -.147738942048751D+04 -.282305846627378D+03
 0.227827815655547D+03 0.207306909526979D+02 -.140082157678144D+03 0.153419326667918D+03
 0.190123025792854D+04 -.828459429479366D+03 0.156228469172846D+04 -.698282184622126D+03
0.121223248259D-03 0.000000000000D+00 0.000000000000D+00 0.429726542994D-05 0.000000000000D+00  7 -1 1 23 -13 13 23 21 0 0.12807446D+00 0.74106835D-01 0.29340938D+06 0.29340938D+06 0.29340938D+06 0.10852663D+01  1  2  2  2  7  2        1 0.380823004636D-03 0.100000000000D+01
-.653484289415D-05 0.000000000000D+00 -.465529192129D-06 0.429726542994D-05 0.000000000000D+00  7 -1 1 23 -13 13 23 21 2 0.12807446D+00 0.74106835D-01 0.29340938D+06 0.29340938D+06 0.29340938D+06 0.10852663D+01  1  2  3  2  7  2        1 -.241793750479D-04 0.100000000000D+01
0.781457019332D-05 0.000000000000D+00 0.000000000000D+00 0.429726542994D-05 0.000000000000D+00  7 -1 1 23 -13 13 23 21 2 0.12807446D+00 0.74106835D-01 0.29340938D+06 0.29340938D+06 0.29340938D+06 0.10852663D+01  1  2 15  2  7  2        1 0.289144554205D-04 0.100000000000D+01
0.115363278921D-03 0.000000000000D+00 -.593437065301D-04 0.429726542994D-05 0.000000000000D+00  7 -1 1 23 -13 13 23 21 2 0.12807446D+00 0.47184535D+00 0.29340938D+06 0.29340938D+06 0.29340938D+06 0.10852663D+01  1  2  5  2  7  2        1 0.510670154343D-05 0.100000000000D+01
0.216793560251D-04 0.000000000000D+00 -.134597797051D-04 0.429726542994D-05 0.000000000000D+00  7 -1 21 23 -13 13 23 -1 2 0.12807446D+00 0.47184535D+00 0.29340938D+06 0.29340938D+06 0.29340938D+06 0.10852663D+01  1  2  5  4  7  2        1 0.199374791367D-06 0.100000000000D+01
  </mgrwgt>
  </event>
  <event>
  9     66 0.58687835E-06 0.36298902E+03 0.75467711E-02 0.93394287E-01
       -1 -1    0    0    0  501 0.00000000E+00 0.00000000E+00 0.61667602E+03 0.61667611E+03 0.32000000E+00 0.0000E+00 0.9000E+01
        1 -1    0    0  502    0 0.00000000E+00 0.00000000E+00 -.16258214E+04 0.16258214E+04 0.32000000E+00 0.0000E+00 0.9000E+01
       25  2    1    2    0    0 0.11278295E+03 0.28732019E+03 -.70823961E+03 0.82844046E+03 0.29906080E+03 0.0000E+00 0.0000E+00
       23  2    1    2    0    0 -.37020297E+03 -.12029626E+03 0.45023101E+03 0.60265762E+03 0.94693270E+02 0.0000E+00 0.0000E+00
       23  1    3    3    0    0 -.26481060E+02 0.19901116E+03 -.50632516E+03 0.55225638E+03 0.91188000E+02 0.0000E+00 0.9000E+01
      -13  1    4    4    0    0 -.81507467E+01 0.12468352E+02 0.19204148E+02 0.24304422E+02 0.10565837E+00 0.0000E+00 0.9000E+01
       13  1    4    4    0    0 -.36205223E+03 -.13276461E+03 0.43102686E+03 0.57835320E+03 0.10565837E+00 0.0000E+00 0.9000E+01
       23  1    3    3    0    0 0.13926401E+03 0.88309036E+02 -.20191445E+03 0.27618408E+03 0.91188000E+02 0.0000E+00 0.9000E+01
       21  1    1    2  502  501 0.25742002E+03 -.16702394E+03 -.75113680E+03 0.81139948E+03 0.75000000E+00 0.0000E+00 0.9000E+01
#aMCatNLO 2  0  0  2  1 0.30685837D+03 0.00000000D+00  -5  7  0 0.00000000D+00 0.00000000D+00 0.00000000D+00 0.00000000D+00 0.00000000D+00
  <mgrwgt>
 0.9292754489D-04    2    2    0
 0.686897229747304D+03 0.000000000000000D+00 0.000000000000000D+00 0.686897229747304D+03
 0.686897229747304D+03 0.000000000000000D+00 0.000000000000000D+00 -.686897229747304D+03
 0.451043027885454D+03 0.586358693834007D+02 0.143784044272145D+03 -.413536630898010D+03
 0.258809689706964D+02 -.314252778029818D+01 0.921929477012814D+01 0.239781917156756D+02
 0.631728565111333D+03 -.241857251895456D+03 -.210752164631621D+03 0.544214640363789D+03
 0.265141897527123D+03 0.186363910292353D+03 0.577488255893474D+02 -.154656201181454D+03
 0.000000000000000D+00 0.000000000000000D+00 -.000000000000000D+00 -.000000000000000D+00
 0.739979958889219D+03 0.000000000000000D+00 0.000000000000000D+00 0.739979958889219D+03
 0.135490788919859D+04 0.000000000000000D+00 0.000000000000000D+00 -.135490788919859D+04
 0.468651772301377D+03 -.264810598574624D+02 0.199011157253984D+03 -.413536630898010D+03
 0.282284514543652D+02 -.815030613095154D+01 0.124685325331226D+02 0.239781917156756D+02
 0.666991902574862D+03 -.362052666862736D+03 -.132764791009239D+03 0.544214640363789D+03
 0.243776010755318D+03 0.139264014131273D+03 0.883090362304056D+02 -.154656201181454D+03
 0.687239711001886D+03 0.257420018719877D+03 -.167023935008273D+03 -.614927930309371D+03
-.432501095713D-05 0.000000000000D+00 0.000000000000D+00 0.173869852955D-06 0.000000000000D+00  7 -1 1 23 -13 13 23 21 2 0.88067454D-01 0.25052517D+00 0.31154371D+06 0.31154371D+06 0.31154371D+06 0.10833408D+01  1  2 13  2  7  2        1 -.446782803039D-05 0.100000000000D+01
0.110251296198D-03 0.000000000000D+00 0.000000000000D+00 0.173869852955D-06 0.143993559728D-10  7 -1 1 23 -13 13 23 21 2 0.94873218D-01 0.25012631D+00 0.31154371D+06 0.31154371D+06 0.31154371D+06 0.10833408D+01  1  2  1  2  7  2        1 0.973953729240D-04 0.100000000000D+01
  </mgrwgt>
  </event>
  <event>
  8     66 0.58687835E-06 0.24466089E+03 0.75467711E-02 0.98550238E-01
       -1 -1    0    0    0  501 0.00000000E+00 0.00000000E+00 0.82752979E+03 0.82752985E+03 0.32000000E+00 0.0000E+00 0.9000E+01
        1 -1    0    0  501    0 0.00000000E+00 0.00000000E+00 -.15605655E+03 0.15605688E+03 0.32000000E+00 0.0000E+00 0.9000E+01
       25  2    1    2    0    0 -.17913808E+03 0.22594556E+03 0.40988818E+03 0.58378287E+03 0.29941989E+03 0.0000E+00 0.0000E+00
       23  2    1    2    0    0 0.17913808E+03 -.22594556E+03 0.26158506E+03 0.39980386E+03 0.90964463E+02 0.0000E+00 0.0000E+00
       23  1    3    3    0    0 -.12602765E+03 0.25522272E+03 0.24826413E+03 0.38855107E+03 0.91188000E+02 0.0000E+00 0.9000E+01
      -13  1    4    4    0    0 0.14799646E+02 0.57205585E+01 0.39997225E+01 0.16363474E+02 0.10565837E+00 0.0000E+00 0.9000E+01
       13  1    4    4    0    0 0.16433843E+03 -.23166612E+03 0.25758533E+03 0.38344038E+03 0.10565837E+00 0.0000E+00 0.9000E+01
       23  1    3    3    0    0 -.53110430E+02 -.29277157E+02 0.16162405E+03 0.19523180E+03 0.91188000E+02 0.0000E+00 0.9000E+01
#aMCatNLO 1  0  0  1  2 0.90890394D+01 0.00000000D+00  -5  7  0 0.00000000D+00 0.00000000D+00 0.00000000D+00 0.00000000D+00 0.00000000D+00
  <mgrwgt>
 0.1834056880D-03   11    2    0
 0.359362817682852D+03 0.000000000000000D+00 0.000000000000000D+00 0.359362817682852D+03
 0.359362817682852D+03 0.000000000000000D+00 0.000000000000000D+00 -.359362817682852D+03
 0.299795841453338D+03 -.126027649333527D+03 0.255222719842619D+03 -.232527436728795D+02
 0.186565368974191D+02 0.147994446462538D+02 0.572087869719588D+01 -.981398767572094D+01
 0.284093763535136D+03 0.164338634854383D+03 -.231666441389550D+03 -.572184477748208D+01
 0.116179493479812D+03 -.531104301671095D+02 -.292771571502650D+02 0.387885761260826D+02
 0.000000000000000D+00 0.000000000000000D+00 0.000000000000000D+00 0.000000000000000D+00
 0.393937111620538D+03 0.000000000000000D+00 0.000000000000000D+00 0.393937111620538D+03
 0.359989389949998D+03 0.000000000000000D+00 0.000000000000000D+00 -.359989389949998D+03
 0.297314968404652D+03 -.127295591130382D+03 0.251666607804669D+03 -.232527436728795D+02
 0.185270295575495D+02 0.147204867756441D+02 0.549943080829248D+01 -.981398767572094D+01
 0.286178021447464D+03 0.163127684692689D+03 -.235062712778377D+03 -.572184477748208D+01
 0.116763083875506D+03 -.536050747543784D+02 -.306644539297045D+02 0.387885761260826D+02
 0.351433982853654D+02 0.305249441642728D+01 0.856112809512077D+01 0.339477216705398D+02
0.767856650302D-05 0.000000000000D+00 0.000000000000D+00 0.400698172906D-06 0.000000000000D+00  7 -1 1 23 -13 13 23 21 0 0.12731230D+00 0.24008730D-01 0.12542529D+06 0.12542529D+06 0.12542529D+06 0.11137367D+01  1  2  2  1  7  1       -1 0.112672737061D-03 0.100000000000D+01
-.426476472749D-06 0.000000000000D+00 -.294877171846D-07 0.400698172906D-06 0.000000000000D+00  7 -1 1 23 -13 13 23 21 2 0.12731230D+00 0.24008730D-01 0.12542529D+06 0.12542529D+06 0.12542529D+06 0.11137367D+01  1  2  3  1  7  1       -1 -.776245061733D-05 0.100000000000D+01
0.499606215837D-06 0.000000000000D+00 0.000000000000D+00 0.400698172906D-06 0.000000000000D+00  7 -1 1 23 -13 13 23 21 2 0.12731230D+00 0.24008730D-01 0.12542529D+06 0.12542529D+06 0.12542529D+06 0.11137367D+01  1  2 15  1  7  1       -1 0.909351119311D-05 0.100000000000D+01
0.271914585616D-03 0.000000000000D+00 0.000000000000D+00 0.400698172906D-06 0.000000000000D+00  7 -1 1 23 -13 13 23 21 2 0.13966585D+00 0.24008730D-01 0.12868735D+06 0.12868735D+06 0.12868735D+06 0.11128427D+01  1  2 12  1  7  1       -1 0.387903376134D-02 0.100000000000D+01
-.272869925611D-03 0.000000000000D+00 0.000000000000D+00 0.400698172906D-06 0.000000000000D+00  7 -1 1 23 -13 13 23 21 2 0.12731230D+00 0.24008730D-01 0.12542529D+06 0.12542529D+06 0.12542529D+06 0.11137367D+01  1  2  4  1  7  1       -1 -.496660298482D-02 0.100000000000D+01
-.311623513631D-03 0.000000000000D+00 -.101655272342D-04 0.400698172906D-06 0.000000000000D+00  7 -1 1 23 -13 13 23 21 2 0.13966485D+00 0.24008730D-01 0.12542529D+06 0.12542529D+06 0.12542529D+06 0.11137367D+01  1  2  5  1  7  1       -1 -.445608969462D-02 0.100000000000D+01
0.311272727541D-03 0.000000000000D+00 0.101220966232D-04 0.400698172906D-06 0.000000000000D+00  7 -1 1 23 -13 13 23 21 2 0.12731230D+00 0.24008730D-01 0.12542529D+06 0.12542529D+06 0.12542529D+06 0.11137367D+01  1  2  6  1  7  1       -1 0.566558610017D-02 0.100000000000D+01
0.351712723534D-07 0.000000000000D+00 0.000000000000D+00 0.400698172906D-06 0.321805790255D-07  7 -1 1 23 -13 13 23 21 2 0.13956102D+00 0.24050591D-01 0.12868735D+06 0.12868735D+06 0.12868735D+06 0.11128427D+01  1  2 11  1  7  1       -1 0.501614901361D-06 0.100000000000D+01
0.419032312338D-05 0.000000000000D+00 0.000000000000D+00 0.400698172906D-06 0.000000000000D+00  7 21 1 23 -13 13 23 1 2 0.13966585D+00 0.24008730D-01 0.12868735D+06 0.12868735D+06 0.12868735D+06 0.11128427D+01  1  2 12  3  7  1       -1 0.387852727087D-03 0.100000000000D+01
-.474875931213D-05 0.000000000000D+00 -.154452048282D-06 0.400698172906D-06 0.000000000000D+00  7 21 1 23 -13 13 23 1 2 0.13966485D+00 0.24008730D-01 0.12542529D+06 0.12542529D+06 0.12542529D+06 0.11137367D+01  1  2  5  3  7  1       -1 -.440928860693D-03 0.100000000000D+01
0.531902609251D-09 0.000000000000D+00 0.000000000000D+00 0.400698172906D-06 0.485408690600D-09  7 21 1 23 -13 13 23 1 2 0.13956102D+00 0.24050591D-01 0.12868735D+06 0.12868735D+06 0.12868735D+06 0.11128427D+01  1  2 11  3  7  1       -1 0.492270327457D-07 0.100000000000D+01
  </mgrwgt>
  </event>
  <event>
  8     66 0.58687835E-06 0.23698297E+03 0.75467711E-02 0.97602793E-01
       -3 -1    0    0    0  501 0.00000000E+00 0.00000000E+00 0.63761329E+03 0.63761349E+03 0.50000000E+00 0.0000E+00 0.9000E+01
        3 -1    0    0  501    0 0.00000000E+00 0.00000000E+00 -.13674953E+03 0.13675044E+03 0.50000000E+00 0.0000E+00 0.9000E+01
       25  2    1    2    0    0 -.92193595E+02 -.17768734E+03 0.37994712E+03 0.52315248E+03 0.29875785E+03 0.0000E+00 0.0000E+00
       23  2    1    2    0    0 0.92193595E+02 0.17768734E+03 0.12091664E+03 0.25121145E+03 0.91727357E+02 0.0000E+00 0.0000E+00
       23  1    3    3    0    0 -.42966854E+02 -.98198531E+02 0.22400439E+02 0.14249959E+03 0.91188000E+02 0.0000E+00 0.9000E+01
      -11  1    4    4    0    0 0.48341403E+02 0.12539024E+03 0.30285112E+02 0.13775628E+03 0.51099893E-03 0.0000E+00 0.9000E+01
       11  1    4    4    0    0 0.43852192E+02 0.52297095E+02 0.90631532E+02 0.11345517E+03 0.51099893E-03 0.0000E+00 0.9000E+01
       23  1    3    3    0    0 -.49226741E+02 -.79488808E+02 0.35754668E+03 0.38065289E+03 0.91188000E+02 0.0000E+00 0.9000E+01
#aMCatNLO 1  0  0  1  2 0.24031247D+03 0.00000000D+00  -5  7  0 0.00000000D+00 0.00000000D+00 0.00000000D+00 0.00000000D+00 0.00000000D+00
  <mgrwgt>
 0.2837424273D-04    5    2    0
 0.295285871878299D+03 0.000000000000000D+00 0.000000000000000D+00 0.295285871878299D+03
 0.295285871878299D+03 0.000000000000000D+00 0.000000000000000D+00 -.295285871878299D+03
 0.167849164441785D+03 -.429668540958454D+02 -.981985309601066D+02 -.914821765492535D+02
 0.154942697354955D+03 0.483414027646210D+02 0.125390244489659D+03 -.771209104536603D+02
 0.718990384876578D+02 0.438521920957449D+02 0.522970947463946D+02 0.226157216319581D+02
 0.195880843472200D+03 -.492267407645205D+02 -.794888082759473D+02 0.145987365370956D+03
 0.000000000000000D+00 0.000000000000000D+00 0.000000000000000D+00 0.000000000000000D+00
 0.459530396445437D+03 0.000000000000000D+00 0.000000000000000D+00 0.459530396445437D+03
 0.421384034583857D+03 0.000000000000000D+00 0.000000000000000D+00 -.421384034583857D+03
 0.224815225877418D+03 -.755520019369178D+02 -.167778248946190D+03 -.914821765492535D+02
 0.112729543003087D+03 0.261286945586962D+02 0.779590043365209D+02 -.771209104536603D+02
 0.507839666922640D+02 0.336713762134464D+02 0.305577949459596D+02 0.226157216319581D+02
 0.249264448752500D+03 -.861670020041703D+02 -.158368087017391D+03 0.145987365370956D+03
 0.243321246704025D+03 0.101918933168946D+03 0.217629536681100D+03 0.381463618615803D+02
0.380469171913D-05 0.000000000000D+00 0.000000000000D+00 0.684620056700D-07 0.000000000000D+00  7 -3 3 23 -11 11 23 21 0 0.98094438D-01 0.21038474D-01 0.56160929D+05 0.56160929D+05 0.56160929D+05 0.11428829D+01  1  2  2  1  7  1       -3 0.278983046337D-04 0.100000000000D+01
-.198938109857D-06 0.000000000000D+00 -.146110179998D-07 0.684620056700D-07 0.000000000000D+00  7 -3 3 23 -11 11 23 21 2 0.98094438D-01 0.21038474D-01 0.56160929D+05 0.56160929D+05 0.56160929D+05 0.11428829D+01  1  2  3  1  7  1       -3 -.190537191866D-05 0.100000000000D+01
0.248745337388D-06 0.000000000000D+00 0.000000000000D+00 0.684620056700D-07 0.000000000000D+00  7 -3 3 23 -11 11 23 21 2 0.98094438D-01 0.21038474D-01 0.56160929D+05 0.56160929D+05 0.56160929D+05 0.11428829D+01  1  2 15  1  7  1       -3 0.238241119863D-05 0.100000000000D+01
-.545161605533D-06 0.000000000000D+00 -.114444022852D-05 0.684620056700D-07 0.000000000000D+00  7 -3 3 23 -11 11 23 21 2 0.19690837D+00 0.21038474D-01 0.56160929D+05 0.56160929D+05 0.56160929D+05 0.11428829D+01  1  2  5  1  7  1       -3 -.565045177774D-06 0.100000000000D+01
0.277678807352D-07 0.000000000000D+00 -.862736656993D-07 0.684620056700D-07 0.000000000000D+00  7 21 3 23 -11 11 23 3 2 0.19690837D+00 0.21038474D-01 0.56160929D+05 0.56160929D+05 0.56160929D+05 0.11428829D+01  1  2  5  3  7  1       -3 0.563943991935D-06 0.100000000000D+01
  </mgrwgt>
  </event>
  <event>
  8     66 0.58687835E-06 0.44992154E+03 0.75467711E-02 0.88734467E-01
       -1 -1    0    0    0  501 0.00000000E+00 0.00000000E+00 0.44018048E+03 0.44018059E+03 0.32000000E+00 0.0000E+00 0.9000E+01
        1 -1    0    0  501    0 0.00000000E+00 0.00000000E+00 -.16096193E+04 0.16096193E+04 0.32000000E+00 0.0000E+00 0.9000E+01
       25  2    1    2    0    0 0.51827156E+03 0.62338437E+03 -.52726399E+03 0.10122780E+04 0.29914193E+03 0.0000E+00 0.0000E+00
       23  2    1    2    0    0 -.51827156E+03 -.62338437E+03 -.64217481E+03 0.10375219E+04 0.82763433E+02 0.0000E+00 0.0000E+00
       23  1    3    3    0    0 0.16068436E+03 0.79150391E+02 -.17395126E+03 0.26581674E+03 0.91188000E+02 0.0000E+00 0.9000E+01
      -11  1    4    4    0    0 -.18214596E+03 -.22316579E+03 -.17878686E+03 0.33903519E+03 0.51099893E-03 0.0000E+00 0.9000E+01
       11  1    4    4    0    0 -.33612560E+03 -.40021858E+03 -.46338794E+03 0.69848673E+03 0.51099893E-03 0.0000E+00 0.9000E+01
       23  1    3    3    0    0 0.35758720E+03 0.54423398E+03 -.35331273E+03 0.74646123E+03 0.91188000E+02 0.0000E+00 0.9000E+01
#aMCatNLO 1  0  0  2  1 0.70558600D+02 0.00000000D+00  -5  7  0 0.00000000D+00 0.00000000D+00 0.00000000D+00 0.00000000D+00 0.00000000D+00
  <mgrwgt>
 0.8405325662D-03    9    2    0
 0.841738161134571D+03 0.000000000000000D+00 0.000000000000000D+00 0.841738161134571D+03
 0.841738161134571D+03 0.000000000000000D+00 0.000000000000000D+00 -.841738161134571D+03
 0.202821850611547D+03 0.160684364629780D+03 0.791503906900349D+02 -.271514706531953D+02
 0.288613511706794D+03 -.182145962233365D+03 -.223165788313739D+03 0.178224158888948D+02
 0.528581356326389D+03 -.336125600912491D+03 -.400218579826498D+03 -.790121448178921D+02
 0.663459603624412D+03 0.357587198516075D+03 0.544233977450202D+03 0.883411995821925D+02
 0.000000000000000D+00 0.000000000000000D+00 -.000000000000000D+00 -.000000000000000D+00
 0.869784399670581D+03 0.000000000000000D+00 0.000000000000000D+00 0.869784399670581D+03
 0.888055872615411D+03 0.000000000000000D+00 0.000000000000000D+00 -.888055872615411D+03
 0.196336852438186D+03 0.152325044639556D+03 0.793270867879328D+02 -.271514706531953D+02
 0.296301709194894D+03 -.194395459642070D+03 -.222906863138503D+03 0.178224158888948D+02
 0.542775631299561D+03 -.358562330501254D+03 -.399744320846992D+03 -.790121448178921D+02
 0.649540122081478D+03 0.330089902903094D+03 0.544815204732235D+03 0.883411995821925D+02
 0.728859572718726D+02 0.705428426006750D+02 -.149110753467326D+01 -.182714729448307D+02
0.223106331630D-03 0.000000000000D+00 0.000000000000D+00 0.410945850150D-07 0.000000000000D+00  7 -1 1 23 -11 11 23 21 0 0.67720085D-01 0.24763375D+00 0.69660181D+06 0.69660181D+06 0.69660181D+06 0.10584787D+01  1  2  2  2  7  2        1 0.329167195933D-03 0.100000000000D+01
-.123937113741D-04 0.000000000000D+00 -.856787058704D-06 0.410945850150D-07 0.000000000000D+00  7 -1 1 23 -11 11 23 21 2 0.67720085D-01 0.24763375D+00 0.69660181D+06 0.69660181D+06 0.69660181D+06 0.10584787D+01  1  2  3  2  7  2        1 -.204866167232D-04 0.100000000000D+01
0.142799839878D-04 0.000000000000D+00 0.000000000000D+00 0.410945850150D-07 0.000000000000D+00  7 -1 1 23 -11 11 23 21 2 0.67720085D-01 0.24763375D+00 0.69660181D+06 0.69660181D+06 0.69660181D+06 0.10584787D+01  1  2 15  2  7  2        1 0.236045967136D-04 0.100000000000D+01
0.512238520637D-03 0.000000000000D+00 0.000000000000D+00 0.410945850150D-07 0.000000000000D+00  7 -1 1 23 -11 11 23 21 2 0.67720085D-01 0.26520212D+00 0.75800770D+06 0.75800770D+06 0.75800770D+06 0.10559688D+01  1  2 12  2  7  2        1 0.702430334863D-03 0.100000000000D+01
-.460413428840D-03 0.000000000000D+00 0.000000000000D+00 0.410945850150D-07 0.000000000000D+00  7 -1 1 23 -11 11 23 21 2 0.67720085D-01 0.24763375D+00 0.69660181D+06 0.69660181D+06 0.69660181D+06 0.10584787D+01  1  2  4  2  7  2        1 -.761056407248D-03 0.100000000000D+01
-.197708907072D-02 0.000000000000D+00 -.335424408922D-03 0.410945850150D-07 0.000000000000D+00  7 -1 1 23 -11 11 23 21 2 0.67720085D-01 0.26585674D+00 0.69660181D+06 0.69660181D+06 0.69660181D+06 0.10584787D+01  1  2  5  2  7  2        1 -.271945633403D-02 0.100000000000D+01
0.199671450831D-02 0.000000000000D+00 0.334580583043D-03 0.410945850150D-07 0.000000000000D+00  7 -1 1 23 -11 11 23 21 2 0.67720085D-01 0.24763375D+00 0.69660181D+06 0.69660181D+06 0.69660181D+06 0.10584787D+01  1  2  6  2  7  2        1 0.330053876539D-02 0.100000000000D+01
0.621688705798D-05 0.000000000000D+00 0.000000000000D+00 0.410945850150D-07 0.000000000000D+00  7 -1 21 23 -11 11 23 -1 2 0.67720085D-01 0.26520212D+00 0.75800770D+06 0.75800770D+06 0.75800770D+06 0.10559688D+01  1  2 12  4  7  2        1 0.519410493843D-05 0.100000000000D+01
-.231569575769D-04 0.000000000000D+00 -.402700115316D-05 0.410945850150D-07 0.000000000000D+00  7 -1 21 23 -11 11 23 -1 2 0.67720085D-01 0.26585674D+00 0.69660181D+06 0.69660181D+06 0.69660181D+06 0.10584787D+01  1  2  5  4  7  2        1 -.194030736767D-04 0.100000000000D+01
  </mgrwgt>
  </event>
  <event>
  8     66 0.58687835E-06 0.37640999E+03 0.75467711E-02 0.90283459E-01
       -3 -1    0    0    0  501 0.00000000E+00 0.00000000E+00 0.65536010E+03 0.65536029E+03 0.50000000E+00 0.0000E+00 0.9000E+01
        3 -1    0    0  501    0 0.00000000E+00 0.00000000E+00 -.52121173E+03 0.52121197E+03 0.50000000E+00 0.0000E+00 0.9000E+01
       25  2    1    2    0    0 -.11046167E+03 -.32252335E+03 0.49515017E+03 0.67183408E+03 0.29994040E+03 0.0000E+00 0.0000E+00
       23  2    1    2    0    0 0.11046167E+03 0.32252335E+03 -.36100180E+03 0.50473819E+03 0.90637994E+02 0.0000E+00 0.0000E+00
       23  1    3    3    0    0 0.97439603E+01 -.62970958E+02 0.28339720E+03 0.30444952E+03 0.91188000E+02 0.0000E+00 0.9000E+01
      -11  1    4    4    0    0 0.56415465E+02 0.19106258E+03 -.14595299E+03 0.24696131E+03 0.51099893E-03 0.0000E+00 0.9000E+01
       11  1    4    4    0    0 0.54046210E+02 0.13146077E+03 -.21504881E+03 0.25777687E+03 0.51099893E-03 0.0000E+00 0.9000E+01
       23  1    3    3    0    0 -.12020563E+03 -.25955240E+03 0.21175296E+03 0.36738455E+03 0.91188000E+02 0.0000E+00 0.9000E+01
#aMCatNLO 1  0  0  1  2 0.54244163D+03 0.00000000D+00  -5  7  0 0.00000000D+00 0.00000000D+00 0.00000000D+00 0.00000000D+00 0.00000000D+00
  <mgrwgt>
 0.1520738932D-04    5    2    0
 0.584449849338205D+03 0.000000000000000D+00 0.000000000000000D+00 0.584449849338205D+03
 0.584449849338205D+03 0.000000000000000D+00 0.000000000000000D+00 -.584449849338205D+03
 0.273923923418219D+03 0.974396030719216D+01 -.629709576208553D+02 0.250317354992966D+03
 0.265332592040452D+03 0.564154647731488D+02 0.191062584728883D+03 -.175253440622582D+03
 0.284148902881517D+03 0.540462095710461D+02 0.131460769427603D+03 -.246044045531029D+03
 0.345494280336221D+03 -.120205634651387D+03 -.259552396535631D+03 0.170980131160645D+03
 0.000000000000000D+00 -.000000000000000D+00 -.000000000000000D+00 0.000000000000000D+00
 0.146413221633885D+04 0.000000000000000D+00 0.000000000000000D+00 0.146413221633885D+04
 0.734043674229003D+03 0.000000000000000D+00 0.000000000000000D+00 -.734043674229003D+03
 0.304967060169115D+03 0.137345022911864D+03 -.562780855649663D+02 0.250317354992966D+03
 0.323299320802795D+03 0.186163655177443D+03 0.197868076941354D+03 -.175253440622582D+03
 0.341496265391444D+03 0.191952983987173D+03 0.138694191923989D+03 -.246044045531029D+03
 0.318868189874229D+03 0.262353353360627D+02 -.251871342351130D+03 0.170980131160645D+03
 0.909545054330267D+03 -.541696997412544D+03 -.284128409492465D+02 0.730088542109843D+03
0.303540524110D-04 0.000000000000D+00 0.000000000000D+00 0.297804664043D-05 0.000000000000D+00  7 -3 3 23 -11 11 23 21 0 0.10082466D+00 0.80186453D-01 0.14168448D+06 0.14168448D+06 0.14168448D+06 0.11095118D+01  1  2  2  1  7  1       -3 0.149445325409D-04 0.100000000000D+01
-.128940498612D-05 0.000000000000D+00 -.116567553664D-06 0.297804664043D-05 0.000000000000D+00  7 -3 3 23 -11 11 23 21 2 0.10082466D+00 0.80186453D-01 0.14168448D+06 0.14168448D+06 0.14168448D+06 0.11095118D+01  1  2  3  1  7  1       -3 -.781481826649D-06 0.100000000000D+01
0.191667982987D-05 0.000000000000D+00 0.000000000000D+00 0.297804664043D-05 0.000000000000D+00  7 -3 3 23 -11 11 23 21 2 0.10082466D+00 0.80186453D-01 0.14168448D+06 0.14168448D+06 0.14168448D+06 0.11095118D+01  1  2 15  1  7  1       -3 0.116166020038D-05 0.100000000000D+01
-.656017406186D-05 0.000000000000D+00 -.893244539118D-05 0.297804664043D-05 0.000000000000D+00  7 -3 3 23 -11 11 23 21 2 0.27911857D+00 0.80186453D-01 0.14168448D+06 0.14168448D+06 0.14168448D+06 0.11095118D+01  1  2  5  1  7  1       -3 -.324015517051D-07 0.100000000000D+01
-.242997117411D-06 0.000000000000D+00 -.101925873869D-05 0.297804664043D-05 0.000000000000D+00  7 21 3 23 -11 11 23 3 2 0.27911857D+00 0.80186453D-01 0.14168448D+06 0.14168448D+06 0.14168448D+06 0.11095118D+01  1  2  5  3  7  1       -3 -.849200424671D-07 0.100000000000D+01
  </mgrwgt>
  </event>
  <event>
  8     66 0.58687835E-06 0.16553721E+03 0.75467711E-02 0.98113052E-01
       -1 -1    0    0    0  501 0.00000000E+00 0.00000000E+00 0.99010060E+02 0.99010577E+02 0.32000000E+00 0.0000E+00 0.9000E+01
        1 -1    0    0  501    0 0.00000000E+00 0.00000000E+00 -.26814025E+04 0.26814025E+04 0.32000000E+00 0.0000E+00 0.9000E+01
       25  2    1    2    0    0 -.16838404E+03 -.13334338E+03 -.25077470E+04 0.25346566E+04 0.29925812E+03 0.0000E+00 0.0000E+00
       23  2    1    2    0    0 0.16838404E+03 0.13334338E+03 -.74645446E+02 0.24575650E+03 0.93223784E+02 0.0000E+00 0.0000E+00
       23  1    3    3    0    0 -.16735753E+03 -.80226473E+02 -.90002309E+03 0.92347260E+03 0.91188000E+02 0.0000E+00 0.9000E+01
      -11  1    4    4    0    0 0.12124071E+03 0.51545143E+02 -.11647663E+02 0.13225687E+03 0.51099893E-03 0.0000E+00 0.9000E+01
       11  1    4    4    0    0 0.47143322E+02 0.81798239E+02 -.62997783E+02 0.11349963E+03 0.51099893E-03 0.0000E+00 0.9000E+01
       23  1    3    3    0    0 -.10265043E+01 -.53116908E+02 -.16077239E+04 0.16111840E+04 0.91188000E+02 0.0000E+00 0.9000E+01
#aMCatNLO 1  0  0  1  2 0.21239519D+03 0.00000000D+00  -5  7  0 0.00000000D+00 0.00000000D+00 0.00000000D+00 0.00000000D+00 0.00000000D+00
  <mgrwgt>
 0.1480000041D-03    9    2    0
 0.515253882447419D+03 0.000000000000000D+00 0.000000000000000D+00 0.515253882447419D+03
 0.515253882447419D+03 0.000000000000000D+00 0.000000000000000D+00 -.515253882447419D+03
 0.236216064735201D+03 -.167357532667752D+03 -.802264730393464D+02 -.114183830632949D+03
 0.327653914362870D+03 0.121240714635167D+03 0.515451429350010D+02 0.300001458249582D+03
 0.148364576668732D+03 0.471433223391008D+02 0.817982385510148D+02 0.114449128170008D+03
 0.318273209128034D+03 -.102650430651602D+01 -.531169084466694D+02 -.300266755786641D+03
 0.000000000000000D+00 0.000000000000000D+00 0.000000000000000D+00 0.000000000000000D+00
 0.707521060284131D+03 0.000000000000000D+00 0.000000000000000D+00 0.707521060284131D+03
 0.588243054655379D+03 0.000000000000000D+00 0.000000000000000D+00 -.588243054655379D+03
 0.279431682388064D+03 -.214981319324771D+03 -.102527552109619D+03 -.114183830632949D+03
 0.307405295870983D+03 0.625884185445146D+02 0.240796769444277D+02 0.300001458249582D+03
 0.135533824293995D+03 0.209232584386071D+02 0.695200103940709D+02 0.114449128170008D+03
 0.329797420431758D+03 -.608804987688585D+02 -.811451010133270D+02 -.300266755786641D+03
 0.243595891954710D+03 0.192350141110508D+03 0.900729657844470D+02 0.119278005628751D+03
0.503718167840D-04 0.000000000000D+00 0.000000000000D+00 0.285647831961D-06 0.000000000000D+00  7 -1 1 23 -11 11 23 21 0 0.15232358D-01 0.41252350D+00 0.72488693D+05 0.72488693D+05 0.72488693D+05 0.11333721D+01  1  2  2  1  7  1       -1 0.206372062748D-03 0.100000000000D+01
-.136500776813D-05 0.000000000000D+00 -.193441039654D-06 0.285647831961D-06 0.000000000000D+00  7 -1 1 23 -11 11 23 21 2 0.15232358D-01 0.41252350D+00 0.72488693D+05 0.72488693D+05 0.72488693D+05 0.11333721D+01  1  2  3  1  7  1       -1 -.718362138793D-05 0.100000000000D+01
0.315607440148D-05 0.000000000000D+00 0.000000000000D+00 0.285647831961D-06 0.000000000000D+00  7 -1 1 23 -11 11 23 21 2 0.15232358D-01 0.41252350D+00 0.72488693D+05 0.72488693D+05 0.72488693D+05 0.11333721D+01  1  2 15  1  7  1       -1 0.166094612073D-04 0.100000000000D+01
0.291264537327D-05 0.000000000000D+00 0.000000000000D+00 0.285647831961D-06 0.000000000000D+00  7 -1 1 23 -11 11 23 21 2 0.21677982D-01 0.41252350D+00 0.13819746D+06 0.13819746D+06 0.13819746D+06 0.11103715D+01  1  2 12  1  7  1       -1 0.810030867691D-05 0.100000000000D+01
-.326701542010D-04 0.000000000000D+00 0.000000000000D+00 0.285647831961D-06 0.000000000000D+00  7 -1 1 23 -11 11 23 21 2 0.15232358D-01 0.41252350D+00 0.72488693D+05 0.72488693D+05 0.72488693D+05 0.11333721D+01  1  2  4  1  7  1       -1 -.171933101002D-03 0.100000000000D+01
-.194490089610D-04 0.000000000000D+00 -.191766601798D-04 0.285647831961D-06 0.000000000000D+00  7 -1 1 23 -11 11 23 21 2 0.24894315D-01 0.41252350D+00 0.72488693D+05 0.72488693D+05 0.72488693D+05 0.11333721D+01  1  2  5  1  7  1       -1 -.467473280779D-04 0.100000000000D+01
0.275762714760D-04 0.000000000000D+00 0.170748660542D-04 0.285647831961D-06 0.000000000000D+00  7 -1 1 23 -11 11 23 21 2 0.15232358D-01 0.41252350D+00 0.72488693D+05 0.72488693D+05 0.72488693D+05 0.11333721D+01  1  2  6  1  7  1       -1 0.145125543019D-03 0.100000000000D+01
0.126567612620D-06 0.000000000000D+00 0.000000000000D+00 0.285647831961D-06 0.000000000000D+00  7 21 1 23 -11 11 23 1 2 0.21677982D-01 0.41252350D+00 0.13819746D+06 0.13819746D+06 0.13819746D+06 0.11103715D+01  1  2 12  3  7  1       -1 0.414579147676D-05 0.100000000000D+01
-.233679868570D-06 0.000000000000D+00 -.106621440643D-05 0.285647831961D-06 0.000000000000D+00  7 21 1 23 -11 11 23 1 2 0.24894315D-01 0.41252350D+00 0.72488693D+05 0.72488693D+05 0.72488693D+05 0.11333721D+01  1  2  5  3  7  1       -1 -.648911258176D-05 0.100000000000D+01
  </mgrwgt>
  </event>
  <event>
  8     66 0.58687835E-06 0.30240109E+03 0.75467711E-02 0.92318313E-01
       -1 -1    0    0    0  501 0.00000000E+00 0.00000000E+00 0.72566299E+03 0.72566306E+03 0.32000000E+00 0.0000E+00 0.9000E+01
        1 -1    0    0  501    0 0.00000000E+00 0.00000000E+00 -.50864913E+03 0.50864923E+03 0.32000000E+00 0.0000E+00 0.9000E+01
       25  2    1    2    0    0 0.61185465E+02 0.23214919E+03 -.40688236E+03 0.55960612E+03 0.29994807E+03 0.0000E+00 0.0000E+00
       23  2    1    2    0    0 -.61185465E+02 -.23214919E+03 0.62389622E+03 0.67470618E+03 0.91351120E+02 0.0000E+00 0.0000E+00
       23  1    3    3    0    0 -.40921986E+02 0.17550302E+03 -.11534883E+03 0.23258659E+03 0.91188000E+02 0.0000E+00 0.9000E+01
      -13  1    4    4    0    0 -.29772562E+02 -.11678347E+02 0.52861471E+02 0.61782971E+02 0.10565837E+00 0.0000E+00 0.9000E+01
       13  1    4    4    0    0 -.31412903E+02 -.22047084E+03 0.57103474E+03 0.61292320E+03 0.10565837E+00 0.0000E+00 0.9000E+01
       23  1    3    3    0    0 0.10210745E+03 0.56646168E+02 -.29153353E+03 0.32701952E+03 0.91188000E+02 0.0000E+00 0.9000E+01
#aMCatNLO 1  0  0  2  1 0.49112108D+03 0.00000000D+00  -5  7  0 0.00000000D+00 0.00000000D+00 0.00000000D+00 0.00000000D+00 0.00000000D+00
  <mgrwgt>
 0.2140013421D-03    5    2    0
 0.607542554434805D+03 0.000000000000000D+00 0.000000000000000D+00 0.607542554434805D+03
 0.607542554434805D+03 0.000000000000000D+00 0.000000000000000D+00 -.607542554434805D+03
 0.256868249554350D+03 -.409219858059583D+02 0.175503022659518D+03 -.158713976700811D+03
 0.533189393973887D+02 -.297725597871470D+02 -.116780674407190D+02 0.426629432064080D+02
 0.520635918269205D+03 -.314129048710288D+02 -.220471122856602D+03 0.470603307240749D+03
 0.384262001648666D+03 0.102107450464134D+03 0.566461676378025D+02 -.354552273746346D+03
 0.000000000000000D+00 0.000000000000000D+00 -.000000000000000D+00 -.000000000000000D+00
 0.733473193338630D+03 0.000000000000000D+00 0.000000000000000D+00 0.733473193338630D+03
 0.142657968542859D+04 0.000000000000000D+00 0.000000000000000D+00 -.142657968542859D+04
 0.322030136579802D+03 -.142939698712078D+03 0.223083557559765D+03 -.158713976700811D+03
 0.664202608218373D+02 -.508738785058740D+02 -.183652127057942D+01 0.426629432064080D+02
 0.535395997692354D+03 -.217514582475810D+03 -.133674260684076D+03 0.470603307240749D+03
 0.386738106596840D+03 -.337638346828762D+02 0.120015833950827D+03 -.354552273746346D+03
 0.849468377076388D+03 0.445091994376638D+03 -.207588609555936D+03 -.693106492089961D+03
0.501148174881D-04 0.000000000000D+00 0.000000000000D+00 0.443893391495D-05 0.000000000000D+00  7 -1 1 23 -13 13 23 21 0 0.11164047D+00 0.78253726D-01 0.91446422D+05 0.91446422D+05 0.91446422D+05 0.11249228D+01  1  2  2  2  7  2        1 0.214889219495D-03 0.100000000000D+01
-.113647715937D-05 0.000000000000D+00 -.192454094689D-06 0.443893391495D-05 0.000000000000D+00  7 -1 1 23 -13 13 23 21 2 0.11164047D+00 0.78253726D-01 0.91446422D+05 0.91446422D+05 0.91446422D+05 0.11249228D+01  1  2  3  2  7  2        1 -.616672519247D-05 0.100000000000D+01
0.310600553782D-05 0.000000000000D+00 0.000000000000D+00 0.443893391495D-05 0.000000000000D+00  7 -1 1 23 -13 13 23 21 2 0.11164047D+00 0.78253726D-01 0.91446422D+05 0.91446422D+05 0.91446422D+05 0.11249228D+01  1  2 15  2  7  2        1 0.168537329942D-04 0.100000000000D+01
-.990151306146D-05 0.000000000000D+00 -.152956839149D-04 0.443893391495D-05 0.000000000000D+00  7 -1 1 23 -13 13 23 21 2 0.11164047D+00 0.20242211D+00 0.91446422D+05 0.91446422D+05 0.91446422D+05 0.11249228D+01  1  2  5  2  7  2        1 -.114430580193D-04 0.100000000000D+01
-.116764389533D-06 0.000000000000D+00 -.160924476868D-05 0.443893391495D-05 0.000000000000D+00  7 -1 21 23 -13 13 23 -1 2 0.11164047D+00 0.20242211D+00 0.91446422D+05 0.91446422D+05 0.91446422D+05 0.11249228D+01  1  2  5  4  7  2        1 -.131827150754D-06 0.100000000000D+01
  </mgrwgt>
  </event>
  <event>
  8     66 0.58687835E-06 0.34030343E+03 0.75467711E-02 0.90494531E-01
       -1 -1    0    0    0  501 0.00000000E+00 0.00000000E+00 0.70284497E+02 0.70285225E+02 0.32000000E+00 0.0000E+00 0.9000E+01
        1 -1    0    0  501    0 0.00000000E+00 0.00000000E+00 -.20208933E+04 0.20208933E+04 0.32000000E+00 0.0000E+00 0.9000E+01
       25  2    1    2    0    0 -.27340362E+03 -.13220866E+03 -.12891983E+04 0.13578044E+04 0.29895118E+03 0.0000E+00 0.0000E+00
       23  2    1    2    0    0 0.27340362E+03 0.13220866E+03 -.66141053E+03 0.73337420E+03 0.90250516E+02 0.0000E+00 0.0000E+00
       23  1    3    3    0    0 -.16963997E+03 -.11872113E+02 -.97657487E+03 0.99545587E+03 0.91188000E+02 0.0000E+00 0.9000E+01
      -11  1    4    4    0    0 0.16843963E+03 0.92906546E+02 -.50940258E+03 0.54451311E+03 0.51099893E-03 0.0000E+00 0.9000E+01
       11  1    4    4    0    0 0.10496398E+03 0.39302109E+02 -.15200795E+03 0.18886109E+03 0.51099893E-03 0.0000E+00 0.9000E+01
       23  1    3    3    0    0 -.10376365E+03 -.12033654E+03 -.31262340E+03 0.36234848E+03 0.91188000E+02 0.0000E+00 0.9000E+01
#aMCatNLO 1  0  0  2  1 0.57564581D+03 0.00000000D+00  -5  7  0 0.00000000D+00 0.00000000D+00 0.00000000D+00 0.00000000D+00 0.00000000D+00
  <mgrwgt>
 0.2640544147D-03    3    2    0
 0.376879631849319D+03 0.000000000000000D+00 0.000000000000000D+00 0.376879631849319D+03
 0.376879631849319D+03 0.000000000000000D+00 0.000000000000000D+00 -.376879631849319D+03
 0.234505150573865D+03 -.169639967347234D+03 -.118721127086041D+02 -.133261955260812D+03
 0.192407553067502D+03 0.168439633594369D+03 0.929065463162945D+02 -.413883601949922D+01
 0.130591047069193D+03 0.104963984956517D+03 0.393021093474566D+02 0.670218444801158D+02
 0.196255512988079D+03 -.103763651203652D+03 -.120336542955147D+03 0.703789468001954D+02
 0.000000000000000D+00 0.000000000000000D+00 0.000000000000000D+00 0.000000000000000D+00
 0.772487498509125D+03 0.000000000000000D+00 0.000000000000000D+00 0.772487498509125D+03
 0.751955241680249D+03 0.000000000000000D+00 0.000000000000000D+00 -.751955241680249D+03
 0.380928850144457D+03 -.295996883046074D+03 -.177253022641230D+03 -.133261955260812D+03
 0.107622606338750D+03 0.106839388052270D+03 0.122817178019095D+02 -.413883601949922D+01
 0.918012626218802D+02 0.593038389540102D+02 -.204596888239146D+02 0.670218444801158D+02
 0.368078155313291D+03 -.219628978222219D+03 -.271985648237540D+03 0.703789468001954D+02
 0.576011865770996D+03 0.349482634262013D+03 0.457416641900774D+03 0.205322568288758D+02
0.136654728006D-04 0.000000000000D+00 0.000000000000D+00 0.136093322157D-06 0.000000000000D+00  7 -1 1 23 -11 11 23 21 0 0.10813057D-01 0.31090672D+00 0.11580642D+06 0.11580642D+06 0.11580642D+06 0.11165293D+01  1  2  2  2  7  2        1 0.260603934166D-03 0.100000000000D+01
-.749572719021D-06 0.000000000000D+00 -.524790137558D-07 0.136093322157D-06 0.000000000000D+00  7 -1 1 23 -11 11 23 21 2 0.10813057D-01 0.31090672D+00 0.11580642D+06 0.11580642D+06 0.11580642D+06 0.11165293D+01  1  2  3  2  7  2        1 -.178201066290D-04 0.100000000000D+01
0.894711359316D-06 0.000000000000D+00 0.000000000000D+00 0.136093322157D-06 0.000000000000D+00  7 -1 1 23 -11 11 23 21 2 0.10813057D-01 0.31090672D+00 0.11580642D+06 0.11580642D+06 0.11580642D+06 0.11165293D+01  1  2 15  2  7  2        1 0.212705871234D-04 0.100000000000D+01
  </mgrwgt>
  </event>
  <event>
  9     66 -.58687835E-06 0.36453561E+03 0.75467711E-02 0.96895670E-01
       -1 -1    0    0    0  501 0.00000000E+00 0.00000000E+00 0.11906289E+04 0.11906289E+04 0.32000000E+00 0.0000E+00 0.9000E+01
        1 -1    0    0  502    0 0.00000000E+00 0.00000000E+00 -.31299906E+03 0.31299923E+03 0.32000000E+00 0.0000E+00 0.9000E+01
       25  2    1    2    0    0 -.30982316E+03 0.11296824E+03 -.64123406E+02 0.45031642E+03 0.29986806E+03 0.0000E+00 0.0000E+00
       23  2    1    2    0    0 0.32108878E+03 -.24762325E+02 0.88821682E+03 0.94951431E+03 0.94536415E+02 0.0000E+00 0.0000E+00
       23  1    3    3    0    0 -.31012436E+02 0.15840621E+02 0.63007734E+02 0.11618056E+03 0.91188000E+02 0.0000E+00 0.9000E+01
      -13  1    4    4    0    0 0.34869892E+02 0.15082915E+02 0.49432139E+02 0.62345419E+02 0.10565837E+00 0.0000E+00 0.9000E+01
       13  1    4    4    0    0 0.28621889E+03 -.39845240E+02 0.83878468E+03 0.88716889E+03 0.10565837E+00 0.0000E+00 0.9000E+01
       23  1    3    3    0    0 -.27881072E+03 0.97127614E+02 -.12713114E+03 0.33413586E+03 0.91188000E+02 0.0000E+00 0.9000E+01
       21  1    1    2  502  501 -.11265625E+02 -.88205910E+02 0.53536418E+02 0.10379744E+03 0.75000000E+00 0.0000E+00 0.9000E+01
#aMCatNLO 2  0  0  2  1 0.88922421D+02 0.00000000D+00  -5  7  0 0.00000000D+00 0.00000000D+00 0.00000000D+00 0.00000000D+00 0.00000000D+00
  <mgrwgt>
 -.4008899467D-04    2    2    0
 0.564023252420336D+03 0.000000000000000D+00 0.000000000000000D+00 0.564023252420336D+03
 0.564023252420336D+03 0.000000000000000D+00 0.000000000000000D+00 -.564023252420336D+03
 0.972131873646881D+02 -.319849031794472D+02 0.822653965407875D+01 -.666651839592528D+01
 0.397257267034979D+02 0.344664776958230D+02 0.119268473989821D+02 0.157462880859500D+02
 0.488401967587073D+03 0.281357972984984D+03 -.779070550992372D+02 0.391541394678098D+03
 0.502705623185414D+03 -.283839547501360D+03 0.577536680461763D+02 -.400621164368122D+03
 0.000000000000000D+00 -.000000000000000D+00 -.000000000000000D+00 -.000000000000000D+00
 0.605797588455118D+03 0.000000000000000D+00 0.000000000000000D+00 0.605797588455118D+03
 0.615162503926398D+03 0.000000000000000D+00 0.000000000000000D+00 -.615162503926398D+03
 0.978385928118792D+02 -.310124356563357D+02 0.158406207753081D+02 -.666651839592528D+01
 0.411257759788592D+02 0.348695781468017D+02 0.150829831678508D+02 0.157462880859500D+02
 0.486635125610418D+03 0.286219204736396D+03 -.398453080231893D+02 0.391541394678098D+03
 0.505946401271881D+03 -.278810722155509D+03 0.971276144431687D+02 -.400621164368122D+03
 0.894141967084786D+02 -.112656250713530D+02 -.882059103631383D+02 -.936491547127996D+01
-.477161615373D-04 0.000000000000D+00 0.000000000000D+00 0.425693502709D-06 0.000000000000D+00  7 -1 1 23 -13 13 23 21 2 0.17054204D+00 0.49656399D-01 0.16913087D+06 0.16913087D+06 0.16913087D+06 0.11034613D+01  1  2 13  2  7  2        1 -.142676293999D-03 0.100000000000D+01
0.416650505353D-04 0.000000000000D+00 0.000000000000D+00 0.425693502709D-06 0.350983117179D-09  7 -1 1 23 -13 13 23 21 2 0.18317322D+00 0.48153594D-01 0.16913087D+06 0.16913087D+06 0.16913087D+06 0.11034613D+01  1  2  1  2  7  2        1 0.102587299333D-03 0.100000000000D+01
  </mgrwgt>
  </event>
  <event>
  8     66 0.58687835E-06 0.12881192E+03 0.75467711E-02 0.10697139E+00
       -1 -1    0    0    0  501 0.00000000E+00 0.00000000E+00 0.26566963E+02 0.26568890E+02 0.32000000E+00 0.0000E+00 0.9000E+01
        1 -1    0    0  501    0 0.00000000E+00 0.00000000E+00 -.25757721E+04 0.25757721E+04 0.32000000E+00 0.0000E+00 0.9000E+01
       25  2    1    2    0    0 -.45741228E+02 0.59505309E+02 -.95829228E+03 0.10070729E+04 0.30039729E+03 0.0000E+00 0.0000E+00
       23  2    1    2    0    0 0.45741228E+02 -.59505309E+02 -.15909128E+04 0.15952681E+04 0.90794116E+02 0.0000E+00 0.0000E+00
       23  1    3    3    0    0 0.45778622E+02 0.98721074E+02 -.71376061E+03 0.72774377E+03 0.91188000E+02 0.0000E+00 0.9000E+01
      -13  1    4    4    0    0 -.36655255E+01 0.59877900E+01 -.81500263E+03 0.81503287E+03 0.10565837E+00 0.0000E+00 0.9000E+01
       13  1    4    4    0    0 0.49406753E+02 -.65493099E+02 -.77591018E+03 0.78023522E+03 0.10565837E+00 0.0000E+00 0.9000E+01
       23  1    3    3    0    0 -.91519850E+02 -.39215765E+02 -.24453167E+03 0.27932910E+03 0.91188000E+02 0.0000E+00 0.9000E+01
#aMCatNLO 1  0  0  1  2 0.16381804D+02 0.00000000D+00  -5  7  0 0.00000000D+00 0.00000000D+00 0.00000000D+00 0.00000000D+00 0.00000000D+00
  <mgrwgt>
 0.8547413878D-04    9    2    0
 0.261596969500441D+03 0.000000000000000D+00 0.000000000000000D+00 0.261596969500441D+03
 0.261596969500441D+03 0.000000000000000D+00 0.000000000000000D+00 -.261596969500441D+03
 0.142041474554768D+03 0.457786202851476D+02 0.987210734515563D+02 -.435852395351766D+01
 0.829225450670248D+02 -.366559656657001D+01 0.598788578506240D+01 -.826247971618021D+02
 0.100314418293359D+03 0.494068252519041D+02 -.654931962599156D+02 -.577285837321775D+02
 0.197915501085731D+03 -.915198489704817D+02 -.392157629767031D+02 0.144711904847497D+03
 0.000000000000000D+00 0.000000000000000D+00 0.000000000000000D+00 0.000000000000000D+00
 0.273672578832367D+03 0.000000000000000D+00 0.000000000000000D+00 0.273672578832367D+03
 0.267340688652707D+03 0.000000000000000D+00 0.000000000000000D+00 -.267340688652707D+03
 0.138761193953554D+03 0.446892806314546D+02 0.944631624973748D+02 -.435852395351766D+01
 0.828099932942339D+02 -.430853570565719D+01 0.347482423083503D+01 -.826247971618021D+02
 0.101966830409123D+03 0.486220998553090D+02 -.685604589367669D+02 -.577285837321775D+02
 0.199912325069217D+03 -.930631734291674D+02 -.452481681096806D+02 0.144711904847497D+03
 0.175629247589463D+02 0.406032864806099D+01 0.158706403182377D+02 0.633189017965995D+01
0.325246907922D-05 0.000000000000D+00 0.000000000000D+00 0.218269450784D-06 0.000000000000D+00  7 -1 1 23 -13 13 23 21 0 0.40873749D-02 0.39627277D+00 0.33498003D+05 0.33498003D+05 0.33498003D+05 0.11629178D+01  1  2  2  1  7  1       -1 0.117690568602D-03 0.100000000000D+01
-.152663744333D-06 0.000000000000D+00 -.124903376590D-07 0.218269450784D-06 0.000000000000D+00  7 -1 1 23 -13 13 23 21 2 0.40873749D-02 0.39627277D+00 0.33498003D+05 0.33498003D+05 0.33498003D+05 0.11629178D+01  1  2  3  1  7  1       -1 -.747071965303D-05 0.100000000000D+01
0.207054041485D-06 0.000000000000D+00 0.000000000000D+00 0.218269450784D-06 0.000000000000D+00  7 -1 1 23 -13 13 23 21 2 0.40873749D-02 0.39627277D+00 0.33498003D+05 0.33498003D+05 0.33498003D+05 0.11629178D+01  1  2 15  1  7  1       -1 0.101323513563D-04 0.100000000000D+01
0.859933378147D-05 0.000000000000D+00 0.000000000000D+00 0.218269450784D-06 0.000000000000D+00  7 -1 1 23 -13 13 23 21 2 0.43193711D-02 0.39627277D+00 0.36593102D+05 0.36593102D+05 0.36593102D+05 0.11594146D+01  1  2 12  1  7  1       -1 0.385211286267D-03 0.100000000000D+01
-.808870187449D-05 0.000000000000D+00 0.000000000000D+00 0.218269450784D-06 0.000000000000D+00  7 -1 1 23 -13 13 23 21 2 0.40873749D-02 0.39627277D+00 0.33498003D+05 0.33498003D+05 0.33498003D+05 0.11629178D+01  1  2  4  1  7  1       -1 -.395826948468D-03 0.100000000000D+01
-.330455701214D-04 0.000000000000D+00 -.616212089989D-05 0.218269450784D-06 0.000000000000D+00  7 -1 1 23 -13 13 23 21 2 0.43969862D-02 0.39627277D+00 0.33498003D+05 0.33498003D+05 0.33498003D+05 0.11629178D+01  1  2  5  1  7  1       -1 -.145453798646D-02 0.100000000000D+01
0.334227614800D-04 0.000000000000D+00 0.614573095150D-05 0.218269450784D-06 0.000000000000D+00  7 -1 1 23 -13 13 23 21 2 0.40873749D-02 0.39627277D+00 0.33498003D+05 0.33498003D+05 0.33498003D+05 0.11629178D+01  1  2  6  1  7  1       -1 0.163556895671D-02 0.100000000000D+01
0.106608663843D-06 0.000000000000D+00 0.000000000000D+00 0.218269450784D-06 0.000000000000D+00  7 21 1 23 -13 13 23 1 2 0.43193711D-02 0.39627277D+00 0.36593102D+05 0.36593102D+05 0.36593102D+05 0.11594146D+01  1  2 12  3  7  1       -1 0.777491934187D-04 0.100000000000D+01
-.395586818746D-06 0.000000000000D+00 -.758596194541D-07 0.218269450784D-06 0.000000000000D+00  7 21 1 23 -13 13 23 1 2 0.43969862D-02 0.39627277D+00 0.33498003D+05 0.33498003D+05 0.33498003D+05 0.11629178D+01  1  2  5  3  7  1       -1 -.283042562991D-03 0.100000000000D+01
  </mgrwgt>
  </event>
  <event>
  8     66 0.58687835E-06 0.21284548E+03 0.75467711E-02 0.95588104E-01
       -1 -1    0    0    0  501 0.00000000E+00 0.00000000E+00 0.26055222E+03 0.26055241E+03 0.32000000E+00 0.0000E+00 0.9000E+01
        1 -1    0    0  501    0 0.00000000E+00 0.00000000E+00 -.25294395E+03 0.25294415E+03 0.32000000E+00 0.0000E+00 0.9000E+01
       25  2    1    2    0    0 0.11331155E+03 -.96708891E+02 0.33176027E+02 0.33719968E+03 0.30068398E+03 0.0000E+00 0.0000E+00
       23  2    1    2    0    0 -.11331155E+03 0.96708891E+02 -.25567758E+02 0.17629688E+03 0.90745600E+02 0.0000E+00 0.0000E+00
       23  1    3    3    0    0 0.13392607E+03 -.82532822E+02 -.72178372E+02 0.19563443E+03 0.91188000E+02 0.0000E+00 0.9000E+01
      -13  1    4    4    0    0 -.92752169E+02 0.73893019E+02 0.21079237E+02 0.12044704E+03 0.10565837E+00 0.0000E+00 0.9000E+01
       13  1    4    4    0    0 -.20559379E+02 0.22815873E+02 -.46646995E+02 0.55849847E+02 0.10565837E+00 0.0000E+00 0.9000E+01
       23  1    3    3    0    0 -.20614527E+02 -.14176070E+02 0.10535440E+03 0.14156525E+03 0.91188000E+02 0.0000E+00 0.9000E+01
#aMCatNLO 1  0  0  1  1 0.36151383D+03 0.00000000D+00  -5  7  0 0.00000000D+00 0.00000000D+00 0.00000000D+00 0.00000000D+00 0.00000000D+00
  <mgrwgt>
 0.1943199500D-03    3    2    0
 0.256720096655000D+03 0.000000000000000D+00 0.000000000000000D+00 0.256720096655000D+03
 0.256720096655000D+03 0.000000000000000D+00 0.000000000000000D+00 -.256720096655000D+03
 0.196725460385724D+03 0.133926076179351D+03 -.825328226365533D+02 -.750852497286998D+02
 0.120147988215497D+03 -.927522667255233D+02 0.738930886611713D+02 0.192968271386975D+02
 0.565471158025921D+02 -.205592829590812D+02 0.228158045950218D+02 -.474797983407889D+02
 0.140019628906187D+03 -.206145264947460D+02 -.141760706196397D+02 0.103268220930791D+03
 0.000000000000000D+00 0.000000000000000D+00 0.000000000000000D+00 -.000000000000000D+00
 0.366399902967512D+03 0.000000000000000D+00 0.000000000000000D+00 0.366399902967512D+03
 0.937168885865333D+03 0.000000000000000D+00 0.000000000000000D+00 -.937168885865333D+03
 0.280322475003156D+03 0.106061543864863D+03 -.231038076589284D+03 -.750852497286998D+02
 0.107850184407735D+03 -.106069717609207D+03 0.291714680205745D+01 0.192968271386975D+02
 0.560382611567197D+02 -.271354331563653D+02 -.122320779266309D+02 -.474797983407889D+02
 0.183732614714843D+03 -.395250052643738D+02 -.114960301280892D+03 0.103268220930791D+03
 0.675625253550391D+03 0.666686121650837D+02 0.355313308994749D+03 -.570768982897821D+03
0.238901766933D-05 0.000000000000D+00 0.000000000000D+00 0.152578792747D-06 0.000000000000D+00  7 -1 1 23 -13 13 23 21 0 0.40084987D-01 0.38914484D-01 0.45303197D+05 0.45303197D+05 0.45303197D+05 0.11510828D+01  1  2  2  1  7  1       -1 0.191472066981D-03 0.100000000000D+01
-.127054811271D-06 0.000000000000D+00 -.917445689304D-08 0.152578792747D-06 0.000000000000D+00  7 -1 1 23 -13 13 23 21 2 0.40084987D-01 0.38914484D-01 0.45303197D+05 0.45303197D+05 0.45303197D+05 0.11510828D+01  1  2  3  1  7  1       -1 -.134924353021D-04 0.100000000000D+01
0.153872597339D-06 0.000000000000D+00 0.000000000000D+00 0.152578792747D-06 0.000000000000D+00  7 -1 1 23 -13 13 23 21 2 0.40084987D-01 0.38914484D-01 0.45303197D+05 0.45303197D+05 0.45303197D+05 0.11510828D+01  1  2 15  1  7  1       -1 0.163403183522D-04 0.100000000000D+01
  </mgrwgt>
  </event>
  <event>
  9     66 0.58687835E-06 0.15336012E+03 0.75467711E-02 0.10757998E+00
       -3 -1    0    0    0  501 0.00000000E+00 0.00000000E+00 0.24271063E+03 0.24271114E+03 0.50000000E+00 0.0000E+00 0.9000E+01
       21 -1    0    0  501  502 0.00000000E+00 0.00000000E+00 -.38081153E+03 0.38081227E+03 0.75000000E+00 0.0000E+00 0.9000E+01
       25  2    1    2    0    0 0.14772306E+02 -.81460121E+02 -.29369397E+02 0.31384801E+03 0.30130390E+03 0.0000E+00 0.0000E+00
       23  2    1    2    0    0 0.38166625E+02 0.77629502E+02 0.57004663E+02 0.13564686E+03 0.87564315E+02 0.0000E+00 0.0000E+00
       23  1    3    3    0    0 0.34468756E+02 -.78534819E+01 0.98832525E+02 0.13904277E+03 0.91188000E+02 0.0000E+00 0.9000E+01
      -13  1    4    4    0    0 0.15962463E+02 -.61067939E+00 0.51736392E+02 0.54146455E+02 0.10565837E+00 0.0000E+00 0.9000E+01
       13  1    4    4    0    0 0.22204163E+02 0.78240181E+02 0.52682707E+01 0.81500409E+02 0.10565837E+00 0.0000E+00 0.9000E+01
       23  1    3    3    0    0 -.19696450E+02 -.73606640E+02 -.12820192E+03 0.17480524E+03 0.91188000E+02 0.0000E+00 0.9000E+01
       -3  1    1    2    0  502 -.52938931E+02 0.38306199E+01 -.16573617E+03 0.17402854E+03 0.50000000E+00 0.0000E+00 0.9000E+01
#aMCatNLO 2  0  0  2  1 0.53077340D+02 0.00000000D+00  -5  7  0 0.00000000D+00 0.00000000D+00 0.00000000D+00 0.00000000D+00 0.00000000D+00
  <mgrwgt>
 0.1909002713D-04    2    2    0
 0.222746901337708D+03 0.000000000000000D+00 0.000000000000000D+00 0.222746901337708D+03
 0.222746901337708D+03 0.000000000000000D+00 0.000000000000000D+00 -.222746901337708D+03
 0.129997091894616D+03 0.188846148080002D+02 -.672587897793795D+01 0.904551072775047D+02
 0.495212698474362D+02 0.100072534211585D+02 -.179844285646354D+00 0.484992649665974D+02
 0.799398608207016D+02 0.126559186885122D+02 0.789312517032761D+02 0.258020807240623D+00
 0.186035580112662D+03 -.415477869176709D+02 -.720255284396919D+02 -.139212393051343D+03
 0.000000000000000D+00 -.000000000000000D+00 0.000000000000000D+00 -.000000000000000D+00
 0.228220590762117D+03 0.000000000000000D+00 0.000000000000000D+00 0.228220590762117D+03
 0.404990302706594D+03 0.000000000000000D+00 0.000000000000000D+00 -.404990302706594D+03
 0.133218424251588D+03 0.344687221260744D+02 -.785353286659044D+01 0.904551072775047D+02
 0.510622367925046D+02 0.159624652751375D+02 -.610758785131378D+00 0.484992649665974D+02
 0.813304648791123D+02 0.222041934244540D+02 0.782403459673140D+02 0.258020807240623D+00
 0.183033424122575D+03 -.196964498309090D+02 -.736066742015390D+02 -.139212393051343D+03
 0.184566343422931D+03 -.529389309947570D+02 0.383061988594679D+01 -.176769711944476D+03
-.668024269812D-06 0.000000000000D+00 0.000000000000D+00 0.776503361310D-08 0.000000000000D+00  7 -3 21 23 -13 13 23 -3 2 0.36444565D-01 0.58683182D-01 0.33674983D+05 0.33674983D+05 0.33674983D+05 0.11627080D+01  1  2 13  4  7  2        3 -.127891917364D-03 0.100000000000D+01
0.801625812401D-06 0.000000000000D+00 0.000000000000D+00 0.776503361310D-08 0.157876962602D-11  7 -3 21 23 -13 13 23 -3 2 0.37340138D-01 0.58586400D-01 0.33674983D+05 0.33674983D+05 0.33674983D+05 0.11627080D+01  1  2  1  4  7  2        3 0.146981944496D-03 0.100000000000D+01
  </mgrwgt>
  </event>
  <event>
  8     66 0.58687835E-06 0.22633374E+03 0.75467711E-02 0.10239040E+00
       -1 -1    0    0    0  501 0.00000000E+00 0.00000000E+00 0.86629233E+02 0.86629824E+02 0.32000000E+00 0.0000E+00 0.9000E+01
        1 -1    0    0  501    0 0.00000000E+00 0.00000000E+00 -.11180679E+04 0.11180679E+04 0.32000000E+00 0.0000E+00 0.9000E+01
       25  2    1    2    0    0 0.70372666E+01 -.11927014E+03 -.25722068E+03 0.41546001E+03 0.30359455E+03 0.0000E+00 0.0000E+00
       23  2    1    2    0    0 -.70372666E+01 0.11927014E+03 -.77421795E+03 0.78923772E+03 0.95957566E+02 0.0000E+00 0.0000E+00
       23  1    3    3    0    0 -.12535195E+02 0.51696066E+02 -.18170975E+02 0.10712166E+03 0.91188000E+02 0.0000E+00 0.9000E+01
      -11  1    4    4    0    0 -.40312205E+02 0.15192134E+02 -.25925314E+03 0.26280803E+03 0.51099893E-03 0.0000E+00 0.9000E+01
       11  1    4    4    0    0 0.33274939E+02 0.10407801E+03 -.51496481E+03 0.52642968E+03 0.51099893E-03 0.0000E+00 0.9000E+01
       23  1    3    3    0    0 0.19572462E+02 -.17096621E+03 -.23904971E+03 0.30833835E+03 0.91188000E+02 0.0000E+00 0.9000E+01
#aMCatNLO 1  0  0  1  1 0.85586956D+02 0.00000000D+00  -5  7  0 0.00000000D+00 0.00000000D+00 0.00000000D+00 0.00000000D+00 0.00000000D+00
  <mgrwgt>
 0.2222115705D-03    4    2    0
 0.311219768579156D+03 0.000000000000000D+00 0.000000000000000D+00 0.311219768579156D+03
 0.311219768579156D+03 0.000000000000000D+00 0.000000000000000D+00 -.311219768579156D+03
 0.177217173567769D+03 -.125351948847435D+02 0.516960664163151D+02 0.142341353336373D+03
 0.790446968909290D+02 -.403122051681618D+02 0.151921345758218D+02 -.662735940483764D+02
 0.165532615983130D+03 0.332749385240873D+02 0.104078009277454D+03 -.124344655716596D+03
 0.200645050716485D+03 0.195724615288179D+02 -.170966210269591D+03 0.482768964285989D+02
 0.000000000000000D+00 -.000000000000000D+00 0.000000000000000D+00 -.000000000000000D+00
 0.328217045745567D+03 0.000000000000000D+00 0.000000000000000D+00 0.328217045745567D+03
 0.444312874142124D+03 0.000000000000000D+00 0.000000000000000D+00 -.444312874142124D+03
 0.171576665555228D+03 -.594988391989876D+01 0.287548053507604D+02 0.142341353336373D+03
 0.762512039526636D+02 -.373801814799220D+02 0.497783775044977D+01 -.662735940483764D+02
 0.154597050323622D+03 0.393190630619595D+02 0.830220804570419D+02 -.124344655716596D+03
 0.225871271796624D+03 0.276251915380208D+02 -.199019522014134D+03 0.482768964285989D+02
 0.144233728259553D+03 -.236141892001595D+02 0.822647984558823D+02 -.116095828396556D+03
0.437166958381D-05 0.000000000000D+00 0.000000000000D+00 0.102083577937D-08 0.000000000000D+00  7 -1 1 23 -11 11 23 21 0 0.13327623D-01 0.17201049D+00 0.51226960D+05 0.51226960D+05 0.51226960D+05 0.11463704D+01  1  2  2  1  7  1       -1 0.244650070033D-03 0.100000000000D+01
-.212917253032D-06 0.000000000000D+00 -.167883622889D-07 0.102083577937D-08 0.000000000000D+00  7 -1 1 23 -11 11 23 21 2 0.13327623D-01 0.17201049D+00 0.51226960D+05 0.51226960D+05 0.51226960D+05 0.11463704D+01  1  2  3  1  7  1       -1 -.156588128708D-04 0.100000000000D+01
0.274095329830D-06 0.000000000000D+00 0.000000000000D+00 0.102083577937D-08 0.000000000000D+00  7 -1 1 23 -11 11 23 21 2 0.13327623D-01 0.17201049D+00 0.51226960D+05 0.51226960D+05 0.51226960D+05 0.11463704D+01  1  2 15  1  7  1       -1 0.201581009403D-04 0.100000000000D+01
-.366280623793D-06 0.000000000000D+00 0.000000000000D+00 0.102083577937D-08 0.000000000000D+00  7 -1 1 23 -11 11 23 21 2 0.13327623D-01 0.17201049D+00 0.51226960D+05 0.51226960D+05 0.51226960D+05 0.11463704D+01  1  2  4  1  7  1       -1 -.269377876357D-04 0.100000000000D+01
  </mgrwgt>
  </event>
  <event>
  8     66 0.58687835E-06 0.19149421E+03 0.75467711E-02 0.94341435E-01
       -1 -1    0    0    0  501 0.00000000E+00 0.00000000E+00 0.27547187E+03 0.27547206E+03 0.32000000E+00 0.0000E+00 0.9000E+01
        1 -1    0    0  501    0 0.00000000E+00 0.00000000E+00 -.21101962E+03 0.21101986E+03 0.32000000E+00 0.0000E+00 0.9000E+01
       25  2    1    2    0    0 -.29868556E+02 -.57172922E+02 0.15455739E+03 0.34408702E+03 0.30057781E+03 0.0000E+00 0.0000E+00
       23  2    1    2    0    0 0.29868556E+02 0.57172922E+02 -.90105136E+02 0.14240489E+03 0.89439052E+02 0.0000E+00 0.0000E+00
       23  1    3    3    0    0 0.50792974E+02 -.10630632E+03 0.10757561E+02 0.14937181E+03 0.91188000E+02 0.0000E+00 0.9000E+01
      -13  1    4    4    0    0 -.26713395E+02 0.29284635E+02 -.10824192E+02 0.41089775E+02 0.10565837E+00 0.0000E+00 0.9000E+01
       13  1    4    4    0    0 0.56581951E+02 0.27888288E+02 -.79280944E+02 0.10131512E+03 0.10565837E+00 0.0000E+00 0.9000E+01
       23  1    3    3    0    0 -.80661530E+02 0.49133400E+02 0.14379983E+03 0.19471522E+03 0.91188000E+02 0.0000E+00 0.9000E+01
#aMCatNLO 1  0  0  2  1 0.43465565D+03 0.00000000D+00  -5  7  0 0.00000000D+00 0.00000000D+00 0.00000000D+00 0.00000000D+00 0.00000000D+00
  <mgrwgt>
 0.1578977412D-03    5    2    0
 0.241101789200882D+03 0.000000000000000D+00 0.000000000000000D+00 0.241101789200882D+03
 0.241101789200882D+03 0.000000000000000D+00 0.000000000000000D+00 -.241101789200882D+03
 0.149262322125942D+03 0.507929691606456D+02 -.106306320073290D+03 -.911208311799648D+01
 0.429018796307126D+02 -.267135089905103D+02 0.292846373100455D+02 -.164124870413101D+02
 0.112813080271748D+03 0.565820677353074D+02 0.278882895665052D+02 -.935280920165261D+02
 0.177226296373362D+03 -.806615279054427D+02 0.491333931967395D+02 0.119052662175833D+03
 0.000000000000000D+00 -.000000000000000D+00 -.000000000000000D+00 -.000000000000000D+00
 0.387467971846173D+03 0.000000000000000D+00 0.000000000000000D+00 0.387467971846173D+03
 0.107580503700272D+04 0.000000000000000D+00 0.000000000000000D+00 -.107580503700272D+04
 0.151483269322465D+03 0.119841814782609D+03 -.136689030826883D+02 -.911208311799648D+01
 0.645328669164958D+02 -.204732787361898D+01 0.623773166316000D+02 -.164124870413101D+02
 0.202515440366553D+03 0.128979040328974D+03 0.125017625743030D+03 -.935280920165261D+02
 0.230657010449543D+03 0.129853027894052D+02 0.174771996228901D+03 0.119052662175833D+03
 0.814084421793832D+03 -.259758830027369D+03 -.348498035520843D+03 -.688337065156543D+03
0.163530116247D-05 0.000000000000D+00 0.000000000000D+00 0.575327352226D-07 0.000000000000D+00  7 -1 1 23 -13 13 23 21 0 0.42380321D-01 0.32464589D-01 0.36670032D+05 0.36670032D+05 0.36670032D+05 0.11593317D+01  1  2  2  2  7  2        1 0.150268115999D-03 0.100000000000D+01
-.849883177168D-07 0.000000000000D+00 -.627998704858D-08 0.575327352226D-07 0.000000000000D+00  7 -1 1 23 -13 13 23 21 2 0.42380321D-01 0.32464589D-01 0.36670032D+05 0.36670032D+05 0.36670032D+05 0.11593317D+01  1  2  3  2  7  2        1 -.104964815756D-04 0.100000000000D+01
0.105194921938D-06 0.000000000000D+00 0.000000000000D+00 0.575327352226D-07 0.000000000000D+00  7 -1 1 23 -13 13 23 21 2 0.42380321D-01 0.32464589D-01 0.36670032D+05 0.36670032D+05 0.36670032D+05 0.11593317D+01  1  2 15  2  7  2        1 0.129920980863D-04 0.100000000000D+01
0.515609825229D-06 0.000000000000D+00 -.810790388183D-06 0.575327352226D-07 0.000000000000D+00  7 -1 1 23 -13 13 23 21 2 0.42380321D-01 0.19835901D+00 0.36670032D+05 0.36670032D+05 0.36670032D+05 0.11593317D+01  1  2  5  2  7  2        1 0.457937420719D-05 0.100000000000D+01
0.596539982054D-07 0.000000000000D+00 -.179854181046D-06 0.575327352226D-07 0.000000000000D+00  7 -1 21 23 -13 13 23 -1 2 0.42380321D-01 0.19835901D+00 0.36670032D+05 0.36670032D+05 0.36670032D+05 0.11593317D+01  1  2  5  4  7  2        1 0.554634520772D-06 0.100000000000D+01
  </mgrwgt>
  </event>
  <event>
  8     66 0.58687835E-06 0.11380441E+03 0.75467711E-02 0.10000074E+00
       -1 -1    0    0    0  501 0.00000000E+00 0.00000000E+00 0.90196197E+02 0.90196765E+02 0.32000000E+00 0.0000E+00 0.9000E+01
        1 -1    0    0  501    0 0.00000000E+00 0.00000000E+00 -.14500481E+04 0.14500482E+04 0.32000000E+00 0.0000E+00 0.9000E+01
       25  2    1    2    0    0 0.25571413E+03 0.35185224E+02 -.49468921E+03 0.63292412E+03 0.29874373E+03 0.0000E+00 0.0000E+00
       23  2    1    2    0    0 -.25571413E+03 -.35185224E+02 -.86516273E+03 0.90732081E+03 0.89982170E+02 0.0000E+00 0.0000E+00
       23  1    3    3    0    0 0.19542875E+03 -.43567723E+01 -.46553423E+03 0.51307772E+03 0.91188000E+02 0.0000E+00 0.9000E+01
      -11  1    4    4    0    0 -.21906108E+03 -.51994595E+02 -.79633302E+03 0.82754908E+03 0.51099893E-03 0.0000E+00 0.9000E+01
       11  1    4    4    0    0 -.36653045E+02 0.16809371E+02 -.68829707E+02 0.79771733E+02 0.51099893E-03 0.0000E+00 0.9000E+01
       23  1    3    3    0    0 0.60285377E+02 0.39541996E+02 -.29154981E+02 0.11984640E+03 0.91188000E+02 0.0000E+00 0.9000E+01
#aMCatNLO 1  0  0  2  1 0.39805704D+02 0.00000000D+00  -5  7  0 0.00000000D+00 0.00000000D+00 0.00000000D+00 0.00000000D+00 0.00000000D+00
  <mgrwgt>
 0.2947509704D-03    9    2    0
 0.361648022352909D+03 0.000000000000000D+00 0.000000000000000D+00 0.361648022352909D+03
 0.361648022352909D+03 0.000000000000000D+00 0.000000000000000D+00 -.361648022352909D+03
 0.217349092480506D+03 0.195428752786163D+03 -.435677234542693D+01 -.267207368400362D+02
 0.265082709156765D+03 -.219061084139139D+03 -.519945946870131D+02 -.139920142342010D+03
 0.404672418480941D+02 -.366530454318304D+02 0.168093707189634D+02 0.340543380449062D+01
 0.200397001220453D+03 0.602853767848067D+02 0.395419963134766D+02 0.163235445377556D+03
 0.000000000000000D+00 0.000000000000000D+00 -.000000000000000D+00 -.000000000000000D+00
 0.376925658294670D+03 0.000000000000000D+00 0.000000000000000D+00 0.376925658294670D+03
 0.389086864206857D+03 0.000000000000000D+00 0.000000000000000D+00 -.389086864206857D+03
 0.208772244494884D+03 0.185878169198637D+03 0.243046611173070D+01 -.267207368400362D+02
 0.273653233762678D+03 -.231135679349456D+03 -.434136366528767D+02 -.139920142342010D+03
 0.427085998958629D+02 -.385172511406480D+02 0.181341911933337D+02 0.340543380449062D+01
 0.199256467292770D+03 0.513280129405721D+02 0.459076559405749D+02 0.163235445377556D+03
 0.416219770553316D+02 0.324467483508950D+02 -.230586765927626D+02 -.121612059121873D+02
0.422183349609D-05 0.000000000000D+00 0.000000000000D+00 0.675971941286D-07 0.000000000000D+00  7 -1 1 23 -11 11 23 21 0 0.13876384D-01 0.22308438D+00 0.89226811D+05 0.89226811D+05 0.89226811D+05 0.11258072D+01  1  2  2  2  7  2        1 0.130469629342D-03 0.100000000000D+01
-.224120742340D-06 0.000000000000D+00 -.162129522593D-07 0.675971941286D-07 0.000000000000D+00  7 -1 1 23 -11 11 23 21 2 0.13876384D-01 0.22308438D+00 0.89226811D+05 0.89226811D+05 0.89226811D+05 0.11258072D+01  1  2  3  2  7  2        1 -.877846256505D-05 0.100000000000D+01
0.268381681006D-06 0.000000000000D+00 0.000000000000D+00 0.675971941286D-07 0.000000000000D+00  7 -1 1 23 -11 11 23 21 2 0.13876384D-01 0.22308438D+00 0.89226811D+05 0.89226811D+05 0.89226811D+05 0.11258072D+01  1  2 15  2  7  2        1 0.105120950219D-04 0.100000000000D+01
0.810194994089D-05 0.000000000000D+00 0.000000000000D+00 0.675971941286D-07 0.000000000000D+00  7 -1 1 23 -11 11 23 21 2 0.13876384D-01 0.24443966D+00 0.10204180D+06 0.10204180D+06 0.10204180D+06 0.11210024D+01  1  2 12  2  7  2        1 0.253910058543D-03 0.100000000000D+01
-.745311552375D-05 0.000000000000D+00 0.000000000000D+00 0.675971941286D-07 0.000000000000D+00  7 -1 1 23 -11 11 23 21 2 0.13876384D-01 0.22308438D+00 0.89226811D+05 0.89226811D+05 0.89226811D+05 0.11258072D+01  1  2  4  2  7  2        1 -.291926998524D-03 0.100000000000D+01
-.245861745980D-04 0.000000000000D+00 -.492433619274D-05 0.675971941286D-07 0.000000000000D+00  7 -1 1 23 -11 11 23 21 2 0.13876384D-01 0.24553141D+00 0.89226811D+05 0.89226811D+05 0.89226811D+05 0.11258072D+01  1  2  5  2  7  2        1 -.771466864836D-03 0.100000000000D+01
0.249660087918D-04 0.000000000000D+00 0.490179035403D-05 0.675971941286D-07 0.000000000000D+00  7 -1 1 23 -11 11 23 21 2 0.13876384D-01 0.22308438D+00 0.89226811D+05 0.89226811D+05 0.89226811D+05 0.11258072D+01  1  2  6  2  7  2        1 0.977879919945D-03 0.100000000000D+01
0.121722633524D-06 0.000000000000D+00 0.000000000000D+00 0.675971941286D-07 0.000000000000D+00  7 -1 21 23 -11 11 23 -1 2 0.13876384D-01 0.24443966D+00 0.10204180D+06 0.10204180D+06 0.10204180D+06 0.11210024D+01  1  2 12  4  7  2        1 0.286090672100D-05 0.100000000000D+01
-.370013953102D-06 0.000000000000D+00 -.771160806348D-07 0.675971941286D-07 0.000000000000D+00  7 -1 21 23 -11 11 23 -1 2 0.13876384D-01 0.24553141D+00 0.89226811D+05 0.89226811D+05 0.89226811D+05 0.11258072D+01  1  2  5  4  7  2        1 -.870931327295D-05 0.100000000000D+01
  </mgrwgt>
  </event>
  <event>
  8     66 0.58687835E-06 0.25131253E+03 0.75467711E-02 0.99331009E-01
       -1 -1    0    0    0  501 0.00000000E+00 0.00000000E+00 0.23850972E+03 0.23850993E+03 0.32000000E+00 0.0000E+00 0.9000E+01
        1 -1    0    0  501    0 0.00000000E+00 0.00000000E+00 -.29107731E+03 0.29107748E+03 0.32000000E+00 0.0000E+00 0.9000E+01
       25  2    1    2    0    0 0.23452228E+02 0.15132202E+03 -.90584943E+02 0.34769426E+03 0.29872614E+03 0.0000E+00 0.0000E+00
       23  2    1    2    0    0 -.23452228E+02 -.15132202E+03 0.38017356E+02 0.18189316E+03 0.90506573E+02 0.0000E+00 0.0000E+00
       23  1    3    3    0    0 0.24097351E+02 0.20051292E+03 -.10107668E+03 0.24355258E+03 0.91188000E+02 0.0000E+00 0.9000E+01
      -13  1    4    4    0    0 0.82257383E+01 0.10041735E+02 0.62567242E+01 0.14410308E+02 0.10565837E+00 0.0000E+00 0.9000E+01
       13  1    4    4    0    0 -.31677966E+02 -.16136376E+03 0.31760632E+02 0.16748285E+03 0.10565837E+00 0.0000E+00 0.9000E+01
       23  1    3    3    0    0 -.64512309E+00 -.49190899E+02 0.10491741E+02 0.10414168E+03 0.91188000E+02 0.0000E+00 0.9000E+01
#aMCatNLO 1  0  0  2  1 0.14932026D+03 0.00000000D+00  -5  7  0 0.00000000D+00 0.00000000D+00 0.00000000D+00 0.00000000D+00 0.00000000D+00
  <mgrwgt>
 0.2527886294D-03    3    2    0
 0.263485994851668D+03 0.000000000000000D+00 0.000000000000000D+00 0.263485994851668D+03
 0.263485994851668D+03 0.000000000000000D+00 0.000000000000000D+00 -.263485994851668D+03
 0.234678554857246D+03 0.240973512782071D+02 0.200512918972372D+03 -.772829848830869D+02
 0.151057482375969D+02 0.822579249997095D+01 0.100419685044752D+02 0.772520783670008D+01
 0.171482550640016D+03 -.316780209151394D+02 -.161363990725530D+03 0.486254116901534D+02
 0.105705135968476D+03 -.645122863038637D+00 -.491908967513171D+02 0.209323653562335D+02
 0.000000000000000D+00 -.000000000000000D+00 -.000000000000000D+00 0.000000000000000D+00
 0.128032147117813D+04 0.000000000000000D+00 0.000000000000000D+00 0.128032147117813D+04
 0.279397806768746D+03 0.000000000000000D+00 0.000000000000000D+00 -.279397806768746D+03
 0.298531592921155D+03 0.545009107714672D+02 0.268072474530085D+03 -.772829848830869D+02
 0.192517918666056D+02 0.101848540800111D+02 0.143951867415387D+02 0.772520783670008D+01
 0.132854489574562D+03 -.143247703314463D+02 -.122803443327261D+03 0.486254116901534D+02
 0.970810472776593D+02 0.109177136891594D+02 -.234971914262494D+02 0.209323653562335D+02
 0.101200035630689D+04 -.612787082091914D+02 -.136167026518114D+03 0.100092366440938D+04
0.320820223833D-05 0.000000000000D+00 0.000000000000D+00 0.419666935985D-07 0.000000000000D+00  7 -1 1 23 -13 13 23 21 0 0.36693833D-01 0.44781154D-01 0.63157989D+05 0.63157989D+05 0.63157989D+05 0.11384767D+01  1  2  2  2  7  2        1 0.249196269849D-03 0.100000000000D+01
-.177748564258D-06 0.000000000000D+00 -.123203413342D-07 0.419666935985D-07 0.000000000000D+00  7 -1 1 23 -13 13 23 21 2 0.36693833D-01 0.44781154D-01 0.63157989D+05 0.63157989D+05 0.63157989D+05 0.11384767D+01  1  2  3  2  7  2        1 -.178951018029D-04 0.100000000000D+01
0.213430772596D-06 0.000000000000D+00 0.000000000000D+00 0.419666935985D-07 0.000000000000D+00  7 -1 1 23 -13 13 23 21 2 0.36693833D-01 0.44781154D-01 0.63157989D+05 0.63157989D+05 0.63157989D+05 0.11384767D+01  1  2 15  2  7  2        1 0.214874613442D-04 0.100000000000D+01
  </mgrwgt>
  </event>
  <event>
  8     66 -.58687835E-06 0.98870060E+02 0.75467711E-02 0.11011509E+00
       -1 -1    0    0    0  501 0.00000000E+00 0.00000000E+00 0.49245235E+02 0.49246275E+02 0.32000000E+00 0.0000E+00 0.9000E+01
        1 -1    0    0  501    0 0.00000000E+00 0.00000000E+00 -.89227644E+03 0.89227649E+03 0.32000000E+00 0.0000E+00 0.9000E+01
       25  2    1    2    0    0 0.72134136E+01 -.43709898E+02 -.64471057E+03 0.71230823E+03 0.29961426E+03 0.0000E+00 0.0000E+00
       23  2    1    2    0    0 -.72134136E+01 0.43709898E+02 -.19832063E+03 0.22921453E+03 0.10604548E+03 0.0000E+00 0.0000E+00
       23  1    3    3    0    0 -.27802757E+02 0.17982678E+02 -.56177778E+03 0.57009288E+03 0.91188000E+02 0.0000E+00 0.9000E+01
      -11  1    4    4    0    0 0.37804164E+02 0.30060804E+02 -.36067991E+02 0.60280235E+02 0.51099893E-03 0.0000E+00 0.9000E+01
       11  1    4    4    0    0 -.45017578E+02 0.13649094E+02 -.16225263E+03 0.16893430E+03 0.51099893E-03 0.0000E+00 0.9000E+01
       23  1    3    3    0    0 0.35016170E+02 -.61692576E+02 -.82932794E+02 0.14221535E+03 0.91188000E+02 0.0000E+00 0.9000E+01
#aMCatNLO 1  0  0  1  2 0.23591054D+01 0.00000000D+00  -5  7  0 0.00000000D+00 0.00000000D+00 0.00000000D+00 0.00000000D+00 0.00000000D+00
  <mgrwgt>
 -.3491536421D-04   11    2    0
 0.209620799343732D+03 0.000000000000000D+00 0.000000000000000D+00 0.209620799343732D+03
 0.209620799343732D+03 0.000000000000000D+00 0.000000000000000D+00 -.209620799343732D+03
 0.150651185374875D+03 -.278027227291194D+02 0.179824719847736D+02 -.115256963438308D+03
 0.628486697625675D+02 0.378040194680204D+02 0.300610126550656D+02 0.402137653190768D+02
 0.531231205627336D+02 -.450175016476020D+02 0.136493004539495D+02 -.246817155167280D+02
 0.152618622987288D+03 0.350162049087010D+02 -.616927850937887D+02 0.997249136359589D+02
 0.000000000000000D+00 0.000000000000000D+00 0.000000000000000D+00 0.000000000000000D+00
 0.210836675015256D+03 0.000000000000000D+00 0.000000000000000D+00 0.210836675015256D+03
 0.210771564748997D+03 0.000000000000000D+00 0.000000000000000D+00 -.210771564748997D+03
 0.150803749411652D+03 -.286493817631827D+02 0.179322278643876D+02 -.115256963438308D+03
 0.626272914437306D+02 0.374516107201313D+02 0.300400993158799D+02 0.402137653190768D+02
 0.533722837840187D+02 -.453166020628606D+02 0.136315506436160D+02 -.246817155167280D+02
 0.152444911430960D+03 0.341594108490469D+02 -.617436306669737D+02 0.997249136359589D+02
 0.236000369389196D+01 0.235496225686519D+01 0.139752843090260D+00 0.651102662590691D-01
0.313086167574D-06 0.000000000000D+00 0.000000000000D+00 0.114293129617D-08 0.000000000000D+00  7 -1 1 23 -11 11 23 21 0 0.75762744D-02 0.13727338D+00 0.23698255D+05 0.23698255D+05 0.23698255D+05 0.11769581D+01  1  2  2  1  7  1       -1 0.607684367762D-04 0.100000000000D+01
-.153780610360D-07 0.000000000000D+00 -.120233332097D-08 0.114293129617D-08 0.000000000000D+00  7 -1 1 23 -11 11 23 21 2 0.75762744D-02 0.13727338D+00 0.23698255D+05 0.23698255D+05 0.23698255D+05 0.11769581D+01  1  2  3  1  7  1       -1 -.413464089722D-05 0.100000000000D+01
0.202728248626D-07 0.000000000000D+00 0.000000000000D+00 0.114293129617D-08 0.000000000000D+00  7 -1 1 23 -11 11 23 21 2 0.75762744D-02 0.13727338D+00 0.23698255D+05 0.23698255D+05 0.23698255D+05 0.11769581D+01  1  2 15  1  7  1       -1 0.545067746726D-05 0.100000000000D+01
0.271380796390D-09 0.000000000000D+00 0.000000000000D+00 0.114293129617D-08 0.000000000000D+00  7 -1 1 23 -11 11 23 21 2 0.76408984D-02 0.13727338D+00 0.24062805D+05 0.24062805D+05 0.24062805D+05 0.11763278D+01  1  2 12  1  7  1       -1 0.719780091396D-07 0.100000000000D+01
-.381014297162D-05 0.000000000000D+00 0.000000000000D+00 0.114293129617D-08 0.000000000000D+00  7 -1 1 23 -11 11 23 21 2 0.75762744D-02 0.13727338D+00 0.23698255D+05 0.23698255D+05 0.23698255D+05 0.11769581D+01  1  2  4  1  7  1       -1 -.102441867787D-02 0.100000000000D+01
-.318156799315D-04 0.000000000000D+00 -.366968797317D-05 0.114293129617D-08 0.000000000000D+00  7 -1 1 23 -11 11 23 21 2 0.76629621D-02 0.13727338D+00 0.23698255D+05 0.23698255D+05 0.23698255D+05 0.11769581D+01  1  2  5  1  7  1       -1 -.841021675816D-02 0.100000000000D+01
0.318556059047D-04 0.000000000000D+00 0.366945048956D-05 0.114293129617D-08 0.000000000000D+00  7 -1 1 23 -11 11 23 21 2 0.75762744D-02 0.13727338D+00 0.23698255D+05 0.23698255D+05 0.23698255D+05 0.11769581D+01  1  2  6  1  7  1       -1 0.856489583900D-02 0.100000000000D+01
0.381007191292D-05 0.000000000000D+00 0.000000000000D+00 0.114293129617D-08 0.151564181350D-08  7 -1 1 23 -11 11 23 21 2 0.76202195D-02 0.13802698D+00 0.24062805D+05 0.24062805D+05 0.24062805D+05 0.11763278D+01  1  2 11  1  7  1       -1 0.100574560154D-02 0.100000000000D+01
0.272780647141D-10 0.000000000000D+00 0.000000000000D+00 0.114293129617D-08 0.000000000000D+00  7 21 1 23 -11 11 23 1 2 0.76408984D-02 0.13727338D+00 0.24062805D+05 0.24062805D+05 0.24062805D+05 0.11763278D+01  1  2 12  3  7  1       -1 0.108754087250D-06 0.100000000000D+01
-.665497819165D-07 0.000000000000D+00 -.769624697960D-08 0.114293129617D-08 0.000000000000D+00  7 21 1 23 -11 11 23 1 2 0.76629621D-02 0.13727338D+00 0.23698255D+05 0.23698255D+05 0.23698255D+05 0.11769581D+01  1  2  5  3  7  1       -1 -.264360283873D-03 0.100000000000D+01
0.785306323432D-08 0.000000000000D+00 0.000000000000D+00 0.114293129617D-08 0.162622750928D-11  7 21 1 23 -11 11 23 1 2 0.76202195D-02 0.13802698D+00 0.24062805D+05 0.24062805D+05 0.24062805D+05 0.11763278D+01  1  2 11  3  7  1       -1 0.311737097153D-04 0.100000000000D+01
  </mgrwgt>
  </event>
  <event>
  8     66 0.58687835E-06 0.26528931E+03 0.75467711E-02 0.96009048E-01
       -1 -1    0    0    0  501 0.00000000E+00 0.00000000E+00 0.31277127E+03 0.31277143E+03 0.32000000E+00 0.0000E+00 0.9000E+01
        1 -1    0    0  501    0 0.00000000E+00 0.00000000E+00 -.32879526E+03 0.32879541E+03 0.32000000E+00 0.0000E+00 0.9000E+01
       25  2    1    2    0    0 -.63467920E+02 -.19891572E+03 0.11245707E+03 0.38078007E+03 0.29791145E+03 0.0000E+00 0.0000E+00
       23  2    1    2    0    0 0.63467920E+02 0.19891572E+03 -.12848106E+03 0.26078678E+03 0.88919752E+02 0.0000E+00 0.0000E+00
       23  1    3    3    0    0 0.50616336E+02 -.63577946E+02 -.41590047E+02 0.12903159E+03 0.91188000E+02 0.0000E+00 0.9000E+01
      -11  1    4    4    0    0 0.33408712E+02 0.12815096E+03 -.12759070E+03 0.18389725E+03 0.51099893E-03 0.0000E+00 0.9000E+01
       11  1    4    4    0    0 0.30059208E+02 0.70764756E+02 -.89035145E+00 0.76889527E+02 0.51099893E-03 0.0000E+00 0.9000E+01
       23  1    3    3    0    0 -.11408426E+03 -.13533777E+03 0.15404712E+03 0.25174848E+03 0.91188000E+02 0.0000E+00 0.9000E+01
#aMCatNLO 1  0  0  1  1 0.29801629D+03 0.00000000D+00  -5  7  0 0.00000000D+00 0.00000000D+00 0.00000000D+00 0.00000000D+00 0.00000000D+00
  <mgrwgt>
 0.1182228124D-03    5    2    0
 0.320683353391998D+03 0.000000000000000D+00 0.000000000000000D+00 0.320683353391998D+03
 0.320683353391998D+03 0.000000000000000D+00 0.000000000000000D+00 -.320683353391998D+03
 0.128032767357624D+03 0.506163361770956D+02 -.635779464366746D+02 -.383792836326308D+02
 0.180766895157238D+03 0.334087118737862D+02 0.128150962536375D+03 -.123036007561700D+03
 0.768912762407848D+02 0.300592079685363D+02 0.707647559013176D+02 0.103038850338807D+01
 0.255675768028351D+03 -.114084256019418D+03 -.135337772001018D+03 0.160384902690943D+03
 0.000000000000000D+00 0.000000000000000D+00 0.000000000000000D+00 0.000000000000000D+00
 0.607989168390626D+03 0.000000000000000D+00 0.000000000000000D+00 0.607989168390626D+03
 0.440897068460885D+03 0.000000000000000D+00 0.000000000000000D+00 -.440897068460885D+03
 0.163963860110153D+03 0.346098621650726D+02 -.126087604890341D+03 -.383792836326308D+02
 0.137792327603722D+03 0.159461474440780D+02 0.599548727912954D+02 -.123036007561700D+03
 0.494681888224356D+02 0.231325201117364D+02 0.437141455158893D+02 0.103038850338807D+01
 0.355999042193023D+03 -.147614632854671D+03 -.266283063401236D+03 0.160384902690943D+03
 0.341662818122177D+03 0.739261031337840D+02 0.288701649984392D+03 0.167092099929741D+03
0.284327009272D-05 0.000000000000D+00 0.000000000000D+00 0.121338465183D-07 0.000000000000D+00  7 -1 1 23 -11 11 23 21 0 0.48118682D-01 0.50583910D-01 0.70378419D+05 0.70378419D+05 0.70378419D+05 0.11344606D+01  1  2  2  1  7  1       -1 0.117549244797D-03 0.100000000000D+01
-.151052981887D-06 0.000000000000D+00 -.109189058062D-07 0.121338465183D-07 0.000000000000D+00  7 -1 1 23 -11 11 23 21 2 0.48118682D-01 0.50583910D-01 0.70378419D+05 0.70378419D+05 0.70378419D+05 0.11344606D+01  1  2  3  1  7  1       -1 -.803729454545D-05 0.100000000000D+01
0.187039733874D-06 0.000000000000D+00 0.000000000000D+00 0.121338465183D-07 0.000000000000D+00  7 -1 1 23 -11 11 23 21 2 0.48118682D-01 0.50583910D-01 0.70378419D+05 0.70378419D+05 0.70378419D+05 0.11344606D+01  1  2 15  1  7  1       -1 0.995209372280D-05 0.100000000000D+01
-.308156803179D-06 0.000000000000D+00 -.872988267028D-06 0.121338465183D-07 0.000000000000D+00  7 -1 1 23 -11 11 23 21 2 0.11723889D+00 0.50583910D-01 0.70378419D+05 0.70378419D+05 0.70378419D+05 0.11344606D+01  1  2  5  1  7  1       -1 -.274929156693D-05 0.100000000000D+01
0.244938499270D-07 0.000000000000D+00 -.852409392050D-07 0.121338465183D-07 0.000000000000D+00  7 21 1 23 -11 11 23 1 2 0.11723889D+00 0.50583910D-01 0.70378419D+05 0.70378419D+05 0.70378419D+05 0.11344606D+01  1  2  5  3  7  1       -1 0.150805998504D-05 0.100000000000D+01
  </mgrwgt>
  </event>
  <event>
  7     66 0.58687835E-06 0.25298667E+03 0.75467711E-02 0.99543358E-01
       -1 -1    0    0    0  501 0.00000000E+00 0.00000000E+00 0.13977464E+03 0.13977501E+03 0.32000000E+00 0.0000E+00 0.9000E+01
        1 -1    0    0  501    0 0.00000000E+00 0.00000000E+00 -.69423882E+03 0.69423889E+03 0.32000000E+00 0.0000E+00 0.9000E+01
       25  2    1    2    0    0 0.11540867E+03 0.95195860E+02 -.46371127E+03 0.57250165E+03 0.30058041E+03 0.0000E+00 0.0000E+00
       23  1    3    3    0    0 0.10181647E+03 0.55565200E+01 -.41163138E+03 0.43376620E+03 0.91188000E+02 0.0000E+00 0.9000E+01
      -11  1    1    2    0    0 -.15204955E+03 -.15454532E+02 -.32701067E+02 0.15629225E+03 0.51099893E-03 0.0000E+00 0.9000E+01
       11  1    1    2    0    0 0.36640877E+02 -.79741327E+02 -.58051835E+02 0.10522000E+03 0.51099893E-03 0.0000E+00 0.9000E+01
       23  1    3    3    0    0 0.13592199E+02 0.89639340E+02 -.52079893E+02 0.13873545E+03 0.91188000E+02 0.0000E+00 0.9000E+01
#aMCatNLO 1  0  0  2  1 0.13549277D+03 0.00000000D+00  -5  7  0 0.00000000D+00 0.00000000D+00 0.00000000D+00 0.00000000D+00 0.00000000D+00
  <mgrwgt>
 0.3610691993D-03    3    2    0
 0.311507889571383D+03 0.000000000000000D+00 0.000000000000000D+00 0.311507889571383D+03
 0.311507889571383D+03 0.000000000000000D+00 0.000000000000000D+00 -.311507889571383D+03
 0.214331987554132D+03 0.101816506694203D+03 0.555654935325774D+01 -.165001434141581D+03
 0.180121178112251D+03 -.152049524109435D+03 -.154546044381724D+02 0.953191283232240D+02
 0.891907597175149D+02 0.366407954023325D+02 -.797413036165683D+02 0.159301044818344D+02
 0.139371853758868D+03 0.135922220128994D+02 0.896393587014830D+02 0.537522013365231D+02
 0.000000000000000D+00 -.000000000000000D+00 0.000000000000000D+00 0.000000000000000D+00
 0.716536467803365D+03 0.000000000000000D+00 0.000000000000000D+00 0.716536467803365D+03
 0.330328414681563D+03 0.000000000000000D+00 0.000000000000000D+00 -.330328414681563D+03
 0.241163747265664D+03 0.150396001558500D+03 -.520670389143498D+00 -.165001434141581D+03
 0.151936969506889D+03 -.116634884972817D+03 -.198849210713997D+02 0.953191283232240D+02
 0.101335276396600D+03 0.569607630450200D+02 -.822833001702182D+02 0.159301044818344D+02
 0.143142984442667D+03 0.437229720558800D+02 0.858700484291949D+02 0.537522013365231D+02
 0.409285904873108D+03 -.134444851686583D+03 0.168188432015665D+02 0.386208053121802D+03
0.621371029389D-05 0.000000000000D+00 0.000000000000D+00 0.988167740823D-10 0.000000000000D+00  7 -1 1 23 -11 11 23 21 0 0.21503825D-01 0.10680601D+00 0.64002254D+05 0.64002254D+05 0.64002254D+05 0.11379817D+01  1  2  2  2  7  2        1 0.355719531033D-03 0.100000000000D+01
-.327032000880D-06 0.000000000000D+00 -.238622836360D-07 0.988167740823D-10 0.000000000000D+00  7 -1 1 23 -11 11 23 21 2 0.21503825D-01 0.10680601D+00 0.64002254D+05 0.64002254D+05 0.64002254D+05 0.11379817D+01  1  2  3  2  7  2        1 -.242447374438D-04 0.100000000000D+01
0.399192515144D-06 0.000000000000D+00 0.000000000000D+00 0.988167740823D-10 0.000000000000D+00  7 -1 1 23 -11 11 23 21 2 0.21503825D-01 0.10680601D+00 0.64002254D+05 0.64002254D+05 0.64002254D+05 0.11379817D+01  1  2 15  2  7  2        1 0.295944057253D-04 0.100000000000D+01
  </mgrwgt>
  </event>
  <event>
  9     66 0.58687835E-06 0.31487641E+03 0.75467711E-02 0.98543012E-01
       -1 -1    0    0    0  501 0.00000000E+00 0.00000000E+00 0.13278508E+04 0.13278508E+04 0.32000000E+00 0.0000E+00 0.9000E+01
        1 -1    0    0  502    0 0.00000000E+00 0.00000000E+00 -.14467729E+03 0.14467765E+03 0.32000000E+00 0.0000E+00 0.9000E+01
       25  2    1    2    0    0 0.11350588E+03 0.28973073E+03 0.30385432E+03 0.52709045E+03 0.29777410E+03 0.0000E+00 0.0000E+00
       23  2    1    2    0    0 -.51925897E+02 -.23539490E+03 0.74388015E+03 0.78704368E+03 0.89291744E+02 0.0000E+00 0.0000E+00
       23  1    3    3    0    0 0.13603541E+03 0.19446439E+03 0.80401206E+02 0.26664890E+03 0.91188000E+02 0.0000E+00 0.9000E+01
      -13  1    4    4    0    0 0.10850198E+02 -.14621749E+02 0.17466835E+02 0.25231406E+02 0.10565837E+00 0.0000E+00 0.9000E+01
       13  1    4    4    0    0 -.62776096E+02 -.22077315E+03 0.72641332E+03 0.76181227E+03 0.10565837E+00 0.0000E+00 0.9000E+01
       23  1    3    3    0    0 -.22529528E+02 0.95266340E+02 0.22345312E+03 0.26044155E+03 0.91188000E+02 0.0000E+00 0.9000E+01
       21  1    1    2  502  501 -.61579983E+02 -.54335830E+02 0.13543903E+03 0.15839435E+03 0.75000000E+00 0.0000E+00 0.9000E+01
#aMCatNLO 2  0  0  2  1 0.82124763D+02 0.00000000D+00  -5  7  0 0.00000000D+00 0.00000000D+00 0.00000000D+00 0.00000000D+00 0.00000000D+00
  <mgrwgt>
 0.8102462891D-04    1    2    0
 0.394479565126885D+03 0.000000000000000D+00 0.000000000000000D+00 0.394479565126885D+03
 0.394479565126885D+03 0.000000000000000D+00 0.000000000000000D+00 -.394479565126885D+03
 0.313362066845457D+03 0.110778759435589D+03 0.172178883584238D+03 -.219004639446871D+03
 0.189906403218522D+02 0.938220366126730D+01 -.159168542678040D+02 -.439003695997521D+01
 0.324347872641357D+03 -.871779273167436D+02 -.242304592830513D+03 0.197205567286956D+03
 0.132258550445103D+03 -.329830357801127D+02 0.860425635140788D+02 0.261891091198900D+02
 0.000000000000000D+00 -.000000000000000D+00 -.000000000000000D+00 0.000000000000000D+00
 0.445950477882189D+03 0.000000000000000D+00 0.000000000000000D+00 0.445950477882189D+03
 0.430784752110398D+03 0.000000000000000D+00 0.000000000000000D+00 -.430784752110398D+03
 0.335559702892434D+03 0.136035408729801D+03 0.194464388343267D+03 -.219004639446871D+03
 0.187293507670750D+02 0.108503014054663D+02 -.146214607702761D+02 -.439003695997521D+01
 0.302608323920445D+03 -.627761989145817D+02 -.220773437683993D+03 0.197205567286956D+03
 0.136324524484204D+03 -.225295283679782D+02 0.952663400518105D+02 0.261891091198900D+02
 0.835133279284288D+02 -.615799828527069D+02 -.543358299408085D+02 0.151657257717907D+02
0.171955114560D-04 0.000000000000D+00 0.000000000000D+00 0.207495267981D-07 0.206346446534D-10  7 -1 1 23 -13 13 23 21 2 0.20428398D+00 0.22257989D-01 0.12883841D+06 0.12883841D+06 0.12883841D+06 0.11128019D+01  1  2  1  2  7  2        1 0.810246289148D-04 0.100000000000D+01
  </mgrwgt>
  </event>
  <event>
  8     66 0.58687835E-06 0.21487962E+03 0.75467711E-02 0.96973973E-01
       -1 -1    0    0    0  501 0.00000000E+00 0.00000000E+00 0.27067321E+02 0.27069213E+02 0.32000000E+00 0.0000E+00 0.9000E+01
        1 -1    0    0  501    0 0.00000000E+00 0.00000000E+00 -.20776524E+04 0.20776525E+04 0.32000000E+00 0.0000E+00 0.9000E+01
       25  2    1    2    0    0 -.97542132E+02 0.15548962E+02 -.16642549E+04 0.16941472E+04 0.30105512E+03 0.0000E+00 0.0000E+00
       23  2    1    2    0    0 0.97542132E+02 -.15548962E+02 -.38633019E+03 0.41057443E+03 0.97796266E+02 0.0000E+00 0.0000E+00
       23  1    3    3    0    0 0.62436233E+02 0.44511741E+02 -.88083194E+03 0.88885304E+03 0.91188000E+02 0.0000E+00 0.9000E+01
      -11  1    4    4    0    0 -.46086081E+01 0.16515377E+02 -.11237189E+02 0.20500521E+02 0.51099893E-03 0.0000E+00 0.9000E+01
       11  1    4    4    0    0 0.10215074E+03 -.32064338E+02 -.37509300E+03 0.39007391E+03 0.51099893E-03 0.0000E+00 0.9000E+01
       23  1    3    3    0    0 -.15997837E+03 -.28962779E+02 -.78342298E+03 0.80529419E+03 0.91188000E+02 0.0000E+00 0.9000E+01
#aMCatNLO 1  0  0  1  1 0.29118988D+03 0.00000000D+00  -5  7  0 0.00000000D+00 0.00000000D+00 0.00000000D+00 0.00000000D+00 0.00000000D+00
  <mgrwgt>
 0.3565808050D-03    3    2    0
 0.237146583871459D+03 0.000000000000000D+00 0.000000000000000D+00 0.237146583871459D+03
 0.237146583871459D+03 0.000000000000000D+00 0.000000000000000D+00 -.237146583871459D+03
 0.136133953373443D+03 0.624362327972411D+02 0.445117407487170D+02 -.658606383714156D+02
 0.423895589178908D+02 -.460860773338737D+01 0.165153764883305D+02 0.387669676330481D+02
 0.109292924199041D+03 0.102150740541825D+03 -.320643382981593D+02 0.219555846252212D+02
 0.186476731252543D+03 -.159978365605679D+03 -.289627789388882D+02 0.513808611314621D+01
 0.000000000000000D+00 0.000000000000000D+00 -.000000000000000D+00 -.000000000000000D+00
 0.343671903252458D+03 0.000000000000000D+00 0.000000000000000D+00 0.343671903252458D+03
 0.602410772798416D+03 0.000000000000000D+00 0.000000000000000D+00 -.602410772798416D+03
 0.167931946884408D+03 0.255018492874920D+02 0.122057033540125D+03 -.658606383714156D+02
 0.601119040076077D+02 -.170592914134392D+02 0.426561109388726D+02 0.387669676330481D+02
 0.835063432709010D+02 0.787317314418406D+02 0.171048570415595D+02 0.219555846252212D+02
 0.244997696912010D+03 -.212388852907823D+03 0.810752451725047D+02 0.513808611314621D+01
 0.389534784975947D+03 0.125214563591930D+03 -.262893246693062D+03 -.258738869545958D+03
0.469987152603D-05 0.000000000000D+00 0.000000000000D+00 0.198027500240D-08 0.000000000000D+00  7 -1 1 23 -11 11 23 21 0 0.41643507D-02 0.31963898D+00 0.46173251D+05 0.46173251D+05 0.46173251D+05 0.11503495D+01  1  2  2  1  7  1       -1 0.351900366667D-03 0.100000000000D+01
-.258017567508D-06 0.000000000000D+00 -.180487441645D-07 0.198027500240D-08 0.000000000000D+00  7 -1 1 23 -11 11 23 21 2 0.41643507D-02 0.31963898D+00 0.46173251D+05 0.46173251D+05 0.46173251D+05 0.11503495D+01  1  2  3  1  7  1       -1 -.255648117704D-04 0.100000000000D+01
0.305255753116D-06 0.000000000000D+00 0.000000000000D+00 0.198027500240D-08 0.000000000000D+00  7 -1 1 23 -11 11 23 21 2 0.41643507D-02 0.31963898D+00 0.46173251D+05 0.46173251D+05 0.46173251D+05 0.11503495D+01  1  2 15  1  7  1       -1 0.302452501418D-04 0.100000000000D+01
  </mgrwgt>
  </event>
  <event>
  9     66 -.58687835E-06 0.15174346E+03 0.75467711E-02 0.10970634E+00
       -1 -1    0    0    0  501 0.00000000E+00 0.00000000E+00 0.27538147E+02 0.27540007E+02 0.32000000E+00 0.0000E+00 0.9000E+01
        1 -1    0    0  502    0 0.00000000E+00 0.00000000E+00 -.15749894E+04 0.15749894E+04 0.32000000E+00 0.0000E+00 0.9000E+01
       25  2    1    2    0    0 0.21923432E+02 0.30198361E+02 -.10013863E+04 0.10458699E+04 0.29946071E+03 0.0000E+00 0.0000E+00
       23  2    1    2    0    0 -.19693419E+02 -.16237255E+02 -.46682710E+03 0.47616679E+03 0.90309416E+02 0.0000E+00 0.0000E+00
       23  1    3    3    0    0 0.64438394E+02 -.33886704E+02 -.82327159E+03 0.83149984E+03 0.91188000E+02 0.0000E+00 0.9000E+01
      -11  1    4    4    0    0 -.26162695E+02 0.19203561E+02 -.38960505E+03 0.39095442E+03 0.51099893E-03 0.0000E+00 0.9000E+01
       11  1    4    4    0    0 0.64692752E+01 -.35440815E+02 -.77222049E+02 0.85212369E+02 0.51099893E-03 0.0000E+00 0.9000E+01
       23  1    3    3    0    0 -.42514961E+02 0.64085066E+02 -.17811473E+03 0.21437007E+03 0.91188000E+02 0.0000E+00 0.9000E+01
       21  1    1    2  502  501 -.22300130E+01 -.13961106E+02 -.79237829E+02 0.80492742E+02 0.75000000E+00 0.0000E+00 0.9000E+01
#aMCatNLO 2  0  0  2  1 0.14138085D+02 0.00000000D+00  -5  7  0 0.00000000D+00 0.00000000D+00 0.00000000D+00 0.00000000D+00 0.00000000D+00
  <mgrwgt>
 -.4804564540D-04    3    2    0
 0.200465186529608D+03 0.000000000000000D+00 0.000000000000000D+00 0.200465186529608D+03
 0.200465186529608D+03 0.000000000000000D+00 0.000000000000000D+00 -.200465186529608D+03
 0.142579024378444D+03 0.636481333972425D+02 -.388341812209977D+02 -.803389589965561D+02
 0.569022742082306D+02 -.264804496546233D+02 0.172142476560945D+02 -.473320639080135D+02
 0.418982184053325D+02 0.623970356206716D+01 -.368780385961969D+02 0.188821893406427D+02
 0.159550856067210D+03 -.434073873046863D+02 0.584979721611002D+02 0.108788833563927D+03
 0.000000000000000D+00 -.000000000000000D+00 -.000000000000000D+00 -.000000000000000D+00
 0.205257562960661D+03 0.000000000000000D+00 0.000000000000000D+00 0.205257562960661D+03
 0.211295389115161D+03 0.000000000000000D+00 0.000000000000000D+00 -.211295389115161D+03
 0.141669386775650D+03 0.644383961883267D+02 -.338867019554079D+02 -.803389589965561D+02
 0.573897858383270D+02 -.261626967356028D+02 0.192035555118747D+02 -.473320639080135D+02
 0.406748075152588D+02 0.646927174036352D+01 -.354408156686159D+02 0.188821893406427D+02
 0.161445592496835D+03 -.425149582200684D+02 0.640850685573494D+02 0.108788833563927D+03
 0.153733794497508D+02 -.223001297301912D+01 -.139611064452004D+02 -.603782615450053D+01
-.293283926010D-05 0.000000000000D+00 0.000000000000D+00 0.403641534879D-07 0.000000000000D+00  7 -1 1 23 -11 11 23 21 2 0.41376800D-02 0.24493378D+00 0.25375494D+05 0.25375494D+05 0.25375494D+05 0.11741425D+01  1  2 13  2  7  2        1 -.630853446110D-03 0.100000000000D+01
-.366556897214D-06 0.000000000000D+00 0.000000000000D+00 0.403641534879D-07 0.000000000000D+00  7 -1 1 23 -11 11 23 21 2 0.41376800D-02 0.22987636D+00 0.23026078D+05 0.23026078D+05 0.23026078D+05 0.11781492D+01  1  2  8  2  7  2        1 -.917947158091D-04 0.100000000000D+01
0.316367225961D-05 0.000000000000D+00 0.000000000000D+00 0.403641534879D-07 0.148657711701D-08  7 -1 1 23 -11 11 23 21 2 0.42365965D-02 0.24229551D+00 0.25375494D+05 0.25375494D+05 0.25375494D+05 0.11741425D+01  1  2  1  2  7  2        1 0.674602516521D-03 0.100000000000D+01
  </mgrwgt>
  </event>
  <event>
  8     66 0.58687835E-06 0.41523100E+03 0.75467711E-02 0.91376904E-01
       -1 -1    0    0    0  501 0.00000000E+00 0.00000000E+00 0.19793710E+03 0.19793736E+03 0.32000000E+00 0.0000E+00 0.9000E+01
        1 -1    0    0  501    0 0.00000000E+00 0.00000000E+00 -.10919819E+04 0.10919820E+04 0.32000000E+00 0.0000E+00 0.9000E+01
       25  2    1    2    0    0 0.31804488E+03 -.17972844E+03 -.22842274E+03 0.52559063E+03 0.30102111E+03 0.0000E+00 0.0000E+00
       23  2    1    2    0    0 -.31804488E+03 0.17972844E+03 -.66562209E+03 0.76432870E+03 0.87696843E+02 0.0000E+00 0.0000E+00
       23  1    3    3    0    0 0.21114370E+02 0.16987075E+02 -.95054952E+02 0.13448075E+03 0.91188000E+02 0.0000E+00 0.9000E+01
      -11  1    4    4    0    0 -.69836558E+02 0.60075827E+02 -.24238245E+03 0.25929809E+03 0.51099893E-03 0.0000E+00 0.9000E+01
       11  1    4    4    0    0 -.24820832E+03 0.11965262E+03 -.42323964E+03 0.50503060E+03 0.51099893E-03 0.0000E+00 0.9000E+01
       23  1    3    3    0    0 0.29693051E+03 -.19671552E+03 -.13336778E+03 0.39110988E+03 0.91188000E+02 0.0000E+00 0.9000E+01
#aMCatNLO 1  0  0  2  1 0.41706191D+03 0.00000000D+00  -5  7  0 0.00000000D+00 0.00000000D+00 0.00000000D+00 0.00000000D+00 0.00000000D+00
  <mgrwgt>
 0.2869721162D-03    3    2    0
 0.464912824820590D+03 0.000000000000000D+00 0.000000000000000D+00 0.464912824820590D+03
 0.464912824820590D+03 0.000000000000000D+00 0.000000000000000D+00 -.464912824820590D+03
 0.951640060333488D+02 0.211143699738379D+02 0.169870749504367D+02 -.256112583669544D+01
 0.126661218460277D+03 -.698365576132688D+02 0.600758271115272D+02 -.869299400634592D+02
 0.293661003192240D+03 -.248208323014795D+03 0.119652616373451D+03 -.101551290376065D+03
 0.414339421955314D+03 0.296930510654226D+03 -.196715518435415D+03 0.191042356276220D+03
 0.000000000000000D+00 0.000000000000000D+00 0.000000000000000D+00 0.000000000000000D+00
 0.898557177150166D+03 0.000000000000000D+00 0.000000000000000D+00 0.898557177150166D+03
 0.621319685889225D+03 0.000000000000000D+00 0.000000000000000D+00 -.621319685889225D+03
 0.933364422309584D+02 0.369473305283235D+01 -.193966411125729D+02 -.256112583669544D+01
 0.128041573229061D+03 -.933740621383172D+02 0.109139596538598D+02 -.869299400634592D+02
 0.321518126092140D+03 -.305058039671641D+03 0.912831010242598D+00 -.101551290376065D+03
 0.476180096235190D+03 0.214636135119393D+03 -.368600570151477D+03 0.191042356276220D+03
 0.500800625252041D+03 0.180101233637733D+03 0.376170420599948D+03 0.277237491260942D+03
0.187526214816D-04 0.000000000000D+00 0.000000000000D+00 0.433534911820D-07 0.000000000000D+00  7 -1 1 23 -11 11 23 21 0 0.30451885D-01 0.16799724D+00 0.17241678D+06 0.17241678D+06 0.17241678D+06 0.11028099D+01  1  2  2  2  7  2        1 0.283501291815D-03 0.100000000000D+01
-.102563364117D-05 0.000000000000D+00 -.720150041682D-07 0.433534911820D-07 0.000000000000D+00  7 -1 1 23 -11 11 23 21 2 0.30451885D-01 0.16799724D+00 0.17241678D+06 0.17241678D+06 0.17241678D+06 0.11028099D+01  1  2  3  2  7  2        1 -.188576095810D-04 0.100000000000D+01
0.121440593711D-05 0.000000000000D+00 0.000000000000D+00 0.433534911820D-07 0.000000000000D+00  7 -1 1 23 -11 11 23 21 2 0.30451885D-01 0.16799724D+00 0.17241678D+06 0.17241678D+06 0.17241678D+06 0.11028099D+01  1  2 15  2  7  2        1 0.223284339705D-04 0.100000000000D+01
  </mgrwgt>
  </event>
  <event>
  8     66 0.58687835E-06 0.21142235E+03 0.75467711E-02 0.99719756E-01
       -1 -1    0    0    0  501 0.00000000E+00 0.00000000E+00 0.64783718E+03 0.64783725E+03 0.32000000E+00 0.0000E+00 0.9000E+01
        1 -1    0    0  501    0 0.00000000E+00 0.00000000E+00 -.29270876E+03 0.29270893E+03 0.32000000E+00 0.0000E+00 0.9000E+01
       25  2    1    2    0    0 -.19321298E+03 -.80197043E+02 0.53614941E+03 0.64912979E+03 0.30025068E+03 0.0000E+00 0.0000E+00
       23  2    1    2    0    0 0.19321298E+03 0.80197043E+02 -.18102099E+03 0.29141640E+03 0.91608394E+02 0.0000E+00 0.0000E+00
       23  1    3    3    0    0 -.20726924E+03 -.12992922E+03 0.37733166E+03 0.45884264E+03 0.91188000E+02 0.0000E+00 0.9000E+01
      -11  1    4    4    0    0 0.32630194E+02 -.13947551E+02 -.58976959E+02 0.68829830E+02 0.51099893E-03 0.0000E+00 0.9000E+01
       11  1    4    4    0    0 0.16058278E+03 0.94144595E+02 -.12204403E+03 0.22258657E+03 0.51099893E-03 0.0000E+00 0.9000E+01
       23  1    3    3    0    0 0.14056260E+02 0.49732174E+02 0.15881775E+03 0.19028714E+03 0.91188000E+02 0.0000E+00 0.9000E+01
#aMCatNLO 1  0  0  2  1 0.69541181D+02 0.00000000D+00  -5  7  0 0.00000000D+00 0.00000000D+00 0.00000000D+00 0.00000000D+00 0.00000000D+00
  <mgrwgt>
 0.2462505067D-03    6    2    0
 0.435462665465950D+03 0.000000000000000D+00 0.000000000000000D+00 0.435462665465950D+03
 0.435462665465950D+03 0.000000000000000D+00 0.000000000000000D+00 -.435462665465950D+03
 0.341661323866692D+03 -.207269236599534D+03 -.129929216720531D+03 0.220397529668952D+03
 0.983804525495501D+02 0.326301939100120D+02 -.139475515024399D+02 -.917575593416482D+02
 0.290144566708150D+03 0.160582782902307D+03 0.941445946024619D+02 -.222561979530980D+03
 0.140738987807507D+03 0.140562597872148D+02 0.497321736205092D+02 0.939220092036767D+02
 0.000000000000000D+00 0.000000000000000D+00 0.000000000000000D+00 0.000000000000000D+00
 0.478590504383486D+03 0.000000000000000D+00 0.000000000000000D+00 0.478590504383486D+03
 0.465812208927089D+03 0.000000000000000D+00 0.000000000000000D+00 -.465812208927089D+03
 0.362161264037462D+03 -.232544308530864D+03 -.142104198780114D+03 0.220397529668952D+03
 0.968295755340267D+02 0.256199791395232D+02 -.173243663853572D+02 -.917575593416482D+02
 0.276253967904053D+03 0.140242765474403D+03 0.843468243745811D+02 -.222561979530980D+03
 0.138452455817765D+03 0.403017659307676D+01 0.449026173150649D+02 0.939220092036767D+02
 0.707054500172690D+02 0.626513873238613D+02 0.301791234758247D+02 0.127782954563964D+02
0.163338929543D-04 0.000000000000D+00 0.000000000000D+00 0.152894129999D-05 0.000000000000D+00  7 -1 1 23 -11 11 23 21 0 0.99667277D-01 0.45032136D-01 0.86293673D+05 0.86293673D+05 0.86293673D+05 0.11270139D+01  1  2  2  2  7  2        1 0.189914034620D-03 0.100000000000D+01
-.736465919184D-06 0.000000000000D+00 -.627264497572D-07 0.152894129999D-05 0.000000000000D+00  7 -1 1 23 -11 11 23 21 2 0.99667277D-01 0.45032136D-01 0.86293673D+05 0.86293673D+05 0.86293673D+05 0.11270139D+01  1  2  3  2  7  2        1 -.108762338648D-04 0.100000000000D+01
0.104554025362D-05 0.000000000000D+00 0.000000000000D+00 0.152894129999D-05 0.000000000000D+00  7 -1 1 23 -11 11 23 21 2 0.99667277D-01 0.45032136D-01 0.86293673D+05 0.86293673D+05 0.86293673D+05 0.11270139D+01  1  2 15  2  7  2        1 0.154406877729D-04 0.100000000000D+01
0.162727901574D-04 0.000000000000D+00 0.000000000000D+00 0.152894129999D-05 0.000000000000D+00  7 -1 1 23 -11 11 23 21 2 0.99667277D-01 0.50225088D-01 0.10667516D+06 0.10667516D+06 0.10667516D+06 0.11194264D+01  1  2 12  2  7  2        1 0.204155004658D-03 0.100000000000D+01
-.113907553807D-04 0.000000000000D+00 0.000000000000D+00 0.152894129999D-05 0.000000000000D+00  7 -1 1 23 -11 11 23 21 2 0.99667277D-01 0.45032136D-01 0.86293673D+05 0.86293673D+05 0.86293673D+05 0.11270139D+01  1  2  4  2  7  2        1 -.168220302108D-03 0.100000000000D+01
0.284914497329D-06 0.000000000000D+00 0.000000000000D+00 0.152894129999D-05 0.000000000000D+00  7 -1 21 23 -11 11 23 -1 2 0.99667277D-01 0.50225088D-01 0.10667516D+06 0.10667516D+06 0.10667516D+06 0.11194264D+01  1  2 12  4  7  2        1 0.158373156085D-04 0.100000000000D+01
  </mgrwgt>
  </event>
  <event>
  8     66 0.58687835E-06 0.24377544E+03 0.75467711E-02 0.98601261E-01
       -1 -1    0    0    0  501 0.00000000E+00 0.00000000E+00 0.67259086E+02 0.67259847E+02 0.32000000E+00 0.0000E+00 0.9000E+01
        1 -1    0    0  501    0 0.00000000E+00 0.00000000E+00 -.11161724E+04 0.11161725E+04 0.32000000E+00 0.0000E+00 0.9000E+01
       25  2    1    2    0    0 0.16013757E+03 0.19106871E+02 -.82586662E+03 0.89336575E+03 0.30006262E+03 0.0000E+00 0.0000E+00
       23  2    1    2    0    0 -.16013757E+03 -.19106871E+02 -.22304671E+03 0.29006656E+03 0.91540488E+02 0.0000E+00 0.0000E+00
       23  1    3    3    0    0 0.22602177E+02 -.88072820E+02 -.20525242E+03 0.24230454E+03 0.91188000E+02 0.0000E+00 0.9000E+01
      -11  1    4    4    0    0 -.61264891E+02 0.20063743E+00 -.21826091E+02 0.65036954E+02 0.51099893E-03 0.0000E+00 0.9000E+01
       11  1    4    4    0    0 -.98872676E+02 -.19307508E+02 -.20122061E+03 0.22502960E+03 0.51099893E-03 0.0000E+00 0.9000E+01
       23  1    3    3    0    0 0.13753539E+03 0.10717969E+03 -.62061419E+03 0.65106121E+03 0.91188000E+02 0.0000E+00 0.9000E+01
#aMCatNLO 1  0  0  2  2 0.20170424D+03 0.00000000D+00  -5  7  0 0.00000000D+00 0.00000000D+00 0.00000000D+00 0.00000000D+00 0.00000000D+00
  <mgrwgt>
 0.1937419301D-03    3    2    0
 0.273994915344817D+03 0.000000000000000D+00 0.000000000000000D+00 0.273994915344817D+03
 0.273994915344817D+03 0.000000000000000D+00 0.000000000000000D+00 -.273994915344817D+03
 0.130402081368541D+03 0.226021770478865D+02 -.880728197453807D+02 0.205370761317483D+02
 0.986754702654238D+02 -.612648907199572D+02 0.200637433983497D+00 0.773525781198941D+02
 0.100812666867468D+03 -.988726762083646D+02 -.193075081302526D+02 -.382201911652870D+01
 0.218099612188202D+03 0.137535389880435D+03 0.107179690441650D+03 -.940676351351138D+02
 0.000000000000000D+00 -.000000000000000D+00 0.000000000000000D+00 0.000000000000000D+00
 0.442961922670221D+03 0.000000000000000D+00 0.000000000000000D+00 0.442961922670221D+03
 0.359326968577276D+03 0.000000000000000D+00 0.000000000000000D+00 -.359326968577276D+03
 0.152342405450523D+03 0.723401836820793D+02 -.961149493224305D+02 0.205370761317483D+02
 0.828745749096461D+02 -.293281500501590D+02 -.496320856861416D+01 0.773525781198941D+02
 0.726328828318516D+02 -.683616094898949D+02 -.242408371614820D+02 -.382201911652870D+01
 0.276082884870435D+03 0.224467773934076D+03 0.931236084972516D+02 -.940676351351138D+02
 0.218356143185041D+03 -.199118198076101D+03 0.321953865552750D+02 0.836349540929450D+02
0.231291087068D-05 0.000000000000D+00 0.000000000000D+00 0.544512806702D-06 0.000000000000D+00  7 -1 1 23 -11 11 23 21 0 0.10347614D-01 0.17171889D+00 0.59426463D+05 0.59426463D+05 0.59426463D+05 0.11407554D+01  1  2  2  2  7  2        1 0.191302964466D-03 0.100000000000D+01
-.126361437579D-06 0.000000000000D+00 -.888218674682D-08 0.544512806702D-06 0.000000000000D+00  7 -1 1 23 -11 11 23 21 2 0.10347614D-01 0.17171889D+00 0.59426463D+05 0.59426463D+05 0.59426463D+05 0.11407554D+01  1  2  3  2  7  2        1 -.136007371294D-04 0.100000000000D+01
0.149021327435D-06 0.000000000000D+00 0.000000000000D+00 0.544512806702D-06 0.000000000000D+00  7 -1 1 23 -11 11 23 21 2 0.10347614D-01 0.17171889D+00 0.59426463D+05 0.59426463D+05 0.59426463D+05 0.11407554D+01  1  2 15  2  7  2        1 0.160397027759D-04 0.100000000000D+01
  </mgrwgt>
  </event>
  <event>
  8     66 0.58687835E-06 0.31538089E+03 0.75467711E-02 0.91714049E-01
       -1 -1    0    0    0  501 0.00000000E+00 0.00000000E+00 0.30347199E+03 0.30347216E+03 0.32000000E+00 0.0000E+00 0.9000E+01
        1 -1    0    0  501    0 0.00000000E+00 0.00000000E+00 -.16705112E+04 0.16705113E+04 0.32000000E+00 0.0000E+00 0.9000E+01
       25  2    1    2    0    0 0.18614652E+03 0.45650556E+03 -.67360291E+02 0.58094356E+03 0.29985023E+03 0.0000E+00 0.0000E+00
       23  2    1    2    0    0 -.18614652E+03 -.45650556E+03 -.12996789E+04 0.13930399E+04 0.91361076E+02 0.0000E+00 0.0000E+00
       23  1    3    3    0    0 0.35037331E+02 0.12385275E+02 -.21956176E+02 0.10088773E+03 0.91188000E+02 0.0000E+00 0.9000E+01
      -13  1    4    4    0    0 -.15672578E+03 -.43747693E+03 -.12339926E+04 0.13185927E+04 0.10565837E+00 0.0000E+00 0.9000E+01
       13  1    4    4    0    0 -.29420743E+02 -.19028623E+02 -.65686358E+02 0.74447145E+02 0.10565837E+00 0.0000E+00 0.9000E+01
       23  1    3    3    0    0 0.15110919E+03 0.44412028E+03 -.45404115E+02 0.48005583E+03 0.91188000E+02 0.0000E+00 0.9000E+01
#aMCatNLO 1  0  0  2  1 0.20714854D+03 0.00000000D+00  -5  7  0 0.00000000D+00 0.00000000D+00 0.00000000D+00 0.00000000D+00 0.00000000D+00
  <mgrwgt>
 0.2123624758D-03    9    2    0
 0.712006718757754D+03 0.000000000000000D+00 0.000000000000000D+00 0.712006718757754D+03
 0.712006718757754D+03 0.000000000000000D+00 0.000000000000000D+00 -.712006718757754D+03
 0.118773989833616D+03 0.350373311779349D+02 0.123852754528268D+02 0.664153573571758D+02
 0.643227796622853D+03 -.156725948018438D+03 -.437477493175647D+03 -.444738595728732D+03
 0.401403885335032D+02 -.294205728141712D+02 -.190280632454993D+02 -.195860536104627D+02
 0.621871262525535D+03 0.151109189654674D+03 0.444120280968320D+03 0.397909291982019D+03
 0.000000000000000D+00 0.000000000000000D+00 -.000000000000000D+00 -.000000000000000D+00
 0.756388970553260D+03 0.000000000000000D+00 0.000000000000000D+00 0.756388970553260D+03
 0.101031441931492D+04 0.000000000000000D+00 0.000000000000000D+00 -.101031441931492D+04
 0.115366933248750D+03 0.184103543626710D+02 0.156312860181478D+02 0.664153573571758D+02
 0.660180267772301D+03 -.249284460995268D+03 -.419407707286647D+03 -.444738595728732D+03
 0.442329601667618D+02 -.354121512798116D+02 -.178583540904012D+02 -.195860536104627D+02
 0.619221154377393D+03 0.629758784428374D+02 0.461326154443028D+03 0.397909291982019D+03
 0.327702074302970D+03 0.203310379469571D+03 -.396913790841277D+02 -.253925448761655D+03
0.651211152921D-04 0.000000000000D+00 0.000000000000D+00 0.504375918947D-05 0.000000000000D+00  7 -1 1 23 -13 13 23 21 0 0.46688014D-01 0.25700174D+00 0.28950578D+06 0.28950578D+06 0.28950578D+06 0.10856978D+01  1  2  2  2  7  2        1 0.184072655683D-03 0.100000000000D+01
-.327267573002D-05 0.000000000000D+00 -.250082229505D-06 0.504375918947D-05 0.000000000000D+00  7 -1 1 23 -13 13 23 21 2 0.46688014D-01 0.25700174D+00 0.28950578D+06 0.28950578D+06 0.28950578D+06 0.10856978D+01  1  2  3  2  7  2        1 -.109040630626D-04 0.100000000000D+01
0.413407967851D-05 0.000000000000D+00 0.000000000000D+00 0.504375918947D-05 0.000000000000D+00  7 -1 1 23 -13 13 23 21 2 0.46688014D-01 0.25700174D+00 0.28950578D+06 0.28950578D+06 0.28950578D+06 0.10856978D+01  1  2 15  2  7  2        1 0.137741313955D-04 0.100000000000D+01
0.680536814471D-04 0.000000000000D+00 0.000000000000D+00 0.504375918947D-05 0.000000000000D+00  7 -1 1 23 -13 13 23 21 2 0.46688014D-01 0.37009048D+00 0.42477171D+06 0.42477171D+06 0.42477171D+06 0.10735515D+01  1  2 12  2  7  2        1 0.696024036671D-04 0.100000000000D+01
-.807932742122D-04 0.000000000000D+00 0.000000000000D+00 0.504375918947D-05 0.000000000000D+00  7 -1 1 23 -13 13 23 21 2 0.46688014D-01 0.25700174D+00 0.28950578D+06 0.28950578D+06 0.28950578D+06 0.10856978D+01  1  2  4  2  7  2        1 -.269191031962D-03 0.100000000000D+01
-.941949713880D-04 0.000000000000D+00 -.228910639983D-04 0.504375918947D-05 0.000000000000D+00  7 -1 1 23 -13 13 23 21 2 0.46688014D-01 0.37175947D+00 0.28950578D+06 0.28950578D+06 0.28950578D+06 0.10856978D+01  1  2  5  2  7  2        1 -.993026216459D-04 0.100000000000D+01
0.974082065805D-04 0.000000000000D+00 0.214151632844D-04 0.504375918947D-05 0.000000000000D+00  7 -1 1 23 -13 13 23 21 2 0.46688014D-01 0.25700174D+00 0.28950578D+06 0.28950578D+06 0.28950578D+06 0.10856978D+01  1  2  6  2  7  2        1 0.324549486410D-03 0.100000000000D+01
0.302832935678D-05 0.000000000000D+00 0.000000000000D+00 0.504375918947D-05 0.000000000000D+00  7 -1 21 23 -13 13 23 -1 2 0.46688014D-01 0.37009048D+00 0.42477171D+06 0.42477171D+06 0.42477171D+06 0.10735515D+01  1  2 12  4  7  2        1 0.111305459036D-05 0.100000000000D+01
-.353002292955D-05 0.000000000000D+00 -.102772061857D-05 0.504375918947D-05 0.000000000000D+00  7 -1 21 23 -13 13 23 -1 2 0.46688014D-01 0.37175947D+00 0.28950578D+06 0.28950578D+06 0.28950578D+06 0.10856978D+01  1  2  5  4  7  2        1 -.135153926076D-05 0.100000000000D+01
  </mgrwgt>
  </event>
  <event>
  8     66 0.58687835E-06 0.31442755E+03 0.75467711E-02 0.83457184E-01
       -1 -1    0    0    0  501 0.00000000E+00 0.00000000E+00 0.38200060E+03 0.38200074E+03 0.32000000E+00 0.0000E+00 0.9000E+01
        1 -1    0    0  501    0 0.00000000E+00 0.00000000E+00 -.52386957E+03 0.52386967E+03 0.32000000E+00 0.0000E+00 0.9000E+01
       25  2    1    2    0    0 -.17855322E+03 -.15307830E+03 0.23834674E+03 0.44934752E+03 0.29964947E+03 0.0000E+00 0.0000E+00
       23  2    1    2    0    0 0.17855322E+03 0.15307830E+03 -.38021570E+03 0.45652288E+03 0.92384748E+02 0.0000E+00 0.0000E+00
       23  1    3    3    0    0 0.47715528E+02 -.63675669E+02 0.71377974E+02 0.14050420E+03 0.91188000E+02 0.0000E+00 0.9000E+01
      -13  1    4    4    0    0 0.40996275E+02 0.85353155E+02 -.18929895E+03 0.21166001E+03 0.10565837E+00 0.0000E+00 0.9000E+01
       13  1    4    4    0    0 0.13755695E+03 0.67725148E+02 -.19091675E+03 0.24486288E+03 0.10565837E+00 0.0000E+00 0.9000E+01
       23  1    3    3    0    0 -.22626875E+03 -.89402634E+02 0.16696876E+03 0.30884332E+03 0.91188000E+02 0.0000E+00 0.9000E+01
#aMCatNLO 1  0  0  1  2 0.14700101D+04 0.00000000D+00  -5  7  0 0.00000000D+00 0.00000000D+00 0.00000000D+00 0.00000000D+00 0.00000000D+00
  <mgrwgt>
 0.1735936151D-03    5    2    0
 0.447346168931250D+03 0.000000000000000D+00 0.000000000000000D+00 0.447346168931250D+03
 0.447346168931250D+03 0.000000000000000D+00 0.000000000000000D+00 -.447346168931250D+03
 0.153577833544788D+03 0.477155278304538D+02 -.636756688290865D+02 0.945491259364166D+02
 0.184287764191282D+03 0.409961492612384D+02 0.853531778587804D+02 -.158101647068521D+03
 0.217649016784902D+03 0.137557074402025D+03 0.677251252602962D+02 -.154474765569874D+03
 0.339177723341528D+03 -.226268751493717D+03 -.894026342899901D+02 0.218027286701978D+03
 0.000000000000000D+00 -.000000000000000D+00 -.000000000000000D+00 0.000000000000000D+00
 0.176406871266115D+04 0.000000000000000D+00 0.000000000000000D+00 0.176406871266115D+04
 0.145828202023702D+04 0.000000000000000D+00 0.000000000000000D+00 -.145828202023702D+04
 0.210690285910559D+03 0.929669704785746D+02 0.135988052481711D+03 0.945491259364166D+02
 0.506121510545167D+03 0.126762687782864D+03 0.463782355870516D+03 -.158101647068521D+03
 0.577109714872050D+03 0.236286491674228D+03 0.503350636886571D+03 -.154474765569874D+03
 0.426951547391191D+03 -.131095847514515D+03 0.330530412358011D+03 0.218027286701978D+03
 0.150147767417920D+04 -.324920302421152D+03 -.143365145759681D+04 0.305786692424123D+03
0.110972961391D-04 0.000000000000D+00 0.000000000000D+00 0.514208906045D-06 0.000000000000D+00  7 -1 1 23 -13 13 23 21 0 0.58769341D-01 0.80595336D-01 0.98864684D+05 0.98864684D+05 0.98864684D+05 0.11221292D+01  1  2  2  1  7  1       -1 0.169566232237D-03 0.100000000000D+01
-.523332923644D-06 0.000000000000D+00 -.426165391592D-07 0.514208906045D-06 0.000000000000D+00  7 -1 1 23 -13 13 23 21 2 0.58769341D-01 0.80595336D-01 0.98864684D+05 0.98864684D+05 0.98864684D+05 0.11221292D+01  1  2  3  1  7  1       -1 -.100689916193D-04 0.100000000000D+01
0.707299667444D-06 0.000000000000D+00 0.000000000000D+00 0.514208906045D-06 0.000000000000D+00  7 -1 1 23 -13 13 23 21 2 0.58769341D-01 0.80595336D-01 0.98864684D+05 0.98864684D+05 0.98864684D+05 0.11221292D+01  1  2 15  1  7  1       -1 0.136085350302D-04 0.100000000000D+01
0.179188633311D-04 0.000000000000D+00 -.637637482122D-05 0.514208906045D-06 0.000000000000D+00  7 -1 1 23 -13 13 23 21 2 0.46114544D+00 0.80595336D-01 0.98864684D+05 0.98864684D+05 0.98864684D+05 0.11221292D+01  1  2  5  1  7  1       -1 0.841136527186D-07 0.100000000000D+01
0.374691844056D-05 0.000000000000D+00 -.159645990245D-05 0.514208906045D-06 0.000000000000D+00  7 21 1 23 -13 13 23 1 2 0.46114544D+00 0.80595336D-01 0.98864684D+05 0.98864684D+05 0.98864684D+05 0.11221292D+01  1  2  5  3  7  1       -1 0.403725809612D-06 0.100000000000D+01
  </mgrwgt>
  </event>
  <event>
  9     66 0.58687835E-06 0.30008200E+03 0.75467711E-02 0.98828309E-01
       -1 -1    0    0    0  501 0.00000000E+00 0.00000000E+00 0.34235138E+03 0.34235153E+03 0.32000000E+00 0.0000E+00 0.9000E+01
        1 -1    0    0  502    0 0.00000000E+00 0.00000000E+00 -.85506456E+03 0.85506462E+03 0.32000000E+00 0.0000E+00 0.9000E+01
       25  2    1    2    0    0 -.15309781E+03 -.16437844E+03 0.16268354E+03 0.40952756E+03 0.30130994E+03 0.0000E+00 0.0000E+00
       23  2    1    2    0    0 0.20821455E+03 0.91657930E+02 -.64788333E+03 0.69258027E+03 0.90333508E+02 0.0000E+00 0.0000E+00
       23  1    3    3    0    0 -.19368313E+03 -.16003985E+03 0.77656258E+02 0.27833731E+03 0.91188000E+02 0.0000E+00 0.9000E+01
      -13  1    4    4    0    0 0.10825862E+03 0.12325374E+01 -.32983068E+03 0.34714512E+03 0.10565837E+00 0.0000E+00 0.9000E+01
       13  1    4    4    0    0 0.99955928E+02 0.90425393E+02 -.31805265E+03 0.34543515E+03 0.10565837E+00 0.0000E+00 0.9000E+01
       23  1    3    3    0    0 0.40585324E+02 -.43385846E+01 0.85027285E+02 0.13119025E+03 0.91188000E+02 0.0000E+00 0.9000E+01
       21  1    1    2  502  501 -.55116741E+02 0.72720507E+02 -.27513395E+02 0.95308325E+02 0.75000000E+00 0.0000E+00 0.9000E+01
#aMCatNLO 2  0  0  2  2 0.91247616D+02 0.00000000D+00  -5  7  0 0.00000000D+00 0.00000000D+00 0.00000000D+00 0.00000000D+00 0.00000000D+00
  <mgrwgt>
 0.9953146620D-04    1    2    0
 0.492670454579789D+03 0.000000000000000D+00 0.000000000000000D+00 0.492670454579789D+03
 0.492670454579789D+03 0.000000000000000D+00 0.000000000000000D+00 -.492670454579789D+03
 0.348583446723161D+03 -.213125836242665D+03 -.134387335620142D+03 0.222963203099038D+03
 0.219903928603128D+03 0.958445797322391D+02 0.176114025471912D+02 -.197132931930108D+03
 0.230838126682040D+03 0.871286811549508D+02 0.107349648242434D+03 -.184853689907717D+03
 0.186015407151249D+03 0.301525753554749D+02 0.942628483051742D+01 0.159023418738786D+03
 0.000000000000000D+00 -.000000000000000D+00 0.000000000000000D+00 0.000000000000000D+00
 0.549150433020435D+03 0.000000000000000D+00 0.000000000000000D+00 0.549150433020435D+03
 0.533061609352842D+03 0.000000000000000D+00 0.000000000000000D+00 -.533061609352842D+03
 0.348071475752810D+03 -.193683134293394D+03 -.160039852670649D+03 0.222963203099038D+03
 0.224906299928041D+03 0.108258634981546D+03 0.123241547123436D+01 -.197132931930108D+03
 0.228776846967943D+03 0.999559169294984D+02 0.904255146895970D+02 -.184853689907717D+03
 0.187802265378977D+03 0.405853238452782D+02 -.433858484740142D+01 0.159023418738786D+03
 0.926551543455060D+02 -.551167414629285D+02 0.727205073572192D+02 0.160888236675924D+02
0.895682051973D-05 0.000000000000D+00 0.000000000000D+00 0.179907798464D-06 0.144518617139D-09  7 -1 1 23 -13 13 23 21 2 0.52669311D-01 0.13154804D+00 0.12302304D+06 0.12302304D+06 0.12302304D+06 0.11144116D+01  1  2  1  2  7  2        1 0.995314661964D-04 0.100000000000D+01
  </mgrwgt>
  </event>
  <event>
  8     66 0.58687835E-06 0.43647931E+03 0.75467711E-02 0.93044510E-01
       -1 -1    0    0    0  501 0.00000000E+00 0.00000000E+00 0.77085621E+02 0.77086285E+02 0.32000000E+00 0.0000E+00 0.9000E+01
        1 -1    0    0  501    0 0.00000000E+00 0.00000000E+00 -.25660211E+04 0.25660211E+04 0.32000000E+00 0.0000E+00 0.9000E+01
       25  2    1    2    0    0 -.35106506E+03 -.16218826E+03 -.12635754E+04 0.13550966E+04 0.30018705E+03 0.0000E+00 0.0000E+00
       23  2    1    2    0    0 0.35106506E+03 0.16218826E+03 -.12253601E+04 0.12880108E+04 0.88954047E+02 0.0000E+00 0.0000E+00
       23  1    3    3    0    0 -.35130358E+03 -.10919479E+03 -.10618174E+04 0.11274347E+04 0.91188000E+02 0.0000E+00 0.9000E+01
      -13  1    4    4    0    0 0.56584648E+01 0.89793458E+01 -.78182907E+01 0.13182705E+02 0.10565837E+00 0.0000E+00 0.9000E+01
       13  1    4    4    0    0 0.34540660E+03 0.15320891E+03 -.12175418E+04 0.12748281E+04 0.10565837E+00 0.0000E+00 0.9000E+01
       23  1    3    3    0    0 0.23851589E+00 -.52993474E+02 -.20175802E+03 0.22766185E+03 0.91188000E+02 0.0000E+00 0.9000E+01
#aMCatNLO 1  0  0  2  2 0.24609021D+03 0.00000000D+00  -5  7  0 0.00000000D+00 0.00000000D+00 0.00000000D+00 0.00000000D+00 0.00000000D+00
  <mgrwgt>
 0.3468657397D-03    7    2    0
 0.444751877021030D+03 0.000000000000000D+00 0.000000000000000D+00 0.444751877021030D+03
 0.444751877021030D+03 0.000000000000000D+00 0.000000000000000D+00 -.444751877021030D+03
 0.379016022880727D+03 -.351303580328486D+03 -.109194786177081D+03 -.432870017183973D+00
 0.172946169871259D+02 0.565798547532974D+01 0.897914228909304D+01 0.136552546971693D+02
 0.381252034760436D+03 0.345407078971173D+03 0.153209117964310D+03 -.507348990160882D+02
 0.111941079413770D+03 0.238515881983261D+00 -.529934740763216D+02 0.375125143361029D+02
 0.000000000000000D+00 -.000000000000000D+00 0.000000000000000D+00 -.000000000000000D+00
 0.568577556462852D+03 0.000000000000000D+00 0.000000000000000D+00 0.568577556462852D+03
 0.602798435418604D+03 0.000000000000000D+00 0.000000000000000D+00 -.602798435418604D+03
 0.396815314654038D+03 -.323575294957526D+03 -.210822161350939D+03 -.432870017183973D+00
 0.159597491881874D+02 0.684649966717644D+01 0.462310021659044D+01 0.136552546971693D+02
 0.379835104323255D+03 0.372608405295188D+03 0.535131086880796D+02 -.507348990160882D+02
 0.130307660627398D+03 0.889650875961176D+01 -.847260200544028D+02 0.375125143361029D+02
 0.248458163088577D+03 -.647761187644498D+02 0.237411972500672D+03 -.342208789557515D+02
0.354716549048D-04 0.000000000000D+00 0.000000000000D+00 0.393938876547D-06 0.000000000000D+00  7 -1 1 23 -13 13 23 21 0 0.11859379D-01 0.39477253D+00 0.19051419D+06 0.19051419D+06 0.19051419D+06 0.10994498D+01  1  2  2  2  7  2        1 0.246960042218D-03 0.100000000000D+01
-.196980284515D-05 0.000000000000D+00 -.136220494736D-06 0.393938876547D-06 0.000000000000D+00  7 -1 1 23 -13 13 23 21 2 0.11859379D-01 0.39477253D+00 0.19051419D+06 0.19051419D+06 0.19051419D+06 0.10994498D+01  1  2  3  2  7  2        1 -.165774916212D-04 0.100000000000D+01
0.230844551948D-05 0.000000000000D+00 0.000000000000D+00 0.393938876547D-06 0.000000000000D+00  7 -1 1 23 -13 13 23 21 2 0.11859379D-01 0.39477253D+00 0.19051419D+06 0.19051419D+06 0.19051419D+06 0.10994498D+01  1  2 15  2  7  2        1 0.194274449096D-04 0.100000000000D+01
-.110396964786D-04 0.000000000000D+00 0.000000000000D+00 0.393938876547D-06 0.000000000000D+00  7 -1 1 23 -13 13 23 21 2 0.11859379D-01 0.39477253D+00 0.19051419D+06 0.19051419D+06 0.19051419D+06 0.10994498D+01  1  2  4  2  7  2        1 -.929080168226D-04 0.100000000000D+01
-.228726853308D-04 0.000000000000D+00 -.100496859684D-04 0.393938876547D-06 0.000000000000D+00  7 -1 1 23 -13 13 23 21 2 0.11859379D-01 0.57430644D+00 0.19051419D+06 0.19051419D+06 0.19051419D+06 0.10994498D+01  1  2  5  2  7  2        1 -.245120097218D-04 0.100000000000D+01
0.254945498885D-04 0.000000000000D+00 0.938272360005D-05 0.393938876547D-06 0.000000000000D+00  7 -1 1 23 -13 13 23 21 2 0.11859379D-01 0.39477253D+00 0.19051419D+06 0.19051419D+06 0.19051419D+06 0.10994498D+01  1  2  6  2  7  2        1 0.214557354408D-03 0.100000000000D+01
-.724782502670D-06 0.000000000000D+00 -.456225841699D-06 0.393938876547D-06 0.000000000000D+00  7 -1 21 23 -13 13 23 -1 2 0.11859379D-01 0.57430644D+00 0.19051419D+06 0.19051419D+06 0.19051419D+06 0.10994498D+01  1  2  5  4  7  2        1 -.815836962589D-07 0.100000000000D+01
  </mgrwgt>
  </event>
  <event>
  9     66 -.58687835E-06 0.24154730E+03 0.75467711E-02 0.10159123E+00
       -1 -1    0    0    0  501 0.00000000E+00 0.00000000E+00 0.81121154E+02 0.81121785E+02 0.32000000E+00 0.0000E+00 0.9000E+01
        1 -1    0    0  502    0 0.00000000E+00 0.00000000E+00 -.16944016E+04 0.16944016E+04 0.32000000E+00 0.0000E+00 0.9000E+01
       25  2    1    2    0    0 0.16952918E+03 0.11120403E+03 -.42733407E+03 0.56034775E+03 0.30044752E+03 0.0000E+00 0.0000E+00
       23  2    1    2    0    0 -.95422703E+02 -.84915677E+02 -.10144549E+04 0.10265153E+04 0.91097457E+02 0.0000E+00 0.0000E+00
       23  1    3    3    0    0 0.16954605E+03 0.14787671E+03 -.20677366E+03 0.31887926E+03 0.91188000E+02 0.0000E+00 0.9000E+01
      -11  1    4    4    0    0 -.67777189E+02 -.14319008E+02 -.29253709E+03 0.30062722E+03 0.51099893E-03 0.0000E+00 0.9000E+01
       11  1    4    4    0    0 -.27645514E+02 -.70596669E+02 -.72191780E+03 0.72588806E+03 0.51099893E-03 0.0000E+00 0.9000E+01
       23  1    3    3    0    0 -.16865089E-01 -.36672679E+02 -.22056042E+03 0.24146849E+03 0.91188000E+02 0.0000E+00 0.9000E+01
       21  1    1    2  502  501 -.74106477E+02 -.26288352E+02 -.17149147E+03 0.18866037E+03 0.75000000E+00 0.0000E+00 0.9000E+01
#aMCatNLO 2  0  0  2  1 0.78631084D+02 0.00000000D+00  -5  7  0 0.00000000D+00 0.00000000D+00 0.00000000D+00 0.00000000D+00 0.00000000D+00
  <mgrwgt>
 -.1206898191D-04    2    2    0
 0.329088146647868D+03 0.000000000000000D+00 0.000000000000000D+00 0.329088146647868D+03
 0.329088146647868D+03 0.000000000000000D+00 0.000000000000000D+00 -.329088146647868D+03
 0.290867098463913D+03 0.135635175114423D+03 0.135847248169877D+03 0.198587618096314D+03
 0.921890386996650D+02 -.776268707673898D+02 -.178130599695711D+02 -.464282530982135D+02
 0.174628584892486D+03 -.468383109626046D+02 -.774050752591024D+02 -.149364552728736D+03
 0.100491571239673D+03 -.111699933844281D+02 -.406291129412035D+02 -.279481226936463D+01
 0.000000000000000D+00 -.000000000000000D+00 -.000000000000000D+00 -.000000000000000D+00
 0.370649639893796D+03 0.000000000000000D+00 0.000000000000000D+00 0.370649639893796D+03
 0.370838277162634D+03 0.000000000000000D+00 0.000000000000000D+00 -.370838277162634D+03
 0.313633026875047D+03 0.169546045109153D+03 0.147876707866660D+03 0.198587618096314D+03
 0.833928294752299D+02 -.677771889302319D+02 -.143190077466516D+02 -.464282530982135D+02
 0.167505025891376D+03 -.276455136251122D+02 -.705966689258010D+02 -.149364552728736D+03
 0.983257240504015D+02 -.168650877131356D-01 -.366726792855872D+02 -.279481226936463D+01
 0.786313107643746D+02 -.741064774660961D+02 -.262883519086200D+02 -.188637268838181D+00
-.234598812258D-05 0.000000000000D+00 0.000000000000D+00 0.536272472306D-06 0.000000000000D+00  7 -1 1 23 -11 11 23 21 2 0.11080748D-01 0.27353454D+00 0.79738230D+05 0.79738230D+05 0.79738230D+05 0.11298819D+01  1  2 13  2  7  2        1 -.801301839060D-04 0.100000000000D+01
0.211195336026D-05 0.000000000000D+00 0.000000000000D+00 0.536272472306D-06 0.597902302773D-09  7 -1 1 23 -11 11 23 21 2 0.12480168D-01 0.26067596D+00 0.79738230D+05 0.79738230D+05 0.79738230D+05 0.11298819D+01  1  2  1  2  7  2        1 0.680612019925D-04 0.100000000000D+01
  </mgrwgt>
  </event>
  <event>
  8     66 0.58687835E-06 0.70333753E+03 0.75467711E-02 0.86613359E-01
       -1 -1    0    0    0  501 0.00000000E+00 0.00000000E+00 0.58150482E+03 0.58150491E+03 0.32000000E+00 0.0000E+00 0.9000E+01
        1 -1    0    0  501    0 0.00000000E+00 0.00000000E+00 -.96145893E+03 0.96145898E+03 0.32000000E+00 0.0000E+00 0.9000E+01
       25  2    1    2    0    0 -.15576845E+03 0.66761234E+03 -.40872062E+03 0.85266588E+03 0.30002754E+03 0.0000E+00 0.0000E+00
       23  2    1    2    0    0 0.15576845E+03 -.66761234E+03 0.28766513E+02 0.69029801E+03 0.75589618E+02 0.0000E+00 0.0000E+00
       23  1    3    3    0    0 -.47197645E+02 0.42675504E+03 -.12959745E+03 0.45766608E+03 0.91188000E+02 0.0000E+00 0.9000E+01
      -13  1    4    4    0    0 0.16126500E+03 -.63381075E+03 0.17473620E+02 0.65423834E+03 0.10565837E+00 0.0000E+00 0.9000E+01
       13  1    4    4    0    0 -.54965496E+01 -.33801589E+02 0.11292893E+02 0.36059674E+02 0.10565837E+00 0.0000E+00 0.9000E+01
       23  1    3    3    0    0 -.10857081E+03 0.24085729E+03 -.27912317E+03 0.39499981E+03 0.91188000E+02 0.0000E+00 0.9000E+01
#aMCatNLO 1  0  0  2  1 0.62788979D+03 0.00000000D+00  -5  7  0 0.00000000D+00 0.00000000D+00 0.00000000D+00 0.00000000D+00 0.00000000D+00
  <mgrwgt>
 0.1585335221D-02    3    2    0
 0.747725293367536D+03 0.000000000000000D+00 0.000000000000000D+00 0.747725293367536D+03
 0.747725293367536D+03 0.000000000000000D+00 0.000000000000000D+00 -.747725293367536D+03
 0.439279740767435D+03 -.471976454798059D+02 0.426755044404246D+03 -.174342662993811D+02
 0.679465562800161D+03 0.161265327740136D+03 -.633811918755901D+03 0.184253620705723D+03
 0.400733316214940D+02 -.549687542376328D+01 -.338004166032461D+02 0.208131714370697D+02
 0.336631951545981D+03 -.108570806836567D+03 0.240857290954901D+03 -.187632525843412D+03
 0.000000000000000D+00 -.000000000000000D+00 -.000000000000000D+00 0.000000000000000D+00
 0.193999865144083D+04 0.000000000000000D+00 0.000000000000000D+00 0.193999865144083D+04
 0.898255672554200D+03 0.000000000000000D+00 0.000000000000000D+00 -.898255672554200D+03
 0.584845404087125D+03 0.102969835950541D+03 0.568174405073612D+03 -.174342662993811D+02
 0.603773926060294D+03 0.349426748326589D+03 -.456611984732114D+03 0.184253620705723D+03
 0.320525036557772D+02 0.507893660864808D+01 -.238407065386092D+02 0.208131714370697D+02
 0.401246179876414D+03 -.375728183393733D+00 0.342749383070735D+03 -.187632525843412D+03
 0.121633631031543D+04 -.457099792702384D+03 -.430471096873624D+03 0.104174297888663D+04
0.638337760267D-03 0.000000000000D+00 0.000000000000D+00 0.310601528776D-07 0.000000000000D+00  7 -1 1 23 -13 13 23 21 0 0.89462291D-01 0.14791677D+00 0.49468368D+06 0.49468368D+06 0.49468368D+06 0.10688387D+01  1  2  2  2  7  2        1 0.156839184095D-02 0.100000000000D+01
-.353017192806D-04 0.000000000000D+00 -.245138507762D-05 0.310601528776D-07 0.000000000000D+00  7 -1 1 23 -13 13 23 21 2 0.89462291D-01 0.14791677D+00 0.49468368D+06 0.49468368D+06 0.49468368D+06 0.10688387D+01  1  2  3  2  7  2        1 -.990887151318D-04 0.100000000000D+01
0.413380317206D-04 0.000000000000D+00 0.000000000000D+00 0.310601528776D-07 0.000000000000D+00  7 -1 1 23 -13 13 23 21 2 0.89462291D-01 0.14791677D+00 0.49468368D+06 0.49468368D+06 0.49468368D+06 0.10688387D+01  1  2 15  2  7  2        1 0.116032095114D-03 0.100000000000D+01
  </mgrwgt>
  </event>
  <event>
  8     66 0.58687835E-06 0.44282556E+03 0.75467711E-02 0.89786565E-01
       -1 -1    0    0    0  501 0.00000000E+00 0.00000000E+00 0.60071303E+03 0.60071311E+03 0.32000000E+00 0.0000E+00 0.9000E+01
        1 -1    0    0  501    0 0.00000000E+00 0.00000000E+00 -.14035654E+04 0.14035655E+04 0.32000000E+00 0.0000E+00 0.9000E+01
       25  2    1    2    0    0 0.27791671E+03 -.27382736E+03 0.46328233E+03 0.67614163E+03 0.30052932E+03 0.0000E+00 0.0000E+00
       23  2    1    2    0    0 -.27791671E+03 0.27382736E+03 -.12661347E+04 0.13281369E+04 0.92905786E+02 0.0000E+00 0.0000E+00
       23  1    3    3    0    0 0.21173609E+03 -.29802834E+03 0.34228813E+03 0.50904762E+03 0.91188000E+02 0.0000E+00 0.9000E+01
      -13  1    4    4    0    0 -.10268163E+02 -.60066111E+00 -.83943798E+01 0.13276775E+02 0.10565837E+00 0.0000E+00 0.9000E+01
       13  1    4    4    0    0 -.26764854E+03 0.27442802E+03 -.12577403E+04 0.13148602E+04 0.10565837E+00 0.0000E+00 0.9000E+01
       23  1    3    3    0    0 0.66180619E+02 0.24200980E+02 0.12099420E+03 0.16709401E+03 0.91188000E+02 0.0000E+00 0.9000E+01
#aMCatNLO 1  0  0  2  2 0.55053979D+03 0.00000000D+00  -5  7  0 0.00000000D+00 0.00000000D+00 0.00000000D+00 0.00000000D+00 0.00000000D+00
  <mgrwgt>
 0.3267410557D-03    7    2    0
 0.918226636567445D+03 0.000000000000000D+00 0.000000000000000D+00 0.918226636567445D+03
 0.918226636567445D+03 0.000000000000000D+00 0.000000000000000D+00 -.918226636567445D+03
 0.705207205056968D+03 0.211736086740585D+03 -.298028339528231D+03 0.596111473744710D+03
 0.108191319296242D+02 -.102678303004105D+02 -.601016821725954D+00 -.335619656942004D+01
 0.885167247668503D+03 -.267648875816089D+03 0.274428376129258D+03 -.797856003295379D+03
 0.235259688479795D+03 0.661806193759144D+02 0.242009802206982D+02 0.205100726120090D+03
 0.000000000000000D+00 0.000000000000000D+00 -.000000000000000D+00 -.000000000000000D+00
 0.121522127698863D+04 0.000000000000000D+00 0.000000000000000D+00 0.121522127698863D+04
 0.125387338495363D+04 0.000000000000000D+00 0.000000000000000D+00 -.125387338495363D+04
 0.652043538416472D+03 0.192601656605947D+02 -.247236084614101D+03 0.596111473744710D+03
 0.142251111935847D+02 -.138194317904598D+02 0.336211311662331D+00 -.335619656942004D+01
 0.102265935532293D+04 -.538203660506740D+03 0.345824774780777D+03 -.797856003295379D+03
 0.228271694721723D+03 0.445801870588852D+00 0.415476674776291D+02 0.205100726120090D+03
 0.551894962287559D+03 0.532317124766017D+03 -.140472568955968D+03 -.386521079650000D+02
0.297351106900D-03 0.000000000000D+00 0.000000000000D+00 0.345708654241D-05 0.000000000000D+00  7 -1 1 23 -13 13 23 21 0 0.92417398D-01 0.21593315D+00 0.19609448D+06 0.19609448D+06 0.19609448D+06 0.10984838D+01  1  2  2  2  7  2        1 0.344091909333D-03 0.100000000000D+01
-.583748931095D-05 0.000000000000D+00 -.114190654484D-05 0.345708654241D-05 0.000000000000D+00  7 -1 1 23 -13 13 23 21 2 0.92417398D-01 0.21593315D+00 0.19609448D+06 0.19609448D+06 0.19609448D+06 0.10984838D+01  1  2  3  2  7  2        1 -.815113889632D-05 0.100000000000D+01
0.184550359567D-04 0.000000000000D+00 0.000000000000D+00 0.345708654241D-05 0.000000000000D+00  7 -1 1 23 -13 13 23 21 2 0.92417398D-01 0.21593315D+00 0.19609448D+06 0.19609448D+06 0.19609448D+06 0.10984838D+01  1  2 15  2  7  2        1 0.257695652029D-04 0.100000000000D+01
-.935891118667D-04 0.000000000000D+00 0.000000000000D+00 0.345708654241D-05 0.000000000000D+00  7 -1 1 23 -13 13 23 21 2 0.92417398D-01 0.21593315D+00 0.19609448D+06 0.19609448D+06 0.19609448D+06 0.10984838D+01  1  2  4  2  7  2        1 -.130682526232D-03 0.100000000000D+01
-.325416063450D-04 0.000000000000D+00 -.955970464953D-04 0.345708654241D-05 0.000000000000D+00  7 -1 1 23 -13 13 23 21 2 0.92417398D-01 0.34231958D+00 0.19609448D+06 0.19609448D+06 0.19609448D+06 0.10984838D+01  1  2  5  2  7  2        1 -.129276597611D-04 0.100000000000D+01
0.775348009043D-04 0.000000000000D+00 0.862751249852D-04 0.345708654241D-05 0.000000000000D+00  7 -1 1 23 -13 13 23 21 2 0.92417398D-01 0.21593315D+00 0.19609448D+06 0.19609448D+06 0.19609448D+06 0.10984838D+01  1  2  6  2  7  2        1 0.108265197212D-03 0.100000000000D+01
0.219515419280D-05 0.000000000000D+00 -.505805322629D-05 0.345708654241D-05 0.000000000000D+00  7 -1 21 23 -13 13 23 -1 2 0.92417398D-01 0.34231958D+00 0.19609448D+06 0.19609448D+06 0.19609448D+06 0.10984838D+01  1  2  5  4  7  2        1 0.375708884124D-06 0.100000000000D+01
  </mgrwgt>
  </event>
  <event>
  8     66 0.58687835E-06 0.21726288E+03 0.75467711E-02 0.83705120E-01
       -1 -1    0    0    0  501 0.00000000E+00 0.00000000E+00 0.71338276E+03 0.71338284E+03 0.32000000E+00 0.0000E+00 0.9000E+01
        1 -1    0    0  501    0 0.00000000E+00 0.00000000E+00 -.24791323E+04 0.24791324E+04 0.32000000E+00 0.0000E+00 0.9000E+01
       25  2    1    2    0    0 -.24552360E+02 -.13891822E+03 0.67163420E+03 0.74925783E+03 0.30065547E+03 0.0000E+00 0.0000E+00
       23  2    1    2    0    0 0.24552360E+02 0.13891822E+03 -.24373838E+04 0.24432574E+04 0.93625956E+02 0.0000E+00 0.0000E+00
       23  1    3    3    0    0 -.71271903E+02 -.97354330E+01 0.49158275E+03 0.50511712E+03 0.91188000E+02 0.0000E+00 0.9000E+01
      -13  1    4    4    0    0 0.36322467E+02 0.40593761E+02 -.14253084E+04 0.14263489E+04 0.10565837E+00 0.0000E+00 0.9000E+01
       13  1    4    4    0    0 -.11770107E+02 0.98324457E+02 -.10120754E+04 0.10169085E+04 0.10565837E+00 0.0000E+00 0.9000E+01
       23  1    3    3    0    0 0.46719543E+02 -.12918278E+03 0.18005145E+03 0.24414070E+03 0.91188000E+02 0.0000E+00 0.9000E+01
#aMCatNLO 1  0  0  2  2 0.14665432D+04 0.00000000D+00  -5  7  0 0.00000000D+00 0.00000000D+00 0.00000000D+00 0.00000000D+00 0.00000000D+00
  <mgrwgt>
 0.3214915513D-03    5    2    0
 0.132987609322644D+04 0.000000000000000D+00 0.000000000000000D+00 0.132987609322644D+04
 0.132987609322644D+04 0.000000000000000D+00 0.000000000000000D+00 -.132987609322644D+04
 0.932645577390130D+03 -.712719030014280D+02 -.973543297893474D+01 0.925385356956028D+03
 0.765824579022302D+03 0.363225279225977D+02 0.405936872108386D+02 -.763884881614126D+03
 0.548706495738785D+03 -.117701683175339D+02 0.983245301478886D+02 -.539696737413625D+03
 0.412575534301664D+03 0.467195433963642D+02 -.129182784379792D+03 0.378196262071722D+03
 0.000000000000000D+00 0.000000000000000D+00 0.000000000000000D+00 -.000000000000000D+00
 0.193280469850392D+04 0.000000000000000D+00 0.000000000000000D+00 0.193280469850392D+04
 0.281687179210089D+04 0.000000000000000D+00 0.000000000000000D+00 -.281687179210089D+04
 0.108758141796620D+04 -.306426394158225D+03 -.473585151219845D+03 0.925385356956028D+03
 0.845504847517782D+03 -.151236272279047D+03 -.329372015758137D+03 -.763884881614126D+03
 0.581168148458873D+03 -.143287615435106D+03 -.161097820193585D+03 -.539696737413625D+03
 0.523019165619399D+03 -.621837115817371D+02 -.343997920967713D+03 0.378196262071722D+03
 0.171240291104256D+04 0.663133993454116D+03 0.130805290813928D+04 -.884067093596969D+03
0.143563182935D-02 0.000000000000D+00 0.000000000000D+00 0.157637186848D-05 0.000000000000D+00  7 -1 1 23 -13 13 23 21 0 0.10975120D+00 0.38140498D+00 0.47203160D+05 0.47203160D+05 0.47203160D+05 0.11495008D+01  1  2  2  2  7  2        1 0.246651810200D-03 0.100000000000D+01
0.238545476575D-03 0.000000000000D+00 -.551320423525D-05 0.157637186848D-05 0.000000000000D+00  7 -1 1 23 -13 13 23 21 2 0.10975120D+00 0.38140498D+00 0.47203160D+05 0.47203160D+05 0.47203160D+05 0.11495008D+01  1  2  3  2  7  2        1 0.541540529608D-04 0.100000000000D+01
0.903115711616D-04 0.000000000000D+00 0.000000000000D+00 0.157637186848D-05 0.000000000000D+00  7 -1 1 23 -13 13 23 21 2 0.10975120D+00 0.38140498D+00 0.47203160D+05 0.47203160D+05 0.47203160D+05 0.11495008D+01  1  2 15  2  7  2        1 0.205023280167D-04 0.100000000000D+01
0.753363997081D-03 0.000000000000D+00 -.295487860881D-03 0.157637186848D-05 0.000000000000D+00  7 -1 1 23 -13 13 23 21 2 0.10975120D+00 0.83528127D+00 0.47203160D+05 0.47203160D+05 0.47203160D+05 0.11495008D+01  1  2  5  2  7  2        1 0.182823124383D-06 0.100000000000D+01
0.825829985297D-04 0.000000000000D+00 -.250989665164D-04 0.157637186848D-05 0.000000000000D+00  7 -1 21 23 -13 13 23 -1 2 0.10975120D+00 0.83528127D+00 0.47203160D+05 0.47203160D+05 0.47203160D+05 0.11495008D+01  1  2  5  4  7  2        1 0.537017364984D-09 0.100000000000D+01
  </mgrwgt>
  </event>
  <event>
  8     66 0.58687835E-06 0.79638579E+03 0.75467711E-02 0.84808716E-01
       -1 -1    0    0    0  501 0.00000000E+00 0.00000000E+00 0.64715726E+03 0.64715734E+03 0.32000000E+00 0.0000E+00 0.9000E+01
        1 -1    0    0  501    0 0.00000000E+00 0.00000000E+00 -.31566738E+04 0.31566738E+04 0.32000000E+00 0.0000E+00 0.9000E+01
       25  2    1    2    0    0 -.82815181E+03 -.81598466E+03 -.20083796E+03 0.12173256E+04 0.29979883E+03 0.0000E+00 0.0000E+00
       23  2    1    2    0    0 0.82815181E+03 0.81598466E+03 -.23086786E+04 0.25865056E+04 0.91366513E+02 0.0000E+00 0.0000E+00
       23  1    3    3    0    0 -.52654139E+03 -.40924118E+03 -.24830780E+02 0.67353990E+03 0.91188000E+02 0.0000E+00 0.9000E+01
      -13  1    4    4    0    0 0.17870184E+03 0.14277502E+03 -.39509725E+03 0.45653138E+03 0.10565837E+00 0.0000E+00 0.9000E+01
       13  1    4    4    0    0 0.64944997E+03 0.67320963E+03 -.19135814E+04 0.21299742E+04 0.10565837E+00 0.0000E+00 0.9000E+01
       23  1    3    3    0    0 -.30161042E+03 -.40674348E+03 -.17600718E+03 0.54378570E+03 0.91188000E+02 0.0000E+00 0.9000E+01
#aMCatNLO 1  0  0  2  1 0.26979191D+03 0.00000000D+00  -5  7  0 0.00000000D+00 0.00000000D+00 0.00000000D+00 0.00000000D+00 0.00000000D+00
  <mgrwgt>
 0.1850795998D-03    9    2    0
 0.142928812999563D+04 0.000000000000000D+00 0.000000000000000D+00 0.142928812999563D+04
 0.142928812999563D+04 0.000000000000000D+00 0.000000000000000D+00 -.142928812999563D+04
 0.874462876342085D+03 -.526541392990726D+03 -.409241175585046D+03 0.558252534637890D+03
 0.260640865532128D+03 0.178701209802256D+03 0.142774313689803D+03 -.124960128644911D+03
 0.115438640676955D+04 0.649450600077211D+03 0.673210343913574D+03 -.676468570623525D+03
 0.569086111347500D+03 -.301610416888741D+03 -.406743482018331D+03 0.243176164630546D+03
 0.000000000000000D+00 0.000000000000000D+00 0.000000000000000D+00 -.000000000000000D+00
 0.149090674575698D+04 0.000000000000000D+00 0.000000000000000D+00 0.149090674575698D+04
 0.176489443115130D+04 0.000000000000000D+00 0.000000000000000D+00 -.176489443115130D+04
 0.939957775119145D+03 -.581845479256187D+03 -.474357790599503D+03 0.558252534637890D+03
 0.240610541867279D+03 0.163422916395941D+03 0.124785213480435D+03 -.124960128644911D+03
 0.107140929638066D+04 0.581607678714307D+03 0.593330145357555D+03 -.676468570623525D+03
 0.619301876701417D+03 -.337832839597039D+03 -.449392799883660D+03 0.243176164630546D+03
 0.384521686839772D+03 0.174647723742978D+03 0.205635231645173D+03 -.273987685394319D+03
0.236254376913D-02 0.000000000000D+00 0.000000000000D+00 0.222711997518D-04 0.000000000000D+00  7 -1 1 23 -13 13 23 21 0 0.99562662D-01 0.48564213D+00 0.13826724D+07 0.13826724D+07 0.13826724D+07 0.10386232D+01  1  2  2  2  7  2        1 0.119512224592D-03 0.100000000000D+01
-.125173831263D-03 0.000000000000D+00 -.907279014551D-05 0.222711997518D-04 0.000000000000D+00  7 -1 1 23 -13 13 23 21 2 0.99562662D-01 0.48564213D+00 0.13826724D+07 0.13826724D+07 0.13826724D+07 0.10386232D+01  1  2  3  2  7  2        1 -.683065084881D-05 0.100000000000D+01
0.153143509022D-03 0.000000000000D+00 0.000000000000D+00 0.222711997518D-04 0.000000000000D+00  7 -1 1 23 -13 13 23 21 2 0.99562662D-01 0.48564213D+00 0.13826724D+07 0.13826724D+07 0.13826724D+07 0.10386232D+01  1  2 15  2  7  2        1 0.835693714360D-05 0.100000000000D+01
0.270916974510D-02 0.000000000000D+00 0.000000000000D+00 0.222711997518D-04 0.000000000000D+00  7 -1 1 23 -13 13 23 21 2 0.99562662D-01 0.60839816D+00 0.17319116D+07 0.17319116D+07 0.17319116D+07 0.10323458D+01  1  2 12  2  7  2        1 0.300208246935D-04 0.100000000000D+01
-.280165109691D-02 0.000000000000D+00 0.000000000000D+00 0.222711997518D-04 0.000000000000D+00  7 -1 1 23 -13 13 23 21 2 0.99562662D-01 0.48564213D+00 0.13826724D+07 0.13826724D+07 0.13826724D+07 0.10386232D+01  1  2  4  2  7  2        1 -.152884195124D-03 0.100000000000D+01
-.426814797506D-02 0.000000000000D+00 -.863837014556D-03 0.222711997518D-04 0.000000000000D+00  7 -1 1 23 -13 13 23 21 2 0.99562662D-01 0.60465812D+00 0.13826724D+07 0.13826724D+07 0.13826724D+07 0.10386232D+01  1  2  5  2  7  2        1 -.516498526080D-04 0.100000000000D+01
0.437238116648D-02 0.000000000000D+00 0.843493038423D-03 0.222711997518D-04 0.000000000000D+00  7 -1 1 23 -13 13 23 21 2 0.99562662D-01 0.48564213D+00 0.13826724D+07 0.13826724D+07 0.13826724D+07 0.10386232D+01  1  2  6  2  7  2        1 0.238597866861D-03 0.100000000000D+01
0.848756008886D-04 0.000000000000D+00 0.000000000000D+00 0.222711997518D-04 0.000000000000D+00  7 -1 21 23 -13 13 23 -1 2 0.99562662D-01 0.60839816D+00 0.17319116D+07 0.17319116D+07 0.17319116D+07 0.10323458D+01  1  2 12  4  7  2        1 0.755871364114D-07 0.100000000000D+01
-.119324541548D-03 0.000000000000D+00 -.265041982466D-04 0.222711997518D-04 0.000000000000D+00  7 -1 21 23 -13 13 23 -1 2 0.99562662D-01 0.60465812D+00 0.13826724D+07 0.13826724D+07 0.13826724D+07 0.10386232D+01  1  2  5  4  7  2        1 -.119142075882D-06 0.100000000000D+01
  </mgrwgt>
  </event>
  <event>
  8     66 0.58687835E-06 0.31417390E+03 0.75467711E-02 0.96238681E-01
       -1 -1    0    0    0  501 0.00000000E+00 0.00000000E+00 0.58484225E+02 0.58485101E+02 0.32000000E+00 0.0000E+00 0.9000E+01
        1 -1    0    0  501    0 0.00000000E+00 0.00000000E+00 -.22752062E+04 0.22752063E+04 0.32000000E+00 0.0000E+00 0.9000E+01
       25  2    1    2    0    0 -.56449852E+02 0.25268589E+03 -.82932412E+03 0.91925090E+03 0.30034476E+03 0.0000E+00 0.0000E+00
       23  2    1    2    0    0 0.56449852E+02 -.25268589E+03 -.13873979E+04 0.14144405E+04 0.93446057E+02 0.0000E+00 0.0000E+00
       23  1    3    3    0    0 -.43902796E+02 0.10512471E+02 -.89982473E+02 0.13583101E+03 0.91188000E+02 0.0000E+00 0.9000E+01
      -13  1    4    4    0    0 0.11614745E+02 -.19051784E+03 -.11249864E+04 0.11410637E+04 0.10565837E+00 0.0000E+00 0.9000E+01
       13  1    4    4    0    0 0.44835107E+02 -.62168045E+02 -.26241147E+03 0.27337675E+03 0.10565837E+00 0.0000E+00 0.9000E+01
       23  1    3    3    0    0 -.12547056E+02 0.24217342E+03 -.73934164E+03 0.78341988E+03 0.91188000E+02 0.0000E+00 0.9000E+01
#aMCatNLO 1  0  0  2  2 0.21831622D+03 0.00000000D+00  -5  7  0 0.00000000D+00 0.00000000D+00 0.00000000D+00 0.00000000D+00 0.00000000D+00
  <mgrwgt>
 0.1096398456D-03    4    2    0
 0.364780375656251D+03 0.000000000000000D+00 0.000000000000000D+00 0.364780375656251D+03
 0.364780375656251D+03 0.000000000000000D+00 0.000000000000000D+00 -.364780375656251D+03
 0.161085330959574D+03 -.439027955951886D+02 0.105124718569943D+02 0.124881003282078D+03
 0.231794986535125D+03 0.116147035119670D+02 -.190518009492930D+03 -.131517688939549D+03
 0.771471276891297D+02 0.448351484517418D+02 -.621678813143118D+02 -.875461631842245D+01
 0.259533306128674D+03 -.125470563685202D+02 0.242173418950247D+03 0.153913019758934D+02
 0.000000000000000D+00 -.000000000000000D+00 -.000000000000000D+00 0.000000000000000D+00
 0.506229808174618D+03 0.000000000000000D+00 0.000000000000000D+00 0.506229808174618D+03
 0.475731710653069D+03 0.000000000000000D+00 0.000000000000000D+00 -.475731710653069D+03
 0.169727425679191D+03 -.382261546387489D+02 0.586143651716983D+02 0.124881003282078D+03
 0.185739723038213D+03 0.187794654068275D+02 -.129806293720089D+03 -.131517688939549D+03
 0.636245148186688D+02 0.472507447530588D+02 -.416989532159922D+02 -.875461631842245D+01
 0.342433687348909D+03 -.221749554891987D+01 0.329702546887869D+03 0.153913019758934D+02
 0.220436167942705D+03 -.255865599722175D+02 -.216811665123486D+03 0.304980975215484D+02
0.881105612375D-05 0.000000000000D+00 0.000000000000D+00 0.126919046559D-06 0.000000000000D+00  7 -1 1 23 -13 13 23 21 0 0.89976422D-02 0.35003180D+00 0.98705238D+05 0.98705238D+05 0.98705238D+05 0.11221868D+01  1  2  2  2  7  2        1 0.151941947920D-03 0.100000000000D+01
-.476227934425D-06 0.000000000000D+00 -.338367755195D-07 0.126919046559D-06 0.000000000000D+00  7 -1 1 23 -13 13 23 21 2 0.89976422D-02 0.35003180D+00 0.98705238D+05 0.98705238D+05 0.98705238D+05 0.11221868D+01  1  2  3  2  7  2        1 -.103417704677D-04 0.100000000000D+01
0.577552439733D-06 0.000000000000D+00 0.000000000000D+00 0.126919046559D-06 0.000000000000D+00  7 -1 1 23 -13 13 23 21 2 0.89976422D-02 0.35003180D+00 0.98705238D+05 0.98705238D+05 0.98705238D+05 0.11221868D+01  1  2 15  2  7  2        1 0.125421344130D-04 0.100000000000D+01
-.204929297457D-05 0.000000000000D+00 0.000000000000D+00 0.126919046559D-06 0.000000000000D+00  7 -1 1 23 -13 13 23 21 2 0.89976422D-02 0.35003180D+00 0.98705238D+05 0.98705238D+05 0.98705238D+05 0.11221868D+01  1  2  4  2  7  2        1 -.445024662188D-04 0.100000000000D+01
  </mgrwgt>
  </event>
  <event>
  8     66 0.58687835E-06 0.20730006E+03 0.75467711E-02 0.95282919E-01
       -1 -1    0    0    0  501 0.00000000E+00 0.00000000E+00 0.38135256E+03 0.38135270E+03 0.32000000E+00 0.0000E+00 0.9000E+01
        1 -1    0    0  501    0 0.00000000E+00 0.00000000E+00 -.68073105E+03 0.68073112E+03 0.32000000E+00 0.0000E+00 0.9000E+01
       25  2    1    2    0    0 -.40379751E+03 0.15885250E+03 -.32260711E+03 0.61826893E+03 0.29982425E+03 0.0000E+00 0.0000E+00
       23  2    1    2    0    0 0.40379751E+03 -.15885250E+03 0.23228622E+02 0.44381489E+03 0.90252691E+02 0.0000E+00 0.0000E+00
       23  1    3    3    0    0 -.34499330E+03 0.61393851E+02 -.14903497E+03 0.39155620E+03 0.91188000E+02 0.0000E+00 0.9000E+01
      -13  1    4    4    0    0 0.32366754E+02 -.13831379E+02 -.23538580E+02 0.42343709E+02 0.10565837E+00 0.0000E+00 0.9000E+01
       13  1    4    4    0    0 0.37143075E+03 -.14502112E+03 0.46767203E+02 0.40147118E+03 0.10565837E+00 0.0000E+00 0.9000E+01
       23  1    3    3    0    0 -.58804202E+02 0.97458650E+02 -.17357214E+03 0.22671273E+03 0.91188000E+02 0.0000E+00 0.9000E+01
#aMCatNLO 1  0  0  1  2 0.22494965D+01 0.00000000D+00  -5  7  0 0.00000000D+00 0.00000000D+00 0.00000000D+00 0.00000000D+00 0.00000000D+00
  <mgrwgt>
 0.2284052685D-03   11    2    0
 0.509508235123512D+03 0.000000000000000D+00 0.000000000000000D+00 0.509508235123512D+03
 0.509508235123512D+03 0.000000000000000D+00 0.000000000000000D+00 -.509508235123512D+03
 0.364319570032804D+03 -.344993303710439D+03 0.613938509773256D+02 -.402978066651026D+02
 0.372173300844563D+02 0.323662888619411D+02 -.138311991881727D+02 -.120934251946193D+02
 0.432179173170317D+03 0.371431216765760D+03 -.145021301752511D+03 0.166692864190681D+03
 0.185300396959446D+03 -.588042019172626D+02 0.974586499633585D+02 -.114301632330959D+03
 0.000000000000000D+00 0.000000000000000D+00 0.000000000000000D+00 0.000000000000000D+00
 0.514969646951310D+03 0.000000000000000D+00 0.000000000000000D+00 0.514969646951310D+03
 0.509741165071433D+03 0.000000000000000D+00 0.000000000000000D+00 -.509741165071433D+03
 0.364731860985244D+03 -.345534048217693D+03 0.607979224483410D+02 -.402978066651026D+02
 0.371920192721814D+02 0.323110987268682D+02 -.138920215831619D+02 -.120934251946193D+02
 0.431866319134024D+03 0.370790345855831D+03 -.145727574777016D+03 0.166692864190681D+03
 0.185228753753885D+03 -.590790269769243D+02 0.971557784753729D+02 -.114301632330959D+03
 0.569185887740732D+01 0.151163061191821D+01 0.166589543646421D+01 0.522848187987679D+01
0.160100666240D-04 0.000000000000D+00 0.000000000000D+00 0.139843331385D-05 0.000000000000D+00  7 -1 1 23 -13 13 23 21 0 0.58669641D-01 0.10472787D+00 0.22177847D+06 0.22177847D+06 0.22177847D+06 0.10943943D+01  1  2  2  1  7  1       -1 0.164355410840D-03 0.100000000000D+01
-.882745131230D-06 0.000000000000D+00 -.614828713833D-07 0.139843331385D-05 0.000000000000D+00  7 -1 1 23 -13 13 23 21 2 0.58669641D-01 0.10472787D+00 0.22177847D+06 0.22177847D+06 0.22177847D+06 0.10943943D+01  1  2  3  1  7  1       -1 -.108536010508D-04 0.100000000000D+01
0.104582232360D-05 0.000000000000D+00 0.000000000000D+00 0.139843331385D-05 0.000000000000D+00  7 -1 1 23 -13 13 23 21 2 0.58669641D-01 0.10472787D+00 0.22177847D+06 0.22177847D+06 0.22177847D+06 0.10943943D+01  1  2 15  1  7  1       -1 0.128586812533D-04 0.100000000000D+01
0.907759232127D-07 0.000000000000D+00 0.000000000000D+00 0.139843331385D-05 0.000000000000D+00  7 -1 1 23 -13 13 23 21 2 0.59311855D-01 0.10472787D+00 0.22281924D+06 0.22281924D+06 0.22281924D+06 0.10942397D+01  1  2 12  1  7  1       -1 0.109308854459D-05 0.100000000000D+01
-.232635354085D-02 0.000000000000D+00 0.000000000000D+00 0.139843331385D-05 0.000000000000D+00  7 -1 1 23 -13 13 23 21 2 0.58669641D-01 0.10472787D+00 0.22177847D+06 0.22177847D+06 0.22177847D+06 0.10943943D+01  1  2  4  1  7  1       -1 -.286031747357D-01 0.100000000000D+01
-.377445100205D-02 0.000000000000D+00 -.185502524210D-03 0.139843331385D-05 0.000000000000D+00  7 -1 1 23 -13 13 23 21 2 0.59313463D-01 0.10472787D+00 0.22177847D+06 0.22177847D+06 0.22177847D+06 0.10943943D+01  1  2  5  1  7  1       -1 -.454675514645D-01 0.100000000000D+01
0.377626170139D-02 0.000000000000D+00 0.185491476864D-03 0.139843331385D-05 0.000000000000D+00  7 -1 1 23 -13 13 23 21 2 0.58669641D-01 0.10472787D+00 0.22177847D+06 0.22177847D+06 0.22177847D+06 0.10943943D+01  1  2  6  1  7  1       -1 0.464302056396D-01 0.100000000000D+01
0.232639771854D-02 0.000000000000D+00 0.000000000000D+00 0.139843331385D-05 0.176490021076D-05  7 -1 1 23 -13 13 23 21 2 0.59298520D-01 0.10477575D+00 0.22281924D+06 0.22281924D+06 0.22281924D+06 0.10942397D+01  1  2 11  1  7  1       -1 0.280061211132D-01 0.100000000000D+01
0.119779156400D-07 0.000000000000D+00 0.000000000000D+00 0.139843331385D-05 0.000000000000D+00  7 21 1 23 -13 13 23 1 2 0.59311855D-01 0.10472787D+00 0.22281924D+06 0.22281924D+06 0.22281924D+06 0.10942397D+01  1  2 12  3  7  1       -1 0.123023554616D-05 0.100000000000D+01
-.759129725711D-05 0.000000000000D+00 -.373464873497D-06 0.139843331385D-05 0.000000000000D+00  7 21 1 23 -13 13 23 1 2 0.59313463D-01 0.10472787D+00 0.22177847D+06 0.22177847D+06 0.22177847D+06 0.10943943D+01  1  2  5  3  7  1       -1 -.780080801598D-03 0.100000000000D+01
0.461780835146D-05 0.000000000000D+00 0.000000000000D+00 0.139843331385D-05 0.347243799175D-08  7 21 1 23 -13 13 23 1 2 0.59298520D-01 0.10477575D+00 0.22281924D+06 0.22281924D+06 0.22281924D+06 0.10942397D+01  1  2 11  3  7  1       -1 0.474201702311D-03 0.100000000000D+01
  </mgrwgt>
  </event>
  <event>
  8     66 0.58687835E-06 0.15333162E+03 0.75467711E-02 0.10096063E+00
       -1 -1    0    0    0  501 0.00000000E+00 0.00000000E+00 0.36271691E+03 0.36271705E+03 0.32000000E+00 0.0000E+00 0.9000E+01
        1 -1    0    0  501    0 0.00000000E+00 0.00000000E+00 -.26511337E+03 0.26511356E+03 0.32000000E+00 0.0000E+00 0.9000E+01
       25  2    1    2    0    0 -.44687344E+01 0.17684259E+03 -.84629195E+02 0.35800570E+03 0.29952080E+03 0.0000E+00 0.0000E+00
       23  2    1    2    0    0 0.44687344E+01 -.17684259E+03 0.18223274E+03 0.26982492E+03 0.91123250E+02 0.0000E+00 0.0000E+00
       23  1    3    3    0    0 0.38017812E+02 0.15165834E+03 0.50270794E+02 0.18785103E+03 0.91188000E+02 0.0000E+00 0.9000E+01
      -11  1    4    4    0    0 -.14951649E+02 0.10511194E+01 0.83120575E+00 0.15011581E+02 0.51099893E-03 0.0000E+00 0.9000E+01
       11  1    4    4    0    0 0.19420384E+02 -.17789371E+03 0.18140153E+03 0.25481334E+03 0.51099893E-03 0.0000E+00 0.9000E+01
       23  1    3    3    0    0 -.42486546E+02 0.25184252E+02 -.13489999E+03 0.17015467E+03 0.91188000E+02 0.0000E+00 0.9000E+01
#aMCatNLO 1  0  0  2  1 0.10695478D+03 0.00000000D+00  -5  7  0 0.00000000D+00 0.00000000D+00 0.00000000D+00 0.00000000D+00 0.00000000D+00
  <mgrwgt>
 0.2032550818D-03    9    2    0
 0.310098707592265D+03 0.000000000000000D+00 0.000000000000000D+00 0.310098707592265D+03
 0.310098707592265D+03 0.000000000000000D+00 0.000000000000000D+00 -.310098707592265D+03
 0.182251678440839D+03 0.380178116362339D+02 0.151658336042530D+03 0.213264637881122D+02
 0.150655280764579D+02 -.149516490726036D+02 0.105111936772342D+01 -.152101094902360D+01
 0.229401447120873D+03 0.194203835131588D+02 -.177893707627911D+03 0.143532928040041D+03
 0.193478761546360D+03 -.424865460767891D+02 0.251842522176577D+02 -.163338380879130D+03
 0.000000000000000D+00 -.000000000000000D+00 0.000000000000000D+00 -.000000000000000D+00
 0.351667845461946D+03 0.000000000000000D+00 0.000000000000000D+00 0.351667845461946D+03
 0.391986038035369D+03 0.000000000000000D+00 0.000000000000000D+00 -.391986038035369D+03
 0.189399143383046D+03 0.697285419567253D+02 0.149130468211950D+03 0.213264637881122D+02
 0.127032067120670D+02 -.125823098743240D+02 0.862243984579241D+00 -.152101094902360D+01
 0.238563989234063D+03 0.593490608634122D+02 -.181076681276617D+03 0.143532928040041D+03
 0.188685834015052D+03 -.987873865041315D+01 0.225848725570249D+02 -.163338380879130D+03
 0.114301710153086D+03 -.106616554295400D+03 0.849909652306318D+01 -.403181925734227D+02
0.403973072644D-05 0.000000000000D+00 0.000000000000D+00 0.397492857489D-06 0.000000000000D+00  7 -1 1 23 -11 11 23 21 0 0.55802628D-01 0.40786698D-01 0.57274823D+05 0.57274823D+05 0.57274823D+05 0.11421422D+01  1  2  2  2  7  2        1 0.169703659526D-03 0.100000000000D+01
-.206113199259D-06 0.000000000000D+00 -.155136296750D-07 0.397492857489D-06 0.000000000000D+00  7 -1 1 23 -11 11 23 21 2 0.55802628D-01 0.40786698D-01 0.57274823D+05 0.57274823D+05 0.57274823D+05 0.11421422D+01  1  2  3  2  7  2        1 -.112949665592D-04 0.100000000000D+01
0.264256640920D-06 0.000000000000D+00 0.000000000000D+00 0.397492857489D-06 0.000000000000D+00  7 -1 1 23 -11 11 23 21 2 0.55802628D-01 0.40786698D-01 0.57274823D+05 0.57274823D+05 0.57274823D+05 0.11421422D+01  1  2 15  2  7  2        1 0.144812167924D-04 0.100000000000D+01
0.219671201754D-05 0.000000000000D+00 0.000000000000D+00 0.397492857489D-06 0.000000000000D+00  7 -1 1 23 -11 11 23 21 2 0.55802628D-01 0.53715839D-01 0.87846164D+05 0.87846164D+05 0.87846164D+05 0.11263697D+01  1  2 12  2  7  2        1 0.812456828367D-04 0.100000000000D+01
-.288609534983D-05 0.000000000000D+00 0.000000000000D+00 0.397492857489D-06 0.000000000000D+00  7 -1 1 23 -11 11 23 21 2 0.55802628D-01 0.40786698D-01 0.57274823D+05 0.57274823D+05 0.57274823D+05 0.11421422D+01  1  2  4  2  7  2        1 -.158157510437D-03 0.100000000000D+01
-.442467884729D-05 0.000000000000D+00 -.192804018248D-05 0.397492857489D-06 0.000000000000D+00  7 -1 1 23 -11 11 23 21 2 0.55802628D-01 0.57525867D-01 0.57274823D+05 0.57274823D+05 0.57274823D+05 0.11421422D+01  1  2  5  2  7  2        1 -.154762586334D-03 0.100000000000D+01
0.490353347906D-05 0.000000000000D+00 0.181940146715D-05 0.397492857489D-06 0.000000000000D+00  7 -1 1 23 -11 11 23 21 2 0.55802628D-01 0.40786698D-01 0.57274823D+05 0.57274823D+05 0.57274823D+05 0.11421422D+01  1  2  6  2  7  2        1 0.268712760111D-03 0.100000000000D+01
0.797962014594D-07 0.000000000000D+00 0.000000000000D+00 0.397492857489D-06 0.000000000000D+00  7 -1 21 23 -11 11 23 -1 2 0.55802628D-01 0.53715839D-01 0.87846164D+05 0.87846164D+05 0.87846164D+05 0.11263697D+01  1  2 12  4  7  2        1 0.124375420782D-04 0.100000000000D+01
-.135587323321D-06 0.000000000000D+00 -.822356693855D-07 0.397492857489D-06 0.000000000000D+00  7 -1 21 23 -11 11 23 -1 2 0.55802628D-01 0.57525867D-01 0.57274823D+05 0.57274823D+05 0.57274823D+05 0.11421422D+01  1  2  5  4  7  2        1 -.191107162171D-04 0.100000000000D+01
  </mgrwgt>
  </event>
  <event>
  8     66 0.58687835E-06 0.71625893E+03 0.75467711E-02 0.88588085E-01
       -1 -1    0    0    0  501 0.00000000E+00 0.00000000E+00 0.20631248E+04 0.20631248E+04 0.32000000E+00 0.0000E+00 0.9000E+01
        1 -1    0    0  501    0 0.00000000E+00 0.00000000E+00 -.41825877E+03 0.41825890E+03 0.32000000E+00 0.0000E+00 0.9000E+01
       25  2    1    2    0    0 0.18128280E+03 -.83840738E+03 0.12127577E+04 0.15152839E+04 0.29918859E+03 0.0000E+00 0.0000E+00
       23  2    1    2    0    0 -.18128280E+03 0.83840738E+03 0.43210837E+03 0.96609982E+03 0.10411928E+03 0.0000E+00 0.0000E+00
       23  1    3    3    0    0 0.88712687E+02 -.12748396E+03 0.31417588E+03 0.36213787E+03 0.91188000E+02 0.0000E+00 0.9000E+01
      -13  1    4    4    0    0 -.13325723E+03 0.71702879E+03 0.39948555E+03 0.83155065E+03 0.10565837E+00 0.0000E+00 0.9000E+01
       13  1    4    4    0    0 -.48025569E+02 0.12137859E+03 0.32622820E+02 0.13454916E+03 0.10565837E+00 0.0000E+00 0.9000E+01
       23  1    3    3    0    0 0.92570114E+02 -.71092342E+03 0.89858178E+03 0.11531460E+04 0.91188000E+02 0.0000E+00 0.9000E+01
#aMCatNLO 1  0  0  1  1 0.44820333D+01 0.00000000D+00  -5  7  0 0.00000000D+00 0.00000000D+00 0.00000000D+00 0.00000000D+00 0.00000000D+00
  <mgrwgt>
 0.3156497306D-03   10    2    0
 0.928935002525601D+03 0.000000000000000D+00 0.000000000000000D+00 0.928935002525601D+03
 0.928935002525601D+03 0.000000000000000D+00 0.000000000000000D+00 -.928935002525601D+03
 0.205518028320332D+03 0.887126866618212D+02 -.127483957073002D+03 0.989965076905607D+02
 0.756940584889502D+03 -.133257319570346D+03 0.717029400251980D+03 -.202658271501743D+03
 0.150821518543597D+03 -.480254808403159D+02 0.121377978320110D+03 -.755517704939858D+02
 0.744589873297773D+03 0.925701137488406D+02 -.710923421499088D+03 0.179213534305168D+03
 0.000000000000000D+00 0.000000000000000D+00 0.000000000000000D+00 0.000000000000000D+00
 0.933172579222138D+03 0.000000000000000D+00 0.000000000000000D+00 0.933172579222138D+03
 0.930123610211684D+03 0.000000000000000D+00 0.000000000000000D+00 -.930123610211684D+03
 0.205353694907936D+03 0.882228071165118D+02 -.127559070386614D+03 0.989965076905607D+02
 0.756998384468080D+03 -.135062378648415D+03 0.716752630237966D+03 -.202658271501743D+03
 0.150892099124990D+03 -.483852119229902D+02 0.121322820692305D+03 -.755517704939858D+02
 0.744631232900792D+03 0.907945256099498D+02 -.711195672729009D+03 0.179213534305168D+03
 0.542077803202375D+01 0.443025784494358D+01 0.679292185353218D+00 0.304896901045341D+01
0.545590060577D-03 0.000000000000D+00 0.000000000000D+00 0.229005401301D-07 0.000000000000D+00  7 -1 1 23 -13 13 23 21 0 0.31740383D+00 0.64347515D-01 0.77672966D+06 0.77672966D+06 0.77672966D+06 0.10552474D+01  1  2  2  1  7  1       -1 0.493789359746D-04 0.100000000000D+01
-.302085369404D-04 0.000000000000D+00 -.209520948978D-05 0.229005401301D-07 0.000000000000D+00  7 -1 1 23 -13 13 23 21 2 0.31740383D+00 0.64347515D-01 0.77672966D+06 0.77672966D+06 0.77672966D+06 0.10552474D+01  1  2  3  1  7  1       -1 -.304448281788D-05 0.100000000000D+01
0.351206672059D-04 0.000000000000D+00 0.000000000000D+00 0.229005401301D-07 0.000000000000D+00  7 -1 1 23 -13 13 23 21 2 0.31740383D+00 0.64347515D-01 0.77672966D+06 0.77672966D+06 0.77672966D+06 0.10552474D+01  1  2 15  1  7  1       -1 0.353953811374D-05 0.100000000000D+01
-.196726000093D-01 0.000000000000D+00 0.000000000000D+00 0.229005401301D-07 0.000000000000D+00  7 -1 1 23 -13 13 23 21 2 0.31740383D+00 0.64347515D-01 0.77672966D+06 0.77672966D+06 0.77672966D+06 0.10552474D+01  1  2  4  1  7  1       -1 -.198264791272D-02 0.100000000000D+01
-.118567578549D+00 0.000000000000D+00 -.983939785279D-02 0.229005401301D-07 0.000000000000D+00  7 -1 1 23 -13 13 23 21 2 0.31901701D+00 0.64347515D-01 0.77672966D+06 0.77672966D+06 0.77672966D+06 0.10552474D+01  1  2  5  1  7  1       -1 -.115393219667D-01 0.100000000000D+01
0.118616061973D+00 0.000000000000D+00 0.983927141671D-02 0.229005401301D-07 0.000000000000D+00  7 -1 1 23 -13 13 23 21 2 0.31740383D+00 0.64347515D-01 0.77672966D+06 0.77672966D+06 0.77672966D+06 0.10552474D+01  1  2  6  1  7  1       -1 0.119543877055D-01 0.100000000000D+01
0.196728789553D-01 0.000000000000D+00 0.000000000000D+00 0.229005401301D-07 0.676839398146D-08  7 -1 1 23 -13 13 23 21 2 0.31885175D+00 0.64429850D-01 0.78068180D+06 0.78068180D+06 0.78068180D+06 0.10550975D+01  1  2 11  1  7  1       -1 0.191677066591D-02 0.100000000000D+01
0.518249986414D-05 0.000000000000D+00 0.000000000000D+00 0.229005401301D-07 0.000000000000D+00  7 21 1 23 -13 13 23 1 2 0.31905422D+00 0.64347515D-01 0.78068180D+06 0.78068180D+06 0.78068180D+06 0.10550975D+01  1  2 12  3  7  1       -1 0.493699168714D-05 0.100000000000D+01
-.111756644570D-03 0.000000000000D+00 -.928200821422D-05 0.229005401301D-07 0.000000000000D+00  7 21 1 23 -13 13 23 1 2 0.31901701D+00 0.64347515D-01 0.77672966D+06 0.77672966D+06 0.77672966D+06 0.10552474D+01  1  2  5  3  7  1       -1 -.106610414817D-03 0.100000000000D+01
0.191430495114D-04 0.000000000000D+00 0.000000000000D+00 0.229005401301D-07 0.573244599803D-11  7 21 1 23 -13 13 23 1 2 0.31885175D+00 0.64429850D-01 0.78068180D+06 0.78068180D+06 0.78068180D+06 0.10550975D+01  1  2 11  3  7  1       -1 0.182606704178D-04 0.100000000000D+01
  </mgrwgt>
  </event>
  <event>
  8     66 0.58687835E-06 0.69623070E+03 0.75467711E-02 0.83461030E-01
       -1 -1    0    0    0  501 0.00000000E+00 0.00000000E+00 0.72926961E+03 0.72926968E+03 0.32000000E+00 0.0000E+00 0.9000E+01
        1 -1    0    0  501    0 0.00000000E+00 0.00000000E+00 -.29807976E+04 0.29807976E+04 0.32000000E+00 0.0000E+00 0.9000E+01
       25  2    1    2    0    0 -.58950360E+03 -.13112796E+04 -.14382245E+04 0.20556848E+04 0.30063530E+03 0.0000E+00 0.0000E+00
       23  2    1    2    0    0 0.58950360E+03 0.13112796E+04 -.81330351E+03 0.16543825E+04 0.92467792E+02 0.0000E+00 0.0000E+00
       23  1    3    3    0    0 -.20855612E+03 -.73105219E+03 -.81732294E+03 0.11199397E+04 0.91188000E+02 0.0000E+00 0.9000E+01
      -11  1    4    4    0    0 0.14604295E+02 0.27231062E+02 -.34567791E+02 0.46365379E+02 0.51099893E-03 0.0000E+00 0.9000E+01
       11  1    4    4    0    0 0.57489930E+03 0.12840485E+04 -.77873572E+03 0.16080171E+04 0.51099893E-03 0.0000E+00 0.9000E+01
       23  1    3    3    0    0 -.38094748E+03 -.58022740E+03 -.62090157E+03 0.93574506E+03 0.91188000E+02 0.0000E+00 0.9000E+01
#aMCatNLO 1  0  0  2  1 0.15321153D+03 0.00000000D+00  -5  7  0 0.00000000D+00 0.00000000D+00 0.00000000D+00 0.00000000D+00 0.00000000D+00
  <mgrwgt>
 0.3604411105D-03    9    2    0
 0.147438301650230D+04 0.000000000000000D+00 0.000000000000000D+00 0.147438301650230D+04
 0.147438301650230D+04 0.000000000000000D+00 0.000000000000000D+00 -.147438301650230D+04
 0.785015248365934D+03 -.208556118009351D+03 -.731052192298602D+03 -.173207178255713D+03
 0.319416076054789D+02 0.146042951792447D+02 0.272310623532328D+02 -.809012372304848D+01
 0.142856589414582D+04 0.574899303638564D+03 0.128404852723675D+04 0.248013476032389D+03
 0.703243282887364D+03 -.380947480808458D+03 -.580227397291383D+03 -.667161740536272D+02
 0.000000000000000D+00 -.000000000000000D+00 0.000000000000000D+00 -.000000000000000D+00
 0.152692261356979D+04 0.000000000000000D+00 0.000000000000000D+00 0.152692261356979D+04
 0.159246182463776D+04 0.000000000000000D+00 0.000000000000000D+00 -.159246182463776D+04
 0.788617528760491D+03 -.170072988639122D+03 -.744766276935493D+03 -.173207178255713D+03
 0.322245171221641D+02 0.161734753049850D+02 0.266718596738485D+02 -.809012372304848D+01
 0.143623427426860D+04 0.644957882173174D+03 0.125908202136036D+04 0.248013476032389D+03
 0.695667300819516D+03 -.346737175994853D+03 -.592418791893261D+03 -.667161740536272D+02
 0.166640817236769D+03 -.144321192844185D+03 0.514311877945460D+02 -.655392110679700D+02
0.287356481534D-02 0.000000000000D+00 0.000000000000D+00 0.473116342403D-05 0.000000000000D+00  7 -1 1 23 -11 11 23 21 0 0.11219533D+00 0.45858426D+00 0.21075961D+07 0.21075961D+07 0.21075961D+07 0.10269673D+01  1  2  2  2  7  2        1 0.144081896948D-03 0.100000000000D+01
-.159596063434D-03 0.000000000000D+00 -.110352455179D-04 0.473116342403D-05 0.000000000000D+00  7 -1 1 23 -11 11 23 21 2 0.11219533D+00 0.45858426D+00 0.21075961D+07 0.21075961D+07 0.21075961D+07 0.10269673D+01  1  2  3  2  7  2        1 -.843963772469D-05 0.100000000000D+01
0.184948004803D-03 0.000000000000D+00 0.000000000000D+00 0.473116342403D-05 0.000000000000D+00  7 -1 1 23 -11 11 23 21 2 0.11219533D+00 0.45858426D+00 0.21075961D+07 0.21075961D+07 0.21075961D+07 0.10269673D+01  1  2 15  2  7  2        1 0.978027981928D-05 0.100000000000D+01
0.475061456567D-02 0.000000000000D+00 0.000000000000D+00 0.473116342403D-05 0.000000000000D+00  7 -1 1 23 -11 11 23 21 2 0.11219533D+00 0.50299381D+00 0.23422534D+07 0.23422534D+07 0.23422534D+07 0.10241105D+01  1  2 12  2  7  2        1 0.147541424256D-03 0.100000000000D+01
-.453488215868D-02 0.000000000000D+00 0.000000000000D+00 0.473116342403D-05 0.000000000000D+00  7 -1 1 23 -11 11 23 21 2 0.11219533D+00 0.45858426D+00 0.21075961D+07 0.21075961D+07 0.21075961D+07 0.10269673D+01  1  2  4  2  7  2        1 -.239810191554D-03 0.100000000000D+01
-.146852291481D-01 0.000000000000D+00 -.255375324675D-02 0.473116342403D-05 0.000000000000D+00  7 -1 1 23 -11 11 23 21 2 0.11219533D+00 0.50039296D+00 0.21075961D+07 0.21075961D+07 0.21075961D+07 0.10269673D+01  1  2  5  2  7  2        1 -.477874765798D-03 0.100000000000D+01
0.148611316675D-01 0.000000000000D+00 0.254406375196D-02 0.473116342403D-05 0.000000000000D+00  7 -1 1 23 -11 11 23 21 2 0.11219533D+00 0.45858426D+00 0.21075961D+07 0.21075961D+07 0.21075961D+07 0.10269673D+01  1  2  6  2  7  2        1 0.785875069557D-03 0.100000000000D+01
0.720646899665D-04 0.000000000000D+00 0.000000000000D+00 0.473116342403D-05 0.000000000000D+00  7 -1 21 23 -11 11 23 -1 2 0.11219533D+00 0.50299381D+00 0.23422534D+07 0.23422534D+07 0.23422534D+07 0.10241105D+01  1  2 12  4  7  2        1 0.348479494718D-06 0.100000000000D+01
-.205261968305D-03 0.000000000000D+00 -.368288029086D-04 0.473116342403D-05 0.000000000000D+00  7 -1 21 23 -11 11 23 -1 2 0.11219533D+00 0.50039296D+00 0.21075961D+07 0.21075961D+07 0.21075961D+07 0.10269673D+01  1  2  5  4  7  2        1 -.106144447677D-05 0.100000000000D+01
  </mgrwgt>
  </event>
  <event>
  8     66 0.58687835E-06 0.21363787E+03 0.75467711E-02 0.92704692E-01
       -1 -1    0    0    0  501 0.00000000E+00 0.00000000E+00 0.95963443E+03 0.95963449E+03 0.32000000E+00 0.0000E+00 0.9000E+01
        1 -1    0    0  501    0 0.00000000E+00 0.00000000E+00 -.57517669E+03 0.57517678E+03 0.32000000E+00 0.0000E+00 0.9000E+01
       25  2    1    2    0    0 -.20546864E+03 0.52183204E+03 0.64848763E+03 0.90844107E+03 0.30033802E+03 0.0000E+00 0.0000E+00
       23  2    1    2    0    0 0.20546864E+03 -.52183204E+03 -.26402989E+03 0.62637020E+03 0.90010031E+02 0.0000E+00 0.0000E+00
       23  1    3    3    0    0 -.16362397E+02 0.82384189E+02 0.25044440E+03 0.27945041E+03 0.91188000E+02 0.0000E+00 0.9000E+01
      -11  1    4    4    0    0 0.91279324E+02 -.27675046E+03 -.18300553E+03 0.34411300E+03 0.51099893E-03 0.0000E+00 0.9000E+01
       11  1    4    4    0    0 0.11418932E+03 -.24508157E+03 -.81024355E+02 0.28225719E+03 0.51099893E-03 0.0000E+00 0.9000E+01
       23  1    3    3    0    0 -.18910624E+03 0.43944785E+03 0.39804323E+03 0.62899066E+03 0.91188000E+02 0.0000E+00 0.9000E+01
#aMCatNLO 1  0  0  2  1 0.15894471D+02 0.00000000D+00  -5  7  0 0.00000000D+00 0.00000000D+00 0.00000000D+00 0.00000000D+00 0.00000000D+00
  <mgrwgt>
 0.1980958588D-03    9    2    0
 0.742939744752536D+03 0.000000000000000D+00 0.000000000000000D+00 0.742939744752536D+03
 0.742939744752536D+03 0.000000000000000D+00 0.000000000000000D+00 -.742939744752536D+03
 0.223852843254484D+03 -.163623972192993D+02 0.823841894988785D+02 0.186386591167302D+03
 0.402796061540805D+03 0.912793239593147D+02 -.276750462761138D+03 -.278068217478751D+03
 0.312516569843336D+03 0.114189315359023D+03 -.245081573592182D+03 -.156724053578455D+03
 0.546714014866447D+03 -.189106242099039D+03 0.439447846854441D+03 0.248405679889903D+03
 0.000000000000000D+00 0.000000000000000D+00 0.000000000000000D+00 -.000000000000000D+00
 0.744325972064411D+03 0.000000000000000D+00 0.000000000000000D+00 0.744325972064411D+03
 0.789984919605577D+03 0.000000000000000D+00 0.000000000000000D+00 -.789984919605577D+03
 0.223428018034341D+03 -.181846393210292D+02 0.808343084621305D+02 0.186386591167302D+03
 0.403993333724097D+03 0.879924281170810D+02 -.279546083348989D+03 -.278068217478751D+03
 0.313302519860516D+03 0.111639700582217D+03 -.247250110687134D+03 -.156724053578455D+03
 0.545240627132454D+03 -.193554913826455D+03 0.435664094990464D+03 0.248405679889903D+03
 0.483463929185794D+02 0.121074244481860D+02 0.102977905835278D+02 -.456589475411659D+02
0.578759549955D-04 0.000000000000D+00 0.000000000000D+00 0.188846722672D-05 0.000000000000D+00  7 -1 1 23 -11 11 23 21 0 0.14763608D+00 0.88488732D-01 0.34386007D+06 0.34386007D+06 0.34386007D+06 0.10801946D+01  1  2  2  2  7  2        1 0.956138994532D-04 0.100000000000D+01
-.299644899276D-05 0.000000000000D+00 -.222258906272D-06 0.188846722672D-05 0.000000000000D+00  7 -1 1 23 -11 11 23 21 2 0.14763608D+00 0.88488732D-01 0.34386007D+06 0.34386007D+06 0.34386007D+06 0.10801946D+01  1  2  3  2  7  2        1 -.577608689291D-05 0.100000000000D+01
0.377192901044D-05 0.000000000000D+00 0.000000000000D+00 0.188846722672D-05 0.000000000000D+00  7 -1 1 23 -11 11 23 21 2 0.14763608D+00 0.88488732D-01 0.34386007D+06 0.34386007D+06 0.34386007D+06 0.10801946D+01  1  2 15  2  7  2        1 0.727093628855D-05 0.100000000000D+01
0.147221034121D-02 0.000000000000D+00 0.000000000000D+00 0.188846722672D-05 0.000000000000D+00  7 -1 1 23 -11 11 23 21 2 0.14763608D+00 0.94171735D-01 0.35332536D+06 0.35332536D+06 0.35332536D+06 0.10793338D+01  1  2 12  2  7  2        1 0.258392396210D-02 0.100000000000D+01
-.148517441067D-02 0.000000000000D+00 0.000000000000D+00 0.188846722672D-05 0.000000000000D+00  7 -1 1 23 -11 11 23 21 2 0.14763608D+00 0.88488732D-01 0.34386007D+06 0.34386007D+06 0.34386007D+06 0.10801946D+01  1  2  4  2  7  2        1 -.286288752717D-02 0.100000000000D+01
-.236504928405D-02 0.000000000000D+00 -.119581975868D-03 0.188846722672D-05 0.000000000000D+00  7 -1 1 23 -11 11 23 21 2 0.14763608D+00 0.94176066D-01 0.34386007D+06 0.34386007D+06 0.34386007D+06 0.10801946D+01  1  2  5  2  7  2        1 -.416343413471D-02 0.100000000000D+01
0.236813392737D-02 0.000000000000D+00 0.119350352376D-03 0.188846722672D-05 0.000000000000D+00  7 -1 1 23 -11 11 23 21 2 0.14763608D+00 0.88488732D-01 0.34386007D+06 0.34386007D+06 0.34386007D+06 0.10801946D+01  1  2  6  2  7  2        1 0.456491913315D-02 0.100000000000D+01
0.219376230281D-04 0.000000000000D+00 0.000000000000D+00 0.188846722672D-05 0.000000000000D+00  7 -1 21 23 -11 11 23 -1 2 0.14763608D+00 0.94171735D-01 0.35332536D+06 0.35332536D+06 0.35332536D+06 0.10793338D+01  1  2 12  4  7  2        1 0.900703759134D-04 0.100000000000D+01
-.270772160453D-04 0.000000000000D+00 -.127506077711D-05 0.188846722672D-05 0.000000000000D+00  7 -1 21 23 -11 11 23 -1 2 0.14763608D+00 0.94176066D-01 0.34386007D+06 0.34386007D+06 0.34386007D+06 0.10801946D+01  1  2  5  4  7  2        1 -.111604699376D-03 0.100000000000D+01
  </mgrwgt>
  </event>
  <event>
  8     66 0.58687835E-06 0.60601668E+03 0.75467711E-02 0.82347439E-01
       -1 -1    0    0    0  501 0.00000000E+00 0.00000000E+00 0.42293030E+03 0.42293042E+03 0.32000000E+00 0.0000E+00 0.9000E+01
        1 -1    0    0  501    0 0.00000000E+00 0.00000000E+00 -.88342403E+03 0.88342408E+03 0.32000000E+00 0.0000E+00 0.9000E+01
       25  2    1    2    0    0 -.47556629E+03 0.31160582E+03 -.29101157E+03 0.70555866E+03 0.29977293E+03 0.0000E+00 0.0000E+00
       23  2    1    2    0    0 0.47556629E+03 -.31160582E+03 -.16948215E+03 0.60079584E+03 0.94709911E+02 0.0000E+00 0.0000E+00
       23  1    3    3    0    0 -.28531187E+02 0.95847476E+02 -.35683546E+02 0.13996190E+03 0.91188000E+02 0.0000E+00 0.9000E+01
      -11  1    4    4    0    0 0.16991274E+03 -.76217653E+02 -.20932902E+02 0.18739705E+03 0.51099893E-03 0.0000E+00 0.9000E+01
       11  1    4    4    0    0 0.30565355E+03 -.23538816E+03 -.14854925E+03 0.41339879E+03 0.51099893E-03 0.0000E+00 0.9000E+01
       23  1    3    3    0    0 -.44703510E+03 0.21575834E+03 -.25532803E+03 0.56559676E+03 0.91188000E+02 0.0000E+00 0.9000E+01
#aMCatNLO 1  0  0  1  1 0.15295428D+04 0.00000000D+00  -5  7  0 0.00000000D+00 0.00000000D+00 0.00000000D+00 0.00000000D+00 0.00000000D+00
  <mgrwgt>
 0.1595181655D-03    5    2    0
 0.611250280615486D+03 0.000000000000000D+00 0.000000000000000D+00 0.611250280615486D+03
 0.611250280615486D+03 0.000000000000000D+00 0.000000000000000D+00 -.611250280615486D+03
 0.136120847646219D+03 -.285311872325558D+02 0.958474759381074D+02 0.145899462411620D+02
 0.192365977928888D+03 0.169912739232914D+03 -.762176525165256D+02 0.482203272051882D+02
 0.385798900941559D+03 0.305653547362691D+03 -.235388164608209D+03 -.301876045702321D+01
 0.508214834714305D+03 -.447035099363049D+03 0.215758341186627D+03 -.597915129893270D+02
 0.000000000000000D+00 -.000000000000000D+00 -.000000000000000D+00 0.000000000000000D+00
 0.680884629872226D+04 0.000000000000000D+00 0.000000000000000D+00 0.680884629872226D+04
 0.107935611931945D+04 0.000000000000000D+00 0.000000000000000D+00 -.107935611931945D+04
 0.332052690822107D+03 0.174998491363958D+01 0.318947972496588D+03 0.145899462411620D+02
 0.242208125427196D+03 0.198020720895133D+03 0.130871578898372D+03 0.482203272051882D+02
 0.377530622544448D+03 0.355025224327977D+03 0.128364123239212D+03 -.301876045702321D+01
 0.100627109923660D+04 -.349079094781936D+03 0.937462017564187D+03 -.597915129893270D+02
 0.593013988001135D+04 -.205716835354813D+03 -.151564569219836D+04 0.572949017940281D+04
0.287238070712D-04 0.000000000000D+00 0.000000000000D+00 0.241696024342D-06 0.000000000000D+00  7 -1 1 23 -11 11 23 21 0 0.65066214D-01 0.13591140D+00 0.36725622D+06 0.36725622D+06 0.36725622D+06 0.10781117D+01  1  2  2  1  7  1       -1 0.157632712157D-03 0.100000000000D+01
-.159562359463D-05 0.000000000000D+00 -.110306982306D-06 0.241696024342D-06 0.000000000000D+00  7 -1 1 23 -11 11 23 21 2 0.65066214D-01 0.13591140D+00 0.36725622D+06 0.36725622D+06 0.36725622D+06 0.10781117D+01  1  2  3  1  7  1       -1 -.101779972109D-04 0.100000000000D+01
0.189227391125D-05 0.000000000000D+00 0.000000000000D+00 0.241696024342D-06 0.000000000000D+00  7 -1 1 23 -11 11 23 21 2 0.65066214D-01 0.13591140D+00 0.36725622D+06 0.36725622D+06 0.36725622D+06 0.10781117D+01  1  2 15  1  7  1       -1 0.120702392819D-04 0.100000000000D+01
-.296418074864D-04 0.000000000000D+00 -.233186723257D-04 0.241696024342D-06 0.000000000000D+00  7 -1 1 23 -11 11 23 21 2 0.76869622D+00 0.13591140D+00 0.36725622D+06 0.36725622D+06 0.36725622D+06 0.10781117D+01  1  2  5  1  7  1       -1 -.589963500823D-08 0.100000000000D+01
-.128924267660D-04 0.000000000000D+00 -.671585476778D-05 0.241696024342D-06 0.000000000000D+00  7 21 1 23 -11 11 23 1 2 0.76869622D+00 0.13591140D+00 0.36725622D+06 0.36725622D+06 0.36725622D+06 0.10781117D+01  1  2  5  3  7  1       -1 -.889099396136D-09 0.100000000000D+01
  </mgrwgt>
  </event>
  <event>
  8     66 0.58687835E-06 0.24253173E+03 0.75467711E-02 0.86651829E-01
       -1 -1    0    0    0  501 0.00000000E+00 0.00000000E+00 0.95743067E+02 0.95743602E+02 0.32000000E+00 0.0000E+00 0.9000E+01
        1 -1    0    0  501    0 0.00000000E+00 0.00000000E+00 -.74820493E+03 0.74820500E+03 0.32000000E+00 0.0000E+00 0.9000E+01
       25  2    1    2    0    0 0.15273266E+03 0.69634347E+02 -.40142986E+03 0.52854989E+03 0.30007140E+03 0.0000E+00 0.0000E+00
       23  2    1    2    0    0 -.15273266E+03 -.69634347E+02 -.25103200E+03 0.31539871E+03 0.91011380E+02 0.0000E+00 0.0000E+00
       23  1    3    3    0    0 0.53892313E+02 -.51887870E+02 -.40575961E+02 0.12473328E+03 0.91188000E+02 0.0000E+00 0.9000E+01
      -13  1    4    4    0    0 -.53379481E+02 0.14891853E+02 -.44279495E+02 0.70935330E+02 0.10565837E+00 0.0000E+00 0.9000E+01
       13  1    4    4    0    0 -.99353179E+02 -.84526200E+02 -.20675251E+03 0.24446338E+03 0.10565837E+00 0.0000E+00 0.9000E+01
       23  1    3    3    0    0 0.98840347E+02 0.12152222E+03 -.36085390E+03 0.40381660E+03 0.91188000E+02 0.0000E+00 0.9000E+01
#aMCatNLO 1  0  0  2  2 0.10258374D+04 0.00000000D+00  -5  7  0 0.00000000D+00 0.00000000D+00 0.00000000D+00 0.00000000D+00 0.00000000D+00
  <mgrwgt>
 0.1308537841D-03    3    2    0
 0.267648442989427D+03 0.000000000000000D+00 0.000000000000000D+00 0.267648442989427D+03
 0.267648442989427D+03 0.000000000000000D+00 0.000000000000000D+00 -.267648442989427D+03
 0.147197220899672D+03 0.538923139349738D+02 -.518878687664704D+02 0.880626939753410D+02
 0.578651531253669D+02 -.533794189341189D+02 0.148919858791478D+02 0.166505956966486D+02
 0.133414664534886D+03 -.993532423594931D+02 -.845263337934921D+02 -.279947288081706D+02
 0.196819847418929D+03 0.988403473586381D+02 0.121522216680815D+03 -.767185608638191D+02
 0.000000000000000D+00 -.000000000000000D+00 0.000000000000000D+00 0.000000000000000D+00
 0.110144899362054D+04 0.000000000000000D+00 0.000000000000000D+00 0.110144899362054D+04
 0.108168097053812D+04 0.000000000000000D+00 0.000000000000000D+00 -.108168097053812D+04
 0.454372530297064D+03 0.382438430373125D+03 -.210059405521634D+03 0.880626939753410D+02
 0.205317265874123D+02 -.105631198777539D+02 -.572101023030030D+01 0.166505956966486D+02
 0.187101927665788D+03 0.756962534172376D+02 -.168800188725618D+03 -.279947288081706D+02
 0.495095890166690D+03 0.476728743565332D+03 -.604041107338901D+02 -.767185608638191D+02
 0.102602788944171D+04 -.924300307477940D+03 0.444984715211442D+03 0.197680230824221D+02
0.138889011965D-05 0.000000000000D+00 0.000000000000D+00 0.257566325570D-06 0.000000000000D+00  7 -1 1 23 -13 13 23 21 0 0.14729749D-01 0.11510850D+00 0.58821640D+05 0.58821640D+05 0.58821640D+05 0.11411396D+01  1  2  2  2  7  2        1 0.129259785681D-03 0.100000000000D+01
-.762495633625D-07 0.000000000000D+00 -.533370376261D-08 0.257566325570D-06 0.000000000000D+00  7 -1 1 23 -13 13 23 21 2 0.14729749D-01 0.11510850D+00 0.58821640D+05 0.58821640D+05 0.58821640D+05 0.11411396D+01  1  2  3  2  7  2        1 -.924081864166D-05 0.100000000000D+01
0.894022596398D-07 0.000000000000D+00 0.000000000000D+00 0.257566325570D-06 0.000000000000D+00  7 -1 1 23 -13 13 23 21 2 0.14729749D-01 0.11510850D+00 0.58821640D+05 0.58821640D+05 0.58821640D+05 0.11411396D+01  1  2 15  2  7  2        1 0.108348170278D-04 0.100000000000D+01
  </mgrwgt>
  </event>
  <event>
  8     66 0.58687835E-06 0.20967451E+03 0.75467711E-02 0.99127925E-01
       -1 -1    0    0    0  501 0.00000000E+00 0.00000000E+00 0.25116132E+03 0.25116152E+03 0.32000000E+00 0.0000E+00 0.9000E+01
        1 -1    0    0  501    0 0.00000000E+00 0.00000000E+00 -.31229669E+03 0.31229685E+03 0.32000000E+00 0.0000E+00 0.9000E+01
       25  2    1    2    0    0 -.93287354E+02 -.11089968E+03 -.15620038E+03 0.36771129E+03 0.29968611E+03 0.0000E+00 0.0000E+00
       23  2    1    2    0    0 0.93287354E+02 0.11089968E+03 0.95065015E+02 0.19574708E+03 0.90985128E+02 0.0000E+00 0.0000E+00
       23  1    3    3    0    0 -.95685209E+01 -.27257514E+00 0.48839937E+02 0.10388562E+03 0.91188000E+02 0.0000E+00 0.9000E+01
      -13  1    4    4    0    0 0.10149215E+03 0.78751942E+02 0.99208413E+02 0.16231095E+03 0.10565837E+00 0.0000E+00 0.9000E+01
       13  1    4    4    0    0 -.82047956E+01 0.32147742E+02 -.41433979E+01 0.33436132E+02 0.10565837E+00 0.0000E+00 0.9000E+01
       23  1    3    3    0    0 -.83718833E+02 -.11062711E+03 -.20504032E+03 0.26382567E+03 0.91188000E+02 0.0000E+00 0.9000E+01
#aMCatNLO 1  0  0  2  2 0.21754020D+03 0.00000000D+00  -5  7  0 0.00000000D+00 0.00000000D+00 0.00000000D+00 0.00000000D+00 0.00000000D+00
  <mgrwgt>
 0.1560681985D-03    5    2    0
 0.280065976510871D+03 0.000000000000000D+00 0.000000000000000D+00 0.280065976510871D+03
 0.280065976510871D+03 0.000000000000000D+00 0.000000000000000D+00 -.280065976510871D+03
 0.109833171324820D+03 -.956852112661325D+01 -.272575495837536D+00 0.604685313639735D+02
 0.174103109014363D+03 0.101492297719574D+03 0.787520053258742D+02 0.117513095990286D+03
 0.331822774020665D+02 -.820494317809456D+01 0.321476795073661D+02 -.518790250101336D+00
 0.243013395280492D+03 -.837188334148658D+02 -.110627109337403D+03 -.177462837104158D+03
 0.000000000000000D+00 0.000000000000000D+00 0.000000000000000D+00 -.000000000000000D+00
 0.396013402009848D+03 0.000000000000000D+00 0.000000000000000D+00 0.396013402009848D+03
 0.424243088799622D+03 0.000000000000000D+00 0.000000000000000D+00 -.424243088799622D+03
 0.119525298765104D+03 -.281196020151943D+02 -.390370387975139D+02 0.604685313639735D+02
 0.142168472186726D+03 0.759114692316591D+02 0.252981341955603D+02 0.117513095990286D+03
 0.257103838309926D+02 -.129683274204552D+02 0.221940797810865D+02 -.518790250101336D+00
 0.313488133995020D+03 -.128730054845500D+03 -.204682860147345D+03 -.177462837104158D+03
 0.219364202031627D+03 0.939065150494904D+02 0.196227684968212D+03 -.282296867897747D+02
0.241854353500D-05 0.000000000000D+00 0.000000000000D+00 0.492640238320D-06 0.000000000000D+00  7 -1 1 23 -13 13 23 21 0 0.38640231D-01 0.48045672D-01 0.43963399D+05 0.43963399D+05 0.43963399D+05 0.11522431D+01  1  2  2  2  7  2        1 0.157166365237D-03 0.100000000000D+01
-.120674692583D-06 0.000000000000D+00 -.928784399155D-08 0.492640238320D-06 0.000000000000D+00  7 -1 1 23 -13 13 23 21 2 0.38640231D-01 0.48045672D-01 0.43963399D+05 0.43963399D+05 0.43963399D+05 0.11522431D+01  1  2  3  2  7  2        1 -.104114245483D-04 0.100000000000D+01
0.157345236659D-06 0.000000000000D+00 0.000000000000D+00 0.492640238320D-06 0.000000000000D+00  7 -1 1 23 -13 13 23 21 2 0.38640231D-01 0.48045672D-01 0.43963399D+05 0.43963399D+05 0.43963399D+05 0.11522431D+01  1  2 15  2  7  2        1 0.135752412079D-04 0.100000000000D+01
-.205826737030D-06 0.000000000000D+00 -.781075527624D-06 0.492640238320D-06 0.000000000000D+00  7 -1 1 23 -13 13 23 21 2 0.38640231D-01 0.97839622D-01 0.43963399D+05 0.43963399D+05 0.43963399D+05 0.11522431D+01  1  2  5  2  7  2        1 -.679902245113D-05 0.100000000000D+01
0.316672474155D-07 0.000000000000D+00 -.600720000233D-07 0.492640238320D-06 0.000000000000D+00  7 -1 21 23 -13 13 23 -1 2 0.38640231D-01 0.97839622D-01 0.43963399D+05 0.43963399D+05 0.43963399D+05 0.11522431D+01  1  2  5  4  7  2        1 0.253703900459D-05 0.100000000000D+01
  </mgrwgt>
  </event>
  <event>
  8     66 0.58687835E-06 0.27172972E+03 0.75467711E-02 0.83167043E-01
       -1 -1    0    0    0  501 0.00000000E+00 0.00000000E+00 0.12314721E+04 0.12314722E+04 0.32000000E+00 0.0000E+00 0.9000E+01
        1 -1    0    0  501    0 0.00000000E+00 0.00000000E+00 -.48620073E+03 0.48620084E+03 0.32000000E+00 0.0000E+00 0.9000E+01
       25  2    1    2    0    0 -.20579278E+03 -.27231360E+02 0.11749102E+04 0.12300834E+04 0.29933101E+03 0.0000E+00 0.0000E+00
       23  2    1    2    0    0 0.20579278E+03 0.27231360E+02 -.42963877E+03 0.48758961E+03 0.10030924E+03 0.0000E+00 0.0000E+00
       23  1    3    3    0    0 -.19934074E+03 -.58407415E+02 0.50978806E+03 0.55798501E+03 0.91188000E+02 0.0000E+00 0.9000E+01
      -13  1    4    4    0    0 0.89907653E+02 -.24387399E+02 -.11278224E+03 0.14628047E+03 0.10565837E+00 0.0000E+00 0.9000E+01
       13  1    4    4    0    0 0.11588513E+03 0.51618759E+02 -.31685653E+03 0.34130914E+03 0.10565837E+00 0.0000E+00 0.9000E+01
       23  1    3    3    0    0 -.64520423E+01 0.31176055E+02 0.66512211E+03 0.67209840E+03 0.91188000E+02 0.0000E+00 0.9000E+01
#aMCatNLO 1  0  0  2  1 0.15447962D+04 0.00000000D+00  -5  7  0 0.00000000D+00 0.00000000D+00 0.00000000D+00 0.00000000D+00 0.00000000D+00
  <mgrwgt>
 0.1810627907D-03    5    2    0
 0.773784713250424D+03 0.000000000000000D+00 0.000000000000000D+00 0.773784713250424D+03
 0.773784713250424D+03 0.000000000000000D+00 0.000000000000000D+00 -.773784713250424D+03
 0.373815433506156D+03 -.199340736185086D+03 -.584074149581829D+02 0.297110369658290D+03
 0.216671927769155D+03 0.899076235021553D+02 -.243874829668822D+02 -.195623603366098D+03
 0.531415356063640D+03 0.115885155061181D+03 0.516188427891572D+02 -.516050779057449D+03
 0.425666709161898D+03 -.645204237825037D+01 0.311760551359078D+02 0.414564012765257D+03
 0.000000000000000D+00 0.000000000000000D+00 0.000000000000000D+00 -.000000000000000D+00
 0.173793221147744D+04 0.000000000000000D+00 0.000000000000000D+00 0.173793221147744D+04
 0.201882796719606D+04 0.000000000000000D+00 0.000000000000000D+00 -.201882796719606D+04
 0.643390537645826D+03 -.325342271484496D+03 -.459906476596066D+03 0.297110369658290D+03
 0.302500105761044D+03 0.255976654754266D+02 -.229308698731021D+03 -.195623603366098D+03
 0.667062304276884D+03 -.325705456598175D+02 -.421429556126298D+03 -.516050779057449D+03
 0.573680609282816D+03 -.130241422299781D+03 -.363274058199042D+03 0.414564012765257D+03
 0.157012662170694D+04 0.462556573968668D+03 0.147391878965243D+04 -.280895755718622D+03
0.145900413212D-03 0.000000000000D+00 0.000000000000D+00 0.629921979921D-07 0.000000000000D+00  7 -1 1 23 -13 13 23 21 0 0.18945726D+00 0.74800124D-01 0.73837041D+05 0.73837041D+05 0.73837041D+05 0.11326947D+01  1  2  2  2  7  2        1 0.152611571914D-03 0.100000000000D+01
0.268717321990D-05 0.000000000000D+00 -.560296003196D-06 0.629921979921D-07 0.000000000000D+00  7 -1 1 23 -13 13 23 21 2 0.18945726D+00 0.74800124D-01 0.73837041D+05 0.73837041D+05 0.73837041D+05 0.11326947D+01  1  2  3  2  7  2        1 0.360622079006D-05 0.100000000000D+01
0.927047794825D-05 0.000000000000D+00 0.000000000000D+00 0.629921979921D-07 0.000000000000D+00  7 -1 1 23 -13 13 23 21 2 0.18945726D+00 0.74800124D-01 0.73837041D+05 0.73837041D+05 0.73837041D+05 0.11326947D+01  1  2 15  2  7  2        1 0.124410998380D-04 0.100000000000D+01
0.195336954232D-03 0.000000000000D+00 -.581346371666D-04 0.629921979921D-07 0.000000000000D+00  7 -1 1 23 -13 13 23 21 2 0.18945726D+00 0.35713246D+00 0.73837041D+05 0.73837041D+05 0.73837041D+05 0.11326947D+01  1  2  5  2  7  2        1 0.115113642897D-04 0.100000000000D+01
0.359604795840D-04 0.000000000000D+00 -.110427194898D-04 0.629921979921D-07 0.000000000000D+00  7 -1 21 23 -13 13 23 -1 2 0.18945726D+00 0.35713246D+00 0.73837041D+05 0.73837041D+05 0.73837041D+05 0.11326947D+01  1  2  5  4  7  2        1 0.892533821581D-06 0.100000000000D+01
  </mgrwgt>
  </event>
  <event>
  8     66 0.58687835E-06 0.42079938E+03 0.75467711E-02 0.93977512E-01
       -1 -1    0    0    0  501 0.00000000E+00 0.00000000E+00 0.11334896E+03 0.11334941E+03 0.32000000E+00 0.0000E+00 0.9000E+01
        1 -1    0    0  501    0 0.00000000E+00 0.00000000E+00 -.38022960E+04 0.38022960E+04 0.32000000E+00 0.0000E+00 0.9000E+01
       25  2    1    2    0    0 -.17233378E+03 -.47097249E+03 -.30124792E+04 0.30686385E+04 0.29999542E+03 0.0000E+00 0.0000E+00
       23  2    1    2    0    0 0.17233378E+03 0.47097249E+03 -.67646783E+03 0.84700692E+03 0.91093222E+02 0.0000E+00 0.0000E+00
       23  1    3    3    0    0 -.16294138E+03 -.36544801E+03 -.17043386E+04 0.17530509E+04 0.91188000E+02 0.0000E+00 0.9000E+01
      -13  1    4    4    0    0 0.15533386E+03 0.37070977E+03 -.58781473E+03 0.71209586E+03 0.10565837E+00 0.0000E+00 0.9000E+01
       13  1    4    4    0    0 0.16999920E+02 0.10026273E+03 -.88653095E+02 0.13491106E+03 0.10565837E+00 0.0000E+00 0.9000E+01
       23  1    3    3    0    0 -.93923985E+01 -.10552448E+03 -.13081407E+04 0.13155877E+04 0.91188000E+02 0.0000E+00 0.9000E+01
#aMCatNLO 1  0  0  2  1 0.53668341D+01 0.00000000D+00  -5  7  0 0.00000000D+00 0.00000000D+00 0.00000000D+00 0.00000000D+00 0.00000000D+00
  <mgrwgt>
 0.7918852112D-03   10    2    0
 0.656496157668229D+03 0.000000000000000D+00 0.000000000000000D+00 0.656496157668229D+03
 0.656496157668229D+03 0.000000000000000D+00 0.000000000000000D+00 -.656496157668229D+03
 0.439538667955880D+03 -.162941379121085D+03 -.365448011612311D+03 -.157406629667101D+03
 0.472126166669964D+03 0.155334043891549D+03 0.370710129914524D+03 0.247686195904272D+03
 0.153258126104078D+03 0.169997337365605D+02 0.100262364158678D+03 0.114658277516856D+03
 0.248069354606536D+03 -.939239850702447D+01 -.105524482460891D+03 -.204937843754026D+03
 0.000000000000000D+00 -.000000000000000D+00 -.000000000000000D+00 -.000000000000000D+00
 0.659039330268496D+03 0.000000000000000D+00 0.000000000000000D+00 0.659039330268496D+03
 0.659339156098122D+03 0.000000000000000D+00 0.000000000000000D+00 -.659339156098122D+03
 0.437930990311131D+03 -.161941372277912D+03 -.363959401324487D+03 -.157406629667101D+03
 0.473741974903583D+03 0.156412000952972D+03 0.372314776905114D+03 0.247686195904272D+03
 0.153638341719359D+03 0.173494877879715D+02 0.100783008074960D+03 0.114658277516856D+03
 0.247691976778741D+03 -.882740492656834D+01 -.104683432959916D+03 -.204937843754026D+03
 0.537520265380281D+01 -.299271153646287D+01 -.445495069567105D+01 -.299825829625934D+00
0.313869419003D-03 0.000000000000D+00 0.000000000000D+00 0.464414886023D-05 0.000000000000D+00  7 -1 1 23 -13 13 23 21 0 0.17438337D-01 0.58496865D+00 0.27762382D+06 0.27762382D+06 0.27762382D+06 0.10870513D+01  1  2  2  2  7  2        1 0.128114482556D-03 0.100000000000D+01
-.164119373136D-04 0.000000000000D+00 -.120534121269D-05 0.464414886023D-05 0.000000000000D+00  7 -1 1 23 -13 13 23 21 2 0.17438337D-01 0.58496865D+00 0.27762382D+06 0.27762382D+06 0.27762382D+06 0.10870513D+01  1  2  3  2  7  2        1 -.791606188669D-05 0.100000000000D+01
0.204180367439D-04 0.000000000000D+00 0.000000000000D+00 0.464414886023D-05 0.000000000000D+00  7 -1 1 23 -13 13 23 21 2 0.17438337D-01 0.58496865D+00 0.27762382D+06 0.27762382D+06 0.27762382D+06 0.10870513D+01  1  2 15  2  7  2        1 0.984834632137D-05 0.100000000000D+01
-.164782132625D-02 0.000000000000D+00 0.000000000000D+00 0.464414886023D-05 0.000000000000D+00  7 -1 1 23 -13 13 23 21 2 0.17438337D-01 0.58496865D+00 0.27762382D+06 0.27762382D+06 0.27762382D+06 0.10870513D+01  1  2  4  2  7  2        1 -.794802913730D-03 0.100000000000D+01
-.349868291729D-01 0.000000000000D+00 -.336297155719D-02 0.464414886023D-05 0.000000000000D+00  7 -1 1 23 -13 13 23 21 2 0.17438337D-01 0.58808095D+00 0.27762382D+06 0.27762382D+06 0.27762382D+06 0.10870513D+01  1  2  5  2  7  2        1 -.161944411398D-01 0.100000000000D+01
0.350161966979D-01 0.000000000000D+00 0.337091126083D-02 0.464414886023D-05 0.000000000000D+00  7 -1 1 23 -13 13 23 21 2 0.17438337D-01 0.58496865D+00 0.27762382D+06 0.27762382D+06 0.27762382D+06 0.10870513D+01  1  2  6  2  7  2        1 0.168895587888D-01 0.100000000000D+01
0.164785651530D-02 0.000000000000D+00 0.000000000000D+00 0.464414886023D-05 0.101557406712D-05  7 -1 1 23 -13 13 23 21 2 0.17505891D-01 0.58750190D+00 0.28049889D+06 0.28049889D+06 0.28049889D+06 0.10867181D+01  1  2 11  2  7  2        1 0.762806947014D-03 0.100000000000D+01
0.295911948192D-05 0.000000000000D+00 0.000000000000D+00 0.464414886023D-05 0.000000000000D+00  7 -1 21 23 -13 13 23 -1 2 0.17438337D-01 0.58863030D+00 0.28049889D+06 0.28049889D+06 0.28049889D+06 0.10867181D+01  1  2 12  4  7  2        1 0.128816288112D-06 0.100000000000D+01
-.344991317672D-04 0.000000000000D+00 -.331948419340D-05 0.464414886023D-05 0.000000000000D+00  7 -1 21 23 -13 13 23 -1 2 0.17438337D-01 0.58808095D+00 0.27762382D+06 0.27762382D+06 0.27762382D+06 0.10870513D+01  1  2  5  4  7  2        1 -.152035100842D-05 0.100000000000D+01
0.244991630429D-05 0.000000000000D+00 0.000000000000D+00 0.464414886023D-05 0.817769579873D-09  7 -1 21 23 -13 13 23 -1 2 0.17505891D-01 0.58750190D+00 0.28049889D+06 0.28049889D+06 0.28049889D+06 0.10867181D+01  1  2 11  4  7  2        1 0.108296643312D-06 0.100000000000D+01
  </mgrwgt>
  </event>
  <event>
  8     66 0.58687835E-06 0.22573381E+03 0.75467711E-02 0.89976370E-01
       -1 -1    0    0    0  501 0.00000000E+00 0.00000000E+00 0.22054307E+03 0.22054331E+03 0.32000000E+00 0.0000E+00 0.9000E+01
        1 -1    0    0  501    0 0.00000000E+00 0.00000000E+00 -.40713630E+03 0.40713642E+03 0.32000000E+00 0.0000E+00 0.9000E+01
       25  2    1    2    0    0 -.50092974E+02 -.11264560E+03 0.64714172E+02 0.33181198E+03 0.30118587E+03 0.0000E+00 0.0000E+00
       23  2    1    2    0    0 0.50092974E+02 0.11264560E+03 -.25130739E+03 0.29586775E+03 0.95833097E+02 0.0000E+00 0.0000E+00
       23  1    3    3    0    0 0.87427526E+02 -.97509878E+02 0.26596530E+02 0.16178497E+03 0.91188000E+02 0.0000E+00 0.9000E+01
      -11  1    4    4    0    0 0.24752368E+01 0.35090824E+02 -.17072752E+03 0.17431403E+03 0.51099893E-03 0.0000E+00 0.9000E+01
       11  1    4    4    0    0 0.47617737E+02 0.77554779E+02 -.80579871E+02 0.12155373E+03 0.51099893E-03 0.0000E+00 0.9000E+01
       23  1    3    3    0    0 -.13752050E+03 -.15135724E+02 0.38117643E+02 0.17002701E+03 0.91188000E+02 0.0000E+00 0.9000E+01
#aMCatNLO 1  0  0  1  1 0.70686435D+03 0.00000000D+00  -5  7  0 0.00000000D+00 0.00000000D+00 0.00000000D+00 0.00000000D+00 0.00000000D+00
  <mgrwgt>
 0.1638659336D-03    3    2    0
 0.299651802270429D+03 0.000000000000000D+00 0.000000000000000D+00 0.299651802270429D+03
 0.299651802270429D+03 0.000000000000000D+00 0.000000000000000D+00 -.299651802270429D+03
 0.177726072626650D+03 0.874275260316752D+02 -.975098785022637D+02 0.782275963694908D+02
 0.129411505639008D+03 0.247523682535737D+01 0.350908237158029D+02 -.124538528517724D+03
 0.102220562908104D+03 0.476177369103294D+02 0.775547790444097D+02 -.465494453260305D+02
 0.189945463367095D+03 -.137520499767362D+03 -.151357242579489D+02 0.928603774742638D+02
 0.000000000000000D+00 -.000000000000000D+00 -.000000000000000D+00 -.000000000000000D+00
 0.750399782164918D+03 0.000000000000000D+00 0.000000000000000D+00 0.750399782164918D+03
 0.898549345741308D+03 0.000000000000000D+00 0.000000000000000D+00 -.898549345741308D+03
 0.368612276713840D+03 0.339715581921787D+03 -.776757733527926D+02 0.782275963694908D+02
 0.206268404703110D+03 0.157485464615171D+03 0.472772474701077D+02 -.124538528517724D+03
 0.221228146360378D+03 0.196979842169858D+03 0.892971649081076D+02 -.465494453260305D+02
 0.130617683043295D+03 0.105091106297875D+02 -.349809501112025D+01 0.928603774742638D+02
 0.722222617085603D+03 -.704689999336603D+03 -.554005440143025D+02 -.148149563576390D+03
0.281718210211D-05 0.000000000000D+00 0.000000000000D+00 0.688913001199D-08 0.000000000000D+00  7 -1 1 23 -11 11 23 21 0 0.33929731D-01 0.62636381D-01 0.50955752D+05 0.50955752D+05 0.50955752D+05 0.11465728D+01  1  2  2  1  7  1       -1 0.160928184697D-03 0.100000000000D+01
-.141241180981D-06 0.000000000000D+00 -.108187210532D-07 0.688913001199D-08 0.000000000000D+00  7 -1 1 23 -11 11 23 21 2 0.33929731D-01 0.62636381D-01 0.50955752D+05 0.50955752D+05 0.50955752D+05 0.11465728D+01  1  2  3  1  7  1       -1 -.106067366734D-04 0.100000000000D+01
0.180360765007D-06 0.000000000000D+00 0.000000000000D+00 0.688913001199D-08 0.000000000000D+00  7 -1 1 23 -11 11 23 21 2 0.33929731D-01 0.62636381D-01 0.50955752D+05 0.50955752D+05 0.50955752D+05 0.11465728D+01  1  2 15  1  7  1       -1 0.135444855909D-04 0.100000000000D+01
  </mgrwgt>
  </event>
  <event>
  9     66 0.58687835E-06 0.66532921E+03 0.75467711E-02 0.89164592E-01
       -1 -1    0    0    0  501 0.00000000E+00 0.00000000E+00 0.55257509E+03 0.55257519E+03 0.32000000E+00 0.0000E+00 0.9000E+01
        1 -1    0    0  502    0 0.00000000E+00 0.00000000E+00 -.29203449E+04 0.29203449E+04 0.32000000E+00 0.0000E+00 0.9000E+01
       25  2    1    2    0    0 0.53557128E+03 0.38794587E+03 0.76607258E+02 0.73084317E+03 0.30153685E+03 0.0000E+00 0.0000E+00
       23  2    1    2    0    0 -.62703732E+03 -.99343802E+02 -.61750661E+03 0.89029039E+03 0.90871190E+02 0.0000E+00 0.0000E+00
       23  1    3    3    0    0 0.43385811E+03 0.18299561E+03 0.33430393E+02 0.48078384E+03 0.91188000E+02 0.0000E+00 0.9000E+01
      -11  1    4    4    0    0 -.15939647E+03 0.75675564E+01 -.12433527E+03 0.20229622E+03 0.51099893E-03 0.0000E+00 0.9000E+01
       11  1    4    4    0    0 -.46764085E+03 -.10691136E+03 -.49317134E+03 0.68799417E+03 0.51099893E-03 0.0000E+00 0.9000E+01
       23  1    3    3    0    0 0.10171317E+03 0.20495026E+03 0.43176865E+02 0.25005933E+03 0.91188000E+02 0.0000E+00 0.9000E+01
       21  1    1    2  502  501 0.91466037E+02 -.28860206E+03 -.18268705E+04 0.18517866E+04 0.75000000E+00 0.0000E+00 0.9000E+01
#aMCatNLO 2  0  0  2  1 0.30274938D+03 0.00000000D+00  -5  7  0 0.00000000D+00 0.00000000D+00 0.00000000D+00 0.00000000D+00 0.00000000D+00
  <mgrwgt>
 0.1163981476D-04    2    2    0
 0.748973416625386D+03 0.000000000000000D+00 0.000000000000000D+00 0.748973416625386D+03
 0.748973416625386D+03 0.000000000000000D+00 0.000000000000000D+00 -.748973416625386D+03
 0.523628505279508D+03 0.465457355956757D+03 0.832907682120746D+02 0.205629905202622D+03
 0.162844863623671D+03 -.149318535084000D+03 -.242312592492151D+02 -.602932066171459D+02
 0.558535151010474D+03 -.433976375730809D+03 -.213132618997219D+03 -.279643535489792D+03
 0.252938313337119D+03 0.117837554858052D+03 0.154073110034360D+03 0.134306836904316D+03
 0.000000000000000D+00 0.000000000000000D+00 -.000000000000000D+00 -.000000000000000D+00
 0.781742058708444D+03 0.000000000000000D+00 0.000000000000000D+00 0.781742058708444D+03
 0.206424817560026D+04 0.000000000000000D+00 0.000000000000000D+00 -.206424817560026D+04
 0.521842087867209D+03 0.433858112860535D+03 0.182995610103258D+03 0.205629905202622D+03
 0.170586552928110D+03 -.159396465976178D+03 0.756755641023521D+01 -.602932066171459D+02
 0.555264363518289D+03 -.467640853575294D+03 -.106911358234333D+03 -.279643535489792D+03
 0.280541893385284D+03 0.101713169485810D+03 0.204950255706374D+03 0.134306836904316D+03
 0.131775533660982D+04 0.914660372051269D+02 -.288602063985535D+03 -.128250611689182D+04
-.171852330250D-03 0.000000000000D+00 0.000000000000D+00 0.480197048033D-06 0.000000000000D+00  7 -1 1 23 -11 11 23 21 2 0.81448082D-01 0.44560366D+00 0.69551868D+06 0.69551868D+06 0.69551868D+06 0.10585251D+01  1  2 13  2  7  2        1 -.252331049298D-04 0.100000000000D+01
0.286188387861D-03 0.000000000000D+00 0.000000000000D+00 0.480197048033D-06 0.554005585123D-10  7 -1 1 23 -11 11 23 21 2 0.85011550D-01 0.44928378D+00 0.69551868D+06 0.69551868D+06 0.69551868D+06 0.10585251D+01  1  2  1  2  7  2        1 0.368729196851D-04 0.100000000000D+01
  </mgrwgt>
  </event>
  <event>
  8     66 0.58687835E-06 0.16920324E+03 0.75467711E-02 0.10123918E+00
       -1 -1    0    0    0  501 0.00000000E+00 0.00000000E+00 0.10431370E+03 0.10431419E+03 0.32000000E+00 0.0000E+00 0.9000E+01
        1 -1    0    0  501    0 0.00000000E+00 0.00000000E+00 -.50195532E+03 0.50195542E+03 0.32000000E+00 0.0000E+00 0.9000E+01
       25  2    1    2    0    0 0.59910681E+02 0.80610687E+01 -.15919074E+03 0.34257265E+03 0.29725420E+03 0.0000E+00 0.0000E+00
       23  2    1    2    0    0 -.59910681E+02 -.80610687E+01 -.23845087E+03 0.26369696E+03 0.94989467E+02 0.0000E+00 0.0000E+00
       23  1    3    3    0    0 0.97334348E+02 0.26192742E+02 0.19873486E+02 0.13736900E+03 0.91188000E+02 0.0000E+00 0.9000E+01
      -13  1    4    4    0    0 -.62963277E+02 -.37086975E+02 -.11062199E+03 0.13257848E+03 0.10565837E+00 0.0000E+00 0.9000E+01
       13  1    4    4    0    0 0.30525961E+01 0.29025906E+02 -.12782888E+03 0.13111848E+03 0.10565837E+00 0.0000E+00 0.9000E+01
       23  1    3    3    0    0 -.37423667E+02 -.18131674E+02 -.17906423E+03 0.20520365E+03 0.91188000E+02 0.0000E+00 0.9000E+01
#aMCatNLO 1  0  0  1  1 0.18701336D+03 0.00000000D+00  -5  7  0 0.00000000D+00 0.00000000D+00 0.00000000D+00 0.00000000D+00 0.00000000D+00
  <mgrwgt>
 0.1800479296D-03    5    2    0
 0.228825253496852D+03 0.000000000000000D+00 0.000000000000000D+00 0.228825253496852D+03
 0.228825253496852D+03 0.000000000000000D+00 0.000000000000000D+00 -.228825253496852D+03
 0.199246330929897D+03 0.973343624849989D+02 0.261927424233919D+02 0.145683942728795D+03
 0.795157202689766D+02 -.629633581689573D+02 -.370870360817348D+02 -.313515079805396D+02
 0.626308828268224D+02 0.305264152925075D+01 0.290259626197424D+02 -.554148207374017D+02
 0.116257572968008D+03 -.374236458452923D+02 -.181316689613995D+02 -.589176140108540D+02
 0.000000000000000D+00 -.000000000000000D+00 0.000000000000000D+00 0.000000000000000D+00
 0.408696229670084D+03 0.000000000000000D+00 0.000000000000000D+00 0.408696229670084D+03
 0.301331542742118D+03 0.000000000000000D+00 0.000000000000000D+00 -.301331542742118D+03
 0.251789527631525D+03 0.183868023927139D+03 0.717310874228644D+01 0.145683942728795D+03
 0.640224969778992D+02 -.354247772346922D+02 -.431398681558452D+02 -.313515079805396D+02
 0.663304262653165D+02 0.277945640356064D+02 0.235878210365177D+02 -.554148207374017D+02
 0.112244019223441D+03 0.641561669305871D+01 -.277673032386659D+02 -.589176140108540D+02
 0.215641302314020D+03 -.182653427421112D+03 0.401462416157070D+02 0.107364686927967D+03
0.122479783074D-05 0.000000000000D+00 0.000000000000D+00 0.779537623440D-09 0.000000000000D+00  7 -1 1 23 -13 13 23 21 0 0.16048307D-01 0.77223940D-01 0.28629737D+05 0.28629737D+05 0.28629737D+05 0.11692244D+01  1  2  2  1  7  1       -1 0.176212845315D-03 0.100000000000D+01
-.605059293861D-07 0.000000000000D+00 -.470354616673D-08 0.779537623440D-09 0.000000000000D+00  7 -1 1 23 -13 13 23 21 2 0.16048307D-01 0.77223940D-01 0.28629737D+05 0.28629737D+05 0.28629737D+05 0.11692244D+01  1  2  3  1  7  1       -1 -.119005453690D-04 0.100000000000D+01
0.776077522260D-07 0.000000000000D+00 0.000000000000D+00 0.779537623440D-09 0.000000000000D+00  7 -1 1 23 -13 13 23 21 2 0.16048307D-01 0.77223940D-01 0.28629737D+05 0.28629737D+05 0.28629737D+05 0.11692244D+01  1  2 15  1  7  1       -1 0.152641994879D-04 0.100000000000D+01
-.128051225438D-06 0.000000000000D+00 -.389363972787D-06 0.779537623440D-09 0.000000000000D+00  7 -1 1 23 -13 13 23 21 2 0.37075903D-01 0.77223940D-01 0.28629737D+05 0.28629737D+05 0.28629737D+05 0.11692244D+01  1  2  5  1  7  1       -1 -.653966691085D-05 0.100000000000D+01
0.129502943200D-07 0.000000000000D+00 -.355006354771D-07 0.779537623440D-09 0.000000000000D+00  7 21 1 23 -13 13 23 1 2 0.37075903D-01 0.77223940D-01 0.28629737D+05 0.28629737D+05 0.28629737D+05 0.11692244D+01  1  2  5  3  7  1       -1 0.701109706487D-05 0.100000000000D+01
  </mgrwgt>
  </event>
  <event>
  8     66 0.58687835E-06 0.12224581E+03 0.75467711E-02 0.10280223E+00
       -1 -1    0    0    0  501 0.00000000E+00 0.00000000E+00 0.42554566E+03 0.42554578E+03 0.32000000E+00 0.0000E+00 0.9000E+01
        1 -1    0    0  501    0 0.00000000E+00 0.00000000E+00 -.17885280E+03 0.17885308E+03 0.32000000E+00 0.0000E+00 0.9000E+01
       25  2    1    2    0    0 0.10284019E+02 0.17060614E+03 0.95696065E+02 0.35766267E+03 0.29925346E+03 0.0000E+00 0.0000E+00
       23  2    1    2    0    0 -.10284019E+02 -.17060614E+03 0.15099680E+03 0.24673618E+03 0.94162072E+02 0.0000E+00 0.0000E+00
       23  1    3    3    0    0 -.27149535E+02 0.17177170E+03 -.29231108E+02 0.19852538E+03 0.91188000E+02 0.0000E+00 0.9000E+01
      -11  1    4    4    0    0 -.77899066E+01 -.89497713E+02 0.13783842E+03 0.16452949E+03 0.51099893E-03 0.0000E+00 0.9000E+01
       11  1    4    4    0    0 -.24941124E+01 -.81108429E+02 0.13158377E+02 0.82206695E+02 0.51099893E-03 0.0000E+00 0.9000E+01
       23  1    3    3    0    0 0.37433554E+02 -.11655621E+01 0.12492717E+03 0.15913730E+03 0.91188000E+02 0.0000E+00 0.9000E+01
#aMCatNLO 1  0  0  1  2 0.47433849D+02 0.00000000D+00  -5  7  0 0.00000000D+00 0.00000000D+00 0.00000000D+00 0.00000000D+00 0.00000000D+00
  <mgrwgt>
 0.1735877980D-03    9    2    0
 0.275880685859380D+03 0.000000000000000D+00 0.000000000000000D+00 0.275880685859380D+03
 0.275880685859380D+03 0.000000000000000D+00 0.000000000000000D+00 -.275880685859380D+03
 0.230533745556803D+03 -.271495345664426D+02 0.171771704409534D+03 -.120780548241503D+03
 0.118597794579444D+03 -.778990657490528D+01 -.894977135513999D+02 0.774268267704024D+02
 0.841660131564521D+02 -.249411237965514D+01 -.811084287850593D+02 -.223409926840478D+02
 0.118463818426061D+03 0.374335535210030D+02 -.116556207307502D+01 0.656947141551489D+02
 0.000000000000000D+00 0.000000000000000D+00 0.000000000000000D+00 0.000000000000000D+00
 0.350988314272359D+03 0.000000000000000D+00 0.000000000000000D+00 0.350988314272359D+03
 0.284490269020241D+03 0.000000000000000D+00 0.000000000000000D+00 -.284490269020241D+03
 0.216939478790394D+03 -.291436728202604D+02 0.152676755319450D+03 -.120780548241503D+03
 0.126757123417497D+03 -.888331641736859D+01 -.999677023981922D+02 0.774268267704024D+02
 0.914337447301781D+02 -.327666243071957D+01 -.886017675026283D+02 -.223409926840478D+02
 0.118666169283866D+03 0.363767975993285D+02 -.112845698632261D+02 0.656947141551489D+02
 0.816820670706642D+02 0.492685406902004D+01 0.471772844445965D+02 0.664980452521178D+02
0.250641141705D-05 0.000000000000D+00 0.000000000000D+00 0.335930799760D-07 0.000000000000D+00  7 -1 1 23 -11 11 23 21 0 0.65468594D-01 0.27515846D-01 0.54271234D+05 0.54271234D+05 0.54271234D+05 0.11441772D+01  1  2  2  1  7  1       -1 0.130144151531D-03 0.100000000000D+01
-.134404290489D-06 0.000000000000D+00 -.962527979477D-08 0.335930799760D-07 0.000000000000D+00  7 -1 1 23 -11 11 23 21 2 0.65468594D-01 0.27515846D-01 0.54271234D+05 0.54271234D+05 0.54271234D+05 0.11441772D+01  1  2  3  1  7  1       -1 -.913633420399D-05 0.100000000000D+01
0.165769515175D-06 0.000000000000D+00 0.000000000000D+00 0.335930799760D-07 0.000000000000D+00  7 -1 1 23 -11 11 23 21 2 0.65468594D-01 0.27515846D-01 0.54271234D+05 0.54271234D+05 0.54271234D+05 0.11441772D+01  1  2 15  1  7  1       -1 0.112684326220D-04 0.100000000000D+01
0.645958389215D-05 0.000000000000D+00 0.000000000000D+00 0.335930799760D-07 0.000000000000D+00  7 -1 1 23 -11 11 23 21 2 0.84116779D-01 0.27515846D-01 0.66431929D+05 0.66431929D+05 0.66431929D+05 0.11365962D+01  1  2 12  1  7  1       -1 0.264634928944D-03 0.100000000000D+01
-.657447040574D-05 0.000000000000D+00 0.000000000000D+00 0.335930799760D-07 0.000000000000D+00  7 -1 1 23 -11 11 23 21 2 0.65468594D-01 0.27515846D-01 0.54271234D+05 0.54271234D+05 0.54271234D+05 0.11441772D+01  1  2  4  1  7  1       -1 -.446909534083D-03 0.100000000000D+01
-.860988407522D-05 0.000000000000D+00 -.141537201111D-05 0.335930799760D-07 0.000000000000D+00  7 -1 1 23 -11 11 23 21 2 0.84867779D-01 0.27515846D-01 0.54271234D+05 0.54271234D+05 0.54271234D+05 0.11441772D+01  1  2  5  1  7  1       -1 -.352023918828D-03 0.100000000000D+01
0.872798939907D-05 0.000000000000D+00 0.136900943301D-05 0.335930799760D-07 0.000000000000D+00  7 -1 1 23 -11 11 23 21 2 0.65468594D-01 0.27515846D-01 0.54271234D+05 0.54271234D+05 0.54271234D+05 0.11441772D+01  1  2  6  1  7  1       -1 0.593298233179D-03 0.100000000000D+01
0.219022966378D-06 0.000000000000D+00 0.000000000000D+00 0.335930799760D-07 0.000000000000D+00  7 21 1 23 -11 11 23 1 2 0.84116779D-01 0.27515846D-01 0.66431929D+05 0.66431929D+05 0.66431929D+05 0.11365962D+01  1  2 12  3  7  1       -1 0.696491797459D-04 0.100000000000D+01
-.274301503645D-06 0.000000000000D+00 -.492366069627D-07 0.335930799760D-07 0.000000000000D+00  7 21 1 23 -11 11 23 1 2 0.84867779D-01 0.27515846D-01 0.54271234D+05 0.54271234D+05 0.54271234D+05 0.11441772D+01  1  2  5  3  7  1       -1 -.873373409235D-04 0.100000000000D+01
  </mgrwgt>
  </event>
  <event>
  8     66 0.58687835E-06 0.97324312E+02 0.75467711E-02 0.98365122E-01
       -1 -1    0    0    0  501 0.00000000E+00 0.00000000E+00 0.22379806E+03 0.22379829E+03 0.32000000E+00 0.0000E+00 0.9000E+01
        1 -1    0    0  501    0 0.00000000E+00 0.00000000E+00 -.75440619E+03 0.75440625E+03 0.32000000E+00 0.0000E+00 0.9000E+01
       25  2    1    2    0    0 -.10111799E+02 0.33001773E+03 -.43362379E+03 0.62211689E+03 0.29997648E+03 0.0000E+00 0.0000E+00
       23  2    1    2    0    0 0.10111799E+02 -.33001773E+03 -.96984342E+02 0.35608765E+03 0.91534178E+02 0.0000E+00 0.0000E+00
       23  1    3    3    0    0 0.33169239E+02 0.19409531E+03 -.82215643E+02 0.23205140E+03 0.91188000E+02 0.0000E+00 0.9000E+01
      -11  1    4    4    0    0 0.24751030E+02 -.30092385E+03 -.61906510E+02 0.30822102E+03 0.51099893E-03 0.0000E+00 0.9000E+01
       11  1    4    4    0    0 -.14639232E+02 -.29093872E+02 -.35077832E+02 0.47866636E+02 0.51099893E-03 0.0000E+00 0.9000E+01
       23  1    3    3    0    0 -.43281037E+02 0.13592241E+03 -.35140814E+03 0.39006549E+03 0.91188000E+02 0.0000E+00 0.9000E+01
#aMCatNLO 1  0  0  2  1 0.73421658D+01 0.00000000D+00  -5  7  0 0.00000000D+00 0.00000000D+00 0.00000000D+00 0.00000000D+00 0.00000000D+00
  <mgrwgt>
 0.1975127356D-03    8    2    0
 0.410895101383067D+03 0.000000000000000D+00 0.000000000000000D+00 0.410895101383067D+03
 0.410895101383067D+03 0.000000000000000D+00 0.000000000000000D+00 -.410895101383067D+03
 0.223134131945186D+03 0.331692385955874D+02 0.194095311575542D+03 0.519653839619593D+02
 0.326914460928649D+03 0.247510303322871D+02 -.300923853868186D+03 0.125320730267894D+03
 0.343284420908070D+02 -.146392316744872D+02 -.290938720415680D+02 -.108481077608701D+02
 0.237413167801493D+03 -.432810372533873D+02 0.135922414334212D+03 -.166438006468984D+03
 0.000000000000000D+00 0.000000000000000D+00 -.000000000000000D+00 0.000000000000000D+00
 0.415869039744308D+03 0.000000000000000D+00 0.000000000000000D+00 0.415869039744308D+03
 0.413629955896954D+03 0.000000000000000D+00 0.000000000000000D+00 -.413629955896954D+03
 0.222948885772486D+03 0.311799749674597D+02 0.194212158100124D+03 0.519653839619593D+02
 0.326549103747277D+03 0.218369734193668D+02 -.300752686297485D+03 0.125320730267894D+03
 0.344451372681754D+02 -.149459207313694D+02 -.290758575612762D+02 -.108481077608701D+02
 0.237879874083681D+03 -.454005601300075D+02 0.136046912102333D+03 -.166438006468984D+03
 0.767599476964277D+01 0.732953247455035D+01 -.430526343696001D+00 0.223908384735337D+01
0.682453523166D-05 0.000000000000D+00 0.000000000000D+00 0.167769848891D-05 0.000000000000D+00  7 -1 1 23 -11 11 23 21 0 0.34430493D-01 0.11606251D+00 0.12989203D+06 0.12989203D+06 0.12989203D+06 0.11125188D+01  1  2  2  2  7  2        1 0.156790480499D-03 0.100000000000D+01
-.371216856686D-06 0.000000000000D+00 -.262080122310D-07 0.167769848891D-05 0.000000000000D+00  7 -1 1 23 -11 11 23 21 2 0.34430493D-01 0.11606251D+00 0.12989203D+06 0.12989203D+06 0.12989203D+06 0.11125188D+01  1  2  3  2  7  2        1 -.105557474188D-04 0.100000000000D+01
0.440024271219D-06 0.000000000000D+00 0.000000000000D+00 0.167769848891D-05 0.000000000000D+00  7 -1 1 23 -11 11 23 21 2 0.34430493D-01 0.11606251D+00 0.12989203D+06 0.12989203D+06 0.12989203D+06 0.11125188D+01  1  2 15  2  7  2        1 0.125123225992D-04 0.100000000000D+01
0.271775144409D-05 0.000000000000D+00 0.000000000000D+00 0.167769848891D-05 0.000000000000D+00  7 -1 1 23 -11 11 23 21 2 0.34430493D-01 0.11753096D+00 0.13262111D+06 0.13262111D+06 0.13262111D+06 0.11117970D+01  1  2 12  2  7  2        1 0.756591068355D-04 0.100000000000D+01
-.222476872416D-05 0.000000000000D+00 0.000000000000D+00 0.167769848891D-05 0.000000000000D+00  7 -1 1 23 -11 11 23 21 2 0.34430493D-01 0.11606251D+00 0.12989203D+06 0.12989203D+06 0.12989203D+06 0.11125188D+01  1  2  4  2  7  2        1 -.632624739269D-04 0.100000000000D+01
0.706281123085D-06 0.000000000000D+00 0.000000000000D+00 0.167769848891D-05 0.205189891538D-06  7 -1 1 23 -11 11 23 21 2 0.34847279D-01 0.11683501D+00 0.13262111D+06 0.13262111D+06 0.13262111D+06 0.11117970D+01  1  2 11  2  7  2        1 0.194414730664D-04 0.100000000000D+01
0.128428762188D-06 0.000000000000D+00 0.000000000000D+00 0.167769848891D-05 0.000000000000D+00  7 -1 21 23 -11 11 23 -1 2 0.34430493D-01 0.11753096D+00 0.13262111D+06 0.13262111D+06 0.13262111D+06 0.11117970D+01  1  2 12  4  7  2        1 0.676895692556D-05 0.100000000000D+01
0.302315038012D-08 0.000000000000D+00 0.000000000000D+00 0.167769848891D-05 0.255104691759D-09  7 -1 21 23 -11 11 23 -1 2 0.34847279D-01 0.11683501D+00 0.13262111D+06 0.13262111D+06 0.13262111D+06 0.11117970D+01  1  2 11  4  7  2        1 0.158616998317D-06 0.100000000000D+01
  </mgrwgt>
  </event>
  <event>
  8     66 0.58687835E-06 0.30534409E+03 0.75467711E-02 0.87973456E-01
       -1 -1    0    0    0  501 0.00000000E+00 0.00000000E+00 0.88040933E+03 0.88040939E+03 0.32000000E+00 0.0000E+00 0.9000E+01
        1 -1    0    0  501    0 0.00000000E+00 0.00000000E+00 -.14683457E+03 0.14683492E+03 0.32000000E+00 0.0000E+00 0.9000E+01
       25  2    1    2    0    0 0.78305366E+02 0.23492088E+03 0.63657382E+03 0.74619220E+03 0.30042808E+03 0.0000E+00 0.0000E+00
       23  2    1    2    0    0 -.78305366E+02 -.23492088E+03 0.97000946E+02 0.28105211E+03 0.90893102E+02 0.0000E+00 0.0000E+00
       23  1    3    3    0    0 0.77683744E+02 0.22769681E+03 0.58974974E+03 0.64342879E+03 0.91188000E+02 0.0000E+00 0.9000E+01
      -11  1    4    4    0    0 -.33284778E+02 -.13405771E+02 0.25313520E+02 0.43913158E+02 0.51099893E-03 0.0000E+00 0.9000E+01
       11  1    4    4    0    0 -.45020588E+02 -.22151511E+03 0.71687426E+02 0.23713895E+03 0.51099893E-03 0.0000E+00 0.9000E+01
       23  1    3    3    0    0 0.62162138E+00 0.72240677E+01 0.46824075E+02 0.10276341E+03 0.91188000E+02 0.0000E+00 0.9000E+01
#aMCatNLO 1  0  0  1  2 0.84620959D+03 0.00000000D+00  -5  7  0 0.00000000D+00 0.00000000D+00 0.00000000D+00 0.00000000D+00 0.00000000D+00
  <mgrwgt>
 0.1980645791D-03    5    2    0
 0.359547962490870D+03 0.000000000000000D+00 0.000000000000000D+00 0.359547962490870D+03
 0.359547962490870D+03 0.000000000000000D+00 0.000000000000000D+00 -.359547962490870D+03
 0.317527931597746D+03 0.776837443597460D+02 0.227696809960128D+03 0.186086363275158D+03
 0.369077079685464D+02 -.332847778997303D+02 -.134057714254120D+02 -.863642056333153D+01
 0.265627362611784D+03 -.450205878441146D+02 -.221515106227946D+03 -.139506631208286D+03
 0.990329228036628D+02 0.621621384099001D+00 0.722406769322936D+01 -.379433115035405D+02
 0.000000000000000D+00 -.000000000000000D+00 -.000000000000000D+00 0.000000000000000D+00
 0.185007589056718D+04 0.000000000000000D+00 0.000000000000000D+00 0.185007589056718D+04
 0.693496042398780D+03 0.000000000000000D+00 0.000000000000000D+00 -.693496042398780D+03
 0.689265584423042D+03 0.496931644582388D+03 0.430351717251956D+03 0.186086363275158D+03
 0.148654393667812D+02 -.117254581754211D+02 -.298448621996546D+01 -.863642056333153D+01
 0.249058369482133D+03 0.169304305017504D+03 -.117915323688459D+03 -.139506631208286D+03
 0.157292309465069D+03 0.107360305824065D+03 0.588191220468604D+02 -.379433115035405D+02
 0.143309023022893D+04 -.761870797248536D+03 -.368271029390392D+03 0.115657984816840D+04
0.143130717741D-04 0.000000000000D+00 0.000000000000D+00 0.677578471481D-06 0.000000000000D+00  7 -1 1 23 -11 11 23 21 0 0.13544762D+00 0.22589966D-01 0.93235012D+05 0.93235012D+05 0.93235012D+05 0.11242270D+01  1  2  2  1  7  1       -1 0.195416956690D-03 0.100000000000D+01
-.769354592010D-06 0.000000000000D+00 -.549659643308D-07 0.677578471481D-06 0.000000000000D+00  7 -1 1 23 -11 11 23 21 2 0.13544762D+00 0.22589966D-01 0.93235012D+05 0.93235012D+05 0.93235012D+05 0.11242270D+01  1  2  3  1  7  1       -1 -.132759002973D-04 0.100000000000D+01
0.922006502817D-06 0.000000000000D+00 0.000000000000D+00 0.677578471481D-06 0.000000000000D+00  7 -1 1 23 -11 11 23 21 2 0.13544762D+00 0.22589966D-01 0.93235012D+05 0.93235012D+05 0.93235012D+05 0.11242270D+01  1  2 15  1  7  1       -1 0.159100452925D-04 0.100000000000D+01
0.443409329534D-05 0.000000000000D+00 -.584168615735D-05 0.677578471481D-06 0.000000000000D+00  7 -1 1 23 -11 11 23 21 2 0.76334187D+00 0.22589966D-01 0.93235012D+05 0.93235012D+05 0.93235012D+05 0.11242270D+01  1  2  5  1  7  1       -1 0.126671310423D-07 0.100000000000D+01
0.637467540341D-06 0.000000000000D+00 -.123697840855D-05 0.677578471481D-06 0.000000000000D+00  7 21 1 23 -11 11 23 1 2 0.76334187D+00 0.22589966D-01 0.93235012D+05 0.93235012D+05 0.93235012D+05 0.11242270D+01  1  2  5  3  7  1       -1 0.810252843969D-09 0.100000000000D+01
  </mgrwgt>
  </event>
  <event>
  8     66 -.58687835E-06 0.27151938E+03 0.75467711E-02 0.97129341E-01
       -1 -1    0    0    0  501 0.00000000E+00 0.00000000E+00 0.55131633E+03 0.55131642E+03 0.32000000E+00 0.0000E+00 0.9000E+01
        1 -1    0    0  501    0 0.00000000E+00 0.00000000E+00 -.65523163E+03 0.65523171E+03 0.32000000E+00 0.0000E+00 0.9000E+01
       25  2    1    2    0    0 0.25178847E+03 0.28127082E+03 -.47050068E+03 0.67253377E+03 0.29735514E+03 0.0000E+00 0.0000E+00
       23  2    1    2    0    0 -.25178847E+03 -.28127082E+03 0.36658537E+03 0.53401435E+03 0.90971355E+02 0.0000E+00 0.0000E+00
       23  1    3    3    0    0 0.95678285E+02 0.17421141E+03 -.87198146E+02 0.23542030E+03 0.91188000E+02 0.0000E+00 0.9000E+01
      -13  1    4    4    0    0 -.22757572E+03 -.24762277E+03 0.35890567E+03 0.49185469E+03 0.10565837E+00 0.0000E+00 0.9000E+01
       13  1    4    4    0    0 -.24212743E+02 -.33648047E+02 0.76797040E+01 0.42159661E+02 0.10565837E+00 0.0000E+00 0.9000E+01
       23  1    3    3    0    0 0.15611018E+03 0.10705941E+03 -.38330253E+03 0.43711347E+03 0.91188000E+02 0.0000E+00 0.9000E+01
#aMCatNLO 1  0  0  1  2 0.84620959D+03 0.00000000D+00  -5  7  0 0.00000000D+00 0.00000000D+00 0.00000000D+00 0.00000000D+00 0.00000000D+00
  <mgrwgt>
 -.1148554846D-05    1    2    0
 0.601032443363182D+03 0.000000000000000D+00 0.000000000000000D+00 0.601032443363182D+03
 0.601032443363182D+03 0.000000000000000D+00 0.000000000000000D+00 -.601032443363182D+03
 0.228760278834517D+03 0.956782846235692D+02 0.174211408667424D+03 -.671719046182920D+02
 0.524716210189284D+03 -.227575999262368D+03 -.247623062242814D+03 0.402764304327768D+03
 0.429801403545263D+02 -.242124688687360D+02 -.336477582392501D+02 0.113524086276106D+02
 0.405608257348036D+03 0.156110183507535D+03 0.107059411814640D+03 -.346944808337087D+03
 0.000000000000000D+00 0.000000000000000D+00 0.000000000000000D+00 0.000000000000000D+00
 0.923664375525375D+03 0.000000000000000D+00 0.000000000000000D+00 0.923664375525375D+03
 0.706649427223194D+03 0.000000000000000D+00 0.000000000000000D+00 -.706649427223194D+03
 0.208229949699748D+03 0.386774513309512D+02 0.170400852686987D+03 -.671719046182920D+02
 0.607759209493167D+03 -.375295646957524D+03 -.257498250980198D+03 0.402764304327768D+03
 0.514981716047040D+02 -.365361826685145D+02 -.344716093763003D+02 0.113524086276106D+02
 0.376379829226624D+03 0.541079654964737D+02 0.100240473574484D+03 -.346944808337087D+03
 0.386446642724328D+03 0.319046412798613D+03 0.213285340950273D+02 0.217014948302181D+03
-.176604425015D-06 0.000000000000D+00 0.000000000000D+00 0.232314125044D-06 0.000000000000D+00  7 -1 1 23 -13 13 23 21 2 0.84817909D-01 0.10080488D+00 0.16263390D+06 0.16263390D+06 0.16263390D+06 0.11047911D+01  1  2 14  1  7  1       -1 -.114855484650D-05 0.100000000000D+01
  </mgrwgt>
  </event>
  <event>
  8     66 0.58687835E-06 0.53715762E+03 0.75467711E-02 0.88496040E-01
       -1 -1    0    0    0  501 0.00000000E+00 0.00000000E+00 0.50448684E+03 0.50448694E+03 0.32000000E+00 0.0000E+00 0.9000E+01
        1 -1    0    0  501    0 0.00000000E+00 0.00000000E+00 -.73140668E+03 0.73140675E+03 0.32000000E+00 0.0000E+00 0.9000E+01
       25  2    1    2    0    0 0.35196158E+03 0.34507446E+03 -.40533788E+03 0.70418084E+03 0.29768862E+03 0.0000E+00 0.0000E+00
       23  2    1    2    0    0 -.35196158E+03 -.34507446E+03 0.17841804E+03 0.53171285E+03 0.89063041E+02 0.0000E+00 0.0000E+00
       23  1    3    3    0    0 0.22192016E+03 0.34099398E+03 -.29415208E+03 0.51026086E+03 0.91188000E+02 0.0000E+00 0.9000E+01
      -11  1    4    4    0    0 -.22975322E+03 -.17377753E+03 0.77340261E+02 0.29827284E+03 0.51099893E-03 0.0000E+00 0.9000E+01
       11  1    4    4    0    0 -.12220836E+03 -.17129693E+03 0.10107778E+03 0.23344001E+03 0.51099893E-03 0.0000E+00 0.9000E+01
       23  1    3    3    0    0 0.13004142E+03 0.40804782E+01 -.11118581E+03 0.19391998E+03 0.91188000E+02 0.0000E+00 0.9000E+01
#aMCatNLO 1  0  0  2  2 0.58661035D+03 0.00000000D+00  -5  7  0 0.00000000D+00 0.00000000D+00 0.00000000D+00 0.00000000D+00 0.00000000D+00
  <mgrwgt>
 0.1877334500D-03    5    2    0
 0.607441478053375D+03 0.000000000000000D+00 0.000000000000000D+00 0.607441478053375D+03
 0.607441478053375D+03 0.000000000000000D+00 0.000000000000000D+00 -.607441478053375D+03
 0.464142847772418D+03 0.221920158941585D+03 0.340993978834900D+03 -.203931069844630D+03
 0.317877176437528D+03 -.229753224533875D+03 -.173777525316319D+03 0.134390203553377D+03
 0.256356868266548D+03 -.122208358091091D+03 -.171296931739499D+03 0.146428556971464D+03
 0.176506063630255D+03 0.130041423683380D+03 0.408047822091754D+01 -.768876906802116D+02
 0.000000000000000D+00 -.000000000000000D+00 -.000000000000000D+00 -.000000000000000D+00
 0.811271804434820D+03 0.000000000000000D+00 0.000000000000000D+00 0.811271804434820D+03
 0.130374957119885D+04 0.000000000000000D+00 0.000000000000000D+00 -.130374957119885D+04
 0.697564068718300D+03 0.272901665218975D+03 0.601844812634922D+03 -.203931069844630D+03
 0.249363329046206D+03 -.204859875806585D+03 -.464087744548269D+02 0.134390203553377D+03
 0.192182885476288D+03 -.102524191674851D+03 -.705813664834068D+02 0.146428556971464D+03
 0.209982858656973D+03 0.147002489454814D+03 0.908630876742897D+02 -.768876906802116D+02
 0.765928233735906D+03 -.112520087192353D+03 -.575717759370978D+03 -.492477766764034D+03
0.367011965342D-04 0.000000000000D+00 0.000000000000D+00 0.220304751901D-07 0.000000000000D+00  7 -1 1 23 -11 11 23 21 0 0.77613373D-01 0.11252412D+00 0.28853830D+06 0.28853830D+06 0.28853830D+06 0.10858057D+01  1  2  2  2  7  2        1 0.194218946662D-03 0.100000000000D+01
-.200147126024D-05 0.000000000000D+00 -.140942258338D-06 0.220304751901D-07 0.000000000000D+00  7 -1 1 23 -11 11 23 21 2 0.77613373D-01 0.11252412D+00 0.28853830D+06 0.28853830D+06 0.28853830D+06 0.10858057D+01  1  2  3  2  7  2        1 -.124871979412D-04 0.100000000000D+01
0.238131673749D-05 0.000000000000D+00 0.000000000000D+00 0.220304751901D-07 0.000000000000D+00  7 -1 1 23 -11 11 23 21 2 0.77613373D-01 0.11252412D+00 0.28853830D+06 0.28853830D+06 0.28853830D+06 0.10858057D+01  1  2 15  2  7  2        1 0.148570574319D-04 0.100000000000D+01
-.863018822544D-05 0.000000000000D+00 -.107513562700D-04 0.220304751901D-07 0.000000000000D+00  7 -1 1 23 -11 11 23 21 2 0.77613373D-01 0.27983164D+00 0.28853830D+06 0.28853830D+06 0.28853830D+06 0.10858057D+01  1  2  5  2  7  2        1 -.873756914820D-05 0.100000000000D+01
-.198480535638D-06 0.000000000000D+00 -.107727116878D-05 0.220304751901D-07 0.000000000000D+00  7 -1 21 23 -11 11 23 -1 2 0.77613373D-01 0.27983164D+00 0.28853830D+06 0.28853830D+06 0.28853830D+06 0.10858057D+01  1  2  5  4  7  2        1 -.117787044144D-06 0.100000000000D+01
  </mgrwgt>
  </event>
  <event>
  9     66 0.58687835E-06 0.24802619E+03 0.75467711E-02 0.10303505E+00
       -1 -1    0    0    0  502 0.00000000E+00 0.00000000E+00 0.47646196E+02 0.47647270E+02 0.32000000E+00 0.0000E+00 0.9000E+01
        1 -1    0    0  501    0 0.00000000E+00 0.00000000E+00 -.29033768E+04 0.29033769E+04 0.32000000E+00 0.0000E+00 0.9000E+01
       25  2    1    2    0    0 -.15477337E+03 0.34923654E+02 -.61495700E+03 0.70265236E+03 0.30062231E+03 0.0000E+00 0.0000E+00
       23  2    1    2    0    0 0.14306760E+03 -.30123937E+02 -.20660624E+04 0.20732014E+04 0.90413376E+02 0.0000E+00 0.0000E+00
       23  1    3    3    0    0 0.42558422E+02 -.37454614E+02 -.15196158E+03 0.18606891E+03 0.91188000E+02 0.0000E+00 0.9000E+01
      -13  1    4    4    0    0 0.14713327E+03 -.22470386E+02 -.20452218E+04 0.20506305E+04 0.10565837E+00 0.0000E+00 0.9000E+01
       13  1    4    4    0    0 -.40656722E+01 -.76535514E+01 -.20840545E+02 0.22570911E+02 0.10565837E+00 0.0000E+00 0.9000E+01
       23  1    3    3    0    0 -.19733179E+03 0.72378267E+02 -.46299542E+03 0.51658345E+03 0.91188000E+02 0.0000E+00 0.9000E+01
       21  1    1    2  501  502 0.11705770E+02 -.47997165E+01 -.17471128E+03 0.17517036E+03 0.75000000E+00 0.0000E+00 0.9000E+01
#aMCatNLO 2  0  0  1  2 0.12651574D+02 0.00000000D+00  -5  7  0 0.00000000D+00 0.00000000D+00 0.00000000D+00 0.00000000D+00 0.00000000D+00
  <mgrwgt>
 0.2752042479D-04    2    2    0
 0.359631487648905D+03 0.000000000000000D+00 0.000000000000000D+00 0.359631487648905D+03
 0.359631487648905D+03 0.000000000000000D+00 0.000000000000000D+00 -.359631487648905D+03
 0.152609142741135D+03 0.450340334856854D+02 -.384696883537732D+02 0.107080894701892D+03
 0.293079883990787D+03 0.151881815680134D+03 -.244173680484080D+02 -.249462471332559D+03
 0.941033794867482D+01 -.391262935300434D+01 -.771636798601561D+01 0.370181806126016D+01
 0.264163610617213D+03 -.193003219812815D+03 0.706034243881968D+02 0.138679758569406D+03
 0.000000000000000D+00 0.000000000000000D+00 -.000000000000000D+00 -.000000000000000D+00
 0.361422677322796D+03 0.000000000000000D+00 0.000000000000000D+00 0.361422677322796D+03
 0.382743413236845D+03 0.000000000000000D+00 0.000000000000000D+00 -.382743413236845D+03
 0.151643122799900D+03 0.425584218900532D+02 -.374546133950936D+02 0.107080894701892D+03
 0.290490452736967D+03 0.147133474727270D+03 -.224704059300252D+02 -.249462471332559D+03
 0.942397823238340D+01 -.406587866883348D+01 -.765353117300044D+01 0.370181806126016D+01
 0.267816681213681D+03 -.197331787676598D+03 0.723782669576952D+02 0.138679758569406D+03
 0.247918555767107D+02 0.117057697281092D+02 -.479971645957602D+01 -.213207359140495D+02
-.771854600930D-06 0.000000000000D+00 0.000000000000D+00 0.431105490463D-06 0.000000000000D+00  7 -1 1 23 -13 13 23 21 2 0.72938256D-02 0.41969455D+00 0.61516993D+05 0.61516993D+05 0.61516993D+05 0.11394600D+01  1  2  8  1  7  1       -1 -.118690099920D-04 0.100000000000D+01
0.345188933441D-05 0.000000000000D+00 0.000000000000D+00 0.431105490463D-06 0.186430637641D-07  7 -1 1 23 -13 13 23 21 2 0.73301534D-02 0.44666646D+00 0.64172845D+05 0.64172845D+05 0.64172845D+05 0.11378825D+01  1  2  1  1  7  1       -1 0.393894347794D-04 0.100000000000D+01
  </mgrwgt>
  </event>
  <event>
  8     66 0.58687835E-06 0.34780067E+03 0.75467711E-02 0.92171513E-01
       -1 -1    0    0    0  501 0.00000000E+00 0.00000000E+00 0.94617547E+02 0.94618088E+02 0.32000000E+00 0.0000E+00 0.9000E+01
        1 -1    0    0  501    0 0.00000000E+00 0.00000000E+00 -.13010640E+04 0.13010640E+04 0.32000000E+00 0.0000E+00 0.9000E+01
       25  2    1    2    0    0 0.17793390E+03 0.21417630E+03 -.70656447E+03 0.81628155E+03 0.29924950E+03 0.0000E+00 0.0000E+00
       23  2    1    2    0    0 -.17793390E+03 -.21417630E+03 -.49988197E+03 0.57940056E+03 0.91055301E+02 0.0000E+00 0.0000E+00
       23  1    3    3    0    0 0.20644421E+03 0.20892630E+03 -.59111217E+03 0.66633195E+03 0.91188000E+02 0.0000E+00 0.9000E+01
      -11  1    4    4    0    0 -.10328673E+03 -.18566941E+03 -.37913878E+03 0.43461189E+03 0.51099893E-03 0.0000E+00 0.9000E+01
       11  1    4    4    0    0 -.74647166E+02 -.28506891E+02 -.12074319E+03 0.14478867E+03 0.51099893E-03 0.0000E+00 0.9000E+01
       23  1    3    3    0    0 -.28510308E+02 0.52499948E+01 -.11545229E+03 0.14994960E+03 0.91188000E+02 0.0000E+00 0.9000E+01
#aMCatNLO 1  0  0  2  2 0.43056802D+03 0.00000000D+00  -5  7  0 0.00000000D+00 0.00000000D+00 0.00000000D+00 0.00000000D+00 0.00000000D+00
  <mgrwgt>
 0.1417751951D-03    3    2    0
 0.350861636476270D+03 0.000000000000000D+00 0.000000000000000D+00 0.350861636476270D+03
 0.350861636476270D+03 0.000000000000000D+00 0.000000000000000D+00 -.350861636476270D+03
 0.309014125159673D+03 0.206444205617963D+03 0.208926303902115D+03 -.300843432497241D+02
 0.212575828790316D+03 -.103286731271240D+03 -.185669408229492D+03 -.687058781347458D+01
 0.803860626779717D+02 -.746471658732614D+02 -.285068905021165D+02 0.877934472822075D+01
 0.997472563245797D+02 -.285103084734610D+02 0.524999482949393D+01 0.281755863349779D+02
 0.000000000000000D+00 0.000000000000000D+00 -.000000000000000D+00 0.000000000000000D+00
 0.134609860820089D+04 0.000000000000000D+00 0.000000000000000D+00 0.134609860820089D+04
 0.461242529546075D+03 0.000000000000000D+00 0.000000000000000D+00 -.461242529546075D+03
 0.489926065381875D+03 0.204996547528241D+03 0.434492400381526D+03 -.300843432497241D+02
 0.135886951571346D+03 -.103918136436395D+03 -.872873390019273D+02 -.687058781347458D+01
 0.771148853660386D+02 -.749325533456581D+02 0.159606108987238D+02 0.877934472822075D+01
 0.120360849845464D+03 -.289091384287977D+02 0.673934780339112D+02 0.281755863349779D+02
 0.984052385582239D+03 0.276328068260944D+01 -.430559150312233D+03 0.884856078654813D+03
0.390085807556D-05 0.000000000000D+00 0.000000000000D+00 0.982014456731D-07 0.000000000000D+00  7 -1 1 23 -11 11 23 21 0 0.14556590D-01 0.20016373D+00 0.12096531D+06 0.12096531D+06 0.12096531D+06 0.11150012D+01  1  2  2  2  7  2        1 0.140057771166D-03 0.100000000000D+01
-.216694106534D-06 0.000000000000D+00 -.149803221297D-07 0.982014456731D-07 0.000000000000D+00  7 -1 1 23 -11 11 23 21 2 0.14556590D-01 0.20016373D+00 0.12096531D+06 0.12096531D+06 0.12096531D+06 0.11150012D+01  1  2  3  2  7  2        1 -.967263621865D-05 0.100000000000D+01
0.255169206504D-06 0.000000000000D+00 0.000000000000D+00 0.982014456731D-07 0.000000000000D+00  7 -1 1 23 -11 11 23 21 2 0.14556590D-01 0.20016373D+00 0.12096531D+06 0.12096531D+06 0.12096531D+06 0.11150012D+01  1  2 15  2  7  2        1 0.113900601553D-04 0.100000000000D+01
  </mgrwgt>
  </event>
  <event>
  8     66 0.58687835E-06 0.26404416E+03 0.75467711E-02 0.10177319E+00
       -1 -1    0    0    0  501 0.00000000E+00 0.00000000E+00 0.58207395E+02 0.58208275E+02 0.32000000E+00 0.0000E+00 0.9000E+01
        1 -1    0    0  501    0 0.00000000E+00 0.00000000E+00 -.17543570E+04 0.17543570E+04 0.32000000E+00 0.0000E+00 0.9000E+01
       25  2    1    2    0    0 -.36097456E+02 0.21250686E+03 -.12507065E+04 0.13042380E+04 0.30051226E+03 0.0000E+00 0.0000E+00
       23  2    1    2    0    0 0.36097456E+02 -.21250686E+03 -.44544302E+03 0.50832730E+03 0.11625387E+03 0.0000E+00 0.0000E+00
       23  1    3    3    0    0 0.31529013E+02 0.12145379E+03 -.10181584E+04 0.10299062E+04 0.91188000E+02 0.0000E+00 0.9000E+01
      -13  1    4    4    0    0 0.32788264E+02 -.21831227E+03 -.44930399E+03 0.50060903E+03 0.10565837E+00 0.0000E+00 0.9000E+01
       13  1    4    4    0    0 0.33091914E+01 0.58054054E+01 0.38609634E+01 0.77182694E+01 0.10565837E+00 0.0000E+00 0.9000E+01
       23  1    3    3    0    0 -.67626469E+02 0.91053076E+02 -.23254815E+03 0.27433173E+03 0.91188000E+02 0.0000E+00 0.9000E+01
#aMCatNLO 1  0  0  2  1 0.26403525D+02 0.00000000D+00  -5  7  0 0.00000000D+00 0.00000000D+00 0.00000000D+00 0.00000000D+00 0.00000000D+00
  <mgrwgt>
 0.2236044238D-03    4    2    0
 0.319558089683575D+03 0.000000000000000D+00 0.000000000000000D+00 0.319558089683575D+03
 0.319558089683575D+03 0.000000000000000D+00 0.000000000000000D+00 -.319558089683575D+03
 0.218776198128233D+03 0.315289980242069D+02 0.121453876398431D+03 -.154281080223169D+03
 0.227345039949474D+03 0.327883055835888D+02 -.218312435420603D+03 0.543173521750694D+02
 0.321357207818770D+02 0.330917578279179D+01 0.580541911907836D+01 0.314332787768184D+02
 0.160859220507565D+03 -.676264793905875D+02 0.910531399030930D+02 0.685304492712816D+02
 0.000000000000000D+00 0.000000000000000D+00 -.000000000000000D+00 0.000000000000000D+00
 0.384476334835332D+03 0.000000000000000D+00 0.000000000000000D+00 0.384476334835332D+03
 0.322526701081113D+03 0.000000000000000D+00 0.000000000000000D+00 -.322526701081113D+03
 0.221915595587518D+03 0.255924884111637D+02 0.128349729423398D+03 -.154281080223169D+03
 0.219820084744103D+03 0.267645944566388D+02 -.211315289066280D+03 0.543173521750694D+02
 0.322557009136279D+02 0.244176617965439D+01 0.681300261941297D+01 0.314332787768184D+02
 0.165669964217873D+03 -.720251173314430D+02 0.961626002977224D+02 0.685304492712816D+02
 0.673416904533226D+02 0.172262682839861D+02 -.200100432742528D+02 0.619496337542183D+02
0.648745842040D-05 0.000000000000D+00 0.000000000000D+00 0.128707966865D-08 0.000000000000D+00  7 -1 1 23 -13 13 23 21 0 0.89550538D-02 0.26990114D+00 0.69719317D+05 0.69719317D+05 0.69719317D+05 0.11348080D+01  1  2  2  2  7  2        1 0.249826873744D-03 0.100000000000D+01
-.344457632425D-06 0.000000000000D+00 -.249135485214D-07 0.128707966865D-08 0.000000000000D+00  7 -1 1 23 -13 13 23 21 2 0.89550538D-02 0.26990114D+00 0.69719317D+05 0.69719317D+05 0.69719317D+05 0.11348080D+01  1  2  3  2  7  2        1 -.170822527934D-04 0.100000000000D+01
0.423455777362D-06 0.000000000000D+00 0.000000000000D+00 0.128707966865D-08 0.000000000000D+00  7 -1 1 23 -13 13 23 21 2 0.89550538D-02 0.26990114D+00 0.69719317D+05 0.69719317D+05 0.69719317D+05 0.11348080D+01  1  2 15  2  7  2        1 0.209999081303D-04 0.100000000000D+01
-.607764644243D-06 0.000000000000D+00 0.000000000000D+00 0.128707966865D-08 0.000000000000D+00  7 -1 1 23 -13 13 23 21 2 0.89550538D-02 0.26990114D+00 0.69719317D+05 0.69719317D+05 0.69719317D+05 0.11348080D+01  1  2  4  2  7  2        1 -.301401052395D-04 0.100000000000D+01
  </mgrwgt>
  </event>
  <event>
  8     66 0.58687835E-06 0.13064617E+03 0.75467711E-02 0.98482327E-01
       -1 -1    0    0    0  501 0.00000000E+00 0.00000000E+00 0.43362650E+02 0.43363831E+02 0.32000000E+00 0.0000E+00 0.9000E+01
        1 -1    0    0  501    0 0.00000000E+00 0.00000000E+00 -.25506224E+04 0.25506224E+04 0.32000000E+00 0.0000E+00 0.9000E+01
       25  2    1    2    0    0 -.22243692E+03 -.12684281E+03 -.15170804E+04 0.15674908E+04 0.29987829E+03 0.0000E+00 0.0000E+00
       23  2    1    2    0    0 0.22243692E+03 0.12684281E+03 -.99017931E+03 0.10264955E+04 0.87582042E+02 0.0000E+00 0.0000E+00
       23  1    3    3    0    0 -.24360430E+03 -.12938266E+03 -.12806851E+04 0.13132221E+04 0.91188000E+02 0.0000E+00 0.9000E+01
      -11  1    4    4    0    0 0.28560901E+02 0.53352996E+02 -.29078598E+03 0.29701642E+03 0.51099893E-03 0.0000E+00 0.9000E+01
       11  1    4    4    0    0 0.19387602E+03 0.73489809E+02 -.69939333E+03 0.72947906E+03 0.51099893E-03 0.0000E+00 0.9000E+01
       23  1    3    3    0    0 0.21167382E+02 0.25398549E+01 -.23639539E+03 0.25426863E+03 0.91188000E+02 0.0000E+00 0.9000E+01
#aMCatNLO 1  0  0  1  2 0.66055471D+02 0.00000000D+00  -5  7  0 0.00000000D+00 0.00000000D+00 0.00000000D+00 0.00000000D+00 0.00000000D+00
  <mgrwgt>
 0.1244778334D-03    9    2    0
 0.332570749744006D+03 0.000000000000000D+00 0.000000000000000D+00 0.332570749744006D+03
 0.332570749744006D+03 0.000000000000000D+00 0.000000000000000D+00 -.332570749744006D+03
 0.293877447946242D+03 -.243604303890497D+03 -.129382660149454D+03 -.443370437227504D+02
 0.622131149377822D+02 0.285609010048126D+02 0.533529958984365D+02 -.144292907904867D+02
 0.208523895102262D+03 0.193876020667705D+03 0.734898093586017D+02 0.222160158244316D+02
 0.100527041501726D+03 0.211673822179798D+02 0.253985489241619D+01 0.365503186888055D+02
 0.000000000000000D+00 -.000000000000000D+00 0.000000000000000D+00 0.000000000000000D+00
 0.501845324797865D+03 0.000000000000000D+00 0.000000000000000D+00 0.501845324797865D+03
 0.340713766134498D+03 0.000000000000000D+00 0.000000000000000D+00 -.340713766134498D+03
 0.272983583536450D+03 -.215758841180835D+03 -.132992986817471D+03 -.443370437227504D+02
 0.646507227218226D+02 0.347927322025141D+02 0.525450026322362D+02 -.144292907904867D+02
 0.227705331635547D+03 0.215304561335283D+03 0.707114740644288D+02 0.222160158244316D+02
 0.103073811666281D+03 0.311687046756484D+02 0.124312509622490D+01 0.365503186888055D+02
 0.174145641372263D+03 -.655071570326099D+02 0.849338502458087D+01 0.161131558663366D+03
0.596461343368D-05 0.000000000000D+00 0.000000000000D+00 0.376027288043D-07 0.000000000000D+00  7 -1 1 23 -11 11 23 21 0 0.66712693D-02 0.39240354D+00 0.10628069D+06 0.10628069D+06 0.10628069D+06 0.11195576D+01  1  2  2  1  7  1       -1 0.105145946502D-03 0.100000000000D+01
-.331207330574D-06 0.000000000000D+00 -.229056861041D-07 0.376027288043D-07 0.000000000000D+00  7 -1 1 23 -11 11 23 21 2 0.66712693D-02 0.39240354D+00 0.10628069D+06 0.10628069D+06 0.10628069D+06 0.11195576D+01  1  2  3  1  7  1       -1 -.731817951016D-05 0.100000000000D+01
0.394058360087D-06 0.000000000000D+00 0.000000000000D+00 0.376027288043D-07 0.000000000000D+00  7 -1 1 23 -11 11 23 21 2 0.66712693D-02 0.39240354D+00 0.10628069D+06 0.10628069D+06 0.10628069D+06 0.11195576D+01  1  2 15  1  7  1       -1 0.870690214374D-05 0.100000000000D+01
0.224784702367D-04 0.000000000000D+00 0.000000000000D+00 0.376027288043D-07 0.000000000000D+00  7 -1 1 23 -11 11 23 21 2 0.10115122D-01 0.39240354D+00 0.13011500D+06 0.13011500D+06 0.13011500D+06 0.11124592D+01  1  2 12  1  7  1       -1 0.258107495637D-03 0.100000000000D+01
-.215312275322D-04 0.000000000000D+00 0.000000000000D+00 0.376027288043D-07 0.000000000000D+00  7 -1 1 23 -11 11 23 21 2 0.66712693D-02 0.39240354D+00 0.10628069D+06 0.10628069D+06 0.10628069D+06 0.11195576D+01  1  2  4  1  7  1       -1 -.475742453773D-03 0.100000000000D+01
-.246511839845D-04 0.000000000000D+00 -.245035109030D-05 0.376027288043D-07 0.000000000000D+00  7 -1 1 23 -11 11 23 21 2 0.10334604D-01 0.39240354D+00 0.10628069D+06 0.10628069D+06 0.10628069D+06 0.11195576D+01  1  2  5  1  7  1       -1 -.279667588166D-03 0.100000000000D+01
0.236402326585D-04 0.000000000000D+00 0.223302378065D-05 0.376027288043D-07 0.000000000000D+00  7 -1 1 23 -11 11 23 21 2 0.66712693D-02 0.39240354D+00 0.10628069D+06 0.10628069D+06 0.10628069D+06 0.11195576D+01  1  2  6  1  7  1       -1 0.522341899731D-03 0.100000000000D+01
0.110178943418D-05 0.000000000000D+00 0.000000000000D+00 0.376027288043D-07 0.000000000000D+00  7 21 1 23 -11 11 23 1 2 0.10115122D-01 0.39240354D+00 0.13011500D+06 0.13011500D+06 0.13011500D+06 0.11124592D+01  1  2 12  3  7  1       -1 0.176005648557D-03 0.100000000000D+01
-.116030199692D-05 0.000000000000D+00 -.124694572688D-06 0.376027288043D-07 0.000000000000D+00  7 21 1 23 -11 11 23 1 2 0.10334604D-01 0.39240354D+00 0.10628069D+06 0.10628069D+06 0.10628069D+06 0.11195576D+01  1  2  5  3  7  1       -1 -.183101837767D-03 0.100000000000D+01
  </mgrwgt>
  </event>
  <event>
  9     66 0.58687835E-06 0.25249147E+03 0.75467711E-02 0.10187294E+00
       -1 -1    0    0    0  502 0.00000000E+00 0.00000000E+00 0.16795517E+03 0.16795548E+03 0.32000000E+00 0.0000E+00 0.9000E+01
        1 -1    0    0  501    0 0.00000000E+00 0.00000000E+00 -.14472717E+04 0.14472717E+04 0.32000000E+00 0.0000E+00 0.9000E+01
       25  2    1    2    0    0 0.23379975E+03 0.41625320E+02 -.13001935E+04 0.13553630E+04 0.30018454E+03 0.0000E+00 0.0000E+00
       23  2    1    2    0    0 -.18739252E+03 -.33740763E+02 0.38218833E+00 0.20851841E+03 0.85002272E+02 0.0000E+00 0.0000E+00
       23  1    3    3    0    0 0.11990226E+03 0.36715993E+02 -.24377314E+03 0.28890346E+03 0.91188000E+02 0.0000E+00 0.9000E+01
      -11  1    4    4    0    0 -.11586941E+03 0.16825134E+02 0.19936124E+02 0.11876976E+03 0.51099893E-03 0.0000E+00 0.9000E+01
       11  1    4    4    0    0 -.71523110E+02 -.50565896E+02 -.19553936E+02 0.89748658E+02 0.51099893E-03 0.0000E+00 0.9000E+01
       23  1    3    3    0    0 0.11389750E+03 0.49093267E+01 -.10564203E+04 0.10664595E+04 0.91188000E+02 0.0000E+00 0.9000E+01
       21  1    1    2  501  502 -.46407231E+02 -.78845568E+01 0.20494743E+02 0.51345830E+02 0.75000000E+00 0.0000E+00 0.9000E+01
#aMCatNLO 2  0  0  1  2 0.47072256D+02 0.00000000D+00  -5  7  0 0.00000000D+00 0.00000000D+00 0.00000000D+00 0.00000000D+00 0.00000000D+00
  <mgrwgt>
 0.3913865192D-04    2    2    0
 0.434165824527865D+03 0.000000000000000D+00 0.000000000000000D+00 0.434165824527865D+03
 0.434165824527865D+03 0.000000000000000D+00 0.000000000000000D+00 -.434165824527865D+03
 0.148673437506909D+03 0.111788434417016D+03 0.353374600118910D+02 -.656882992786755D+01
 0.249788812300631D+03 -.129038547099193D+03 0.145877068488933D+02 0.213379246699345D+03
 0.136650216485000D+03 -.787013920189633D+02 -.517854817286650D+02 0.989830108746185D+02
 0.333219182763191D+03 0.959515047011400D+02 0.186031486788072D+01 -.305793427646096D+03
 0.000000000000000D+00 -.000000000000000D+00 -.000000000000000D+00 0.000000000000000D+00
 0.553090608612979D+03 0.000000000000000D+00 0.000000000000000D+00 0.553090608612979D+03
 0.439486386735231D+03 0.000000000000000D+00 0.000000000000000D+00 -.439486386735231D+03
 0.155187036543335D+03 0.119902257278564D+03 0.367159929728993D+02 -.656882992786755D+01
 0.243391678284428D+03 -.115869413628030D+03 0.168251336288085D+02 0.213379246699345D+03
 0.132174511804198D+03 -.715231098387620D+02 -.505658964902786D+02 0.989830108746185D+02
 0.338853379862211D+03 0.113897496986888D+03 0.490932669695871D+01 -.305793427646096D+03
 0.122970388854038D+03 -.464072307986607D+02 -.788455680838793D+01 0.113604221877748D+03
-.145248723337D-03 0.000000000000D+00 0.000000000000D+00 0.529075846112D-07 0.000000000000D+00  7 -1 1 23 -11 11 23 21 2 0.25939945D-01 0.21996109D+00 0.76392455D+05 0.76392455D+05 0.76392455D+05 0.11314473D+01  1  2 13  1  7  1       -1 -.219440345946D-02 0.100000000000D+01
0.150891391367D-03 0.000000000000D+00 0.000000000000D+00 0.529075846112D-07 0.169299869015D-09  7 -1 1 23 -11 11 23 21 2 0.25839217D-01 0.22265664D+00 0.76392455D+05 0.76392455D+05 0.76392455D+05 0.11314473D+01  1  2  1  1  7  1       -1 0.223354211138D-02 0.100000000000D+01
  </mgrwgt>
  </event>
  <event>
  8     66 0.58687835E-06 0.18998265E+03 0.75467711E-02 0.10181341E+00
       -1 -1    0    0    0  501 0.00000000E+00 0.00000000E+00 0.32496196E+03 0.32496212E+03 0.32000000E+00 0.0000E+00 0.9000E+01
        1 -1    0    0  501    0 0.00000000E+00 0.00000000E+00 -.28732587E+03 0.28732605E+03 0.32000000E+00 0.0000E+00 0.9000E+01
       25  2    1    2    0    0 0.11326845E+03 -.18892351E+03 0.74376934E+01 0.37201631E+03 0.29969814E+03 0.0000E+00 0.0000E+00
       23  2    1    2    0    0 -.11326845E+03 0.18892351E+03 0.30198396E+02 0.24027186E+03 0.91086695E+02 0.0000E+00 0.0000E+00
       23  1    3    3    0    0 0.77165749E+02 -.63031732E+02 0.11679226E+03 0.17855877E+03 0.91188000E+02 0.0000E+00 0.9000E+01
      -11  1    4    4    0    0 -.21430987E+02 0.15897350E+02 0.35381055E+02 0.44315144E+02 0.51099893E-03 0.0000E+00 0.9000E+01
       11  1    4    4    0    0 -.91837467E+02 0.17302616E+03 -.51826590E+01 0.19595671E+03 0.51099893E-03 0.0000E+00 0.9000E+01
       23  1    3    3    0    0 0.36102705E+02 -.12589178E+03 -.10935456E+03 0.19345754E+03 0.91188000E+02 0.0000E+00 0.9000E+01
#aMCatNLO 1  0  0  2  1 0.39100563D+02 0.00000000D+00  -5  7  0 0.00000000D+00 0.00000000D+00 0.00000000D+00 0.00000000D+00 0.00000000D+00
  <mgrwgt>
 0.2448676631D-03    9    2    0
 0.305565181201511D+03 0.000000000000000D+00 0.000000000000000D+00 0.305565181201511D+03
 0.305565181201511D+03 0.000000000000000D+00 0.000000000000000D+00 -.305565181201511D+03
 0.171704475122793D+03 0.771657489614914D+02 -.630317315476236D+02 0.106017090313374D+03
 0.422201797066968D+02 -.214309870376090D+02 0.158973496340069D+02 0.327189645874338D+02
 0.196647128570682D+03 -.918374665982814D+02 0.173026163199762D+03 -.172603520321381D+02
 0.200558579002851D+03 0.361027046743990D+02 -.125891781286145D+03 -.121475702868670D+03
 0.000000000000000D+00 0.000000000000000D+00 -.000000000000000D+00 -.000000000000000D+00
 0.322651827234789D+03 0.000000000000000D+00 0.000000000000000D+00 0.322651827234789D+03
 0.329408080935132D+03 0.000000000000000D+00 0.000000000000000D+00 -.329408080935132D+03
 0.165721762444174D+03 0.680951572396371D+02 -.572003262717823D+02 0.106017090313374D+03
 0.440099252943467D+02 -.237489990636947D+02 0.173875795961616D+02 0.327189645874338D+02
 0.207978346503600D+03 -.102714488228621D+03 0.180018906701576D+03 -.172603520321381D+02
 0.194669891837646D+03 0.254782905159254D+02 -.119061436951809D+03 -.121475702868670D+03
 0.396799820901542D+02 0.328900395367536D+02 -.211447230741467D+02 -.675625370034281D+01
0.297251805218D-05 0.000000000000D+00 0.000000000000D+00 0.527531713015D-06 0.000000000000D+00  7 -1 1 23 -11 11 23 21 0 0.49994173D-01 0.44204006D-01 0.66879840D+05 0.66879840D+05 0.66879840D+05 0.11363469D+01  1  2  2  2  7  2        1 0.136972569221D-03 0.100000000000D+01
-.159551116865D-06 0.000000000000D+00 -.114152520024D-07 0.527531713015D-06 0.000000000000D+00  7 -1 1 23 -11 11 23 21 2 0.49994173D-01 0.44204006D-01 0.66879840D+05 0.66879840D+05 0.66879840D+05 0.11363469D+01  1  2  3  2  7  2        1 -.949359764557D-05 0.100000000000D+01
0.191525704949D-06 0.000000000000D+00 0.000000000000D+00 0.527531713015D-06 0.000000000000D+00  7 -1 1 23 -11 11 23 21 2 0.49994173D-01 0.44204006D-01 0.66879840D+05 0.66879840D+05 0.66879840D+05 0.11363469D+01  1  2 15  2  7  2        1 0.113961469985D-04 0.100000000000D+01
0.486472561858D-05 0.000000000000D+00 0.000000000000D+00 0.527531713015D-06 0.000000000000D+00  7 -1 1 23 -11 11 23 21 2 0.49994173D-01 0.48806685D-01 0.77086015D+05 0.77086015D+05 0.77086015D+05 0.11311167D+01  1  2 12  2  7  2        1 0.251638931483D-03 0.100000000000D+01
-.423455818086D-05 0.000000000000D+00 0.000000000000D+00 0.527531713015D-06 0.000000000000D+00  7 -1 1 23 -11 11 23 21 2 0.49994173D-01 0.44204006D-01 0.66879840D+05 0.66879840D+05 0.66879840D+05 0.11363469D+01  1  2  4  2  7  2        1 -.251964338237D-03 0.100000000000D+01
-.145550035939D-04 0.000000000000D+00 -.335900351496D-05 0.527531713015D-06 0.000000000000D+00  7 -1 1 23 -11 11 23 21 2 0.49994173D-01 0.50029867D-01 0.66879840D+05 0.66879840D+05 0.66879840D+05 0.11363469D+01  1  2  5  2  7  2        1 -.736800720821D-03 0.100000000000D+01
0.148822431492D-04 0.000000000000D+00 0.333342414327D-05 0.527531713015D-06 0.000000000000D+00  7 -1 1 23 -11 11 23 21 2 0.49994173D-01 0.44204006D-01 0.66879840D+05 0.66879840D+05 0.66879840D+05 0.11363469D+01  1  2  6  2  7  2        1 0.885522027664D-03 0.100000000000D+01
0.783663204533D-07 0.000000000000D+00 0.000000000000D+00 0.527531713015D-06 0.000000000000D+00  7 -1 21 23 -11 11 23 -1 2 0.49994173D-01 0.48806685D-01 0.77086015D+05 0.77086015D+05 0.77086015D+05 0.11311167D+01  1  2 12  4  7  2        1 0.185752000475D-04 0.100000000000D+01
-.267036309312D-06 0.000000000000D+00 -.654235026897D-07 0.527531713015D-06 0.000000000000D+00  7 -1 21 23 -11 11 23 -1 2 0.49994173D-01 0.50029867D-01 0.66879840D+05 0.66879840D+05 0.66879840D+05 0.11363469D+01  1  2  5  4  7  2        1 -.609785556223D-04 0.100000000000D+01
  </mgrwgt>
  </event>
  <event>
  8     66 0.58687835E-06 0.20591584E+03 0.75467711E-02 0.10031635E+00
       -1 -1    0    0    0  501 0.00000000E+00 0.00000000E+00 0.12093883E+04 0.12093883E+04 0.32000000E+00 0.0000E+00 0.9000E+01
        1 -1    0    0  501    0 0.00000000E+00 0.00000000E+00 -.99259091E+02 0.99259607E+02 0.32000000E+00 0.0000E+00 0.9000E+01
       25  2    1    2    0    0 0.64535659E+02 0.35433042E+01 0.15069988E+03 0.34268144E+03 0.30090315E+03 0.0000E+00 0.0000E+00
       23  2    1    2    0    0 -.64535659E+02 -.35433042E+01 0.95942932E+03 0.96596651E+03 0.91701992E+02 0.0000E+00 0.0000E+00
       23  1    3    3    0    0 0.14490654E+03 -.34497665E+02 0.54137946E+02 0.18285011E+03 0.91188000E+02 0.0000E+00 0.9000E+01
      -13  1    4    4    0    0 -.20903171E+02 0.41894362E+02 0.50984298E+03 0.51198824E+03 0.10565837E+00 0.0000E+00 0.9000E+01
       13  1    4    4    0    0 -.43632488E+02 -.45437666E+02 0.44958634E+03 0.45397826E+03 0.10565837E+00 0.0000E+00 0.9000E+01
       23  1    3    3    0    0 -.80370884E+02 0.38040970E+02 0.96561932E+02 0.15983133E+03 0.91188000E+02 0.0000E+00 0.9000E+01
#aMCatNLO 1  0  0  2  1 0.17530984D+03 0.00000000D+00  -5  7  0 0.00000000D+00 0.00000000D+00 0.00000000D+00 0.00000000D+00 0.00000000D+00
  <mgrwgt>
 0.2167706174D-03    3    2    0
 0.346472435408612D+03 0.000000000000000D+00 0.000000000000000D+00 0.346472435408612D+03
 0.346472435408612D+03 0.000000000000000D+00 0.000000000000000D+00 -.346472435408612D+03
 0.258586674105191D+03 0.144906543396346D+03 -.344976654518549D+02 -.190693003123029D+03
 0.150114086266728D+03 -.209031410672060D+02 0.418944772716730D+02 0.142625910560993D+03
 0.137094288654675D+03 -.436325179770591D+02 -.454377814582814D+02 0.121763932972217D+03
 0.147149821790629D+03 -.803708843520805D+02 0.380409696384632D+02 -.736968404101814D+02
 0.000000000000000D+00 0.000000000000000D+00 -.000000000000000D+00 0.000000000000000D+00
 0.962015112398934D+03 0.000000000000000D+00 0.000000000000000D+00 0.962015112398934D+03
 0.370096144577115D+03 0.000000000000000D+00 0.000000000000000D+00 -.370096144577115D+03
 0.252589880064694D+03 0.135328941808383D+03 0.284368112846811D+02 -.190693003123029D+03
 0.166117603938598D+03 -.268281802998704D+02 0.808279451473697D+02 0.142625910560993D+03
 0.131709838016255D+03 -.486689360393768D+02 -.123434485538143D+02 0.121763932972217D+03
 0.164359660951778D+03 -.862074464796692D+02 0.763930539328984D+02 -.736968404101814D+02
 0.617334274004724D+03 0.263756210105338D+02 -.173314361811135D+03 0.591918967821819D+03
0.231406153309D-04 0.000000000000D+00 0.000000000000D+00 0.211152368234D-06 0.000000000000D+00  7 -1 1 23 -13 13 23 21 0 0.18605978D+00 0.15270672D-01 0.42401335D+05 0.42401335D+05 0.42401335D+05 0.11536462D+01  1  2  2  2  7  2        1 0.209711536329D-03 0.100000000000D+01
-.862384394000D-06 0.000000000000D+00 -.888660559344D-07 0.211152368234D-06 0.000000000000D+00  7 -1 1 23 -13 13 23 21 2 0.18605978D+00 0.15270672D-01 0.42401335D+05 0.42401335D+05 0.42401335D+05 0.11536462D+01  1  2  3  2  7  2        1 -.104014428281D-04 0.100000000000D+01
0.144765333010D-05 0.000000000000D+00 0.000000000000D+00 0.211152368234D-06 0.000000000000D+00  7 -1 1 23 -13 13 23 21 2 0.18605978D+00 0.15270672D-01 0.42401335D+05 0.42401335D+05 0.42401335D+05 0.11536462D+01  1  2 15  2  7  2        1 0.174605239297D-04 0.100000000000D+01
  </mgrwgt>
  </event>
  <event>
  8     66 0.58687835E-06 0.32967886E+03 0.75467711E-02 0.88472888E-01
       -3 -1    0    0    0  501 0.00000000E+00 0.00000000E+00 0.16126166E+03 0.16126244E+03 0.50000000E+00 0.0000E+00 0.9000E+01
        3 -1    0    0  501    0 0.00000000E+00 0.00000000E+00 -.11374150E+04 0.11374151E+04 0.50000000E+00 0.0000E+00 0.9000E+01
       25  2    1    2    0    0 -.96780767E+02 -.24897927E+03 -.92928606E+03 0.10123205E+04 0.29977168E+03 0.0000E+00 0.0000E+00
       23  2    1    2    0    0 0.96780767E+02 0.24897927E+03 -.46867249E+02 0.28635700E+03 0.91905374E+02 0.0000E+00 0.0000E+00
       23  1    3    3    0    0 -.32806858E+02 0.20799444E+02 -.34848467E+03 0.36230612E+03 0.91188000E+02 0.0000E+00 0.9000E+01
      -13  1    4    4    0    0 0.33951866E+02 0.56718491E+02 0.26468782E+02 0.71206208E+02 0.10565837E+00 0.0000E+00 0.9000E+01
       13  1    4    4    0    0 0.62828901E+02 0.19226078E+03 -.73336032E+02 0.21515079E+03 0.10565837E+00 0.0000E+00 0.9000E+01
       23  1    3    3    0    0 -.63973909E+02 -.26977872E+03 -.58080139E+03 0.65001441E+03 0.91188000E+02 0.0000E+00 0.9000E+01
#aMCatNLO 1  0  0  2  2 0.80540626D+03 0.00000000D+00  -5  7  0 0.00000000D+00 0.00000000D+00 0.00000000D+00 0.00000000D+00 0.00000000D+00
  <mgrwgt>
 0.1108989835D-04    5    2    0
 0.428277953124806D+03 0.000000000000000D+00 0.000000000000000D+00 0.428277953124806D+03
 0.428277953124806D+03 0.000000000000000D+00 0.000000000000000D+00 -.428277953124806D+03
 0.152172608753637D+03 -.328068579398006D+02 0.207994439419698D+02 -.115465772914358D+03
 0.138124518989767D+03 0.339518279063880D+02 0.567183115987946D+02 0.121279385129343D+03
 0.242627953988490D+03 0.628289386852488D+02 0.192260961009092D+03 0.134002132043435D+03
 0.323630824517717D+03 -.639739086518363D+02 -.269778716549857D+03 -.139815744258420D+03
 0.000000000000000D+00 0.000000000000000D+00 0.000000000000000D+00 -.000000000000000D+00
 0.810703980094021D+03 0.000000000000000D+00 0.000000000000000D+00 0.810703980094021D+03
 0.131563315956978D+04 0.000000000000000D+00 0.000000000000000D+00 -.131563315956978D+04
 0.220177708620286D+03 -.146499975953064D+03 -.732692593133098D+02 -.115465772914358D+03
 0.131000649900159D+03 -.482226141693921D+02 -.112721115848929D+02 0.121279385129343D+03
 0.172279952458953D+03 -.638586760992817D+02 0.874407234297618D+02 0.134002132043435D+03
 0.652282845606249D+03 -.361958529292666D+03 -.516328616346159D+03 -.139815744258420D+03
 0.950595983078155D+03 0.620539795514404D+03 0.513429263814600D+03 -.504929179475759D+03
0.864839093619D-05 0.000000000000D+00 0.000000000000D+00 0.101414612353D-05 0.000000000000D+00  7 -3 3 23 -13 13 23 21 0 0.24809555D-01 0.17498699D+00 0.10868815D+06 0.10868815D+06 0.10868815D+06 0.11187649D+01  1  2  2  2  7  2        3 0.108817786824D-04 0.100000000000D+01
-.440471965622D-06 0.000000000000D+00 -.332120983686D-07 0.101414612353D-05 0.000000000000D+00  7 -3 3 23 -13 13 23 21 2 0.24809555D-01 0.17498699D+00 0.10868815D+06 0.10868815D+06 0.10868815D+06 0.11187649D+01  1  2  3  2  7  2        3 -.693682158575D-06 0.100000000000D+01
0.560417309461D-06 0.000000000000D+00 0.000000000000D+00 0.101414612353D-05 0.000000000000D+00  7 -3 3 23 -13 13 23 21 2 0.24809555D-01 0.17498699D+00 0.10868815D+06 0.10868815D+06 0.10868815D+06 0.11187649D+01  1  2 15  2  7  2        3 0.882579413155D-06 0.100000000000D+01
0.220950934828D-05 0.000000000000D+00 -.262647421689D-05 0.101414612353D-05 0.000000000000D+00  7 -3 3 23 -13 13 23 21 2 0.24809555D-01 0.63474387D+00 0.10868815D+06 0.10868815D+06 0.10868815D+06 0.11187649D+01  1  2  5  2  7  2        3 0.158183407537D-07 0.100000000000D+01
0.405621961172D-06 0.000000000000D+00 -.398230444115D-06 0.101414612353D-05 0.000000000000D+00  7 -3 21 23 -13 13 23 -3 2 0.24809555D-01 0.63474387D+00 0.10868815D+06 0.10868815D+06 0.10868815D+06 0.11187649D+01  1  2  5  4  7  2        3 0.340407658844D-08 0.100000000000D+01
  </mgrwgt>
  </event>
  <event>
  8     66 0.58687835E-06 0.88718361E+02 0.75467711E-02 0.11129371E+00
       -1 -1    0    0    0  501 0.00000000E+00 0.00000000E+00 0.19695956E+03 0.19695982E+03 0.32000000E+00 0.0000E+00 0.9000E+01
        1 -1    0    0  501    0 0.00000000E+00 0.00000000E+00 -.40722787E+03 0.40722800E+03 0.32000000E+00 0.0000E+00 0.9000E+01
       25  2    1    2    0    0 -.25754566E+02 -.19303829E+01 0.67915673E+02 0.30914685E+03 0.30048663E+03 0.0000E+00 0.0000E+00
       23  2    1    2    0    0 0.25754566E+02 0.19303829E+01 -.27818399E+03 0.29504097E+03 0.94846293E+02 0.0000E+00 0.0000E+00
       23  1    3    3    0    0 0.33453434E+02 -.31785325E+02 -.75250232E+02 0.12691449E+03 0.91188000E+02 0.0000E+00 0.9000E+01
      -13  1    4    4    0    0 0.99658019E+01 -.20605560E+02 -.92253684E+01 0.24678429E+02 0.10565837E+00 0.0000E+00 0.9000E+01
       13  1    4    4    0    0 0.15788764E+02 0.22535942E+02 -.26895862E+03 0.27036254E+03 0.10565837E+00 0.0000E+00 0.9000E+01
       23  1    3    3    0    0 -.59208000E+02 0.29854942E+02 0.14316591E+03 0.18223236E+03 0.91188000E+02 0.0000E+00 0.9000E+01
#aMCatNLO 1  0  0  2  1 0.26782025D+02 0.00000000D+00  -5  7  0 0.00000000D+00 0.00000000D+00 0.00000000D+00 0.00000000D+00 0.00000000D+00
  <mgrwgt>
 0.1623851757D-03    9    2    0
 0.283209356171777D+03 0.000000000000000D+00 0.000000000000000D+00 0.283209356171777D+03
 0.283209356171777D+03 0.000000000000000D+00 0.000000000000000D+00 -.283209356171777D+03
 0.107442510825409D+03 0.334534331924894D+02 -.317853249390276D+02 -.331542261955277D+02
 0.228990997151919D+02 0.996578966440390D+01 -.206055977193515D+02 -.679077874339107D+00
 0.188546732336636D+03 0.157887794802784D+02 0.225359808140624D+02 -.186528052276579D+03
 0.247530369466317D+03 -.592080023371717D+02 0.298549418443168D+02 0.220361356346446D+03
 0.000000000000000D+00 0.000000000000000D+00 0.000000000000000D+00 -.000000000000000D+00
 0.289339239561946D+03 0.000000000000000D+00 0.000000000000000D+00 0.289339239561946D+03
 0.314371201564107D+03 0.000000000000000D+00 0.000000000000000D+00 -.314371201564107D+03
 0.107132805780566D+03 0.293056543714982D+02 -.347010466362397D+02 -.331542261955277D+02
 0.230994913208629D+02 0.907662876410736D+01 -.212306420722922D+02 -.679077874339107D+00
 0.187533844810586D+03 0.851907540829588D+01 0.174256712219214D+02 -.186528052276579D+03
 0.249285385322470D+03 -.688115387468685D+02 0.231040419800305D+02 0.220361356346446D+03
 0.366589138915680D+02 0.219101802029670D+02 0.154019755065800D+02 -.250319620021608D+02
0.178239956304D-05 0.000000000000D+00 0.000000000000D+00 0.638057235027D-07 0.000000000000D+00  7 -1 1 23 -13 13 23 21 0 0.30301500D-01 0.62650472D-01 0.17603049D+05 0.17603049D+05 0.17603049D+05 0.11894476D+01  1  2  2  2  7  2        1 0.123209426722D-03 0.100000000000D+01
-.297968885283D-07 0.000000000000D+00 -.684488363866D-08 0.638057235027D-07 0.000000000000D+00  7 -1 1 23 -13 13 23 21 2 0.30301500D-01 0.62650472D-01 0.17603049D+05 0.17603049D+05 0.17603049D+05 0.11894476D+01  1  2  3  2  7  2        1 -.291407293925D-05 0.100000000000D+01
0.112717826534D-06 0.000000000000D+00 0.000000000000D+00 0.638057235027D-07 0.000000000000D+00  7 -1 1 23 -13 13 23 21 2 0.30301500D-01 0.62650472D-01 0.17603049D+05 0.17603049D+05 0.17603049D+05 0.11894476D+01  1  2 15  2  7  2        1 0.110235660264D-04 0.100000000000D+01
0.637098574252D-05 0.000000000000D+00 0.000000000000D+00 0.638057235027D-07 0.000000000000D+00  7 -1 1 23 -13 13 23 21 2 0.30301500D-01 0.70172947D-01 0.20691746D+05 0.20691746D+05 0.20691746D+05 0.11826065D+01  1  2 12  2  7  2        1 0.530271803088D-03 0.100000000000D+01
-.656354846622D-05 0.000000000000D+00 0.000000000000D+00 0.638057235027D-07 0.000000000000D+00  7 -1 1 23 -13 13 23 21 2 0.30301500D-01 0.62650472D-01 0.17603049D+05 0.17603049D+05 0.17603049D+05 0.11894476D+01  1  2  4  2  7  2        1 -.641901215715D-03 0.100000000000D+01
-.101282371744D-04 0.000000000000D+00 -.203810539678D-05 0.638057235027D-07 0.000000000000D+00  7 -1 1 23 -13 13 23 21 2 0.30301500D-01 0.70616070D-01 0.17603049D+05 0.17603049D+05 0.17603049D+05 0.11894476D+01  1  2  5  2  7  2        1 -.846239687568D-03 0.100000000000D+01
0.103127296534D-04 0.000000000000D+00 0.202359422962D-05 0.638057235027D-07 0.000000000000D+00  7 -1 1 23 -13 13 23 21 2 0.30301500D-01 0.62650472D-01 0.17603049D+05 0.17603049D+05 0.17603049D+05 0.11894476D+01  1  2  6  2  7  2        1 0.100856323922D-02 0.100000000000D+01
0.115234898019D-06 0.000000000000D+00 0.000000000000D+00 0.638057235027D-07 0.000000000000D+00  7 -1 21 23 -13 13 23 -1 2 0.30301500D-01 0.70172947D-01 0.20691746D+05 0.20691746D+05 0.20691746D+05 0.11826065D+01  1  2 12  4  7  2        1 0.334112153715D-04 0.100000000000D+01
-.182367529193D-06 0.000000000000D+00 -.385855584515D-07 0.638057235027D-07 0.000000000000D+00  7 -1 21 23 -13 13 23 -1 2 0.30301500D-01 0.70616070D-01 0.17603049D+05 0.17603049D+05 0.17603049D+05 0.11894476D+01  1  2  5  4  7  2        1 -.530390984775D-04 0.100000000000D+01
  </mgrwgt>
  </event>
  <event>
  8     66 0.58687835E-06 0.18019574E+03 0.75467711E-02 0.10025841E+00
       -1 -1    0    0    0  501 0.00000000E+00 0.00000000E+00 0.46380931E+02 0.46382035E+02 0.32000000E+00 0.0000E+00 0.9000E+01
        1 -1    0    0  501    0 0.00000000E+00 0.00000000E+00 -.10503513E+04 0.10503513E+04 0.32000000E+00 0.0000E+00 0.9000E+01
       25  2    1    2    0    0 0.12699009E+02 0.31057623E+02 -.50670180E+03 0.58980012E+03 0.29998604E+03 0.0000E+00 0.0000E+00
       23  2    1    2    0    0 -.12699009E+02 -.31057623E+02 -.49726855E+03 0.50693325E+03 0.92625418E+02 0.0000E+00 0.0000E+00
       23  1    3    3    0    0 -.36082011E+02 -.74164313E+02 -.10439480E+03 0.16129409E+03 0.91188000E+02 0.0000E+00 0.9000E+01
      -11  1    4    4    0    0 -.43433322E+02 0.35987727E+01 -.34592651E+03 0.34866109E+03 0.51099893E-03 0.0000E+00 0.9000E+01
       11  1    4    4    0    0 0.30734314E+02 -.34656396E+02 -.15134204E+03 0.15827216E+03 0.51099893E-03 0.0000E+00 0.9000E+01
       23  1    3    3    0    0 0.48781020E+02 0.10522194E+03 -.40230700E+03 0.42850603E+03 0.91188000E+02 0.0000E+00 0.9000E+01
#aMCatNLO 1  0  0  1  2 0.20467707D+03 0.00000000D+00  -5  7  0 0.00000000D+00 0.00000000D+00 0.00000000D+00 0.00000000D+00 0.00000000D+00
  <mgrwgt>
 0.2564464437D-03    3    2    0
 0.220719059336288D+03 0.000000000000000D+00 0.000000000000000D+00 0.220719059336288D+03
 0.220719059336288D+03 0.000000000000000D+00 0.000000000000000D+00 -.220719059336288D+03
 0.163301083427033D+03 -.360820106735781D+02 -.741643127664327D+02 0.107469696761819D+03
 0.794863167847556D+02 -.434333221166527D+02 0.359877222493070D+01 -.664730766881651D+02
 0.490203222728228D+02 0.307343131039508D+02 -.346563958046525D+02 -.160414532879969D+02
 0.149630396187965D+03 0.487810196862799D+02 0.105221936346155D+03 -.249551667856567D+02
 0.000000000000000D+00 -.000000000000000D+00 0.000000000000000D+00 -.000000000000000D+00
 0.267019109238756D+03 0.000000000000000D+00 0.000000000000000D+00 0.267019109238756D+03
 0.684656275125595D+03 0.000000000000000D+00 0.000000000000000D+00 -.684656275125595D+03
 0.214054115654558D+03 -.344561695653969D+02 -.157375187820247D+03 0.107469696761819D+03
 0.855530135913205D+02 -.427222474357017D+02 -.327941730221801D+02 -.664730766881651D+02
 0.703773003082628D+02 0.312487397329834D+02 -.609848541868281D+02 -.160414532879969D+02
 0.116595796596615D+03 0.499280596352649D+02 0.465162009600611D+02 -.249551667856567D+02
 0.465095158213595D+03 -.399838236714967D+01 0.204638014069195D+03 -.417637165886839D+03
0.156453447622D-05 0.000000000000D+00 0.000000000000D+00 0.767131801764D-07 0.000000000000D+00  7 -1 1 23 -11 11 23 21 0 0.71356166D-02 0.16159259D+00 0.32470503D+05 0.32470503D+05 0.32470503D+05 0.11641606D+01  1  2  2  1  7  1       -1 0.253203157135D-03 0.100000000000D+01
-.825701642334D-07 0.000000000000D+00 -.600822434007D-08 0.767131801764D-07 0.000000000000D+00  7 -1 1 23 -11 11 23 21 2 0.71356166D-02 0.16159259D+00 0.32470503D+05 0.32470503D+05 0.32470503D+05 0.11641606D+01  1  2  3  1  7  1       -1 -.181106031260D-04 0.100000000000D+01
0.973570107156D-07 0.000000000000D+00 0.000000000000D+00 0.767131801764D-07 0.000000000000D+00  7 -1 1 23 -11 11 23 21 2 0.71356166D-02 0.16159259D+00 0.32470503D+05 0.32470503D+05 0.32470503D+05 0.11641606D+01  1  2 15  1  7  1       -1 0.213538897369D-04 0.100000000000D+01
  </mgrwgt>
  </event>
  <event>
  8     66 0.58687835E-06 0.19335979E+03 0.75467711E-02 0.97902298E-01
       -1 -1    0    0    0  501 0.00000000E+00 0.00000000E+00 0.18685076E+03 0.18685103E+03 0.32000000E+00 0.0000E+00 0.9000E+01
        1 -1    0    0  501    0 0.00000000E+00 0.00000000E+00 -.65424047E+03 0.65424054E+03 0.32000000E+00 0.0000E+00 0.9000E+01
       25  2    1    2    0    0 -.12828865E+03 0.14636089E+03 -.50446465E+03 0.62337539E+03 0.31021413E+03 0.0000E+00 0.0000E+00
       23  2    1    2    0    0 0.12828865E+03 -.14636089E+03 0.37074943E+02 0.21771618E+03 0.90256828E+02 0.0000E+00 0.0000E+00
       23  1    3    3    0    0 -.19094203E+03 0.10191572E+03 -.25378842E+03 0.34578821E+03 0.91188000E+02 0.0000E+00 0.9000E+01
      -13  1    4    4    0    0 0.12526771E+03 -.13246990E+03 0.47249687E+01 0.18238039E+03 0.10565837E+00 0.0000E+00 0.9000E+01
       13  1    4    4    0    0 0.30209452E+01 -.13890999E+02 0.32349974E+02 0.35335789E+02 0.10565837E+00 0.0000E+00 0.9000E+01
       23  1    3    3    0    0 0.62653375E+02 0.44445174E+02 -.25067623E+03 0.27758718E+03 0.91188000E+02 0.0000E+00 0.9000E+01
#aMCatNLO 1  0  0  1  2 0.16808943D+03 0.00000000D+00  -5  7  0 0.00000000D+00 0.00000000D+00 0.00000000D+00 0.00000000D+00 0.00000000D+00
  <mgrwgt>
 0.2609785915D-03    9    2    0
 0.349636202692493D+03 0.000000000000000D+00 0.000000000000000D+00 0.349636202692493D+03
 0.349636202692493D+03 0.000000000000000D+00 0.000000000000000D+00 -.349636202692493D+03
 0.246286643739146D+03 -.190942028735524D+03 0.101915720771908D+03 -.741362735926059D+02
 0.222527252064194D+03 0.125267875766515D+03 -.132470057438309D+03 0.127585348275096D+03
 0.641245484163402D+02 0.302077797737351D+01 -.138908369622402D+02 0.625290113347351D+02
 0.166333961165306D+03 0.626533749916353D+02 0.444451736286414D+02 -.115978086017225D+03
 0.000000000000000D+00 -.000000000000000D+00 0.000000000000000D+00 0.000000000000000D+00
 0.466513030631790D+03 0.000000000000000D+00 0.000000000000000D+00 0.466513030631790D+03
 0.425660711815692D+03 0.000000000000000D+00 0.000000000000000D+00 -.425660711815692D+03
 0.208491983202181D+03 -.162887883500290D+03 0.559017536592265D+02 -.741362735926059D+02
 0.271729093875429D+03 0.155757301810311D+03 -.182478333773234D+03 0.127585348275096D+03
 0.691800840707331D+02 0.112440041775010D+02 -.273784430454073D+02 0.625290113347351D+02
 0.169790018011774D+03 0.833880145948623D+02 0.104365443584865D+02 -.115978086017225D+03
 0.172982563287365D+03 -.875014370823851D+02 0.143518478800929D+03 0.408523188160978D+02
0.607046977413D-05 0.000000000000D+00 0.000000000000D+00 0.233032480365D-08 0.000000000000D+00  7 -1 1 23 -13 13 23 21 0 0.28746297D-01 0.10065241D+00 0.75798259D+05 0.75798259D+05 0.75798259D+05 0.11317332D+01  1  2  2  1  7  1       -1 0.236032898169D-03 0.100000000000D+01
-.313830485678D-06 0.000000000000D+00 -.233122023241D-07 0.233032480365D-08 0.000000000000D+00  7 -1 1 23 -13 13 23 21 2 0.28746297D-01 0.10065241D+00 0.75798259D+05 0.75798259D+05 0.75798259D+05 0.11317332D+01  1  2  3  1  7  1       -1 -.156290833282D-04 0.100000000000D+01
0.396346258083D-06 0.000000000000D+00 0.000000000000D+00 0.233032480365D-08 0.000000000000D+00  7 -1 1 23 -13 13 23 21 2 0.28746297D-01 0.10065241D+00 0.75798259D+05 0.75798259D+05 0.75798259D+05 0.11317332D+01  1  2 15  1  7  1       -1 0.197384542837D-04 0.100000000000D+01
0.112940041468D-05 0.000000000000D+00 0.000000000000D+00 0.233032480365D-08 0.000000000000D+00  7 -1 1 23 -13 13 23 21 2 0.40620275D-01 0.10065241D+00 0.14306309D+06 0.14306309D+06 0.14306309D+06 0.11091783D+01  1  2 12  1  7  1       -1 0.297224289240D-04 0.100000000000D+01
-.279443913819D-05 0.000000000000D+00 0.000000000000D+00 0.233032480365D-08 0.000000000000D+00  7 -1 1 23 -13 13 23 21 2 0.28746297D-01 0.10065241D+00 0.75798259D+05 0.75798259D+05 0.75798259D+05 0.11317332D+01  1  2  4  1  7  1       -1 -.139165964237D-03 0.100000000000D+01
-.338379788529D-05 0.000000000000D+00 -.233254135339D-05 0.233032480365D-08 0.000000000000D+00  7 -1 1 23 -13 13 23 21 2 0.46062902D-01 0.10065241D+00 0.75798259D+05 0.75798259D+05 0.75798259D+05 0.11317332D+01  1  2  5  1  7  1       -1 -.754307246165D-04 0.100000000000D+01
0.424066726369D-05 0.000000000000D+00 0.209529111235D-05 0.233032480365D-08 0.000000000000D+00  7 -1 1 23 -13 13 23 21 2 0.28746297D-01 0.10065241D+00 0.75798259D+05 0.75798259D+05 0.75798259D+05 0.11317332D+01  1  2  6  1  7  1       -1 0.211189623239D-03 0.100000000000D+01
0.483614154092D-07 0.000000000000D+00 0.000000000000D+00 0.233032480365D-08 0.000000000000D+00  7 21 1 23 -13 13 23 1 2 0.40620275D-01 0.10065241D+00 0.14306309D+06 0.14306309D+06 0.14306309D+06 0.11091783D+01  1  2 12  3  7  1       -1 0.125233962362D-04 0.100000000000D+01
-.839619889330D-07 0.000000000000D+00 -.125616001568D-06 0.233032480365D-08 0.000000000000D+00  7 21 1 23 -13 13 23 1 2 0.46062902D-01 0.10065241D+00 0.75798259D+05 0.75798259D+05 0.75798259D+05 0.11317332D+01  1  2  5  3  7  1       -1 -.180024371642D-04 0.100000000000D+01
  </mgrwgt>
  </event>
  <event>
  8     66 0.58687835E-06 0.42791375E+03 0.75467711E-02 0.90156068E-01
       -1 -1    0    0    0  501 0.00000000E+00 0.00000000E+00 0.13370126E+04 0.13370126E+04 0.32000000E+00 0.0000E+00 0.9000E+01
        1 -1    0    0  501    0 0.00000000E+00 0.00000000E+00 -.91445066E+03 0.91445071E+03 0.32000000E+00 0.0000E+00 0.9000E+01
       25  2    1    2    0    0 -.15101593E+03 -.35737140E+03 0.12450779E+04 0.13374513E+04 0.29671037E+03 0.0000E+00 0.0000E+00
       23  2    1    2    0    0 0.15101593E+03 0.35737140E+03 -.82251591E+03 0.91401203E+03 0.91462790E+02 0.0000E+00 0.0000E+00
       23  1    3    3    0    0 -.14584819E+03 -.31300494E+03 0.11242813E+04 0.11796472E+04 0.91188000E+02 0.0000E+00 0.9000E+01
      -11  1    4    4    0    0 -.10934859E+02 0.17259462E+02 -.62626745E+02 0.65875408E+02 0.51099893E-03 0.0000E+00 0.9000E+01
       11  1    4    4    0    0 0.16195079E+03 0.34011194E+03 -.75988917E+03 0.84813662E+03 0.51099893E-03 0.0000E+00 0.9000E+01
       23  1    3    3    0    0 -.51677400E+01 -.44366461E+02 0.12079658E+03 0.15780416E+03 0.91188000E+02 0.0000E+00 0.9000E+01
#aMCatNLO 1  0  0  2  1 0.52861695D+03 0.00000000D+00  -5  7  0 0.00000000D+00 0.00000000D+00 0.00000000D+00 0.00000000D+00 0.00000000D+00
  <mgrwgt>
 0.6049893493D-03    7    2    0
 0.110572698385008D+04 0.000000000000000D+00 0.000000000000000D+00 0.110572698385008D+04
 0.110572698385008D+04 0.000000000000000D+00 0.000000000000000D+00 -.110572698385008D+04
 0.986162907299066D+03 -.145848194139388D+03 -.313004941149887D+03 0.919216100528370D+03
 0.790338616295800D+02 -.109348586914457D+02 0.172594624002539D+02 -.763471748471148D+02
 0.100867972380776D+04 0.161950792783588D+03 0.340111939670311D+03 -.935697918364343D+03
 0.137577474963754D+03 -.516773995275482D+01 -.443664609206784D+02 0.928289926830881D+02
 0.000000000000000D+00 -.000000000000000D+00 0.000000000000000D+00 -.000000000000000D+00
 0.123795445973138D+04 0.000000000000000D+00 0.000000000000000D+00 0.123795445973138D+04
 0.182802617016035D+04 0.000000000000000D+00 0.000000000000000D+00 -.182802617016035D+04
 0.104122399720875D+04 0.252158163307282D+02 -.479831308019340D+03 0.919216100528370D+03
 0.765086891153530D+02 0.218929263360162D+01 0.446042607586564D+01 -.763471748471148D+02
 0.100804956555547D+04 0.332115549941658D+03 0.174162549568396D+03 -.935697918364343D+03
 0.147973347674210D+03 0.189260671073976D+02 -.678634097227818D+02 0.928289926830881D+02
 0.792225030337948D+03 -.378446726013385D+03 0.369071742097860D+03 -.590071710428964D+03
0.407231969584D-02 0.000000000000D+00 0.000000000000D+00 0.599914688604D-06 0.000000000000D+00  7 -1 1 23 -11 11 23 21 0 0.20569425D+00 0.14068472D+00 0.18311018D+06 0.18311018D+06 0.18311018D+06 0.11007804D+01  1  2  2  2  7  2        1 0.115200236855D-02 0.100000000000D+01
0.216684808147D-04 0.000000000000D+00 -.156387798984D-04 0.599914688604D-06 0.000000000000D+00  7 -1 1 23 -11 11 23 21 2 0.20569425D+00 0.14068472D+00 0.18311018D+06 0.18311018D+06 0.18311018D+06 0.11007804D+01  1  2  3  2  7  2        1 0.742747820274D-05 0.100000000000D+01
0.253773709841D-03 0.000000000000D+00 0.000000000000D+00 0.599914688604D-06 0.000000000000D+00  7 -1 1 23 -11 11 23 21 2 0.20569425D+00 0.14068472D+00 0.18311018D+06 0.18311018D+06 0.18311018D+06 0.11007804D+01  1  2 15  2  7  2        1 0.869880410349D-04 0.100000000000D+01
-.350078118841D-02 0.000000000000D+00 0.000000000000D+00 0.599914688604D-06 0.000000000000D+00  7 -1 1 23 -11 11 23 21 2 0.20569425D+00 0.14068472D+00 0.18311018D+06 0.18311018D+06 0.18311018D+06 0.11007804D+01  1  2  4  2  7  2        1 -.119999072347D-02 0.100000000000D+01
-.162280490774D-02 0.000000000000D+00 -.130186845702D-02 0.599914688604D-06 0.000000000000D+00  7 -1 1 23 -11 11 23 21 2 0.20569425D+00 0.24462129D+00 0.18311018D+06 0.18311018D+06 0.18311018D+06 0.11007804D+01  1  2  5  2  7  2        1 -.185109598118D-03 0.100000000000D+01
0.217778894671D-02 0.000000000000D+00 0.112525756971D-02 0.599914688604D-06 0.000000000000D+00  7 -1 1 23 -11 11 23 21 2 0.20569425D+00 0.14068472D+00 0.18311018D+06 0.18311018D+06 0.18311018D+06 0.11007804D+01  1  2  6  2  7  2        1 0.746498108021D-03 0.100000000000D+01
-.339758649609D-04 0.000000000000D+00 -.796960146189D-04 0.599914688604D-06 0.000000000000D+00  7 -1 21 23 -11 11 23 -1 2 0.20569425D+00 0.24462129D+00 0.18311018D+06 0.18311018D+06 0.18311018D+06 0.11007804D+01  1  2  5  4  7  2        1 -.282632492923D-05 0.100000000000D+01
  </mgrwgt>
  </event>
  <event>
  8     66 0.58687835E-06 0.18672745E+03 0.75467711E-02 0.10216412E+00
       -1 -1    0    0    0  501 0.00000000E+00 0.00000000E+00 0.73823995E+03 0.73824002E+03 0.32000000E+00 0.0000E+00 0.9000E+01
        1 -1    0    0  501    0 0.00000000E+00 0.00000000E+00 -.42367201E+03 0.42367213E+03 0.32000000E+00 0.0000E+00 0.9000E+01
       25  2    1    2    0    0 0.25940270E+02 -.28393921E+02 0.70145817E+03 0.76371308E+03 0.29955801E+03 0.0000E+00 0.0000E+00
       23  2    1    2    0    0 -.25940270E+02 0.28393921E+02 -.38689024E+03 0.39819907E+03 0.86019356E+02 0.0000E+00 0.0000E+00
       23  1    3    3    0    0 0.11704928E+03 -.56632284E+02 0.27796517E+03 0.32013690E+03 0.91188000E+02 0.0000E+00 0.9000E+01
      -13  1    4    4    0    0 -.12411858E+02 0.53088171E+02 -.14924315E+03 0.15888971E+03 0.10565837E+00 0.0000E+00 0.9000E+01
       13  1    4    4    0    0 -.13528412E+02 -.24694250E+02 -.23764708E+03 0.23930936E+03 0.10565837E+00 0.0000E+00 0.9000E+01
       23  1    3    3    0    0 -.91109011E+02 0.28238363E+02 0.42349300E+03 0.44357618E+03 0.91188000E+02 0.0000E+00 0.9000E+01
#aMCatNLO 1  0  0  1  1 0.14081505D+03 0.00000000D+00  -5  7  0 0.00000000D+00 0.00000000D+00 0.00000000D+00 0.00000000D+00 0.00000000D+00
  <mgrwgt>
 0.2286032114D-03    4    2    0
 0.559259971097346D+03 0.000000000000000D+00 0.000000000000000D+00 0.559259971097346D+03
 0.559259971097346D+03 0.000000000000000D+00 0.000000000000000D+00 -.559259971097346D+03
 0.254382615091841D+03 0.117049280606910D+03 -.566322837996144D+02 0.198714654361496D+03
 0.207026086673187D+03 -.124118561060404D+02 0.530882884151528D+02 -.199718251605522D+03
 0.315428250738039D+03 -.135284134635483D+02 -.246943674249212D+02 -.314168985754962D+03
 0.341682989691625D+03 -.911090110373210D+02 0.282383628093828D+02 0.315172582998988D+03
 0.000000000000000D+00 0.000000000000000D+00 0.000000000000000D+00 -.000000000000000D+00
 0.602598639995460D+03 0.000000000000000D+00 0.000000000000000D+00 0.602598639995460D+03
 0.691030384721976D+03 0.000000000000000D+00 0.000000000000000D+00 -.691030384721976D+03
 0.262961363421323D+03 0.115830106667120D+03 -.890466161057007D+02 0.198714654361496D+03
 0.202040199887506D+03 -.133758626025588D+02 0.274581253157332D+02 -.199718251605522D+03
 0.321088777774694D+03 -.150284308709712D+02 -.645755206568407D+02 -.314168985754962D+03
 0.341258645941687D+03 -.927184327743913D+02 -.145515372232837D+02 0.315172582998988D+03
 0.166280037692225D+03 0.529261958080122D+01 0.140715548670092D+03 -.884317447265156D+02
0.521497725373D-04 0.000000000000D+00 0.000000000000D+00 0.104342444087D-06 0.000000000000D+00  7 -1 1 23 -13 13 23 21 0 0.11357539D+00 0.65180324D-01 0.34867141D+05 0.34867141D+05 0.34867141D+05 0.11613258D+01  1  2  2  1  7  1       -1 0.286426053607D-03 0.100000000000D+01
0.134162475030D-05 0.000000000000D+00 -.200268857894D-06 0.104342444087D-06 0.000000000000D+00  7 -1 1 23 -13 13 23 21 2 0.11357539D+00 0.65180324D-01 0.34867141D+05 0.34867141D+05 0.34867141D+05 0.11613258D+01  1  2  3  1  7  1       -1 0.993800694757D-05 0.100000000000D+01
0.322023636520D-05 0.000000000000D+00 0.000000000000D+00 0.104342444087D-06 0.000000000000D+00  7 -1 1 23 -13 13 23 21 2 0.11357539D+00 0.65180324D-01 0.34867141D+05 0.34867141D+05 0.34867141D+05 0.11613258D+01  1  2 15  1  7  1       -1 0.238537127188D-04 0.100000000000D+01
-.123679088137D-04 0.000000000000D+00 0.000000000000D+00 0.104342444087D-06 0.000000000000D+00  7 -1 1 23 -13 13 23 21 2 0.11357539D+00 0.65180324D-01 0.34867141D+05 0.34867141D+05 0.34867141D+05 0.11613258D+01  1  2  4  1  7  1       -1 -.916145618885D-04 0.100000000000D+01
  </mgrwgt>
  </event>
  <event>
  8     66 0.58687835E-06 0.19163172E+03 0.75467711E-02 0.97678337E-01
       -1 -1    0    0    0  501 0.00000000E+00 0.00000000E+00 0.11076943E+03 0.11076989E+03 0.32000000E+00 0.0000E+00 0.9000E+01
        1 -1    0    0  501    0 0.00000000E+00 0.00000000E+00 -.42631945E+03 0.42631957E+03 0.32000000E+00 0.0000E+00 0.9000E+01
       25  2    1    2    0    0 0.16763361E+02 0.70186772E+02 -.26013624E+03 0.40400177E+03 0.30056509E+03 0.0000E+00 0.0000E+00
       23  2    1    2    0    0 -.16763361E+02 -.70186772E+02 -.55413782E+02 0.13308769E+03 0.97131111E+02 0.0000E+00 0.0000E+00
       23  1    3    3    0    0 -.11028144E+03 0.49052565E+02 -.13008056E+03 0.19951028E+03 0.91188000E+02 0.0000E+00 0.9000E+01
      -13  1    4    4    0    0 -.17717988E+02 -.37428698E+02 0.23517949E+02 0.47622890E+02 0.10565837E+00 0.0000E+00 0.9000E+01
       13  1    4    4    0    0 0.95462750E+00 -.32758073E+02 -.78931731E+02 0.85464800E+02 0.10565837E+00 0.0000E+00 0.9000E+01
       23  1    3    3    0    0 0.12704480E+03 0.21134206E+02 -.13005568E+03 0.20449148E+03 0.91188000E+02 0.0000E+00 0.9000E+01
#aMCatNLO 1  0  0  2  1 0.28694758D+03 0.00000000D+00  -5  7  0 0.00000000D+00 0.00000000D+00 0.00000000D+00 0.00000000D+00 0.00000000D+00
  <mgrwgt>
 0.2356860633D-03    3    2    0
 0.217309265518419D+03 0.000000000000000D+00 0.000000000000000D+00 0.217309265518419D+03
 0.217309265518419D+03 0.000000000000000D+00 0.000000000000000D+00 -.217309265518419D+03
 0.152105967653535D+03 -.110281075035597D+03 0.490540847114177D+02 -.158982802194584D+02
 0.759262036124408D+02 -.177181687056742D+02 -.374308137149080D+02 0.636379531204056D+02
 0.483064274195688D+02 0.954067739700025D+00 -.327590583496829D+02 -.354886570728198D+02
 0.158279932351293D+03 0.127045176001571D+03 0.211357873531731D+02 -.122510158281274D+02
 0.000000000000000D+00 0.000000000000000D+00 -.000000000000000D+00 0.000000000000000D+00
 0.593770746127502D+03 0.000000000000000D+00 0.000000000000000D+00 0.593770746127502D+03
 0.322146990504275D+03 0.000000000000000D+00 0.000000000000000D+00 -.322146990504275D+03
 0.258318505578509D+03 -.232729523601481D+03 0.632250939944384D+02 -.158982802194584D+02
 0.997611109640634D+02 -.701337542900079D+02 -.313647364506387D+02 0.636379531204056D+02
 0.547729646790572D+02 -.297992436849212D+02 -.291999649778510D+02 -.354886570728198D+02
 0.107946975890763D+03 0.476174761277851D+02 0.303279877070615D+02 -.122510158281274D+02
 0.395118179519384D+03 0.285045045448625D+03 -.329883802730101D+02 0.271623755623228D+03
0.142104775131D-05 0.000000000000D+00 0.000000000000D+00 0.699092028877D-08 0.000000000000D+00  7 -1 1 23 -13 13 23 21 0 0.17041495D-01 0.65587652D-01 0.36722715D+05 0.36722715D+05 0.36722715D+05 0.11592751D+01  1  2  2  2  7  2        1 0.232221107215D-03 0.100000000000D+01
-.774293236658D-07 0.000000000000D+00 -.545719753549D-08 0.699092028877D-08 0.000000000000D+00  7 -1 1 23 -13 13 23 21 2 0.17041495D-01 0.65587652D-01 0.36722715D+05 0.36722715D+05 0.36722715D+05 0.11592751D+01  1  2  3  2  7  2        1 -.170047979339D-04 0.100000000000D+01
0.932065890161D-07 0.000000000000D+00 0.000000000000D+00 0.699092028877D-08 0.000000000000D+00  7 -1 1 23 -13 13 23 21 2 0.17041495D-01 0.65587652D-01 0.36722715D+05 0.36722715D+05 0.36722715D+05 0.11592751D+01  1  2 15  2  7  2        1 0.204697540581D-04 0.100000000000D+01
  </mgrwgt>
  </event>
  <event>
  8     66 0.58687835E-06 0.21336576E+03 0.75467711E-02 0.95839996E-01
       -1 -1    0    0    0  501 0.00000000E+00 0.00000000E+00 0.13377181E+03 0.13377219E+03 0.32000000E+00 0.0000E+00 0.9000E+01
        1 -1    0    0  501    0 0.00000000E+00 0.00000000E+00 -.15717217E+04 0.15717217E+04 0.32000000E+00 0.0000E+00 0.9000E+01
       25  2    1    2    0    0 -.13457906E+03 -.20938520E+02 -.80577591E+02 0.33856562E+03 0.29930584E+03 0.0000E+00 0.0000E+00
       23  2    1    2    0    0 0.13457906E+03 0.20938520E+02 -.13573723E+04 0.13669283E+04 0.86506956E+02 0.0000E+00 0.0000E+00
       23  1    3    3    0    0 0.62350864E+01 -.69038250E+02 -.11317720E+03 0.16102635E+03 0.91188000E+02 0.0000E+00 0.9000E+01
      -11  1    4    4    0    0 0.10124400E+01 0.26710516E+01 -.41024664E+03 0.41025659E+03 0.51099893E-03 0.0000E+00 0.9000E+01
       11  1    4    4    0    0 0.13356662E+03 0.18267469E+02 -.94712566E+03 0.95667171E+03 0.51099893E-03 0.0000E+00 0.9000E+01
       23  1    3    3    0    0 -.14081415E+03 0.48099729E+02 0.32599605E+02 0.17753927E+03 0.91188000E+02 0.0000E+00 0.9000E+01
#aMCatNLO 1  0  0  1  1 0.32543916D+03 0.00000000D+00  -5  7  0 0.00000000D+00 0.00000000D+00 0.00000000D+00 0.00000000D+00 0.00000000D+00
  <mgrwgt>
 0.4391104792D-03    3    2    0
 0.458532882751493D+03 0.000000000000000D+00 0.000000000000000D+00 0.458532882751493D+03
 0.458532882751493D+03 0.000000000000000D+00 0.000000000000000D+00 -.458532882751493D+03
 0.122004689031594D+03 0.623508644461194D+01 -.690382497608159D+02 0.420087677596871D+02
 0.119703518983246D+03 0.101243994849617D+01 0.267105157629631D+01 -.119669431793587D+03
 0.294066742700938D+03 0.133566622725293D+03 0.182674686895371D+02 -.261345568250498D+03
 0.381290814787207D+03 -.140814149118401D+03 0.480997294949826D+02 0.339006232284397D+03
 0.000000000000000D+00 0.000000000000000D+00 -.000000000000000D+00 -.000000000000000D+00
 0.593669978279303D+03 0.000000000000000D+00 0.000000000000000D+00 0.593669978279303D+03
 0.733724791981782D+03 0.000000000000000D+00 0.000000000000000D+00 -.733724791981782D+03
 0.104916203085392D+03 0.536171738352303D+01 -.299778875818013D+02 0.420087677596871D+02
 0.127956985701079D+03 0.592486384009991D-01 0.453013661328782D+02 -.119669431793587D+03
 0.317455566635389D+03 0.131213006625174D+03 0.123530067740620D+03 -.261345568250498D+03
 0.422769527549640D+03 -.143908802147896D+03 0.186504298120019D+03 0.339006232284397D+03
 0.354296487289586D+03 0.727482950079852D+01 -.325357844411716D+03 -.140054813702478D+03
0.293620205095D-04 0.000000000000D+00 0.000000000000D+00 0.552339165103D-07 0.000000000000D+00  7 -1 1 23 -11 11 23 21 0 0.20580310D-01 0.24180337D+00 0.45524948D+05 0.45524948D+05 0.45524948D+05 0.11508945D+01  1  2  2  1  7  1       -1 0.412974673152D-03 0.100000000000D+01
-.470455992189D-06 0.000000000000D+00 -.112757889954D-06 0.552339165103D-07 0.000000000000D+00  7 -1 1 23 -11 11 23 21 2 0.20580310D-01 0.24180337D+00 0.45524948D+05 0.45524948D+05 0.45524948D+05 0.11508945D+01  1  2  3  1  7  1       -1 -.876450688623D-05 0.100000000000D+01
0.187335825618D-05 0.000000000000D+00 0.000000000000D+00 0.552339165103D-07 0.000000000000D+00  7 -1 1 23 -11 11 23 21 2 0.20580310D-01 0.24180337D+00 0.45524948D+05 0.45524948D+05 0.45524948D+05 0.11508945D+01  1  2 15  1  7  1       -1 0.349003129077D-04 0.100000000000D+01
  </mgrwgt>
  </event>
  <event>
  8     66 0.58687835E-06 0.32746043E+03 0.75467711E-02 0.99249429E-01
       -1 -1    0    0    0  501 0.00000000E+00 0.00000000E+00 0.64643311E+02 0.64644103E+02 0.32000000E+00 0.0000E+00 0.9000E+01
        1 -1    0    0  501    0 0.00000000E+00 0.00000000E+00 -.19686734E+04 0.19686734E+04 0.32000000E+00 0.0000E+00 0.9000E+01
       25  2    1    2    0    0 0.58057309E+02 -.25480632E+03 -.77887841E+03 0.87456589E+03 0.29986164E+03 0.0000E+00 0.0000E+00
       23  2    1    2    0    0 -.58057309E+02 0.25480632E+03 -.11251517E+04 0.11587516E+04 0.91881192E+02 0.0000E+00 0.0000E+00
       23  1    3    3    0    0 0.12800385E+03 -.20827765E+03 -.62270136E+03 0.67515687E+03 0.91188000E+02 0.0000E+00 0.9000E+01
      -13  1    4    4    0    0 0.74851438E+01 0.11882321E+03 -.37083254E+03 0.38947627E+03 0.10565837E+00 0.0000E+00 0.9000E+01
       13  1    4    4    0    0 -.65542453E+02 0.13598311E+03 -.75431913E+03 0.76927536E+03 0.10565837E+00 0.0000E+00 0.9000E+01
       23  1    3    3    0    0 -.69946536E+02 -.46528669E+02 -.15617705E+03 0.19940902E+03 0.91188000E+02 0.0000E+00 0.9000E+01
#aMCatNLO 1  0  0  2  2 0.22024038D+02 0.00000000D+00  -5  7  0 0.00000000D+00 0.00000000D+00 0.00000000D+00 0.00000000D+00 0.00000000D+00
  <mgrwgt>
 0.1382585064D-03    4    2    0
 0.356738558777489D+03 0.000000000000000D+00 0.000000000000000D+00 0.356738558777489D+03
 0.356738558777489D+03 0.000000000000000D+00 0.000000000000000D+00 -.356738558777489D+03
 0.262329607886508D+03 0.128003845413487D+03 -.208277648992339D+03 0.271478971464268D+02
 0.120329802763021D+03 0.748523979522364D+01 0.118823185821754D+03 -.174437131759415D+02
 0.179311723105030D+03 -.655425490430238D+02 0.135983132625915D+03 -.967752858382786D+02
 0.151505983800419D+03 -.699465361656871D+02 -.465286694553302D+02 0.870711018677933D+02
 0.000000000000000D+00 0.000000000000000D+00 -.000000000000000D+00 0.000000000000000D+00
 0.421953032954054D+03 0.000000000000000D+00 0.000000000000000D+00 0.421953032954054D+03
 0.358772811913409D+03 0.000000000000000D+00 0.000000000000000D+00 -.358772811913409D+03
 0.254917633780897D+03 0.123489706378855D+03 -.201695395999618D+03 0.271478971464268D+02
 0.123281336239780D+03 0.535918775809981D+01 0.121923270306675D+03 -.174437131759415D+02
 0.184003159463011D+03 -.687132839665706D+02 0.140606512472997D+03 -.967752858382786D+02
 0.151614832715792D+03 -.725919432356878D+02 -.426712918978624D+02 0.870711018677933D+02
 0.669088826679838D+02 0.124563330653031D+02 -.181630948821919D+02 0.631802210406449D+02
0.647964279600D-05 0.000000000000D+00 0.000000000000D+00 0.561819347452D-06 0.000000000000D+00  7 -1 1 23 -13 13 23 21 0 0.99451877D-02 0.30287289D+00 0.10723034D+06 0.10723034D+06 0.10723034D+06 0.11192426D+01  1  2  2  2  7  2        1 0.152441642931D-03 0.100000000000D+01
-.356770397388D-06 0.000000000000D+00 -.248835344658D-07 0.561819347452D-06 0.000000000000D+00  7 -1 1 23 -13 13 23 21 2 0.99451877D-02 0.30287289D+00 0.10723034D+06 0.10723034D+06 0.10723034D+06 0.11192426D+01  1  2  3  2  7  2        1 -.105145289657D-04 0.100000000000D+01
0.415306660034D-06 0.000000000000D+00 0.000000000000D+00 0.561819347452D-06 0.000000000000D+00  7 -1 1 23 -13 13 23 21 2 0.99451877D-02 0.30287289D+00 0.10723034D+06 0.10723034D+06 0.10723034D+06 0.11192426D+01  1  2 15  2  7  2        1 0.122396755408D-04 0.100000000000D+01
-.539786850825D-06 0.000000000000D+00 0.000000000000D+00 0.561819347452D-06 0.000000000000D+00  7 -1 1 23 -13 13 23 21 2 0.99451877D-02 0.30287289D+00 0.10723034D+06 0.10723034D+06 0.10723034D+06 0.11192426D+01  1  2  4  2  7  2        1 -.159082830859D-04 0.100000000000D+01
  </mgrwgt>
  </event>
  <event>
  9     66 0.58687835E-06 0.19603762E+03 0.75467711E-02 0.10366162E+00
       21 -1    0    0  502  501 0.00000000E+00 0.00000000E+00 0.60076231E+02 0.60080912E+02 0.75000000E+00 0.0000E+00 0.9000E+01
        1 -1    0    0  501    0 0.00000000E+00 0.00000000E+00 -.17205495E+04 0.17205496E+04 0.32000000E+00 0.0000E+00 0.9000E+01
       25  2    1    2    0    0 -.22737799E+02 0.20555497E+02 -.12817572E+04 0.13167624E+04 0.30003704E+03 0.0000E+00 0.0000E+00
       23  2    1    2    0    0 0.90035452E+02 0.15550216E+02 -.73753485E+02 0.14948787E+03 0.92514083E+02 0.0000E+00 0.0000E+00
       23  1    3    3    0    0 -.66041995E+02 -.94243765E+02 -.70188124E+03 0.71707459E+03 0.91188000E+02 0.0000E+00 0.9000E+01
      -11  1    4    4    0    0 0.85518865E+02 -.59737960E+01 -.15363071E+02 0.87092976E+02 0.51099893E-03 0.0000E+00 0.9000E+01
       11  1    4    4    0    0 0.45165872E+01 0.21524012E+02 -.58390414E+02 0.62394897E+02 0.51099893E-03 0.0000E+00 0.9000E+01
       23  1    3    3    0    0 0.43304195E+02 0.11479926E+03 -.57987592E+03 0.59968780E+03 0.91188000E+02 0.0000E+00 0.9000E+01
        1  1    1    2  502    0 -.67297653E+02 -.36105713E+02 -.30496264E+03 0.31438020E+03 0.32000000E+00 0.0000E+00 0.9000E+01
#aMCatNLO 2  0  0  1  2 0.76371438D+02 0.00000000D+00  -5  7  0 0.00000000D+00 0.00000000D+00 0.00000000D+00 0.00000000D+00 0.00000000D+00
  <mgrwgt>
 0.5342893139D-04    1    2    0
 0.276879085418106D+03 0.000000000000000D+00 0.000000000000000D+00 0.276879085418106D+03
 0.276879085418106D+03 0.000000000000000D+00 0.000000000000000D+00 -.276879085418106D+03
 0.194761027529630D+03 -.886401709575069D+02 -.106367862087959D+03 -.102202761742814D+03
 0.182996419103902D+03 0.628887102647140D+02 -.181150498434731D+02 0.170893371712481D+03
 0.203276634276632D+02 0.195238781689845D+01 0.201482992145285D+02 -.185691168411776D+01
 0.155673060775017D+03 0.237990728758944D+02 0.104334612716904D+03 -.668336982855496D+02
 0.000000000000000D+00 -.000000000000000D+00 -.000000000000000D+00 -.000000000000000D+00
 0.303268915164459D+03 0.000000000000000D+00 0.000000000000000D+00 0.303268915164459D+03
 0.340846428340274D+03 0.000000000000000D+00 0.000000000000000D+00 -.340846428340274D+03
 0.178896864753237D+03 -.660419949751231D+02 -.942437651326890D+02 -.102202761742814D+03
 0.191190237736541D+03 0.855188650029922D+02 -.597379603725746D+01 0.170893371712481D+03
 0.220710393682437D+02 0.451658722762939D+01 0.215240121168700D+02 -.185691168411776D+01
 0.166841597296864D+03 0.433041954774247D+02 0.114799262506769D+03 -.668336982855496D+02
 0.851156043498478D+02 -.672976527329231D+02 -.361057134536920D+02 -.375775131758157D+02
0.737354878810D-07 0.000000000000D+00 0.000000000000D+00 0.466426336083D-06 0.991287650970D-11  7 21 1 23 -11 11 23 1 2 0.92428506D-02 0.26470004D+00 0.58513358D+05 0.58513358D+05 0.58513358D+05 0.11413371D+01  1  2  1  3  7  1       -1 0.534289313944D-04 0.100000000000D+01
  </mgrwgt>
  </event>
  <event>
  8     66 0.58687835E-06 0.27106337E+03 0.75467711E-02 0.91002426E-01
       -1 -1    0    0    0  501 0.00000000E+00 0.00000000E+00 0.25512723E+03 0.25512743E+03 0.32000000E+00 0.0000E+00 0.9000E+01
        1 -1    0    0  501    0 0.00000000E+00 0.00000000E+00 -.51080803E+03 0.51080813E+03 0.32000000E+00 0.0000E+00 0.9000E+01
       25  2    1    2    0    0 0.95379493E+02 0.14530800E+03 -.39319289E+03 0.52746643E+03 0.30562807E+03 0.0000E+00 0.0000E+00
       23  2    1    2    0    0 -.95379493E+02 -.14530800E+03 0.13751210E+03 0.23846913E+03 0.88012994E+02 0.0000E+00 0.0000E+00
       23  1    3    3    0    0 -.76103330E+02 0.76455680E+02 -.20112005E+03 0.24576760E+03 0.91188000E+02 0.0000E+00 0.9000E+01
      -11  1    4    4    0    0 -.64356488E+01 -.89663502E+02 0.61836283E+02 0.10910860E+03 0.51099893E-03 0.0000E+00 0.9000E+01
       11  1    4    4    0    0 -.88943845E+02 -.55644499E+02 0.75675815E+02 0.12936053E+03 0.51099893E-03 0.0000E+00 0.9000E+01
       23  1    3    3    0    0 0.17148282E+03 0.68852321E+02 -.19207284E+03 0.28169883E+03 0.91188000E+02 0.0000E+00 0.9000E+01
#aMCatNLO 1  0  0  1  2 0.61132319D+03 0.00000000D+00  -5  7  0 0.00000000D+00 0.00000000D+00 0.00000000D+00 0.00000000D+00 0.00000000D+00
  <mgrwgt>
 0.1779325307D-03    5    2    0
 0.361000212915238D+03 0.000000000000000D+00 0.000000000000000D+00 0.361000212915238D+03
 0.361000212915238D+03 0.000000000000000D+00 0.000000000000000D+00 -.361000212915238D+03
 0.189500736305735D+03 -.761033301968375D+02 0.764556799664246D+02 -.126325333366822D+03
 0.137646052736348D+03 -.643564876773260D+01 -.896635022497363D+02 0.104237587381651D+03
 0.164031319616998D+03 -.889438445592696D+02 -.556444987567550D+02 0.126091062682570D+03
 0.230822317171395D+03 0.171482823523840D+03 0.688523210400667D+02 -.104003316697399D+03
 0.000000000000000D+00 -.000000000000000D+00 0.000000000000000D+00 0.000000000000000D+00
 0.102228886653838D+04 0.000000000000000D+00 0.000000000000000D+00 0.102228886653838D+04
 0.643120148338213D+03 0.000000000000000D+00 0.000000000000000D+00 -.643120148338213D+03
 0.166762075945551D+03 0.478226072809085D+02 0.353446886007936D+02 -.126325333366822D+03
 0.199091278968199D+03 0.110698354783013D+03 -.128521348368199D+03 0.104237587381651D+03
 0.158287786522434D+03 0.231747825376959D+02 -.928385519495135D+02 0.126091062682570D+03
 0.421903600943079D+03 0.398533384336524D+03 -.646906716252920D+01 -.104003316697399D+03
 0.719364272497327D+03 -.580229128938141D+03 0.192484278879448D+03 0.379168718200162D+03
0.507704497797D-05 0.000000000000D+00 0.000000000000D+00 0.841167286331D-09 0.000000000000D+00  7 -1 1 23 -11 11 23 21 0 0.39250366D-01 0.78585874D-01 0.73475352D+05 0.73475352D+05 0.73475352D+05 0.11328750D+01  1  2  2  1  7  1       -1 0.165998974517D-03 0.100000000000D+01
-.253903555215D-06 0.000000000000D+00 -.194971895320D-07 0.841167286331D-09 0.000000000000D+00  7 -1 1 23 -11 11 23 21 2 0.39250366D-01 0.78585874D-01 0.73475352D+05 0.73475352D+05 0.73475352D+05 0.11328750D+01  1  2  3  1  7  1       -1 -.106543555905D-04 0.100000000000D+01
0.320311590740D-06 0.000000000000D+00 0.000000000000D+00 0.841167286331D-09 0.000000000000D+00  7 -1 1 23 -11 11 23 21 2 0.39250366D-01 0.78585874D-01 0.73475352D+05 0.73475352D+05 0.73475352D+05 0.11328750D+01  1  2 15  1  7  1       -1 0.134409838595D-04 0.100000000000D+01
0.250541363226D-05 0.000000000000D+00 -.195109178675D-05 0.841167286331D-09 0.000000000000D+00  7 -1 1 23 -11 11 23 21 2 0.17269295D+00 0.78585874D-01 0.73475352D+05 0.73475352D+05 0.73475352D+05 0.11328750D+01  1  2  5  1  7  1       -1 0.427874283780D-05 0.100000000000D+01
0.438666557298D-06 0.000000000000D+00 -.348762842111D-06 0.841167286331D-09 0.000000000000D+00  7 21 1 23 -11 11 23 1 2 0.17269295D+00 0.78585874D-01 0.73475352D+05 0.73475352D+05 0.73475352D+05 0.11328750D+01  1  2  5  3  7  1       -1 0.486818504000D-05 0.100000000000D+01
  </mgrwgt>
  </event>
  <event>
  9     66 0.58687835E-06 0.25184806E+03 0.75467711E-02 0.98448118E-01
       -1 -1    0    0    0  502 0.00000000E+00 0.00000000E+00 0.76610998E+03 0.76611005E+03 0.32000000E+00 0.0000E+00 0.9000E+01
        1 -1    0    0  501    0 0.00000000E+00 0.00000000E+00 -.23165955E+03 0.23165977E+03 0.32000000E+00 0.0000E+00 0.9000E+01
       25  2    1    2    0    0 0.21867602E+03 0.23622165E+03 0.21727040E+03 0.49079582E+03 0.30009038E+03 0.0000E+00 0.0000E+00
       23  2    1    2    0    0 -.10126890E+03 -.91250981E+02 0.34556591E+02 0.16833333E+03 0.92519302E+02 0.0000E+00 0.0000E+00
       23  1    3    3    0    0 0.19053819E+03 0.10776738E+03 0.21740689E+02 0.23813131E+03 0.91188000E+02 0.0000E+00 0.9000E+01
      -11  1    4    4    0    0 -.15467251E+02 -.14637020E+01 -.25904084E+02 0.30205958E+02 0.51099893E-03 0.0000E+00 0.9000E+01
       11  1    4    4    0    0 -.85801648E+02 -.89787279E+02 0.60460675E+02 0.13812737E+03 0.51099893E-03 0.0000E+00 0.9000E+01
       23  1    3    3    0    0 0.28137835E+02 0.12845427E+03 0.19552971E+03 0.25266451E+03 0.91188000E+02 0.0000E+00 0.9000E+01
       21  1    1    2  501  502 -.11740712E+03 -.14497067E+03 0.28262345E+03 0.33864067E+03 0.75000000E+00 0.0000E+00 0.9000E+01
#aMCatNLO 2  0  0  1  2 0.18655007D+03 0.00000000D+00  -5  7  0 0.00000000D+00 0.00000000D+00 0.00000000D+00 0.00000000D+00 0.00000000D+00
  <mgrwgt>
 0.2229174131D-04    2    2    0
 0.289928213102475D+03 0.000000000000000D+00 0.000000000000000D+00 0.289928213102475D+03
 0.289928213102475D+03 0.000000000000000D+00 0.000000000000000D+00 -.289928213102475D+03
 0.195722143316295D+03 0.146654175215393D+03 0.535807652450130D+02 -.749236980399112D+02
 0.490830708990338D+02 -.245990738097641D+02 -.127393925217084D+02 -.405184068635379D+02
 0.170573940948521D+03 -.114936065056153D+03 -.125761551966796D+03 0.831879360363828D+01
 0.164477271041102D+03 -.711903634947555D+01 0.849201792434917D+02 0.107123311299811D+03
 0.000000000000000D+00 -.000000000000000D+00 -.000000000000000D+00 0.000000000000000D+00
 0.512271474486398D+03 0.000000000000000D+00 0.000000000000000D+00 0.512271474486398D+03
 0.346449705854744D+03 0.000000000000000D+00 0.000000000000000D+00 -.346449705854744D+03
 0.248691419618196D+03 0.190538189331033D+03 0.107767382478137D+03 -.749236980399112D+02
 0.433949258039793D+02 -.154672514461442D+02 -.146370197629865D+01 -.405184068635379D+02
 0.124470400581252D+03 -.858016480889083D+02 -.897872790492311D+02 0.831879360363828D+01
 0.192569187754219D+03 0.281378350525861D+02 0.128454268683594D+03 0.107123311299811D+03
 0.249595246583496D+03 -.117407124848567D+03 -.144970670136201D+03 0.165821768631654D+03
-.247843890609D-06 0.000000000000D+00 0.000000000000D+00 0.239449686992D-06 0.000000000000D+00  7 -1 1 23 -11 11 23 21 2 0.12015001D+00 0.29825432D-01 0.13084090D+06 0.13084090D+06 0.13084090D+06 0.11122659D+01  1  2 13  1  7  1       -1 -.391116914101D-05 0.100000000000D+01
0.199888085335D-05 0.000000000000D+00 0.000000000000D+00 0.239449686992D-06 0.563530867668D-10  7 -1 1 23 -11 11 23 21 2 0.11786292D+00 0.35639899D-01 0.13084090D+06 0.13084090D+06 0.13084090D+06 0.11122659D+01  1  2  1  1  7  1       -1 0.262029104524D-04 0.100000000000D+01
  </mgrwgt>
  </event>
  <event>
  8     66 0.58687835E-06 0.42117638E+03 0.75467711E-02 0.84806578E-01
       -1 -1    0    0    0  501 0.00000000E+00 0.00000000E+00 0.42472258E+03 0.42472270E+03 0.32000000E+00 0.0000E+00 0.9000E+01
        1 -1    0    0  501    0 0.00000000E+00 0.00000000E+00 -.54919295E+03 0.54919304E+03 0.32000000E+00 0.0000E+00 0.9000E+01
       25  2    1    2    0    0 -.33038041E+03 0.16083337E+03 0.15847618E+03 0.50164101E+03 0.30250689E+03 0.0000E+00 0.0000E+00
       23  2    1    2    0    0 0.33038041E+03 -.16083337E+03 -.28294655E+03 0.47227473E+03 0.89252955E+02 0.0000E+00 0.0000E+00
       23  1    3    3    0    0 -.18331314E+03 0.21105540E+03 0.11881226E+03 0.31714301E+03 0.91188000E+02 0.0000E+00 0.9000E+01
      -13  1    4    4    0    0 0.51622158E+02 -.34382650E+02 -.93799938E+02 0.11245201E+03 0.10565837E+00 0.0000E+00 0.9000E+01
       13  1    4    4    0    0 0.27875825E+03 -.12645072E+03 -.18914661E+03 0.35982273E+03 0.10565837E+00 0.0000E+00 0.9000E+01
       23  1    3    3    0    0 -.14706727E+03 -.50222028E+02 0.39663925E+02 0.18449800E+03 0.91188000E+02 0.0000E+00 0.9000E+01
#aMCatNLO 1  0  0  1  2 0.12032374D+04 0.00000000D+00  -5  7  0 0.00000000D+00 0.00000000D+00 0.00000000D+00 0.00000000D+00 0.00000000D+00
  <mgrwgt>
 0.2785517969D-03    5    2    0
 0.482964546085569D+03 0.000000000000000D+00 0.000000000000000D+00 0.482964546085569D+03
 0.482964546085569D+03 0.000000000000000D+00 0.000000000000000D+00 -.482964546085569D+03
 0.335075505205148D+03 -.183313136684615D+03 0.211055395559293D+03 0.160661933166022D+03
 0.101294334888850D+03 0.516218399345081D+02 -.343825213393047D+02 -.800847685187563D+02
 0.338424629862714D+03 0.278758567276983D+03 -.126450845859714D+03 -.144343599957746D+03
 0.191134622214425D+03 -.147067270526876D+03 -.502220283602741D+02 0.637664353104801D+02
 0.000000000000000D+00 -.000000000000000D+00 0.000000000000000D+00 0.000000000000000D+00
 0.171094494695026D+04 0.000000000000000D+00 0.000000000000000D+00 0.171094494695026D+04
 0.115676409163442D+04 0.000000000000000D+00 0.000000000000000D+00 -.115676409163442D+04
 0.207070152630236D+03 0.430104536563526D+02 0.830700961474127D+02 0.160661933166022D+03
 0.238865164241529D+03 0.193624488151140D+03 -.114684585396813D+03 -.800847685187563D+02
 0.920400284791986D+03 0.804266371642393D+03 -.423623904945868D+03 -.144343599957746D+03
 0.176648292729502D+03 0.646702154606820D+01 -.137045201814455D+03 0.637664353104801D+02
 0.132472514419143D+04 -.104736833499595D+04 0.592283596009723D+03 0.554180855315844D+03
0.237429074006D-04 0.000000000000D+00 0.000000000000D+00 0.291580160426D-07 0.000000000000D+00  7 -1 1 23 -13 13 23 21 0 0.65341952D-01 0.84491239D-01 0.17738954D+06 0.17738954D+06 0.17738954D+06 0.11018495D+01  1  2  2  1  7  1       -1 0.273677417704D-03 0.100000000000D+01
-.128899683634D-05 0.000000000000D+00 -.911790160695D-07 0.291580160426D-07 0.000000000000D+00  7 -1 1 23 -13 13 23 21 2 0.65341952D-01 0.84491239D-01 0.17738954D+06 0.17738954D+06 0.17738954D+06 0.11018495D+01  1  2  3  1  7  1       -1 -.180385440911D-04 0.100000000000D+01
0.153643925184D-05 0.000000000000D+00 0.000000000000D+00 0.291580160426D-07 0.000000000000D+00  7 -1 1 23 -13 13 23 21 2 0.65341952D-01 0.84491239D-01 0.17738954D+06 0.17738954D+06 0.17738954D+06 0.11018495D+01  1  2 15  1  7  1       -1 0.215013151361D-04 0.100000000000D+01
0.185582981141D-04 0.000000000000D+00 -.108238497499D-04 0.291580160426D-07 0.000000000000D+00  7 -1 1 23 -13 13 23 21 2 0.38505710D+00 0.84491239D-01 0.17738954D+06 0.17738954D+06 0.17738954D+06 0.11018495D+01  1  2  5  1  7  1       -1 0.374435660797D-06 0.100000000000D+01
0.338044317641D-05 0.000000000000D+00 -.235271605869D-05 0.291580160426D-07 0.000000000000D+00  7 21 1 23 -13 13 23 1 2 0.38505710D+00 0.84491239D-01 0.17738954D+06 0.17738954D+06 0.17738954D+06 0.11018495D+01  1  2  5  3  7  1       -1 0.103717248247D-05 0.100000000000D+01
  </mgrwgt>
  </event>
  <event>
  8     66 0.58687835E-06 0.13574244E+03 0.75467711E-02 0.10314741E+00
       -1 -1    0    0    0  501 0.00000000E+00 0.00000000E+00 0.21206158E+03 0.21206182E+03 0.32000000E+00 0.0000E+00 0.9000E+01
        1 -1    0    0  501    0 0.00000000E+00 0.00000000E+00 -.30712741E+03 0.30712758E+03 0.32000000E+00 0.0000E+00 0.9000E+01
       25  2    1    2    0    0 -.12688453E+03 0.62020363E+02 -.67119259E+01 0.33114913E+03 0.29944697E+03 0.0000E+00 0.0000E+00
       23  2    1    2    0    0 0.12688453E+03 -.62020363E+02 -.88353908E+02 0.18804026E+03 0.87215360E+02 0.0000E+00 0.0000E+00
       23  1    3    3    0    0 -.13329673E+03 -.35936051E+01 0.88101725E+02 0.18400570E+03 0.91188000E+02 0.0000E+00 0.9000E+01
      -13  1    4    4    0    0 -.12926938E+02 -.25321586E+01 -.12733152E+02 0.18321077E+02 0.10565837E+00 0.0000E+00 0.9000E+01
       13  1    4    4    0    0 0.13981146E+03 -.59488205E+02 -.75620756E+02 0.16971919E+03 0.10565837E+00 0.0000E+00 0.9000E+01
       23  1    3    3    0    0 0.64122054E+01 0.65613968E+02 -.94813651E+02 0.14714343E+03 0.91188000E+02 0.0000E+00 0.9000E+01
#aMCatNLO 1  0  0  1  2 0.63028972D+02 0.00000000D+00  -5  7  0 0.00000000D+00 0.00000000D+00 0.00000000D+00 0.00000000D+00 0.00000000D+00
  <mgrwgt>
 0.3580872292D-03    9    2    0
 0.255205855705183D+03 0.000000000000000D+00 0.000000000000000D+00 0.255205855705183D+03
 0.255205855705183D+03 0.000000000000000D+00 0.000000000000000D+00 -.255205855705183D+03
 0.203579330530632D+03 -.133296735940804D+03 -.359360334577271D+01 0.123888492919323D+03
 0.162643452774724D+02 -.129271563735599D+02 -.253207599038087D+01 -.953971417691881D+01
 0.158553491214624D+03 0.139811689174469D+03 -.594882901275419D+02 -.453105339212535D+02
 0.132014544387636D+03 0.641220313989535D+01 0.656139694636955D+02 -.690382448211507D+02
 0.000000000000000D+00 -.000000000000000D+00 -.000000000000000D+00 0.000000000000000D+00
 0.291321573105319D+03 0.000000000000000D+00 0.000000000000000D+00 0.291321573105319D+03
 0.286203461312221D+03 0.000000000000000D+00 0.000000000000000D+00 -.286203461312221D+03
 0.188677760215983D+03 -.109235698122026D+03 -.180261867631304D+01 0.123888492919323D+03
 0.147727473437117D+02 -.110233420717666D+02 -.239036546842870D+01 -.953971417691881D+01
 0.176429740632665D+03 0.160359550259129D+03 -.579588089609360D+02 -.453105339212535D+02
 0.134408354079764D+03 0.227545754947485D+02 0.668304148460846D+02 -.690382448211507D+02
 0.632364321454173D+02 -.628550855600842D+02 -.467862174040685D+01 0.511811179309803D+01
0.262772783315D-05 0.000000000000D+00 0.000000000000D+00 0.154541774838D-07 0.000000000000D+00  7 -1 1 23 -13 13 23 21 0 0.32624889D-01 0.47250402D-01 0.48219958D+05 0.48219958D+05 0.48219958D+05 0.11486827D+01  1  2  2  1  7  1       -1 0.232076915028D-03 0.100000000000D+01
-.141974882242D-06 0.000000000000D+00 -.100911667759D-07 0.154541774838D-07 0.000000000000D+00  7 -1 1 23 -13 13 23 21 2 0.32624889D-01 0.47250402D-01 0.48219958D+05 0.48219958D+05 0.48219958D+05 0.11486827D+01  1  2  3  1  7  1       -1 -.165448662977D-04 0.100000000000D+01
0.172222708557D-06 0.000000000000D+00 0.000000000000D+00 0.154541774838D-07 0.000000000000D+00  7 -1 1 23 -13 13 23 21 2 0.32624889D-01 0.47250402D-01 0.48219958D+05 0.48219958D+05 0.48219958D+05 0.11486827D+01  1  2 15  1  7  1       -1 0.200697591118D-04 0.100000000000D+01
0.198745196936D-05 0.000000000000D+00 0.000000000000D+00 0.154541774838D-07 0.000000000000D+00  7 -1 1 23 -13 13 23 21 2 0.38971970D-01 0.47250402D-01 0.63113800D+05 0.63113800D+05 0.63113800D+05 0.11385028D+01  1  2 12  1  7  1       -1 0.168352213344D-03 0.100000000000D+01
-.178311271849D-05 0.000000000000D+00 0.000000000000D+00 0.154541774838D-07 0.000000000000D+00  7 -1 1 23 -13 13 23 21 2 0.32624889D-01 0.47250402D-01 0.48219958D+05 0.48219958D+05 0.48219958D+05 0.11486827D+01  1  2  4  1  7  1       -1 -.207792822614D-03 0.100000000000D+01
-.480675724607D-05 0.000000000000D+00 -.164671785752D-05 0.154541774838D-07 0.000000000000D+00  7 -1 1 23 -13 13 23 21 2 0.41408520D-01 0.47250402D-01 0.48219958D+05 0.48219958D+05 0.48219958D+05 0.11486827D+01  1  2  5  1  7  1       -1 -.373928097027D-03 0.100000000000D+01
0.509945549390D-05 0.000000000000D+00 0.160100154783D-05 0.154541774838D-07 0.000000000000D+00  7 -1 1 23 -13 13 23 21 2 0.32624889D-01 0.47250402D-01 0.48219958D+05 0.48219958D+05 0.48219958D+05 0.11486827D+01  1  2  6  1  7  1       -1 0.594258702708D-03 0.100000000000D+01
0.519067725207D-07 0.000000000000D+00 0.000000000000D+00 0.154541774838D-07 0.000000000000D+00  7 21 1 23 -13 13 23 1 2 0.38971970D-01 0.47250402D-01 0.63113800D+05 0.63113800D+05 0.63113800D+05 0.11385028D+01  1  2 12  3  7  1       -1 0.448720618842D-04 0.100000000000D+01
-.131537947827D-06 0.000000000000D+00 -.538056755328D-07 0.154541774838D-07 0.000000000000D+00  7 21 1 23 -13 13 23 1 2 0.41408520D-01 0.47250402D-01 0.48219958D+05 0.48219958D+05 0.48219958D+05 0.11486827D+01  1  2  5  3  7  1       -1 -.103276636972D-03 0.100000000000D+01
  </mgrwgt>
  </event>
  <event>
  9     66 0.58687835E-06 0.21014361E+03 0.75467711E-02 0.10296137E+00
       21 -1    0    0  502  501 0.00000000E+00 0.00000000E+00 0.81601899E+02 0.81605345E+02 0.75000000E+00 0.0000E+00 0.9000E+01
        1 -1    0    0  501    0 0.00000000E+00 0.00000000E+00 -.19796354E+04 0.19796354E+04 0.32000000E+00 0.0000E+00 0.9000E+01
       25  2    1    2    0    0 -.13489454E+03 -.12777055E+03 -.37312814E+03 0.51356338E+03 0.30000148E+03 0.0000E+00 0.0000E+00
       23  2    1    2    0    0 0.51299189E+02 0.88926619E+02 -.12514097E+04 0.12590652E+04 0.93162874E+02 0.0000E+00 0.0000E+00
       23  1    3    3    0    0 -.97096786E+02 0.19626394E+02 -.47546677E+02 0.14278977E+03 0.91188000E+02 0.0000E+00 0.9000E+01
      -13  1    4    4    0    0 0.39219835E+02 0.45207767E+02 -.26762589E+03 0.27423633E+03 0.10565837E+00 0.0000E+00 0.9000E+01
       13  1    4    4    0    0 0.12079354E+02 0.43718852E+02 -.98378382E+03 0.98482885E+03 0.10565837E+00 0.0000E+00 0.9000E+01
       23  1    3    3    0    0 -.37797750E+02 -.14739694E+03 -.32558147E+03 0.37077361E+03 0.91188000E+02 0.0000E+00 0.9000E+01
        1  1    1    2  502    0 0.83595347E+02 0.38843926E+02 -.27349561E+03 0.28861217E+03 0.32000000E+00 0.0000E+00 0.9000E+01
#aMCatNLO 2  0  0  1  1 0.92179351D+02 0.00000000D+00  -5  7  0 0.00000000D+00 0.00000000D+00 0.00000000D+00 0.00000000D+00 0.00000000D+00
  <mgrwgt>
 0.3358190420D-04    1    2    0
 0.351636089925623D+03 0.000000000000000D+00 0.000000000000000D+00 0.351636089925623D+03
 0.351636089925623D+03 0.000000000000000D+00 0.000000000000000D+00 -.351636089925623D+03
 0.239619003534398D+03 -.682420960361098D+02 0.330341909170029D+02 0.208215691219166D+03
 0.801756271602396D+02 0.482491531385864D+02 0.494033702788452D+02 -.407364384432205D+02
 0.213643894294404D+03 0.370330614653856D+02 0.553140096465314D+02 -.203008931489732D+03
 0.169833654862206D+03 -.170401185678621D+02 -.137751570842379D+03 0.355296787137864D+02
 0.000000000000000D+00 0.000000000000000D+00 0.000000000000000D+00 -.000000000000000D+00
 0.390844236264149D+03 0.000000000000000D+00 0.000000000000000D+00 0.390844236264149D+03
 0.413324158463667D+03 0.000000000000000D+00 0.000000000000000D+00 -.413324158463667D+03
 0.247955654674772D+03 -.970967864684533D+02 0.196263936783908D+02 0.208215691219166D+03
 0.723974983436396D+02 0.392198686370509D+02 0.452077676231802D+02 -.407364384432205D+02
 0.208014120328015D+03 0.120793209963170D+02 0.437188517175733D+02 -.203008931489732D+03
 0.180920250640296D+03 -.377977506367304D+02 -.147396939334052D+03 0.355296787137864D+02
 0.948808707410928D+02 0.835953474718157D+02 0.388439263149079D+02 -.224799221995176D+02
0.116868868522D-06 0.000000000000D+00 0.000000000000D+00 0.431629428850D-06 0.675089667525D-11  7 21 1 23 -13 13 23 1 2 0.12554397D-01 0.30455935D+00 0.64878183D+05 0.64878183D+05 0.64878183D+05 0.11374756D+01  1  2  1  3  7  1       -1 0.335819041997D-04 0.100000000000D+01
  </mgrwgt>
  </event>
  <event>
  8     66 0.58687835E-06 0.21632659E+03 0.75467711E-02 0.92503177E-01
       -1 -1    0    0    0  501 0.00000000E+00 0.00000000E+00 0.46320021E+03 0.46320032E+03 0.32000000E+00 0.0000E+00 0.9000E+01
        1 -1    0    0  501    0 0.00000000E+00 0.00000000E+00 -.76589251E+03 0.76589257E+03 0.32000000E+00 0.0000E+00 0.9000E+01
       25  2    1    2    0    0 0.90969668E+02 -.10707374E+03 0.39251299E+03 0.51402329E+03 0.30068792E+03 0.0000E+00 0.0000E+00
       23  2    1    2    0    0 -.90969668E+02 0.10707374E+03 -.69520529E+03 0.71506960E+03 0.90960849E+02 0.0000E+00 0.0000E+00
       23  1    3    3    0    0 0.55381083E+02 -.14457118E+03 0.10524915E+03 0.20823191E+03 0.91188000E+02 0.0000E+00 0.9000E+01
      -13  1    4    4    0    0 0.47263998E+01 0.13537365E+02 -.24445938E+03 0.24487956E+03 0.10565837E+00 0.0000E+00 0.9000E+01
       13  1    4    4    0    0 -.95696067E+02 0.93536374E+02 -.45074591E+03 0.47019005E+03 0.10565837E+00 0.0000E+00 0.9000E+01
       23  1    3    3    0    0 0.35588584E+02 0.37497443E+02 0.28726384E+03 0.30579138E+03 0.91188000E+02 0.0000E+00 0.9000E+01
#aMCatNLO 1  0  0  2  2 0.52679390D+03 0.00000000D+00  -5  7  0 0.00000000D+00 0.00000000D+00 0.00000000D+00 0.00000000D+00 0.00000000D+00
  <mgrwgt>
 0.2782584763D-03    5    2    0
 0.595618733206465D+03 0.000000000000000D+00 0.000000000000000D+00 0.595618733206465D+03
 0.595618733206465D+03 0.000000000000000D+00 0.000000000000000D+00 -.595618733206465D+03
 0.241592856749552D+03 0.553810831489962D+02 -.144571182398126D+03 0.161505312413125D+03
 0.190544259909332D+03 0.472653522706263D+01 0.135372574745193D+02 -.190003993403325D+03
 0.370597992648731D+03 -.956962028271355D+02 0.935364815001672D+02 -.345595190285261D+03
 0.388502357105316D+03 0.355885844510766D+02 0.374974434234397D+02 0.374093871275461D+03
 0.000000000000000D+00 -.000000000000000D+00 -.000000000000000D+00 -.000000000000000D+00
 0.832811649713783D+03 0.000000000000000D+00 0.000000000000000D+00 0.832811649713783D+03
 0.103339902347241D+04 0.000000000000000D+00 0.000000000000000D+00 -.103339902347241D+04
 0.281220643798040D+03 0.165105860255964D+03 -.132007151797397D+03 0.161505312413125D+03
 0.211102107759056D+03 0.890215240176692D+02 0.231894513233233D+02 -.190003993403325D+03
 0.367879594853878D+03 0.592907831675747D+02 0.111283259266268D+03 -.345595190285261D+03
 0.442317715616219D+03 0.209955824776514D+03 0.574633563282133D+02 0.374093871275461D+03
 0.563690611159001D+03 -.523373992217722D+03 -.599289151204067D+02 -.200587373758628D+03
0.366278048653D-04 0.000000000000D+00 0.000000000000D+00 0.157697873308D-05 0.000000000000D+00  7 -1 1 23 -13 13 23 21 0 0.71261584D-01 0.11782963D+00 0.46797194D+05 0.46797194D+05 0.46797194D+05 0.11498329D+01  1  2  2  2  7  2        1 0.229311532910D-03 0.100000000000D+01
0.503037287321D-06 0.000000000000D+00 -.140660415005D-06 0.157697873308D-05 0.000000000000D+00  7 -1 1 23 -13 13 23 21 2 0.71261584D-01 0.11782963D+00 0.46797194D+05 0.46797194D+05 0.46797194D+05 0.11498329D+01  1  2  3  2  7  2        1 0.416374970062D-05 0.100000000000D+01
0.226004208112D-05 0.000000000000D+00 0.000000000000D+00 0.157697873308D-05 0.000000000000D+00  7 -1 1 23 -13 13 23 21 2 0.71261584D-01 0.11782963D+00 0.46797194D+05 0.46797194D+05 0.46797194D+05 0.11498329D+01  1  2 15  2  7  2        1 0.187068628426D-04 0.100000000000D+01
0.117983868943D-04 0.000000000000D+00 -.108145063475D-04 0.157697873308D-05 0.000000000000D+00  7 -1 1 23 -13 13 23 21 2 0.71261584D-01 0.25108664D+00 0.46797194D+05 0.46797194D+05 0.46797194D+05 0.11498329D+01  1  2  5  2  7  2        1 0.236139050477D-04 0.100000000000D+01
0.164005860516D-05 0.000000000000D+00 -.885262038032D-06 0.157697873308D-05 0.000000000000D+00  7 -1 21 23 -13 13 23 -1 2 0.71261584D-01 0.25108664D+00 0.46797194D+05 0.46797194D+05 0.46797194D+05 0.11498329D+01  1  2  5  4  7  2        1 0.246242578322D-05 0.100000000000D+01
  </mgrwgt>
  </event>
  <event>
  8     66 0.58687835E-06 0.22662087E+03 0.75467711E-02 0.93086241E-01
       -1 -1    0    0    0  501 0.00000000E+00 0.00000000E+00 0.16646164E+03 0.16646195E+03 0.32000000E+00 0.0000E+00 0.9000E+01
        1 -1    0    0  501    0 0.00000000E+00 0.00000000E+00 -.16638801E+04 0.16638801E+04 0.32000000E+00 0.0000E+00 0.9000E+01
       25  2    1    2    0    0 -.69779316E+02 -.30004897E+03 -.14417116E+04 0.15043830E+04 0.29956169E+03 0.0000E+00 0.0000E+00
       23  2    1    2    0    0 0.69779316E+02 0.30004897E+03 -.55706825E+02 0.32595908E+03 0.90815959E+02 0.0000E+00 0.0000E+00
       23  1    3    3    0    0 -.11624080E+03 -.29064536E+03 -.10535415E+04 0.11028380E+04 0.91188000E+02 0.0000E+00 0.9000E+01
      -13  1    4    4    0    0 0.77959440E+02 0.21013978E+03 -.69428403E+02 0.23464168E+03 0.10565837E+00 0.0000E+00 0.9000E+01
       13  1    4    4    0    0 -.81801242E+01 0.89909182E+02 0.13721578E+02 0.91317404E+02 0.10565837E+00 0.0000E+00 0.9000E+01
       23  1    3    3    0    0 0.46461481E+02 -.94036054E+01 -.38817010E+03 0.40154498E+03 0.91188000E+02 0.0000E+00 0.9000E+01
#aMCatNLO 1  0  0  2  1 0.35781440D+03 0.00000000D+00  -5  7  0 0.00000000D+00 0.00000000D+00 0.00000000D+00 0.00000000D+00 0.00000000D+00
  <mgrwgt>
 0.2190728356D-03    7    2    0
 0.526281782325185D+03 0.000000000000000D+00 0.000000000000000D+00 0.526281782325185D+03
 0.526281782325185D+03 0.000000000000000D+00 0.000000000000000D+00 -.526281782325185D+03
 0.418956414807956D+03 -.116240797482163D+03 -.290645361091203D+03 -.263101838157037D+03
 0.309255764875754D+03 0.779595569703692D+02 0.210139946919149D+03 0.213078948501931D+03
 0.178315923278863D+03 -.818024076843423D+01 0.899090195746754D+02 0.153772625505596D+03
 0.146035461687796D+03 0.464614812802278D+02 -.940360540262149D+01 -.103749735850491D+03
 0.000000000000000D+00 -.000000000000000D+00 0.000000000000000D+00 -.000000000000000D+00
 0.604730386265374D+03 0.000000000000000D+00 0.000000000000000D+00 0.604730386265374D+03
 0.121081210820517D+04 0.000000000000000D+00 0.000000000000000D+00 -.121081210820517D+04
 0.504230023940072D+03 -.336828558983301D+02 -.419017366794655D+03 -.263101838157037D+03
 0.280888324610194D+03 0.130734467022013D+03 0.128078537390552D+03 0.213078948501931D+03
 0.161126564950733D+03 0.221751370167224D+02 0.427084637540142D+02 0.153772625505596D+03
 0.165475017451519D+03 0.743189788128087D+02 -.527201266667210D+02 -.103749735850491D+03
 0.703822563518030D+03 -.193545726953214D+03 0.300950492316810D+03 -.606081721939800D+03
0.264743624880D-04 0.000000000000D+00 0.000000000000D+00 0.134503284977D-05 0.000000000000D+00  7 -1 1 23 -13 13 23 21 0 0.25609509D-01 0.25598158D+00 0.13809710D+06 0.13809710D+06 0.13809710D+06 0.11103966D+01  1  2  2  2  7  2        1 0.218775730266D-03 0.100000000000D+01
-.125425471721D-05 0.000000000000D+00 -.101668522814D-06 0.134503284977D-05 0.000000000000D+00  7 -1 1 23 -13 13 23 21 2 0.25609509D-01 0.25598158D+00 0.13809710D+06 0.13809710D+06 0.13809710D+06 0.11103966D+01  1  2  3  2  7  2        1 -.127795526313D-04 0.100000000000D+01
0.163479176914D-05 0.000000000000D+00 0.000000000000D+00 0.134503284977D-05 0.000000000000D+00  7 -1 1 23 -13 13 23 21 2 0.25609509D-01 0.25598158D+00 0.13809710D+06 0.13809710D+06 0.13809710D+06 0.11103966D+01  1  2 15  2  7  2        1 0.166568298833D-04 0.100000000000D+01
0.458110396171D-07 0.000000000000D+00 0.000000000000D+00 0.134503284977D-05 0.000000000000D+00  7 -1 1 23 -13 13 23 21 2 0.25609509D-01 0.58371710D+00 0.32948240D+06 0.32948240D+06 0.32948240D+06 0.10815527D+01  1  2 12  2  7  2        1 0.117192671915D-07 0.100000000000D+01
-.157878409785D-04 0.000000000000D+00 -.650078283810D-05 0.134503284977D-05 0.000000000000D+00  7 -1 1 23 -13 13 23 21 2 0.25609509D-01 0.60232193D+00 0.13809710D+06 0.13809710D+06 0.13809710D+06 0.11103966D+01  1  2  5  2  7  2        1 -.357026857299D-05 0.100000000000D+01
0.410596311861D-08 0.000000000000D+00 0.000000000000D+00 0.134503284977D-05 0.000000000000D+00  7 -1 21 23 -13 13 23 -1 2 0.25609509D-01 0.58371710D+00 0.32948240D+06 0.32948240D+06 0.32948240D+06 0.10815527D+01  1  2 12  4  7  2        1 0.101970624789D-09 0.100000000000D+01
-.106389773147D-05 0.000000000000D+00 -.607012494206D-06 0.134503284977D-05 0.000000000000D+00  7 -1 21 23 -13 13 23 -1 2 0.25609509D-01 0.60232193D+00 0.13809710D+06 0.13809710D+06 0.13809710D+06 0.11103966D+01  1  2  5  4  7  2        1 -.217246188843D-07 0.100000000000D+01
  </mgrwgt>
  </event>
  <event>
  8     66 0.58687835E-06 0.28920158E+03 0.75467711E-02 0.94023450E-01
       -1 -1    0    0    0  501 0.00000000E+00 0.00000000E+00 0.74878179E+03 0.74878186E+03 0.32000000E+00 0.0000E+00 0.9000E+01
        1 -1    0    0  501    0 0.00000000E+00 0.00000000E+00 -.37700466E+03 0.37700480E+03 0.32000000E+00 0.0000E+00 0.9000E+01
       25  2    1    2    0    0 -.19311702E+03 -.23532492E+03 0.59867598E+03 0.73523196E+03 0.29913392E+03 0.0000E+00 0.0000E+00
       23  2    1    2    0    0 0.19311702E+03 0.23532492E+03 -.22689885E+03 0.39055470E+03 0.91530747E+02 0.0000E+00 0.0000E+00
       23  1    3    3    0    0 0.31971062E+02 -.57569593E+02 0.25314270E+03 0.27700701E+03 0.91188000E+02 0.0000E+00 0.9000E+01
      -13  1    4    4    0    0 0.76621437E+02 0.86409861E+02 -.14271994E+03 0.18359331E+03 0.10565837E+00 0.0000E+00 0.9000E+01
       13  1    4    4    0    0 0.11649559E+03 0.14891506E+03 -.84178909E+02 0.20696139E+03 0.10565837E+00 0.0000E+00 0.9000E+01
       23  1    3    3    0    0 -.22508809E+03 -.17775533E+03 0.34553328E+03 0.45822495E+03 0.91188000E+02 0.0000E+00 0.9000E+01
#aMCatNLO 1  0  0  2  1 0.29146582D+03 0.00000000D+00  -5  7  0 0.00000000D+00 0.00000000D+00 0.00000000D+00 0.00000000D+00 0.00000000D+00
  <mgrwgt>
 0.2650197415D-03    8    2    0
 0.531313786199434D+03 0.000000000000000D+00 0.000000000000000D+00 0.531313786199434D+03
 0.531313786199434D+03 0.000000000000000D+00 0.000000000000000D+00 -.531313786199434D+03
 0.204905401963641D+03 0.319710621135202D+02 -.575695928720237D+02 0.171273365044785D+03
 0.244438319309521D+03 0.766213835704402D+02 0.864097782284079D+02 -.215435850668203D+03
 0.248713826152462D+03 0.116495640756625D+03 0.148915142822589D+03 -.161590882299183D+03
 0.364570024973244D+03 -.225088086440585D+03 -.177755328178973D+03 0.205753367922601D+03
 0.000000000000000D+00 -.000000000000000D+00 0.000000000000000D+00 -.000000000000000D+00
 0.604098737699446D+03 0.000000000000000D+00 0.000000000000000D+00 0.604098737699446D+03
 0.950442887937287D+03 0.000000000000000D+00 0.000000000000000D+00 -.950442887937287D+03
 0.230075164244010D+03 0.481927870177478D+02 -.113851743788166D+03 0.171273365044785D+03
 0.236512943353571D+03 0.945574930920254D+02 0.241794772645918D+02 -.215435850668203D+03
 0.227501493149280D+03 0.134255132800699D+03 0.872976257385623D+02 -.161590882299183D+03
 0.407785928527704D+03 -.196284625368594D+03 -.277690492443690D+03 0.205753367922601D+03
 0.452666096362169D+03 -.807207875418785D+02 0.280065133228702D+03 -.346344150237841D+03
0.272443089686D-04 0.000000000000D+00 0.000000000000D+00 0.684840581466D-06 0.000000000000D+00  7 -1 1 23 -13 13 23 21 0 0.11519721D+00 0.58000733D-01 0.12887962D+06 0.12887962D+06 0.12887962D+06 0.11127908D+01  1  2  2  2  7  2        1 0.160654289989D-03 0.100000000000D+01
-.123073579468D-05 0.000000000000D+00 -.104625320031D-06 0.684840581466D-06 0.000000000000D+00  7 -1 1 23 -13 13 23 21 2 0.11519721D+00 0.58000733D-01 0.12887962D+06 0.12887962D+06 0.12887962D+06 0.11127908D+01  1  2  3  2  7  2        1 -.898686833540D-05 0.100000000000D+01
0.171592272452D-05 0.000000000000D+00 0.000000000000D+00 0.684840581466D-06 0.000000000000D+00  7 -1 1 23 -13 13 23 21 2 0.11519721D+00 0.58000733D-01 0.12887962D+06 0.12887962D+06 0.12887962D+06 0.11127908D+01  1  2 15  2  7  2        1 0.125297173167D-04 0.100000000000D+01
0.165991194233D-05 0.000000000000D+00 0.000000000000D+00 0.684840581466D-06 0.000000000000D+00  7 -1 1 23 -13 13 23 21 2 0.11519721D+00 0.10500532D+00 0.27820492D+06 0.27820492D+06 0.27820492D+06 0.10869837D+01  1  2 12  2  7  2        1 0.485649644972D-05 0.100000000000D+01
-.177477223313D-04 0.000000000000D+00 -.887109664479D-05 0.684840581466D-06 0.000000000000D+00  7 -1 1 23 -13 13 23 21 2 0.11519721D+00 0.11287785D+00 0.12887962D+06 0.12887962D+06 0.12887962D+06 0.11127908D+01  1  2  5  2  7  2        1 -.506590698038D-04 0.100000000000D+01
0.205800866735D-04 0.000000000000D+00 0.721232808688D-05 0.684840581466D-06 0.000000000000D+00  7 -1 1 23 -13 13 23 21 2 0.11519721D+00 0.58000733D-01 0.12887962D+06 0.12887962D+06 0.12887962D+06 0.11127908D+01  1  2  6  2  7  2        1 0.150276387560D-03 0.100000000000D+01
0.107921414698D-06 0.000000000000D+00 0.000000000000D+00 0.684840581466D-06 0.000000000000D+00  7 -1 21 23 -13 13 23 -1 2 0.11519721D+00 0.10500532D+00 0.27820492D+06 0.27820492D+06 0.27820492D+06 0.10869837D+01  1  2 12  4  7  2        1 0.660556053863D-06 0.100000000000D+01
-.761324360829D-06 0.000000000000D+00 -.640231395713D-06 0.684840581466D-06 0.000000000000D+00  7 -1 21 23 -13 13 23 -1 2 0.11519721D+00 0.11287785D+00 0.12887962D+06 0.12887962D+06 0.12887962D+06 0.11127908D+01  1  2  5  4  7  2        1 -.431176776504D-05 0.100000000000D+01
  </mgrwgt>
  </event>
  <event>
  8     66 0.58687835E-06 0.31133138E+03 0.75467711E-02 0.91887895E-01
       -1 -1    0    0    0  501 0.00000000E+00 0.00000000E+00 0.34122541E+03 0.34122556E+03 0.32000000E+00 0.0000E+00 0.9000E+01
        1 -1    0    0  501    0 0.00000000E+00 0.00000000E+00 -.19737470E+04 0.19737470E+04 0.32000000E+00 0.0000E+00 0.9000E+01
       25  2    1    2    0    0 0.11729246E+03 0.23043825E+03 -.18949630E+04 0.19359907E+04 0.30052623E+03 0.0000E+00 0.0000E+00
       23  2    1    2    0    0 -.11729246E+03 -.23043825E+03 0.26244138E+03 0.37898189E+03 0.88839662E+02 0.0000E+00 0.0000E+00
       23  1    3    3    0    0 0.58159119E+02 0.16471624E+02 -.24052172E+03 0.26423427E+03 0.91188000E+02 0.0000E+00 0.9000E+01
      -11  1    4    4    0    0 -.13957478E+01 -.95022562E+02 0.85633032E+02 0.12792283E+03 0.51099893E-03 0.0000E+00 0.9000E+01
       11  1    4    4    0    0 -.11589671E+03 -.13541569E+03 0.17680835E+03 0.25105906E+03 0.51099893E-03 0.0000E+00 0.9000E+01
       23  1    3    3    0    0 0.59133343E+02 0.21396662E+03 -.16544412E+04 0.16717564E+04 0.91188000E+02 0.0000E+00 0.9000E+01
#aMCatNLO 1  0  0  1  1 0.53293313D+03 0.00000000D+00  -5  7  0 0.00000000D+00 0.00000000D+00 0.00000000D+00 0.00000000D+00 0.00000000D+00
  <mgrwgt>
 0.2235219022D-03    5    2    0
 0.820666092844420D+03 0.000000000000000D+00 0.000000000000000D+00 0.820666092844420D+03
 0.820666092844420D+03 0.000000000000000D+00 0.000000000000000D+00 -.820666092844420D+03
 0.133451461871152D+03 0.581591192698455D+02 0.164716238372855D+02 -.764214877208400D+02
 0.265598659569362D+03 -.139574776238786D+01 -.950225616795631D+02 0.248014944358358D+03
 0.529958704752434D+03 -.115896714662042D+03 -.135415686591773D+03 0.499085936586377D+03
 0.712323359495891D+03 0.591333431545844D+02 0.213966624434050D+03 -.670679393223895D+03
 0.000000000000000D+00 -.000000000000000D+00 -.000000000000000D+00 0.000000000000000D+00
 0.137415752899856D+04 0.000000000000000D+00 0.000000000000000D+00 0.137415752899856D+04
 0.100170886830631D+04 0.000000000000000D+00 0.000000000000000D+00 -.100170886830631D+04
 0.159882606471495D+03 0.101769536072266D+03 0.324023803182478D+02 -.764214877208400D+02
 0.268236450591479D+03 0.779703203844784D+02 -.660303713451423D+02 0.248014944358358D+03
 0.506761631109505D+03 0.382340557934084D+02 -.791121712763076D+02 0.499085936586377D+03
 0.790804410550026D+03 0.282605607830034D+03 0.295600382829962D+03 -.670679393223895D+03
 0.650181298582366D+03 -.500579520080186D+03 -.182860220526759D+03 0.372448660692245D+03
0.123730691970D-03 0.000000000000D+00 0.000000000000D+00 0.671648704796D-06 0.000000000000D+00  7 -1 1 23 -11 11 23 21 0 0.52496231D-01 0.30365340D+00 0.96927229D+05 0.96927229D+05 0.96927229D+05 0.11228360D+01  1  2  2  1  7  1       -1 0.189833683072D-03 0.100000000000D+01
0.977807435199D-06 0.000000000000D+00 -.475158436205D-06 0.671648704796D-06 0.000000000000D+00  7 -1 1 23 -11 11 23 21 2 0.52496231D-01 0.30365340D+00 0.96927229D+05 0.96927229D+05 0.96927229D+05 0.11228360D+01  1  2  3  1  7  1       -1 0.189139327998D-05 0.100000000000D+01
0.762112762288D-05 0.000000000000D+00 0.000000000000D+00 0.671648704796D-06 0.000000000000D+00  7 -1 1 23 -11 11 23 21 2 0.52496231D-01 0.30365340D+00 0.96927229D+05 0.96927229D+05 0.96927229D+05 0.11228360D+01  1  2 15  1  7  1       -1 0.147417058337D-04 0.100000000000D+01
0.123040770750D-04 0.000000000000D+00 -.390745010179D-04 0.671648704796D-06 0.000000000000D+00  7 -1 1 23 -11 11 23 21 2 0.10555110D+00 0.30365340D+00 0.96927229D+05 0.96927229D+05 0.96927229D+05 0.11228360D+01  1  2  5  1  7  1       -1 0.591170027604D-05 0.100000000000D+01
0.328391527388D-05 0.000000000000D+00 -.295241436402D-05 0.671648704796D-06 0.000000000000D+00  7 21 1 23 -11 11 23 1 2 0.10555110D+00 0.30365340D+00 0.96927229D+05 0.96927229D+05 0.96927229D+05 0.11228360D+01  1  2  5  3  7  1       -1 0.111434197068D-04 0.100000000000D+01
  </mgrwgt>
  </event>
  <event>
  8     66 0.58687835E-06 0.59876755E+03 0.75467711E-02 0.91682450E-01
       -1 -1    0    0    0  501 0.00000000E+00 0.00000000E+00 0.78020380E+03 0.78020387E+03 0.32000000E+00 0.0000E+00 0.9000E+01
        1 -1    0    0  501    0 0.00000000E+00 0.00000000E+00 -.50340994E+03 0.50341004E+03 0.32000000E+00 0.0000E+00 0.9000E+01
       25  2    1    2    0    0 -.56135214E+03 -.13353588E+03 0.32641432E+02 0.65053742E+03 0.29863927E+03 0.0000E+00 0.0000E+00
       23  2    1    2    0    0 0.56135214E+03 0.13353588E+03 0.24415243E+03 0.63307649E+03 0.90704893E+02 0.0000E+00 0.0000E+00
       23  1    3    3    0    0 -.34815541E+03 -.17433177E+02 -.77886806E+02 0.36864307E+03 0.91188000E+02 0.0000E+00 0.9000E+01
      -13  1    4    4    0    0 0.31063091E+03 0.57624155E+02 0.17907484E+03 0.36315274E+03 0.10565837E+00 0.0000E+00 0.9000E+01
       13  1    4    4    0    0 0.25072123E+03 0.75911721E+02 0.65077587E+02 0.26992375E+03 0.10565837E+00 0.0000E+00 0.9000E+01
       23  1    3    3    0    0 -.21319673E+03 -.11610270E+03 0.11052824E+03 0.28189435E+03 0.91188000E+02 0.0000E+00 0.9000E+01
#aMCatNLO 1  0  0  2  1 0.10717520D+03 0.00000000D+00  -5  7  0 0.00000000D+00 0.00000000D+00 0.00000000D+00 0.00000000D+00 0.00000000D+00
  <mgrwgt>
 0.1817296750D-03    4    2    0
 0.626707634548153D+03 0.000000000000000D+00 0.000000000000000D+00 0.626707634548153D+03
 0.626707634548153D+03 0.000000000000000D+00 0.000000000000000D+00 -.626707634548153D+03
 0.394724694991857D+03 -.348155409828312D+03 -.174331771575688D+02 -.161171425612257D+03
 0.332356903477424D+03 0.310630990898399D+03 0.576241302923038D+02 0.103193790465491D+03
 0.262055753449010D+03 0.250721152426101D+03 0.759117458113589D+02 0.703764802527413D+01
 0.264277917178016D+03 -.213196733496189D+03 -.116102698946094D+03 0.509399871214919D+02
 0.000000000000000D+00 -.000000000000000D+00 0.000000000000000D+00 0.000000000000000D+00
 0.839177202852809D+03 0.000000000000000D+00 0.000000000000000D+00 0.839177202852809D+03
 0.642657053853583D+03 0.000000000000000D+00 0.000000000000000D+00 -.642657053853583D+03
 0.366953574066902D+03 -.316016329557070D+03 -.222963045337899D+02 -.161171425612257D+03
 0.359094539463237D+03 0.339806844183274D+03 0.532093838329521D+02 0.103193790465491D+03
 0.283237882834577D+03 0.273729864450369D+03 0.724301808010208D+02 0.703764802527413D+01
 0.248703018032993D+03 -.191551458681224D+03 -.119377955351383D+03 0.509399871214919D+02
 0.223845242308682D+03 -.105968920395349D+03 0.160346952511999D+02 0.196520148999226D+03
0.572947783911D-04 0.000000000000D+00 0.000000000000D+00 0.434300777734D-06 0.000000000000D+00  7 -1 1 23 -13 13 23 21 0 0.12003137D+00 0.77447696D-01 0.35852258D+06 0.35852258D+06 0.35852258D+06 0.10788718D+01  1  2  2  2  7  2        1 0.197494966453D-03 0.100000000000D+01
-.317499352181D-05 0.000000000000D+00 -.220027035083D-06 0.434300777734D-06 0.000000000000D+00  7 -1 1 23 -13 13 23 21 2 0.12003137D+00 0.77447696D-01 0.35852258D+06 0.35852258D+06 0.35852258D+06 0.10788718D+01  1  2  3  2  7  2        1 -.127386543536D-04 0.100000000000D+01
0.365461684017D-05 0.000000000000D+00 0.000000000000D+00 0.434300777734D-06 0.000000000000D+00  7 -1 1 23 -13 13 23 21 2 0.12003137D+00 0.77447696D-01 0.35852258D+06 0.35852258D+06 0.35852258D+06 0.10788718D+01  1  2 15  2  7  2        1 0.146629907752D-04 0.100000000000D+01
-.440897854646D-05 0.000000000000D+00 0.000000000000D+00 0.434300777734D-06 0.000000000000D+00  7 -1 1 23 -13 13 23 21 2 0.12003137D+00 0.77447696D-01 0.35852258D+06 0.35852258D+06 0.35852258D+06 0.10788718D+01  1  2  4  2  7  2        1 -.176896278275D-04 0.100000000000D+01
  </mgrwgt>
  </event>
  <event>
  8     66 0.58687835E-06 0.20503407E+03 0.75467711E-02 0.81117699E-01
       -1 -1    0    0    0  501 0.00000000E+00 0.00000000E+00 0.42874983E+03 0.42874995E+03 0.32000000E+00 0.0000E+00 0.9000E+01
        1 -1    0    0  501    0 0.00000000E+00 0.00000000E+00 -.14435161E+03 0.14435196E+03 0.32000000E+00 0.0000E+00 0.9000E+01
       25  2    1    2    0    0 0.31789136E+02 -.88053986E+02 0.67877022E+02 0.32131396E+03 0.29978545E+03 0.0000E+00 0.0000E+00
       23  2    1    2    0    0 -.31789136E+02 0.88053986E+02 0.21652120E+03 0.25178795E+03 0.88043697E+02 0.0000E+00 0.0000E+00
       23  1    3    3    0    0 -.77974478E+01 0.78125751E+02 0.29694672E+02 0.12394135E+03 0.91188000E+02 0.0000E+00 0.9000E+01
      -11  1    4    4    0    0 -.99356077E+01 0.70251529E+01 0.13241366E+03 0.13297160E+03 0.51099893E-03 0.0000E+00 0.9000E+01
       11  1    4    4    0    0 -.21853528E+02 0.81028833E+02 0.84107533E+02 0.11881635E+03 0.51099893E-03 0.0000E+00 0.9000E+01
       23  1    3    3    0    0 0.39586584E+02 -.16617974E+03 0.38182349E+02 0.19737261E+03 0.91188000E+02 0.0000E+00 0.9000E+01
#aMCatNLO 1  0  0  2  1 0.19904858D+04 0.00000000D+00  -5  7  0 0.00000000D+00 0.00000000D+00 0.00000000D+00 0.00000000D+00 0.00000000D+00
  <mgrwgt>
 0.1337310285D-03    5    2    0
 0.248778743974943D+03 0.000000000000000D+00 0.000000000000000D+00 0.248778743974943D+03
 0.248778743974943D+03 0.000000000000000D+00 0.000000000000000D+00 -.248778743974943D+03
 0.125786293313534D+03 -.779744779542269D+01 0.781257507942627D+02 -.366402389766893D+02
 0.774746050902558D+02 -.993560767024337D+01 0.702515290627705D+01 0.765130404621168D+02
 0.887813915603884D+02 -.218535284170334D+02 0.810288331992240D+02 0.289635455960981D+02
 0.205515197985708D+03 0.395865838826995D+02 -.166179736899764D+03 -.688363470815256D+02
 0.000000000000000D+00 0.000000000000000D+00 -.000000000000000D+00 -.000000000000000D+00
 0.168624457726399D+04 0.000000000000000D+00 0.000000000000000D+00 0.168624457726399D+04
 0.252577307449298D+04 0.000000000000000D+00 0.000000000000000D+00 -.252577307449298D+04
 0.590042186353482D+03 -.562023721066328D+03 0.150403989904809D+03 -.366402389766893D+02
 0.362522786418666D+03 -.350601174173473D+03 0.514523272571666D+02 0.765130404621168D+02
 0.494709868524929D+03 -.473618435442890D+03 0.139944791439638D+03 0.289635455960981D+02
 0.604455408178266D+03 -.587528714354743D+03 -.843958308276457D+02 -.688363470815256D+02
 0.216028740228163D+04 0.197377204503743D+04 -.257405277773968D+03 -.839528497228991D+03
0.194480043251D-05 0.000000000000D+00 0.000000000000D+00 0.408145975821D-07 0.000000000000D+00  7 -1 1 23 -11 11 23 21 0 0.65961548D-01 0.22207976D-01 0.42038968D+05 0.42038968D+05 0.42038968D+05 0.11539798D+01  1  2  2  2  7  2        1 0.131331218936D-03 0.100000000000D+01
-.103131521036D-06 0.000000000000D+00 -.746854573857D-08 0.408145975821D-07 0.000000000000D+00  7 -1 1 23 -11 11 23 21 2 0.65961548D-01 0.22207976D-01 0.42038968D+05 0.42038968D+05 0.42038968D+05 0.11539798D+01  1  2  3  2  7  2        1 -.927429270621D-05 0.100000000000D+01
0.125498059882D-06 0.000000000000D+00 0.000000000000D+00 0.408145975821D-07 0.000000000000D+00  7 -1 1 23 -11 11 23 21 2 0.65961548D-01 0.22207976D-01 0.42038968D+05 0.42038968D+05 0.42038968D+05 0.11539798D+01  1  2 15  2  7  2        1 0.112856450648D-04 0.100000000000D+01
0.163165529863D-04 0.000000000000D+00 -.400087516462D-05 0.408145975821D-07 0.000000000000D+00  7 -1 1 23 -11 11 23 21 2 0.65961548D-01 0.66022189D+00 0.42038968D+05 0.42038968D+05 0.42038968D+05 0.11539798D+01  1  2  5  2  7  2        1 0.381403403778D-06 0.100000000000D+01
0.435330853096D-05 0.000000000000D+00 -.135407188913D-05 0.408145975821D-07 0.000000000000D+00  7 -1 21 23 -11 11 23 -1 2 0.65961548D-01 0.66022189D+00 0.42038968D+05 0.42038968D+05 0.42038968D+05 0.11539798D+01  1  2  5  4  7  2        1 0.705378337064D-08 0.100000000000D+01
  </mgrwgt>
  </event>
  <event>
  8     66 0.58687835E-06 0.14671455E+03 0.75467711E-02 0.10224921E+00
       -1 -1    0    0    0  501 0.00000000E+00 0.00000000E+00 0.21606621E+03 0.21606644E+03 0.32000000E+00 0.0000E+00 0.9000E+01
        1 -1    0    0  501    0 0.00000000E+00 0.00000000E+00 -.43590777E+03 0.43590788E+03 0.32000000E+00 0.0000E+00 0.9000E+01
       25  2    1    2    0    0 0.94200875E+02 -.78240356E+02 0.63649052E+02 0.33055635E+03 0.30036801E+03 0.0000E+00 0.0000E+00
       23  2    1    2    0    0 -.94200875E+02 0.78240356E+02 -.28349061E+03 0.32141798E+03 0.89147248E+02 0.0000E+00 0.0000E+00
       23  1    3    3    0    0 0.11954068E+02 0.77830968E+02 -.45905349E+01 0.12056900E+03 0.91188000E+02 0.0000E+00 0.9000E+01
      -13  1    4    4    0    0 -.11181564E+03 0.70234321E+02 -.24377410E+03 0.27723892E+03 0.10565837E+00 0.0000E+00 0.9000E+01
       13  1    4    4    0    0 0.17614765E+02 0.80060347E+01 -.39716512E+02 0.44179056E+02 0.10565837E+00 0.0000E+00 0.9000E+01
       23  1    3    3    0    0 0.82246807E+02 -.15607132E+03 0.68239587E+02 0.20998735E+03 0.91188000E+02 0.0000E+00 0.9000E+01
#aMCatNLO 1  0  0  2  1 0.63552129D+02 0.00000000D+00  -5  7  0 0.00000000D+00 0.00000000D+00 0.00000000D+00 0.00000000D+00 0.00000000D+00
  <mgrwgt>
 0.2046799416D-03    9    2    0
 0.306895834521316D+03 0.000000000000000D+00 0.000000000000000D+00 0.306895834521316D+03
 0.306895834521316D+03 0.000000000000000D+00 0.000000000000000D+00 -.306895834521316D+03
 0.126425146931825D+03 0.119540679248419D+02 0.778309675899970D+02 0.383080562908982D+02
 0.207173114132755D+03 -.111815820536672D+03 0.702344087643447D+02 -.159640374976687D+03
 0.327018449485531D+02 0.176149454631054D+02 0.800594744295694D+01 -.263634057912031D+02
 0.247491563029499D+03 0.822468071487242D+02 -.156071323797299D+03 0.147695724476992D+03
 0.000000000000000D+00 -.000000000000000D+00 -.000000000000000D+00 -.000000000000000D+00
 0.323031347600400D+03 0.000000000000000D+00 0.000000000000000D+00 0.323031347600400D+03
 0.378196992819996D+03 0.000000000000000D+00 0.000000000000000D+00 -.378196992819996D+03
 0.134433692903927D+03 0.196131184502113D+02 0.889099817324167D+02 0.383080562908982D+02
 0.207678924242811D+03 -.996353909814702D+02 0.878537142978220D+02 -.159640374976687D+03
 0.345956789887758D+02 0.195908613891013D+02 0.108641607966656D+02 -.263634057912031D+02
 0.240364702841937D+03 0.965707065871333D+02 -.135351433789121D+03 0.147695724476992D+03
 0.841553414429464D+02 -.361392954449757D+02 -.522764230377837D+02 -.551656452195959D+02
0.291209174742D-05 0.000000000000D+00 0.000000000000D+00 0.121648411074D-06 0.000000000000D+00  7 -1 1 23 -13 13 23 21 0 0.33240982D-01 0.67062760D-01 0.55334279D+05 0.55334279D+05 0.55334279D+05 0.11434431D+01  1  2  2  2  7  2        1 0.157087074574D-03 0.100000000000D+01
-.147871717396D-06 0.000000000000D+00 -.111831990815D-07 0.121648411074D-06 0.000000000000D+00  7 -1 1 23 -13 13 23 21 2 0.33240982D-01 0.67062760D-01 0.55334279D+05 0.55334279D+05 0.55334279D+05 0.11434431D+01  1  2  3  2  7  2        1 -.104291663772D-04 0.100000000000D+01
0.185670796606D-06 0.000000000000D+00 0.000000000000D+00 0.121648411074D-06 0.000000000000D+00  7 -1 1 23 -13 13 23 21 2 0.33240982D-01 0.67062760D-01 0.55334279D+05 0.55334279D+05 0.55334279D+05 0.11434431D+01  1  2 15  2  7  2        1 0.130950777017D-04 0.100000000000D+01
0.457752234246D-05 0.000000000000D+00 0.000000000000D+00 0.121648411074D-06 0.000000000000D+00  7 -1 1 23 -13 13 23 21 2 0.33240982D-01 0.84111389D-01 0.72168626D+05 0.72168626D+05 0.72168626D+05 0.11335349D+01  1  2 12  2  7  2        1 0.232158338554D-03 0.100000000000D+01
-.483647070399D-05 0.000000000000D+00 0.000000000000D+00 0.121648411074D-06 0.000000000000D+00  7 -1 1 23 -13 13 23 21 2 0.33240982D-01 0.67062760D-01 0.55334279D+05 0.55334279D+05 0.55334279D+05 0.11434431D+01  1  2  4  2  7  2        1 -.341108891805D-03 0.100000000000D+01
-.721719125372D-05 0.000000000000D+00 -.175844319358D-05 0.121648411074D-06 0.000000000000D+00  7 -1 1 23 -13 13 23 21 2 0.33240982D-01 0.85699372D-01 0.55334279D+05 0.55334279D+05 0.55334279D+05 0.11434431D+01  1  2  5  2  7  2        1 -.364038652290D-03 0.100000000000D+01
0.747412412038D-05 0.000000000000D+00 0.170686754807D-05 0.121648411074D-06 0.000000000000D+00  7 -1 1 23 -13 13 23 21 2 0.33240982D-01 0.67062760D-01 0.55334279D+05 0.55334279D+05 0.55334279D+05 0.11434431D+01  1  2  6  2  7  2        1 0.527138558663D-03 0.100000000000D+01
0.143960442402D-06 0.000000000000D+00 0.000000000000D+00 0.121648411074D-06 0.000000000000D+00  7 -1 21 23 -13 13 23 -1 2 0.33240982D-01 0.84111389D-01 0.72168626D+05 0.72168626D+05 0.72168626D+05 0.11335349D+01  1  2 12  4  7  2        1 0.203620764557D-04 0.100000000000D+01
-.212242594162D-06 0.000000000000D+00 -.586680375935D-07 0.121648411074D-06 0.000000000000D+00  7 -1 21 23 -13 13 23 -1 2 0.33240982D-01 0.85699372D-01 0.55334279D+05 0.55334279D+05 0.55334279D+05 0.11434431D+01  1  2  5  4  7  2        1 -.295844738601D-04 0.100000000000D+01
  </mgrwgt>
  </event>
  <event>
  9     66 0.58687835E-06 0.21253953E+03 0.75467711E-02 0.10424596E+00
       21 -1    0    0  502  501 0.00000000E+00 0.00000000E+00 0.93073728E+02 0.93076749E+02 0.75000000E+00 0.0000E+00 0.9000E+01
        1 -1    0    0  501    0 0.00000000E+00 0.00000000E+00 -.84111686E+03 0.84111693E+03 0.32000000E+00 0.0000E+00 0.9000E+01
       25  2    1    2    0    0 0.38181670E+02 -.84032706E+02 -.22651297E+03 0.38751443E+03 0.30056608E+03 0.0000E+00 0.0000E+00
       23  2    1    2    0    0 -.67939142E+02 0.58312736E+02 -.40744791E+03 0.42600660E+03 0.86323352E+02 0.0000E+00 0.0000E+00
       23  1    3    3    0    0 0.33400982E+02 0.80478898E+02 -.96560220E+02 0.15884460E+03 0.91188000E+02 0.0000E+00 0.9000E+01
      -13  1    4    4    0    0 -.56839883E+00 0.40282518E+02 -.25751198E+03 0.26064427E+03 0.10565837E+00 0.0000E+00 0.9000E+01
       13  1    4    4    0    0 -.67370744E+02 0.18030218E+02 -.14993593E+03 0.16536233E+03 0.10565837E+00 0.0000E+00 0.9000E+01
       23  1    3    3    0    0 0.47806881E+01 -.16451160E+03 -.12995275E+03 0.22866983E+03 0.91188000E+02 0.0000E+00 0.9000E+01
        1  1    1    2  502    0 0.29757472E+02 0.25719970E+02 -.11408226E+03 0.12067265E+03 0.32000000E+00 0.0000E+00 0.9000E+01
#aMCatNLO 2  0  0  1  2 0.39332226D+02 0.00000000D+00  -5  7  0 0.00000000D+00 0.00000000D+00 0.00000000D+00 0.00000000D+00 0.00000000D+00
  <mgrwgt>
 0.4256853709D-04    1    2    0
 0.254147123155967D+03 0.000000000000000D+00 0.000000000000000D+00 0.254147123155967D+03
 0.254147123155967D+03 0.000000000000000D+00 0.000000000000000D+00 -.254147123155967D+03
 0.139824250185973D+03 0.413867736051058D+02 0.873811724197693D+02 0.434423212222363D+02
 0.979870235685179D+02 0.509269410584173D+01 0.451754699613319D+02 -.868026391783937D+02
 0.746244001022727D+02 -.629267108626562D+02 0.218713326126127D+02 -.336255105593984D+02
 0.195858572455170D+03 0.164472431517086D+02 -.154427974993714D+03 0.769858285155558D+02
 0.000000000000000D+00 0.000000000000000D+00 0.000000000000000D+00 -.000000000000000D+00
 0.264262222230934D+03 0.000000000000000D+00 0.000000000000000D+00 0.264262222230934D+03
 0.296247524121579D+03 0.000000000000000D+00 0.000000000000000D+00 -.296247524121579D+03
 0.133397770362821D+03 0.334009836528163D+02 0.804788966849082D+02 0.434423212222363D+02
 0.956958992792470D+02 -.568310582217490D+00 0.402825519749123D+02 -.868026391783937D+02
 0.774247510056378D+02 -.673708350248770D+02 0.180301884614555D+02 -.336255105593984D+02
 0.203295334395823D+03 0.478068987629837D+01 -.164511607053087D+03 0.769858285155558D+02
 0.506959913089856D+02 0.297574720779798D+02 0.257199699318114D+02 -.319853018906453D+02
0.302801610429D-07 0.000000000000D+00 0.000000000000D+00 0.738995643333D-08 0.276033364599D-12  7 21 1 23 -13 13 23 1 2 0.14319245D-01 0.12940259D+00 0.53740763D+05 0.53740763D+05 0.53740763D+05 0.11445494D+01  1  2  1  3  7  1       -1 0.425685370903D-04 0.100000000000D+01
  </mgrwgt>
  </event>
  <event>
  8     66 0.58687835E-06 0.12689756E+03 0.75467711E-02 0.10574265E+00
       -1 -1    0    0    0  501 0.00000000E+00 0.00000000E+00 0.37143893E+03 0.37143907E+03 0.32000000E+00 0.0000E+00 0.9000E+01
        1 -1    0    0  501    0 0.00000000E+00 0.00000000E+00 -.18001101E+03 0.18001129E+03 0.32000000E+00 0.0000E+00 0.9000E+01
       25  2    1    2    0    0 -.14432231E+02 0.42328246E+02 -.15989495E+02 0.31369344E+03 0.31007731E+03 0.0000E+00 0.0000E+00
       23  2    1    2    0    0 0.14432231E+02 -.42328246E+02 0.20741742E+03 0.23775692E+03 0.10726788E+03 0.0000E+00 0.0000E+00
       23  1    3    3    0    0 -.70972091E+02 -.46629069E+02 -.92046624E+02 0.15491656E+03 0.91188000E+02 0.0000E+00 0.9000E+01
      -13  1    4    4    0    0 -.76979826E+01 0.40321533E+01 0.17868477E+03 0.17889599E+03 0.10565837E+00 0.0000E+00 0.9000E+01
       13  1    4    4    0    0 0.22130213E+02 -.46360399E+02 0.28732654E+02 0.58860934E+02 0.10565837E+00 0.0000E+00 0.9000E+01
       23  1    3    3    0    0 0.56539860E+02 0.88957315E+02 0.76057129E+02 0.15877688E+03 0.91188000E+02 0.0000E+00 0.9000E+01
#aMCatNLO 1  0  0  1  2 0.86724361D+02 0.00000000D+00  -5  7  0 0.00000000D+00 0.00000000D+00 0.00000000D+00 0.00000000D+00 0.00000000D+00
  <mgrwgt>
 0.4157143538D-04    7    2    0
 0.258579218131888D+03 0.000000000000000D+00 0.000000000000000D+00 0.258579218131888D+03
 0.258579218131888D+03 0.000000000000000D+00 0.000000000000000D+00 -.258579218131888D+03
 0.199260894498835D+03 -.709721939171958D+02 -.466287664790947D+02 -.155493918079435D+03
 0.124617679710676D+03 -.769731827074841D+01 0.403075926048415D+01 0.124314401288409D+03
 0.521275498039494D+02 0.221297252809192D+02 -.463595221435571D+02 0.885163341848899D+01
 0.141152312250315D+03 0.565397869070250D+02 0.889575293621676D+02 0.223278833725373D+02
 0.000000000000000D+00 -.000000000000000D+00 -.000000000000000D+00 0.000000000000000D+00
 0.684241227028079D+03 0.000000000000000D+00 0.000000000000000D+00 0.684241227028079D+03
 0.266644892882716D+03 0.000000000000000D+00 0.000000000000000D+00 -.266644892882716D+03
 0.190092788072093D+03 -.385530367533607D+02 -.464254405517234D+02 -.155493918079435D+03
 0.125071205940824D+03 0.130927848882842D+02 0.416115028155825D+01 0.124314401288409D+03
 0.565176064072768D+02 0.311759589547448D+02 -.463027861265887D+02 0.885163341848899D+01
 0.152697997759086D+03 0.810069482805430D+02 0.891109820954164D+02 0.223278833725373D+02
 0.426506521731515D+03 -.867226553702112D+02 -.543905698662481D+00 0.417596334145363D+03
0.146561781702D-05 0.000000000000D+00 0.000000000000D+00 0.131067822742D-10 0.000000000000D+00  7 -1 1 23 -13 13 23 21 0 0.57144483D-01 0.27694033D-01 0.26250494D+05 0.26250494D+05 0.26250494D+05 0.11727543D+01  1  2  2  1  7  1       -1 0.973091315693D-04 0.100000000000D+01
-.597880766569D-07 0.000000000000D+00 -.562835832340D-08 0.131067822742D-10 0.000000000000D+00  7 -1 1 23 -13 13 23 21 2 0.57144483D-01 0.27694033D-01 0.26250494D+05 0.26250494D+05 0.26250494D+05 0.11727543D+01  1  2  3  1  7  1       -1 -.545960837803D-05 0.100000000000D+01
0.916330943198D-07 0.000000000000D+00 0.000000000000D+00 0.131067822742D-10 0.000000000000D+00  7 -1 1 23 -13 13 23 21 2 0.57144483D-01 0.27694033D-01 0.26250494D+05 0.26250494D+05 0.26250494D+05 0.11727543D+01  1  2 15  1  7  1       -1 0.836756820804D-05 0.100000000000D+01
0.450764655063D-05 0.000000000000D+00 0.000000000000D+00 0.131067822742D-10 0.000000000000D+00  7 -1 1 23 -13 13 23 21 2 0.15042239D+00 0.27694033D-01 0.43407024D+05 0.43407024D+05 0.43407024D+05 0.11527365D+01  1  2 12  1  7  1       -1 0.484176040254D-04 0.100000000000D+01
-.761320134860D-05 0.000000000000D+00 -.449342799258D-06 0.131067822742D-10 0.000000000000D+00  7 -1 1 23 -13 13 23 21 2 0.15263400D+00 0.27694033D-01 0.26250494D+05 0.26250494D+05 0.26250494D+05 0.11727543D+01  1  2  5  1  7  1       -1 -.826703460710D-04 0.100000000000D+01
0.484433060110D-06 0.000000000000D+00 0.000000000000D+00 0.131067822742D-10 0.000000000000D+00  7 21 1 23 -13 13 23 1 2 0.15042239D+00 0.27694033D-01 0.43407024D+05 0.43407024D+05 0.43407024D+05 0.11527365D+01  1  2 12  3  7  1       -1 0.345355830005D-04 0.100000000000D+01
-.806250084169D-06 0.000000000000D+00 -.491466826555D-07 0.131067822742D-10 0.000000000000D+00  7 21 1 23 -13 13 23 1 2 0.15263400D+00 0.27694033D-01 0.26250494D+05 0.26250494D+05 0.26250494D+05 0.11727543D+01  1  2  5  3  7  1       -1 -.589284969694D-04 0.100000000000D+01
  </mgrwgt>
  </event>
  <event>
  8     66 0.58687835E-06 0.17869341E+03 0.75467711E-02 0.98749257E-01
       -1 -1    0    0    0  501 0.00000000E+00 0.00000000E+00 0.87859319E+03 0.87859325E+03 0.32000000E+00 0.0000E+00 0.9000E+01
        1 -1    0    0  501    0 0.00000000E+00 0.00000000E+00 -.14727097E+03 0.14727132E+03 0.32000000E+00 0.0000E+00 0.9000E+01
       25  2    1    2    0    0 0.28354168E+03 -.52841500E+01 0.49829711E+03 0.64766053E+03 0.30123139E+03 0.0000E+00 0.0000E+00
       23  2    1    2    0    0 -.28354168E+03 0.52841500E+01 0.23302511E+03 0.37820404E+03 0.91179966E+02 0.0000E+00 0.0000E+00
       23  1    3    3    0    0 0.66418345E+02 -.10182860E+03 0.13007664E+03 0.20003911E+03 0.91188000E+02 0.0000E+00 0.9000E+01
      -13  1    4    4    0    0 -.25974499E+03 -.14531671E+02 0.22972381E+03 0.34706148E+03 0.10565837E+00 0.0000E+00 0.9000E+01
       13  1    4    4    0    0 -.23796697E+02 0.19815821E+02 0.33012968E+01 0.31142564E+02 0.10565837E+00 0.0000E+00 0.9000E+01
       23  1    3    3    0    0 0.21712334E+03 0.96544452E+02 0.36822047E+03 0.44762142E+03 0.91188000E+02 0.0000E+00 0.9000E+01
#aMCatNLO 1  0  0  1  2 0.82380787D+01 0.00000000D+00  -5  7  0 0.00000000D+00 0.00000000D+00 0.00000000D+00 0.00000000D+00 0.00000000D+00
  <mgrwgt>
 0.3017516545D-03   11    2    0
 0.359710276095257D+03 0.000000000000000D+00 0.000000000000000D+00 0.359710276095257D+03
 0.359710276095257D+03 0.000000000000000D+00 0.000000000000000D+00 -.359710276095257D+03
 0.153019114735040D+03 0.664183450281250D+02 -.101828602506670D+03 -.178644139438986D+02
 0.261371677427454D+03 -.259745301993693D+03 -.145317169275763D+02 -.252261978225592D+02
 0.410518270328919D+02 -.237963801989540D+02 0.198158669770524D+02 -.269502543237178D+02
 0.263977932995127D+03 0.217123337164522D+03 0.965444524571937D+02 0.700408660901756D+02
 0.000000000000000D+00 0.000000000000000D+00 -.000000000000000D+00 0.000000000000000D+00
 0.370640283815983D+03 0.000000000000000D+00 0.000000000000000D+00 0.370640283815983D+03
 0.361289500184270D+03 0.000000000000000D+00 0.000000000000000D+00 -.361289500184270D+03
 0.151637946124185D+03 0.655201234469748D+02 -.100333401709975D+03 -.178644139438986D+02
 0.262777836759604D+03 -.261290654016930D+03 -.119592875573555D+02 -.252261978225592D+02
 0.413893525608652D+02 -.240394418449823D+02 0.202204731170229D+02 -.269502543237178D+02
 0.263662582285130D+03 0.215567692609371D+03 0.991340150184231D+02 0.700408660901756D+02
 0.124620662704682D+02 0.424227980556598D+01 -.706179886811503D+01 0.935078363171328D+01
0.624253019615D-05 0.000000000000D+00 0.000000000000D+00 0.141384726778D-06 0.000000000000D+00  7 -1 1 23 -13 13 23 21 0 0.13516821D+00 0.22657104D-01 0.12166401D+06 0.12166401D+06 0.12166401D+06 0.11147998D+01  1  2  2  1  7  1       -1 0.847509912741D-04 0.100000000000D+01
-.346407491293D-06 0.000000000000D+00 -.239729596492D-07 0.141384726778D-06 0.000000000000D+00  7 -1 1 23 -13 13 23 21 2 0.13516821D+00 0.22657104D-01 0.12166401D+06 0.12166401D+06 0.12166401D+06 0.11147998D+01  1  2  3  1  7  1       -1 -.584473956367D-05 0.100000000000D+01
0.399204499093D-06 0.000000000000D+00 0.000000000000D+00 0.141384726778D-06 0.000000000000D+00  7 -1 1 23 -13 13 23 21 2 0.13516821D+00 0.22657104D-01 0.12166401D+06 0.12166401D+06 0.12166401D+06 0.11147998D+01  1  2 15  1  7  1       -1 0.673555390253D-05 0.100000000000D+01
0.194707215453D-04 0.000000000000D+00 0.000000000000D+00 0.141384726778D-06 0.000000000000D+00  7 -1 1 23 -13 13 23 21 2 0.13956676D+00 0.22657104D-01 0.12460419D+06 0.12460419D+06 0.12460419D+06 0.11139658D+01  1  2 12  1  7  1       -1 0.301049694413D-03 0.100000000000D+01
-.200821437260D-04 0.000000000000D+00 0.000000000000D+00 0.141384726778D-06 0.000000000000D+00  7 -1 1 23 -13 13 23 21 2 0.13516821D+00 0.22657104D-01 0.12166401D+06 0.12166401D+06 0.12166401D+06 0.11147998D+01  1  2  4  1  7  1       -1 -.338834762264D-03 0.100000000000D+01
-.227936216580D-03 0.000000000000D+00 -.227274732341D-04 0.141384726778D-06 0.000000000000D+00  7 -1 1 23 -13 13 23 21 2 0.13960079D+00 0.22657104D-01 0.12166401D+06 0.12166401D+06 0.12166401D+06 0.11147998D+01  1  2  5  1  7  1       -1 -.352961390250D-02 0.100000000000D+01
0.228562391728D-03 0.000000000000D+00 0.227156470553D-04 0.141384726778D-06 0.000000000000D+00  7 -1 1 23 -13 13 23 21 2 0.13516821D+00 0.22657104D-01 0.12166401D+06 0.12166401D+06 0.12166401D+06 0.11147998D+01  1  2  6  1  7  1       -1 0.385640520855D-02 0.100000000000D+01
0.259071332626D-06 0.000000000000D+00 0.000000000000D+00 0.141384726778D-06 0.137952701826D-07  7 -1 1 23 -13 13 23 21 2 0.13927538D+00 0.22756575D-01 0.12460419D+06 0.12460419D+06 0.12460419D+06 0.11139658D+01  1  2 11  1  7  1       -1 0.400528373978D-05 0.100000000000D+01
0.541795080842D-06 0.000000000000D+00 0.000000000000D+00 0.141384726778D-06 0.000000000000D+00  7 21 1 23 -13 13 23 1 2 0.13956676D+00 0.22657104D-01 0.12460419D+06 0.12460419D+06 0.12460419D+06 0.11139658D+01  1  2 12  3  7  1       -1 0.544124941530D-04 0.100000000000D+01
-.130612997653D-05 0.000000000000D+00 -.131083458448D-06 0.141384726778D-06 0.000000000000D+00  7 21 1 23 -13 13 23 1 2 0.13960079D+00 0.22657104D-01 0.12166401D+06 0.12166401D+06 0.12166401D+06 0.11147998D+01  1  2  5  3  7  1       -1 -.131461687614D-03 0.100000000000D+01
0.146845327645D-08 0.000000000000D+00 0.000000000000D+00 0.141384726778D-06 0.740487532232D-10  7 21 1 23 -13 13 23 1 2 0.13927538D+00 0.22756575D-01 0.12460419D+06 0.12460419D+06 0.12460419D+06 0.11139658D+01  1  2 11  3  7  1       -1 0.147520450632D-06 0.100000000000D+01
  </mgrwgt>
  </event>
  <event>
  8     66 0.58687835E-06 0.52967360E+03 0.75467711E-02 0.80218491E-01
       -1 -1    0    0    0  501 0.00000000E+00 0.00000000E+00 0.12901032E+04 0.12901032E+04 0.32000000E+00 0.0000E+00 0.9000E+01
        1 -1    0    0  501    0 0.00000000E+00 0.00000000E+00 -.81083723E+03 0.81083729E+03 0.32000000E+00 0.0000E+00 0.9000E+01
       25  2    1    2    0    0 -.42723040E+03 0.24348495E+03 0.11370322E+04 0.12746306E+04 0.30005037E+03 0.0000E+00 0.0000E+00
       23  2    1    2    0    0 0.42723040E+03 -.24348495E+03 -.65776623E+03 0.82630992E+03 0.91219197E+02 0.0000E+00 0.0000E+00
       23  1    3    3    0    0 -.23876826E+03 0.21059861E+02 0.66117496E+03 0.70916950E+03 0.91188000E+02 0.0000E+00 0.9000E+01
      -13  1    4    4    0    0 0.75685029E+02 -.12290368E+02 -.13495337E+03 0.15521502E+03 0.10565837E+00 0.0000E+00 0.9000E+01
       13  1    4    4    0    0 0.35154537E+03 -.23119458E+03 -.52281285E+03 0.67109491E+03 0.10565837E+00 0.0000E+00 0.9000E+01
       23  1    3    3    0    0 -.18846214E+03 0.22242509E+03 0.47585720E+03 0.56546107E+03 0.91188000E+02 0.0000E+00 0.9000E+01
#aMCatNLO 1  0  0  2  2 0.21238162D+04 0.00000000D+00  -5  7  0 0.00000000D+00 0.00000000D+00 0.00000000D+00 0.00000000D+00 0.00000000D+00
  <mgrwgt>
 0.3263766117D-03    5    2    0
 0.102277259556217D+04 0.000000000000000D+00 0.000000000000000D+00 0.102277259556217D+04
 0.102277259556217D+04 0.000000000000000D+00 0.000000000000000D+00 -.102277259556217D+04
 0.573462903364225D+03 -.238768259161278D+03 0.210598607928692D+02 0.512923630642422D+03
 0.191036778983494D+03 0.756846592234448D+02 -.122900743999853D+02 -.174973819052629D+03
 0.811763321048099D+03 0.351545742446051D+03 -.231194875046110D+03 -.694207613124134D+03
 0.469282187728519D+03 -.188462142508218D+03 0.222425088653226D+03 0.356257801534341D+03
 0.000000000000000D+00 0.000000000000000D+00 0.000000000000000D+00 -.000000000000000D+00
 0.167215096854135D+04 0.000000000000000D+00 0.000000000000000D+00 0.167215096854135D+04
 0.717532367869147D+04 0.000000000000000D+00 0.000000000000000D+00 -.717532367869147D+04
 0.967524586816593D+03 -.655717320795720D+03 -.484492228098345D+03 0.512923630642422D+03
 0.235230388773435D+03 -.396515759727069D+02 -.152135633470663D+03 -.174973819052629D+03
 0.112312715678102D+04 -.171982692558704D+03 -.865974799656305D+03 -.694207613124134D+03
 0.622821026724048D+03 -.483955398213055D+03 -.135861441814663D+03 0.356257801534341D+03
 0.589877148813772D+04 0.135130698754018D+04 0.163846410303998D+04 -.550317271015012D+04
0.820445083281D-03 0.000000000000D+00 0.000000000000D+00 0.161539225668D-04 0.000000000000D+00  7 -1 1 23 -13 13 23 21 0 0.19847742D+00 0.12474420D+00 0.28055412D+06 0.28055412D+06 0.28055412D+06 0.10867117D+01  1  2  2  2  7  2        1 0.313072770504D-03 0.100000000000D+01
-.215850226948D-04 0.000000000000D+00 -.315072514795D-05 0.161539225668D-04 0.000000000000D+00  7 -1 1 23 -13 13 23 21 2 0.19847742D+00 0.12474420D+00 0.28055412D+06 0.28055412D+06 0.28055412D+06 0.10867117D+01  1  2  3  2  7  2        1 -.972695726749D-05 0.100000000000D+01
0.511051786464D-04 0.000000000000D+00 0.000000000000D+00 0.161539225668D-04 0.000000000000D+00  7 -1 1 23 -13 13 23 21 2 0.19847742D+00 0.12474420D+00 0.28055412D+06 0.28055412D+06 0.28055412D+06 0.10867117D+01  1  2 15  2  7  2        1 0.230297598418D-04 0.100000000000D+01
0.226841065974D-03 0.000000000000D+00 -.416307600044D-03 0.161539225668D-04 0.000000000000D+00  7 -1 1 23 -13 13 23 21 2 0.19847742D+00 0.89340757D+00 0.28055412D+06 0.28055412D+06 0.28055412D+06 0.10867117D+01  1  2  5  2  7  2        1 0.103766856137D-08 0.100000000000D+01
0.135175624508D-04 0.000000000000D+00 -.100094421512D-03 0.161539225668D-04 0.000000000000D+00  7 -1 21 23 -13 13 23 -1 2 0.19847742D+00 0.89340757D+00 0.28055412D+06 0.28055412D+06 0.28055412D+06 0.10867117D+01  1  2  5  4  7  2        1 0.989313743840D-12 0.100000000000D+01
  </mgrwgt>
  </event>
  <event>
  7     66 0.58687835E-06 0.29636320E+03 0.75467711E-02 0.90363496E-01
       -1 -1    0    0    0  501 0.00000000E+00 0.00000000E+00 0.92200141E+02 0.92200697E+02 0.32000000E+00 0.0000E+00 0.9000E+01
        1 -1    0    0  501    0 0.00000000E+00 0.00000000E+00 -.12238776E+04 0.12238776E+04 0.32000000E+00 0.0000E+00 0.9000E+01
       25  2    1    2    0    0 -.98981322E+02 0.68265959E+02 -.85823055E+03 0.91422219E+03 0.29117860E+03 0.0000E+00 0.0000E+00
       23  1    3    3    0    0 -.34612429E+02 -.70378932E+02 -.21006200E+03 0.24205890E+03 0.91188000E+02 0.0000E+00 0.9000E+01
      -11  1    1    2    0    0 -.93368319E+02 -.32142702E+02 -.89725766E+02 0.13342230E+03 0.51099893E-03 0.0000E+00 0.9000E+01
       11  1    1    2    0    0 0.19234964E+03 -.36123257E+02 -.18372111E+03 0.26843383E+03 0.51099893E-03 0.0000E+00 0.9000E+01
       23  1    3    3    0    0 -.64368893E+02 0.13864489E+03 -.64816855E+03 0.67216329E+03 0.91188000E+02 0.0000E+00 0.9000E+01
#aMCatNLO 1  0  0  1  2 0.62176774D+03 0.00000000D+00  -5  7  0 0.00000000D+00 0.00000000D+00 0.00000000D+00 0.00000000D+00 0.00000000D+00
  <mgrwgt>
 0.2318952481D-02    5    2    0
 0.335919749518702D+03 0.000000000000000D+00 0.000000000000000D+00 0.335919749518702D+03
 0.335919749518702D+03 0.000000000000000D+00 0.000000000000000D+00 -.335919749518702D+03
 0.120335343866679D+03 -.346124726981937D+02 -.703789012307817D+02 -.375907365935872D+01
 0.110224955582788D+03 -.933681268590476D+02 -.321427205087954D+02 0.489773339245186D+02
 0.216371482494974D+03 0.192349574807487D+03 -.361233254136506D+02 0.922678972856300D+02
 0.224907717092964D+03 -.643689752502452D+02 0.138644947153228D+03 -.137486157550790D+03
 0.000000000000000D+00 -.000000000000000D+00 -.000000000000000D+00 0.000000000000000D+00
 0.110017119148713D+04 0.000000000000000D+00 0.000000000000000D+00 0.110017119148713D+04
 0.608134979449613D+03 0.000000000000000D+00 0.000000000000000D+00 -.608134979449613D+03
 0.917142526549464D+02 0.905776683085598D+01 0.281107304600013D+00 -.375907365935872D+01
 0.794525827597815D+02 -.543052676573524D+02 0.310623819677345D+02 0.489773339245186D+02
 0.359962449609608D+03 0.311041811324708D+03 0.155924955883535D+03 0.922678972856300D+02
 0.384274143640961D+03 0.610880791907411D+02 0.341638945657106D+03 -.137486157550790D+03
 0.792902742271444D+03 -.326882389688953D+03 -.528907390812976D+03 0.492036212037514D+03
0.495903732303D-04 0.000000000000D+00 0.000000000000D+00 0.386486159862D-12 0.000000000000D+00  7 -1 1 23 -11 11 23 21 0 0.14184683D-01 0.18828890D+00 0.87831149D+05 0.87831149D+05 0.87831149D+05 0.11263759D+01  1  2  2  1  7  1       -1 0.210760594316D-02 0.100000000000D+01
-.270244138162D-05 0.000000000000D+00 -.190440090650D-06 0.386486159862D-12 0.000000000000D+00  7 -1 1 23 -11 11 23 21 2 0.14184683D-01 0.18828890D+00 0.87831149D+05 0.87831149D+05 0.87831149D+05 0.11263759D+01  1  2  3  1  7  1       -1 -.145718602567D-03 0.100000000000D+01
0.316260957496D-05 0.000000000000D+00 0.000000000000D+00 0.386486159862D-12 0.000000000000D+00  7 -1 1 23 -11 11 23 21 2 0.14184683D-01 0.18828890D+00 0.87831149D+05 0.87831149D+05 0.87831149D+05 0.11263759D+01  1  2 15  1  7  1       -1 0.170531376133D-03 0.100000000000D+01
0.326550640193D-04 0.000000000000D+00 -.240674272861D-04 0.386486159862D-12 0.000000000000D+00  7 -1 1 23 -11 11 23 21 2 0.84644872D-01 0.18828890D+00 0.87831149D+05 0.87831149D+05 0.87831149D+05 0.11263759D+01  1  2  5  1  7  1       -1 0.802370931052D-04 0.100000000000D+01
0.563643807528D-05 0.000000000000D+00 -.526885196151D-05 0.386486159862D-12 0.000000000000D+00  7 21 1 23 -11 11 23 1 2 0.84644872D-01 0.18828890D+00 0.87831149D+05 0.87831149D+05 0.87831149D+05 0.11263759D+01  1  2  5  3  7  1       -1 0.106296671537D-03 0.100000000000D+01
  </mgrwgt>
  </event>
  <event>
  8     66 0.58687835E-06 0.16706665E+03 0.75467711E-02 0.87244039E-01
       -1 -1    0    0    0  501 0.00000000E+00 0.00000000E+00 0.75238687E+02 0.75239367E+02 0.32000000E+00 0.0000E+00 0.9000E+01
        1 -1    0    0  501    0 0.00000000E+00 0.00000000E+00 -.11113233E+04 0.11113233E+04 0.32000000E+00 0.0000E+00 0.9000E+01
       25  2    1    2    0    0 -.60902101E+01 0.39261805E+02 -.24633075E+03 0.39024936E+03 0.30006190E+03 0.0000E+00 0.0000E+00
       23  2    1    2    0    0 0.60902101E+01 -.39261805E+02 -.78975384E+03 0.79631333E+03 0.93942626E+02 0.0000E+00 0.0000E+00
       23  1    3    3    0    0 -.90208586E+02 0.12821974E+02 -.19519770E+02 0.13037739E+03 0.91188000E+02 0.0000E+00 0.9000E+01
      -11  1    4    4    0    0 -.17992602E+02 0.12078015E+02 -.52994062E+03 0.53038352E+03 0.51099893E-03 0.0000E+00 0.9000E+01
       11  1    4    4    0    0 0.24082813E+02 -.51339820E+02 -.25981322E+03 0.26592982E+03 0.51099893E-03 0.0000E+00 0.9000E+01
       23  1    3    3    0    0 0.84118376E+02 0.26439831E+02 -.22681098E+03 0.25987197E+03 0.91188000E+02 0.0000E+00 0.9000E+01
#aMCatNLO 1  0  0  1  2 0.97481975D+03 0.00000000D+00  -5  7  0 0.00000000D+00 0.00000000D+00 0.00000000D+00 0.00000000D+00 0.00000000D+00
  <mgrwgt>
 0.1479477219D-03    5    2    0
 0.289162472795246D+03 0.000000000000000D+00 0.000000000000000D+00 0.289162472795246D+03
 0.289162472795246D+03 0.000000000000000D+00 0.000000000000000D+00 -.289162472795246D+03
 0.232528130778307D+03 -.902085861166699D+02 0.128219737473574D+02 0.193525420137270D+03
 0.138797368906059D+03 -.179926024348915D+02 0.120780153882554D+02 -.137095212962181D+03
 0.801520451173386D+02 0.240828125126501D+02 -.513398201568003D+02 -.566444290662359D+02
 0.126847400788787D+03 0.841183760389113D+02 0.264398310211874D+02 0.214221891146920D+00
 0.000000000000000D+00 0.000000000000000D+00 -.000000000000000D+00 0.000000000000000D+00
 0.512963278690637D+04 0.000000000000000D+00 0.000000000000000D+00 0.512963278690637D+04
 0.618795569228231D+03 0.000000000000000D+00 0.000000000000000D+00 -.618795569228231D+03
 0.609239332535948D+03 -.566695392800270D+03 0.652805982240409D+02 0.193525420137270D+03
 0.304403315992181D+03 -.268868632063882D+03 0.396981115670097D+02 -.137095212962181D+03
 0.107270095554353D+03 -.820084552097268D+02 -.396597444534681D+02 -.566444290662359D+02
 0.112548012196030D+03 -.513926300751994D+02 0.413588610603929D+02 0.214221891146920D+00
 0.461496759985609D+04 0.968965110149078D+03 -.106677826397975D+03 0.451083721767814D+04
0.202004830748D-05 0.000000000000D+00 0.000000000000D+00 0.922180172574D-07 0.000000000000D+00  7 -1 1 23 -11 11 23 21 0 0.11575239D-01 0.17097287D+00 0.27911267D+05 0.27911267D+05 0.27911267D+05 0.11702551D+01  1  2  2  1  7  1       -1 0.142697930014D-03 0.100000000000D+01
-.711595295046D-07 0.000000000000D+00 -.775751739166D-08 0.922180172574D-07 0.000000000000D+00  7 -1 1 23 -11 11 23 21 2 0.11575239D-01 0.17097287D+00 0.27911267D+05 0.27911267D+05 0.27911267D+05 0.11702551D+01  1  2  3  1  7  1       -1 -.688414556790D-05 0.100000000000D+01
0.128096246080D-06 0.000000000000D+00 0.000000000000D+00 0.922180172574D-07 0.000000000000D+00  7 -1 1 23 -11 11 23 21 2 0.11575239D-01 0.17097287D+00 0.27911267D+05 0.27911267D+05 0.27911267D+05 0.11702551D+01  1  2 15  1  7  1       -1 0.123923416984D-04 0.100000000000D+01
0.873278228833D-06 0.000000000000D+00 -.396858488322D-05 0.922180172574D-07 0.000000000000D+00  7 -1 1 23 -11 11 23 21 2 0.33200932D+00 0.17097287D+00 0.27911267D+05 0.27911267D+05 0.27911267D+05 0.11702551D+01  1  2  5  1  7  1       -1 0.245720477464D-07 0.100000000000D+01
-.853881202725D-06 0.000000000000D+00 -.133804586015D-05 0.922180172574D-07 0.000000000000D+00  7 21 1 23 -11 11 23 1 2 0.33200932D+00 0.17097287D+00 0.27911267D+05 0.27911267D+05 0.27911267D+05 0.11702551D+01  1  2  5  3  7  1       -1 -.282976243230D-06 0.100000000000D+01
  </mgrwgt>
  </event>
  <event>
  8     66 0.58687835E-06 0.14274085E+03 0.75467711E-02 0.10309162E+00
       -1 -1    0    0    0  501 0.00000000E+00 0.00000000E+00 0.13749492E+03 0.13749529E+03 0.32000000E+00 0.0000E+00 0.9000E+01
        1 -1    0    0  501    0 0.00000000E+00 0.00000000E+00 -.37883911E+03 0.37883924E+03 0.32000000E+00 0.0000E+00 0.9000E+01
       25  2    1    2    0    0 -.47715447E+02 0.91465633E+02 -.19026472E+03 0.36985245E+03 0.29991240E+03 0.0000E+00 0.0000E+00
       23  2    1    2    0    0 0.47715447E+02 -.91465633E+02 -.51079463E+02 0.14648208E+03 0.90582355E+02 0.0000E+00 0.0000E+00
       23  1    3    3    0    0 -.11177379E+03 -.20233398E+02 -.37905166E+02 0.15051520E+03 0.91188000E+02 0.0000E+00 0.9000E+01
      -13  1    4    4    0    0 -.15202731E+02 -.34847020E+02 0.13149598E+02 0.40228857E+02 0.10565837E+00 0.0000E+00 0.9000E+01
       13  1    4    4    0    0 0.62918178E+02 -.56618613E+02 -.64229061E+02 0.10625323E+03 0.10565837E+00 0.0000E+00 0.9000E+01
       23  1    3    3    0    0 0.64058347E+02 0.11169903E+03 -.15235956E+03 0.21933726E+03 0.91188000E+02 0.0000E+00 0.9000E+01
#aMCatNLO 1  0  0  1  2 0.74004770D+02 0.00000000D+00  -5  7  0 0.00000000D+00 0.00000000D+00 0.00000000D+00 0.00000000D+00 0.00000000D+00
  <mgrwgt>
 0.5560350830D-03    8    2    0
 0.228229235092709D+03 0.000000000000000D+00 0.000000000000000D+00 0.228229235092709D+03
 0.228229235092709D+03 0.000000000000000D+00 0.000000000000000D+00 -.228229235092709D+03
 0.150217396478324D+03 -.111773797491664D+03 -.202333911543125D+02 0.367048080966929D+02
 0.524584498912899D+02 -.152028232870067D+02 -.348469964611855D+02 0.361448470287971D+02
 0.862311089913002D+02 0.629182785336590D+02 -.566186522039967D+02 -.164749084013618D+02
 0.167551514824503D+03 0.640583422450117D+02 0.111699039819495D+03 -.563747467241282D+02
 0.000000000000000D+00 -.000000000000000D+00 -.000000000000000D+00 0.000000000000000D+00
 0.444461177630855D+03 0.000000000000000D+00 0.000000000000000D+00 0.444461177630855D+03
 0.237629810484892D+03 0.000000000000000D+00 0.000000000000000D+00 -.237629810484892D+03
 0.145140336280794D+03 -.106743268888164D+03 0.301620313574055D+01 0.367048080966929D+02
 0.471002771831484D+02 -.135071404971998D+02 -.270100592295384D+02 0.361448470287971D+02
 0.805424472773903D+02 0.657587633155533D+02 -.434907835501611D+02 -.164749084013618D+02
 0.189635625055915D+03 0.701419484102726D+02 0.139815642727660D+03 -.563747467241282D+02
 0.219672302318499D+03 -.156503023404624D+02 -.723310030837011D+02 0.206831367145962D+03
0.942923536408D-06 0.000000000000D+00 0.000000000000D+00 0.178886094616D-06 0.000000000000D+00  7 -1 1 23 -13 13 23 21 0 0.21153104D-01 0.58282979D-01 0.45392099D+05 0.45392099D+05 0.45392099D+05 0.11510072D+01  1  2  2  1  7  1       -1 0.128198367388D-03 0.100000000000D+01
-.520831243046D-07 0.000000000000D+00 -.362107465728D-08 0.178886094616D-06 0.000000000000D+00  7 -1 1 23 -13 13 23 21 2 0.21153104D-01 0.58282979D-01 0.45392099D+05 0.45392099D+05 0.45392099D+05 0.11510072D+01  1  2  3  1  7  1       -1 -.938121582978D-05 0.100000000000D+01
0.623800575215D-07 0.000000000000D+00 0.000000000000D+00 0.178886094616D-06 0.000000000000D+00  7 -1 1 23 -13 13 23 21 2 0.21153104D-01 0.58282979D-01 0.45392099D+05 0.45392099D+05 0.45392099D+05 0.11510072D+01  1  2 15  1  7  1       -1 0.112359001288D-04 0.100000000000D+01
0.252238276393D-05 0.000000000000D+00 0.000000000000D+00 0.178886094616D-06 0.000000000000D+00  7 -1 1 23 -13 13 23 21 2 0.41234696D-01 0.58282979D-01 0.63637162D+05 0.63637162D+05 0.63637162D+05 0.11381948D+01  1  2 12  1  7  1       -1 0.147073878435D-03 0.100000000000D+01
-.278883065424D-05 0.000000000000D+00 -.308363150220D-06 0.178886094616D-06 0.000000000000D+00  7 -1 1 23 -13 13 23 21 2 0.42274544D-01 0.58282979D-01 0.45392099D+05 0.45392099D+05 0.45392099D+05 0.11510072D+01  1  2  5  1  7  1       -1 -.159801792770D-03 0.100000000000D+01
0.245222304861D-05 0.000000000000D+00 0.246801321586D-06 0.178886094616D-06 0.000000000000D+00  7 -1 1 23 -13 13 23 21 2 0.21153104D-01 0.58282979D-01 0.45392099D+05 0.45392099D+05 0.45392099D+05 0.11510072D+01  1  2  6  1  7  1       -1 0.441694579365D-03 0.100000000000D+01
0.182465950301D-06 0.000000000000D+00 0.000000000000D+00 0.178886094616D-06 0.000000000000D+00  7 21 1 23 -13 13 23 1 2 0.41234696D-01 0.58282979D-01 0.63637162D+05 0.63637162D+05 0.63637162D+05 0.11381948D+01  1  2 12  3  7  1       -1 0.106639658474D-03 0.100000000000D+01
-.190452454094D-06 0.000000000000D+00 -.231030027719D-07 0.178886094616D-06 0.000000000000D+00  7 21 1 23 -13 13 23 1 2 0.42274544D-01 0.58282979D-01 0.45392099D+05 0.45392099D+05 0.45392099D+05 0.11510072D+01  1  2  5  3  7  1       -1 -.109624292229D-03 0.100000000000D+01
  </mgrwgt>
  </event>
  <event>
  8     66 0.58687835E-06 0.11072889E+03 0.75467711E-02 0.10069026E+00
       -1 -1    0    0    0  501 0.00000000E+00 0.00000000E+00 0.61284973E+03 0.61284981E+03 0.32000000E+00 0.0000E+00 0.9000E+01
        1 -1    0    0  501    0 0.00000000E+00 0.00000000E+00 -.23511681E+03 0.23511702E+03 0.32000000E+00 0.0000E+00 0.9000E+01
       25  2    1    2    0    0 0.14458695E+03 0.83572938E+02 0.51204435E+03 0.61521139E+03 0.29733116E+03 0.0000E+00 0.0000E+00
       23  2    1    2    0    0 -.14458695E+03 -.83572938E+02 -.13431142E+03 0.23275545E+03 0.90805939E+02 0.0000E+00 0.0000E+00
       23  1    3    3    0    0 -.45700393E+02 0.14567188E+02 0.83671662E+02 0.13272877E+03 0.91188000E+02 0.0000E+00 0.9000E+01
      -11  1    4    4    0    0 0.13007031E+02 -.55235622E+01 -.12032107E+02 0.18559747E+02 0.51099893E-03 0.0000E+00 0.9000E+01
       11  1    4    4    0    0 -.15759398E+03 -.78049376E+02 -.12227931E+03 0.21419570E+03 0.51099893E-03 0.0000E+00 0.9000E+01
       23  1    3    3    0    0 0.19028734E+03 0.69005751E+02 0.42837268E+03 0.48248262E+03 0.91188000E+02 0.0000E+00 0.9000E+01
#aMCatNLO 1  0  0  1  2 0.83660593D+02 0.00000000D+00  -5  7  0 0.00000000D+00 0.00000000D+00 0.00000000D+00 0.00000000D+00 0.00000000D+00
  <mgrwgt>
 0.4229780450D-03    9    2    0
 0.379593728126453D+03 0.000000000000000D+00 0.000000000000000D+00 0.379593728126453D+03
 0.379593728126453D+03 0.000000000000000D+00 0.000000000000000D+00 -.379593728126453D+03
 0.106619327978574D+03 -.457003931623007D+02 0.145671876396466D+02 0.274171636695928D+02
 0.267166855459615D+02 0.130070307678987D+02 -.552356216933276D+01 -.226735241664423D+02
 0.300083691366802D+03 -.157593980749694D+03 -.780493760574613D+02 -.243151504113859D+03
 0.325767751361568D+03 0.190287343144096D+03 0.690057505871475D+02 0.238407864610708D+03
 0.000000000000000D+00 0.000000000000000D+00 0.000000000000000D+00 0.000000000000000D+00
 0.452009089795006D+03 0.000000000000000D+00 0.000000000000000D+00 0.452009089795006D+03
 0.406846443489776D+03 0.000000000000000D+00 0.000000000000000D+00 -.406846443489776D+03
 0.110451071000277D+03 -.554384339239646D+02 0.768550073067464D+01 0.274171636695928D+02
 0.260591406633388D+02 0.106394433433842D+02 -.719669085957903D+01 -.226735241664423D+02
 0.321046444540322D+03 -.185458630237673D+03 -.977407902030468D+02 -.243151504113859D+03
 0.306226486198738D+03 0.161935316909978D+03 0.489699166290213D+02 0.238407864610708D+03
 0.950723908821056D+02 0.683223039082758D+02 0.482820637029299D+02 0.451626463052300D+02
0.171385899700D-04 0.000000000000D+00 0.000000000000D+00 0.146398217406D-05 0.000000000000D+00  7 -1 1 23 -11 11 23 21 0 0.94284597D-01 0.36171839D-01 0.66314675D+05 0.66314675D+05 0.66314675D+05 0.11366618D+01  1  2  2  1  7  1       -1 0.300808936821D-03 0.100000000000D+01
-.777847455571D-06 0.000000000000D+00 -.658166981792D-07 0.146398217406D-05 0.000000000000D+00  7 -1 1 23 -11 11 23 21 2 0.94284597D-01 0.36171839D-01 0.66314675D+05 0.66314675D+05 0.66314675D+05 0.11366618D+01  1  2  3  1  7  1       -1 -.176389450000D-04 0.100000000000D+01
0.107787862361D-05 0.000000000000D+00 0.000000000000D+00 0.146398217406D-05 0.000000000000D+00  7 -1 1 23 -11 11 23 21 2 0.94284597D-01 0.36171839D-01 0.66314675D+05 0.66314675D+05 0.66314675D+05 0.11366618D+01  1  2 15  1  7  1       -1 0.244426354067D-04 0.100000000000D+01
0.188103790956D-04 0.000000000000D+00 0.000000000000D+00 0.146398217406D-05 0.000000000000D+00  7 -1 1 23 -11 11 23 21 2 0.11517163D+00 0.36171839D-01 0.91604905D+05 0.91604905D+05 0.91604905D+05 0.11248605D+01  1  2 12  1  7  1       -1 0.264191951667D-03 0.100000000000D+01
-.204100837047D-04 0.000000000000D+00 0.000000000000D+00 0.146398217406D-05 0.000000000000D+00  7 -1 1 23 -11 11 23 21 2 0.94284597D-01 0.36171839D-01 0.66314675D+05 0.66314675D+05 0.66314675D+05 0.11366618D+01  1  2  4  1  7  1       -1 -.462831550496D-03 0.100000000000D+01
-.346158211310D-04 0.000000000000D+00 -.106101479031D-04 0.146398217406D-05 0.000000000000D+00  7 -1 1 23 -11 11 23 21 2 0.11790895D+00 0.36171839D-01 0.66314675D+05 0.66314675D+05 0.66314675D+05 0.11366618D+01  1  2  5  1  7  1       -1 -.474051941791D-03 0.100000000000D+01
0.363359149775D-04 0.000000000000D+00 0.103503372936D-04 0.146398217406D-05 0.000000000000D+00  7 -1 1 23 -11 11 23 21 2 0.94284597D-01 0.36171839D-01 0.66314675D+05 0.66314675D+05 0.66314675D+05 0.11366618D+01  1  2  6  1  7  1       -1 0.823975448171D-03 0.100000000000D+01
0.538511262506D-06 0.000000000000D+00 0.000000000000D+00 0.146398217406D-05 0.000000000000D+00  7 21 1 23 -11 11 23 1 2 0.11517163D+00 0.36171839D-01 0.91604905D+05 0.91604905D+05 0.91604905D+05 0.11248605D+01  1  2 12  3  7  1       -1 0.520358820901D-04 0.100000000000D+01
-.930379347496D-06 0.000000000000D+00 -.330451176462D-06 0.146398217406D-05 0.000000000000D+00  7 21 1 23 -11 11 23 1 2 0.11790895D+00 0.36171839D-01 0.66314675D+05 0.66314675D+05 0.66314675D+05 0.11366618D+01  1  2  5  3  7  1       -1 -.879543718870D-04 0.100000000000D+01
  </mgrwgt>
  </event>
  <event>
  9     66 0.58687835E-06 0.20205945E+03 0.75467711E-02 0.10360493E+00
       -1 -1    0    0    0  502 0.00000000E+00 0.00000000E+00 0.27890247E+03 0.27890266E+03 0.32000000E+00 0.0000E+00 0.9000E+01
        1 -1    0    0  501    0 0.00000000E+00 0.00000000E+00 -.68041021E+03 0.68041028E+03 0.32000000E+00 0.0000E+00 0.9000E+01
       25  2    1    2    0    0 -.25548986E+02 0.78437098E+02 0.16166332E+03 0.34969199E+03 0.29890522E+03 0.0000E+00 0.0000E+00
       23  2    1    2    0    0 -.37187085E+02 -.99320260E+02 -.49645702E+03 0.51568880E+03 0.90653066E+02 0.0000E+00 0.0000E+00
       23  1    3    3    0    0 0.95000944E+02 0.87931740E+02 0.90120610E+02 0.18219261E+03 0.91188000E+02 0.0000E+00 0.9000E+01
      -13  1    4    4    0    0 -.25323664E+01 -.47387695E+02 -.69287159E+02 0.83980522E+02 0.10565837E+00 0.0000E+00 0.9000E+01
       13  1    4    4    0    0 -.34654718E+02 -.51932564E+02 -.42716986E+03 0.43170828E+03 0.10565837E+00 0.0000E+00 0.9000E+01
       23  1    3    3    0    0 -.12054993E+03 -.94946419E+01 0.71542714E+02 0.16749939E+03 0.91188000E+02 0.0000E+00 0.9000E+01
       21  1    1    2  501  502 0.62736070E+02 0.20883162E+02 -.66714043E+02 0.93932140E+02 0.75000000E+00 0.0000E+00 0.9000E+01
#aMCatNLO 2  0  0  1  2 0.66120504D+02 0.00000000D+00  -5  7  0 0.00000000D+00 0.00000000D+00 0.00000000D+00 0.00000000D+00 0.00000000D+00
  <mgrwgt>
 0.7087489438D-04    1    2    0
 0.397625825085976D+03 0.000000000000000D+00 0.000000000000000D+00 0.397625825085976D+03
 0.397625825085976D+03 0.000000000000000D+00 0.000000000000000D+00 -.397625825085976D+03
 0.246002725869110D+03 0.113956254832154D+03 0.942414564249962D+02 0.174168337152759D+03
 0.607725976342404D+02 0.230210999817743D+01 -.457784356383902D+02 -.399041820273431D+02
 0.285846509319280D+03 -.120215579327933D+02 -.443985816753496D+02 -.282121383415195D+03
 0.202629817349322D+03 -.104236806897538D+03 -.406443911125645D+01 0.147857228289779D+03
 0.000000000000000D+00 0.000000000000000D+00 0.000000000000000D+00 -.000000000000000D+00
 0.419463799341522D+03 0.000000000000000D+00 0.000000000000000D+00 0.419463799341522D+03
 0.452402632504661D+03 0.000000000000000D+00 0.000000000000000D+00 -.452402632504661D+03
 0.235386981816308D+03 0.950009438578151D+02 0.879317397994478D+02 0.174168337152759D+03
 0.620028183729567D+02 -.253232279767507D+01 -.473876891625547D+02 -.399041820273431D+02
 0.288947087507764D+03 -.346547617590690D+02 -.519325705751049D+02 -.282121383415195D+03
 0.211658794052507D+03 -.120549929793345D+03 -.949464191244667D+01 0.147857228289779D+03
 0.738707500966480D+02 0.627360704922737D+02 0.208831618506584D+02 -.329388331631388D+02
0.290935336940D-05 0.000000000000D+00 0.000000000000D+00 0.383665671283D-06 0.612350684194D-09  7 -1 1 23 -13 13 23 21 2 0.42907902D-01 0.10467805D+00 0.59001378D+05 0.59001378D+05 0.59001378D+05 0.11410250D+01  1  2  1  1  7  1       -1 0.708748943802D-04 0.100000000000D+01
  </mgrwgt>
  </event>
  <event>
  8     66 0.58687835E-06 0.21108288E+03 0.75467711E-02 0.10101305E+00
       -1 -1    0    0    0  501 0.00000000E+00 0.00000000E+00 0.79969512E+02 0.79970152E+02 0.32000000E+00 0.0000E+00 0.9000E+01
        1 -1    0    0  501    0 0.00000000E+00 0.00000000E+00 -.13747143E+04 0.13747143E+04 0.32000000E+00 0.0000E+00 0.9000E+01
       25  2    1    2    0    0 0.97217142E+01 0.19012416E+03 -.40167999E+03 0.53656844E+03 0.30052815E+03 0.0000E+00 0.0000E+00
       23  2    1    2    0    0 -.97217142E+01 -.19012416E+03 -.89306481E+03 0.91811606E+03 0.95554377E+02 0.0000E+00 0.0000E+00
       23  1    3    3    0    0 -.83450709E+02 0.18569864E+03 -.28176006E+03 0.35937723E+03 0.91188000E+02 0.0000E+00 0.9000E+01
      -11  1    4    4    0    0 -.93284696E+01 0.35969298E+01 -.10335406E+02 0.14379807E+02 0.51099893E-03 0.0000E+00 0.9000E+01
       11  1    4    4    0    0 -.39324451E+00 -.19372109E+03 -.88272940E+03 0.90373625E+03 0.51099893E-03 0.0000E+00 0.9000E+01
       23  1    3    3    0    0 0.93172423E+02 0.44255130E+01 -.11991993E+03 0.17719121E+03 0.91188000E+02 0.0000E+00 0.9000E+01
#aMCatNLO 1  0  0  1  2 0.30134293D+02 0.00000000D+00  -5  7  0 0.00000000D+00 0.00000000D+00 0.00000000D+00 0.00000000D+00 0.00000000D+00
  <mgrwgt>
 0.2047909892D-03    9    2    0
 0.331565565615055D+03 0.000000000000000D+00 0.000000000000000D+00 0.331565565615055D+03
 0.331565565615055D+03 0.000000000000000D+00 0.000000000000000D+00 -.331565565615055D+03
 0.238223027343190D+03 -.834507088570449D+02 0.185698643205370D+03 0.835879926514312D+02
 0.113648263028643D+02 -.932846963428610D+01 0.359692981636546D+01 0.540379746776462D+01
 0.258986202237669D+03 -.393244523872409D+00 -.193721086040543D+03 -.171889031446185D+03
 0.154557075346387D+03 0.931724230152034D+02 0.442551301880809D+01 0.828972413269891D+02
 0.000000000000000D+00 -.000000000000000D+00 0.000000000000000D+00 0.000000000000000D+00
 0.351523187954974D+03 0.000000000000000D+00 0.000000000000000D+00 0.351523187954974D+03
 0.343481204129159D+03 0.000000000000000D+00 0.000000000000000D+00 -.343481204129159D+03
 0.229254804509316D+03 -.799873146269497D+02 0.175663288793869D+03 0.835879926514312D+02
 0.110837494928199D+02 -.916215529254174D+01 0.311502586543289D+01 0.540379746776462D+01
 0.267569158807727D+03 0.350783628683381D+01 -.205024658756336D+03 -.171889031446185D+03
 0.155907753126939D+03 0.954725579570487D+02 -.223924063098309D+01 0.828972413269891D+02
 0.311889261473300D+02 -.983092432439116D+01 0.284855847280169D+02 0.804198382581506D+01
0.400164839964D-05 0.000000000000D+00 0.000000000000D+00 0.555662697537D-07 0.000000000000D+00  7 -1 1 23 -11 11 23 21 0 0.12303054D-01 0.21149456D+00 0.77629479D+05 0.77629479D+05 0.77629479D+05 0.11308599D+01  1  2  2  1  7  1       -1 0.167854570792D-03 0.100000000000D+01
-.214132577793D-06 0.000000000000D+00 -.153673835128D-07 0.555662697537D-07 0.000000000000D+00  7 -1 1 23 -11 11 23 21 2 0.12303054D-01 0.21149456D+00 0.77629479D+05 0.77629479D+05 0.77629479D+05 0.11308599D+01  1  2  3  1  7  1       -1 -.114866823731D-04 0.100000000000D+01
0.259841217260D-06 0.000000000000D+00 0.000000000000D+00 0.555662697537D-07 0.000000000000D+00  7 -1 1 23 -11 11 23 21 2 0.12303054D-01 0.21149456D+00 0.77629479D+05 0.77629479D+05 0.77629479D+05 0.11308599D+01  1  2 15  1  7  1       -1 0.139386241966D-04 0.100000000000D+01
0.919983385656D-05 0.000000000000D+00 0.000000000000D+00 0.555662697537D-07 0.000000000000D+00  7 -1 1 23 -11 11 23 21 2 0.13253956D-01 0.21149456D+00 0.87137752D+05 0.87137752D+05 0.87137752D+05 0.11266621D+01  1  2 12  1  7  1       -1 0.435499045572D-03 0.100000000000D+01
-.830504387129D-05 0.000000000000D+00 0.000000000000D+00 0.555662697537D-07 0.000000000000D+00  7 -1 1 23 -11 11 23 21 2 0.12303054D-01 0.21149456D+00 0.77629479D+05 0.77629479D+05 0.77629479D+05 0.11308599D+01  1  2  4  1  7  1       -1 -.445506246771D-03 0.100000000000D+01
-.290687573228D-04 0.000000000000D+00 -.583402681904D-05 0.555662697537D-07 0.000000000000D+00  7 -1 1 23 -11 11 23 21 2 0.13533540D-01 0.21149456D+00 0.77629479D+05 0.77629479D+05 0.77629479D+05 0.11308599D+01  1  2  5  1  7  1       -1 -.134498608219D-02 0.100000000000D+01
0.295170768051D-04 0.000000000000D+00 0.580762115199D-05 0.555662697537D-07 0.000000000000D+00  7 -1 1 23 -11 11 23 21 2 0.12303054D-01 0.21149456D+00 0.77629479D+05 0.77629479D+05 0.77629479D+05 0.11308599D+01  1  2  6  1  7  1       -1 0.158338020929D-02 0.100000000000D+01
0.116832887352D-06 0.000000000000D+00 0.000000000000D+00 0.555662697537D-07 0.000000000000D+00  7 21 1 23 -11 11 23 1 2 0.13253956D-01 0.21149456D+00 0.87137752D+05 0.87137752D+05 0.87137752D+05 0.11266621D+01  1  2 12  3  7  1       -1 0.735710805672D-04 0.100000000000D+01
-.435354370335D-06 0.000000000000D+00 -.909052373473D-07 0.555662697537D-07 0.000000000000D+00  7 21 1 23 -11 11 23 1 2 0.13533540D-01 0.21149456D+00 0.77629479D+05 0.77629479D+05 0.77629479D+05 0.11308599D+01  1  2  5  3  7  1       -1 -.267473529903D-03 0.100000000000D+01
  </mgrwgt>
  </event>
  <event>
  8     66 0.58687835E-06 0.55067213E+03 0.75467711E-02 0.87647517E-01
       -1 -1    0    0    0  501 0.00000000E+00 0.00000000E+00 0.33024931E+03 0.33024947E+03 0.32000000E+00 0.0000E+00 0.9000E+01
        1 -1    0    0  501    0 0.00000000E+00 0.00000000E+00 -.15842142E+04 0.15842142E+04 0.32000000E+00 0.0000E+00 0.9000E+01
       25  2    1    2    0    0 -.45654097E+03 -.24869672E+03 -.12511532E+04 0.13875712E+04 0.29948250E+03 0.0000E+00 0.0000E+00
       23  2    1    2    0    0 0.45654097E+03 0.24869672E+03 -.28117024E+01 0.52689252E+03 0.85604379E+02 0.0000E+00 0.0000E+00
       23  1    3    3    0    0 -.11911060E+03 -.39024670E+01 -.51772962E+03 0.53903782E+03 0.91188000E+02 0.0000E+00 0.9000E+01
      -13  1    4    4    0    0 0.25875948E+03 0.17989145E+03 0.22560237E+02 0.31595313E+03 0.10565837E+00 0.0000E+00 0.9000E+01
       13  1    4    4    0    0 0.19778149E+03 0.68805271E+02 -.25371940E+02 0.21093940E+03 0.10565837E+00 0.0000E+00 0.9000E+01
       23  1    3    3    0    0 -.33743036E+03 -.24479426E+03 -.73342358E+03 0.84853337E+03 0.91188000E+02 0.0000E+00 0.9000E+01
#aMCatNLO 1  0  0  2  2 0.69233188D+03 0.00000000D+00  -5  7  0 0.00000000D+00 0.00000000D+00 0.00000000D+00 0.00000000D+00 0.00000000D+00
  <mgrwgt>
 0.3051917455D-03    5    2    0
 0.723315860041334D+03 0.000000000000000D+00 0.000000000000000D+00 0.723315860041334D+03
 0.723315860041334D+03 0.000000000000000D+00 0.000000000000000D+00 -.723315860041334D+03
 0.264582599938157D+03 -.119110603922863D+03 -.390246702274058D+01 -.217913137810234D+03
 0.437686335863834D+03 0.258759571611613D+03 0.179891621144569D+03 0.303729842694560D+03
 0.257162825141487D+03 0.197781395707911D+03 0.688051020010281D+02 0.149268536822768D+03
 0.487199959139190D+03 -.337430363396661D+03 -.244794256122856D+03 -.235085241707094D+03
 0.000000000000000D+00 0.000000000000000D+00 -.000000000000000D+00 -.000000000000000D+00
 0.994189622585274D+03 0.000000000000000D+00 0.000000000000000D+00 0.994189622585274D+03
 0.142500784739488D+04 0.000000000000000D+00 0.000000000000000D+00 -.142500784739488D+04
 0.350217913538521D+03 -.258552919499660D+03 0.126008220969418D+01 -.217913137810234D+03
 0.364660636892583D+03 0.767800232463977D+02 0.186629019142053D+03 0.303729842694560D+03
 0.191724608118280D+03 0.959696669357596D+02 0.725744603916384D+02 0.149268536822768D+03
 0.697163273453224D+03 -.606054653742137D+03 -.234849024517945D+03 -.235085241707094D+03
 0.815431037977549D+03 0.691857883059640D+03 -.256145372254404D+02 -.430818224809610D+03
0.109758781680D-03 0.000000000000D+00 0.000000000000D+00 0.941203975518D-07 0.000000000000D+00  7 -1 1 23 -13 13 23 21 0 0.50807601D-01 0.24372528D+00 0.30323979D+06 0.30323979D+06 0.30323979D+06 0.10842069D+01  1  2  2  2  7  2        1 0.303171319631D-03 0.100000000000D+01
-.554634534010D-05 0.000000000000D+00 -.421502621802D-06 0.941203975518D-07 0.000000000000D+00  7 -1 1 23 -13 13 23 21 2 0.50807601D-01 0.24372528D+00 0.30323979D+06 0.30323979D+06 0.30323979D+06 0.10842069D+01  1  2  3  2  7  2        1 -.180086052887D-04 0.100000000000D+01
0.702844987026D-05 0.000000000000D+00 0.000000000000D+00 0.941203975518D-07 0.000000000000D+00  7 -1 1 23 -13 13 23 21 2 0.50807601D-01 0.24372528D+00 0.30323979D+06 0.30323979D+06 0.30323979D+06 0.10842069D+01  1  2 15  2  7  2        1 0.228208976801D-04 0.100000000000D+01
-.173083336085D-04 0.000000000000D+00 -.276908875058D-04 0.941203975518D-07 0.000000000000D+00  7 -1 1 23 -13 13 23 21 2 0.50807601D-01 0.52685169D+00 0.30323979D+06 0.30323979D+06 0.30323979D+06 0.10842069D+01  1  2  5  2  7  2        1 -.279864395613D-05 0.100000000000D+01
0.291064245232D-06 0.000000000000D+00 -.231116962476D-05 0.941203975518D-07 0.000000000000D+00  7 -1 21 23 -13 13 23 -1 2 0.50807601D-01 0.52685169D+00 0.30323979D+06 0.30323979D+06 0.30323979D+06 0.10842069D+01  1  2  5  4  7  2        1 0.677738518865D-08 0.100000000000D+01
  </mgrwgt>
  </event>
  <event>
  8     66 0.58687835E-06 0.28924911E+03 0.75467711E-02 0.94206344E-01
       -1 -1    0    0    0  501 0.00000000E+00 0.00000000E+00 0.19762532E+03 0.19762558E+03 0.32000000E+00 0.0000E+00 0.9000E+01
        1 -1    0    0  501    0 0.00000000E+00 0.00000000E+00 -.44508139E+03 0.44508150E+03 0.32000000E+00 0.0000E+00 0.9000E+01
       25  2    1    2    0    0 0.97848050E+02 -.17931739E+03 -.19367073E+03 0.41199149E+03 0.30083163E+03 0.0000E+00 0.0000E+00
       23  2    1    2    0    0 -.97848050E+02 0.17931739E+03 -.53785335E+02 0.23071559E+03 0.92778518E+02 0.0000E+00 0.0000E+00
       23  1    3    3    0    0 0.16673249E+03 -.15835424E+03 -.13568437E+03 0.28213700E+03 0.91188000E+02 0.0000E+00 0.9000E+01
      -13  1    4    4    0    0 -.10755456E+03 0.15411714E+03 -.22330268E+02 0.18925837E+03 0.10565837E+00 0.0000E+00 0.9000E+01
       13  1    4    4    0    0 0.97065124E+01 0.25200249E+02 -.31455067E+02 0.41457223E+02 0.10565837E+00 0.0000E+00 0.9000E+01
       23  1    3    3    0    0 -.68884436E+02 -.20963151E+02 -.57986355E+02 0.12985449E+03 0.91188000E+02 0.0000E+00 0.9000E+01
#aMCatNLO 1  0  0  2  2 0.36315631D+03 0.00000000D+00  -5  7  0 0.00000000D+00 0.00000000D+00 0.00000000D+00 0.00000000D+00 0.00000000D+00
  <mgrwgt>
 0.2684005565D-03    3    2    0
 0.296579622704293D+03 0.000000000000000D+00 0.000000000000000D+00 0.296579622704293D+03
 0.296579622704293D+03 0.000000000000000D+00 0.000000000000000D+00 -.296579622704293D+03
 0.249099262249259D+03 0.166732487663773D+03 -.158354244037461D+03 -.293155600645707D+02
 0.195751918018664D+03 -.107554713274926D+03 0.154117313716973D+03 0.547599367512271D+02
 0.317974919642366D+02 0.970666125647232D+01 0.252000822951626D+02 -.167874082211883D+02
 0.116510573176427D+03 -.688844356453194D+02 -.209631519746744D+02 -.865696846546804D+01
 0.000000000000000D+00 -.000000000000000D+00 0.000000000000000D+00 0.000000000000000D+00
 0.150812076167786D+04 0.000000000000000D+00 0.000000000000000D+00 0.150812076167786D+04
 0.376163923956724D+03 0.000000000000000D+00 0.000000000000000D+00 -.376163923956724D+03
 0.389358651618435D+03 0.167315139362983D+03 -.338276736303535D+03 -.293155600645707D+02
 0.134956358395558D+03 -.107252911488135D+03 0.609211045181390D+02 0.547599367512271D+02
 0.218744855681322D+02 0.975564188343294D+01 0.100748943184439D+02 -.167874082211883D+02
 0.149310607042858D+03 -.686418493150748D+02 -.958736640120808D+02 -.865696846546804D+01
 0.118878458300960D+04 -.117602044320581D+01 0.363154401479033D+03 0.113195683772113D+04
0.437242390462D-05 0.000000000000D+00 0.000000000000D+00 0.702570025403D-07 0.000000000000D+00  7 -1 1 23 -13 13 23 21 0 0.30403925D-01 0.68474088D-01 0.83665045D+05 0.83665045D+05 0.83665045D+05 0.11281342D+01  1  2  2  2  7  2        1 0.265432616488D-03 0.100000000000D+01
-.242727442240D-06 0.000000000000D+00 -.167912590794D-07 0.702570025403D-07 0.000000000000D+00  7 -1 1 23 -13 13 23 21 2 0.30403925D-01 0.68474088D-01 0.83665045D+05 0.83665045D+05 0.83665045D+05 0.11281342D+01  1  2  3  2  7  2        1 -.187530715439D-04 0.100000000000D+01
0.281142508971D-06 0.000000000000D+00 0.000000000000D+00 0.702570025403D-07 0.000000000000D+00  7 -1 1 23 -13 13 23 21 2 0.30403925D-01 0.68474088D-01 0.83665045D+05 0.83665045D+05 0.83665045D+05 0.11281342D+01  1  2 15  2  7  2        1 0.217210115845D-04 0.100000000000D+01
  </mgrwgt>
  </event>
  <event>
  8     66 0.58687835E-06 0.29180352E+03 0.75467711E-02 0.93486332E-01
       -1 -1    0    0    0  501 0.00000000E+00 0.00000000E+00 0.38207726E+02 0.38209066E+02 0.32000000E+00 0.0000E+00 0.9000E+01
        1 -1    0    0  501    0 0.00000000E+00 0.00000000E+00 -.40172309E+04 0.40172309E+04 0.32000000E+00 0.0000E+00 0.9000E+01
       25  2    1    2    0    0 -.15689397E+03 0.15558634E+03 -.10094628E+04 0.10762090E+04 0.30064583E+03 0.0000E+00 0.0000E+00
       23  2    1    2    0    0 0.15689397E+03 -.15558634E+03 -.29695604E+04 0.29792310E+04 0.93302627E+02 0.0000E+00 0.0000E+00
       23  1    3    3    0    0 -.28621499E+02 0.16326287E+03 -.34651936E+03 0.39479725E+03 0.91188000E+02 0.0000E+00 0.9000E+01
      -13  1    4    4    0    0 0.31341364E+00 -.45381938E+02 -.77774000E+03 0.77906298E+03 0.10565837E+00 0.0000E+00 0.9000E+01
       13  1    4    4    0    0 0.15658055E+03 -.11020440E+03 -.21918204E+04 0.22001680E+04 0.10565837E+00 0.0000E+00 0.9000E+01
       23  1    3    3    0    0 -.12827247E+03 -.76765293E+01 -.66294343E+03 0.68141177E+03 0.91188000E+02 0.0000E+00 0.9000E+01
#aMCatNLO 1  0  0  1  2 0.41308632D+03 0.00000000D+00  -5  7  0 0.00000000D+00 0.00000000D+00 0.00000000D+00 0.00000000D+00 0.00000000D+00
  <mgrwgt>
 0.1014033453D-03    5    2    0
 0.391780553101860D+03 0.000000000000000D+00 0.000000000000000D+00 0.391780553101860D+03
 0.391780553101860D+03 0.000000000000000D+00 0.000000000000000D+00 -.391780553101860D+03
 0.283663920331578D+03 -.286214990548236D+02 0.163262871648078D+03 0.211367009930495D+03
 0.826961977824712D+02 0.313214057609478D+00 -.453818551683347D+02 -.691306751457847D+02
 0.256961723801854D+03 0.156580751503438D+03 -.110204487513087D+03 -.171367344292360D+03
 0.160239264287818D+03 -.128272466506224D+03 -.767652896665597D+01 0.291310095076506D+02
 0.000000000000000D+00 0.000000000000000D+00 0.000000000000000D+00 0.000000000000000D+00
 0.801645645232414D+03 0.000000000000000D+00 0.000000000000000D+00 0.801645645232414D+03
 0.561802026196892D+03 0.000000000000000D+00 0.000000000000000D+00 -.561802026196892D+03
 0.255780818896235D+03 -.995673112726145D+02 0.501887797242858D+02 0.211367009930495D+03
 0.113662770535005D+03 -.255112040532652D+02 -.865410516883969D+02 -.691306751457847D+02
 0.295825457252331D+03 0.838801898117801D+02 -.226075315383777D+03 -.171367344292360D+03
 0.220512142027924D+03 -.178347508136631D+03 -.874865936258973D+02 0.291310095076506D+02
 0.477666482717812D+03 0.219545833650730D+03 0.349914180973785D+03 0.239843619035522D+03
0.550006422926D-04 0.000000000000D+00 0.000000000000D+00 0.143994849661D-06 0.000000000000D+00  7 -1 1 23 -13 13 23 21 0 0.58782158D-02 0.61803563D+00 0.85149295D+05 0.85149295D+05 0.85149295D+05 0.11274969D+01  1  2  2  1  7  1       -1 0.836877695401D-04 0.100000000000D+01
-.273310986039D-05 0.000000000000D+00 -.211216948405D-06 0.143994849661D-06 0.000000000000D+00  7 -1 1 23 -13 13 23 21 2 0.58782158D-02 0.61803563D+00 0.85149295D+05 0.85149295D+05 0.85149295D+05 0.11274969D+01  1  2  3  1  7  1       -1 -.528666816461D-05 0.100000000000D+01
0.361276244552D-05 0.000000000000D+00 0.000000000000D+00 0.143994849661D-06 0.000000000000D+00  7 -1 1 23 -13 13 23 21 2 0.58782158D-02 0.61803563D+00 0.85149295D+05 0.85149295D+05 0.85149295D+05 0.11274969D+01  1  2 15  1  7  1       -1 0.698818458921D-05 0.100000000000D+01
0.725184327002D-04 0.000000000000D+00 -.326564151562D-04 0.143994849661D-06 0.000000000000D+00  7 -1 1 23 -13 13 23 21 2 0.44908843D-01 0.61803563D+00 0.85149295D+05 0.85149295D+05 0.85149295D+05 0.11274969D+01  1  2  5  1  7  1       -1 0.550336492764D-05 0.100000000000D+01
0.143279180371D-04 0.000000000000D+00 -.808320713075D-05 0.143994849661D-06 0.000000000000D+00  7 21 1 23 -13 13 23 1 2 0.44908843D-01 0.61803563D+00 0.85149295D+05 0.85149295D+05 0.85149295D+05 0.11274969D+01  1  2  5  3  7  1       -1 0.105106943628D-04 0.100000000000D+01
  </mgrwgt>
  </event>
  <event>
  8     66 0.58687835E-06 0.17481031E+03 0.75467711E-02 0.97661803E-01
       -1 -1    0    0    0  501 0.00000000E+00 0.00000000E+00 0.22793273E+03 0.22793295E+03 0.32000000E+00 0.0000E+00 0.9000E+01
        1 -1    0    0  501    0 0.00000000E+00 0.00000000E+00 -.10979588E+04 0.10979588E+04 0.32000000E+00 0.0000E+00 0.9000E+01
       25  2    1    2    0    0 -.10342321E+03 0.17383264E+03 0.62400271E+02 0.36734205E+03 0.30022033E+03 0.0000E+00 0.0000E+00
       23  2    1    2    0    0 0.10342321E+03 -.17383264E+03 -.93242631E+03 0.95854971E+03 0.92111801E+02 0.0000E+00 0.0000E+00
       23  1    3    3    0    0 -.78929796E+02 0.83083927E+01 0.11790100E+03 0.16886338E+03 0.91188000E+02 0.0000E+00 0.9000E+01
      -11  1    4    4    0    0 0.24625223E+02 -.46892285E+02 -.10348847E+03 0.11625468E+03 0.51099893E-03 0.0000E+00 0.9000E+01
       11  1    4    4    0    0 0.78797989E+02 -.12694035E+03 -.82893784E+03 0.84229503E+03 0.51099893E-03 0.0000E+00 0.9000E+01
       23  1    3    3    0    0 -.24493417E+02 0.16552425E+03 -.55500731E+02 0.19847868E+03 0.91188000E+02 0.0000E+00 0.9000E+01
#aMCatNLO 1  0  0  2  1 0.21428942D+03 0.00000000D+00  -5  7  0 0.00000000D+00 0.00000000D+00 0.00000000D+00 0.00000000D+00 0.00000000D+00
  <mgrwgt>
 0.1774125210D-03    9    2    0
 0.500260850025090D+03 0.000000000000000D+00 0.000000000000000D+00 0.500260850025090D+03
 0.500260850025090D+03 0.000000000000000D+00 0.000000000000000D+00 -.500260850025090D+03
 0.326301270202413D+03 -.789297963477300D+02 0.830839272108727D+01 0.303081384203330D+03
 0.640700391104403D+02 0.246252234237570D+02 -.468922846522880D+02 -.360511015508846D+02
 0.395388267455407D+03 0.787979894587762D+02 -.126940353768289D+03 -.366072268116317D+03
 0.214762123281919D+03 -.244934165348032D+02 0.165524245699490D+03 0.990419854638716D+02
 0.000000000000000D+00 0.000000000000000D+00 0.000000000000000D+00 -.000000000000000D+00
 0.563487046378778D+03 0.000000000000000D+00 0.000000000000000D+00 0.563487046378778D+03
 0.732882269632321D+03 0.000000000000000D+00 0.000000000000000D+00 -.732882269632321D+03
 0.350421278742762D+03 -.150377644217675D+03 0.283899993805079D+01 0.303081384203330D+03
 0.610308667724386D+02 0.114171656963406D+02 -.479033725683826D+02 -.360511015508846D+02
 0.389602867211343D+03 -.408077268140683D+01 -.133284792642664D+03 -.366072268116317D+03
 0.222157393390972D+03 -.706230441160228D+02 0.161992983951255D+03 0.990419854638716D+02
 0.273156909893584D+03 0.213664295318764D+03 0.163561813217415D+02 -.169395223253543D+03
0.214854361057D-04 0.000000000000D+00 0.000000000000D+00 0.244235817410D-05 0.000000000000D+00  7 -1 1 23 -11 11 23 21 0 0.35066595D-01 0.16891675D+00 0.66003724D+05 0.66003724D+05 0.66003724D+05 0.11368363D+01  1  2  2  2  7  2        1 0.260760748410D-03 0.100000000000D+01
-.549141895560D-06 0.000000000000D+00 -.825097318910D-07 0.244235817410D-05 0.000000000000D+00  7 -1 1 23 -11 11 23 21 2 0.35066595D-01 0.16891675D+00 0.66003724D+05 0.66003724D+05 0.66003724D+05 0.11368363D+01  1  2  3  2  7  2        1 -.861347684102D-05 0.100000000000D+01
0.132230088382D-05 0.000000000000D+00 0.000000000000D+00 0.244235817410D-05 0.000000000000D+00  7 -1 1 23 -11 11 23 21 2 0.35066595D-01 0.16891675D+00 0.66003724D+05 0.66003724D+05 0.66003724D+05 0.11368363D+01  1  2 15  2  7  2        1 0.207407377432D-04 0.100000000000D+01
0.827702284964D-06 0.000000000000D+00 0.000000000000D+00 0.244235817410D-05 0.000000000000D+00  7 -1 1 23 -11 11 23 21 2 0.35066595D-01 0.25419061D+00 0.14885263D+06 0.14885263D+06 0.14885263D+06 0.11078152D+01  1  2 12  2  7  2        1 0.503025927788D-05 0.100000000000D+01
-.164415600745D-04 0.000000000000D+00 0.000000000000D+00 0.244235817410D-05 0.000000000000D+00  7 -1 1 23 -11 11 23 21 2 0.35066595D-01 0.16891675D+00 0.66003724D+05 0.66003724D+05 0.66003724D+05 0.11368363D+01  1  2  4  2  7  2        1 -.257891444956D-03 0.100000000000D+01
-.125388492694D-04 0.000000000000D+00 -.755034958397D-05 0.244235817410D-05 0.000000000000D+00  7 -1 1 23 -11 11 23 21 2 0.35066595D-01 0.26171763D+00 0.66003724D+05 0.66003724D+05 0.66003724D+05 0.11368363D+01  1  2  5  2  7  2        1 -.773436704626D-04 0.100000000000D+01
0.150491716146D-04 0.000000000000D+00 0.688020316261D-05 0.244235817410D-05 0.000000000000D+00  7 -1 1 23 -11 11 23 21 2 0.35066595D-01 0.16891675D+00 0.66003724D+05 0.66003724D+05 0.66003724D+05 0.11368363D+01  1  2  6  2  7  2        1 0.236051359817D-03 0.100000000000D+01
0.400254727529D-07 0.000000000000D+00 0.000000000000D+00 0.244235817410D-05 0.000000000000D+00  7 -1 21 23 -11 11 23 -1 2 0.35066595D-01 0.25419061D+00 0.14885263D+06 0.14885263D+06 0.14885263D+06 0.11078152D+01  1  2 12  4  7  2        1 0.169467189455D-06 0.100000000000D+01
-.347991812688D-06 0.000000000000D+00 -.384339297041D-06 0.244235817410D-05 0.000000000000D+00  7 -1 21 23 -11 11 23 -1 2 0.35066595D-01 0.26171763D+00 0.66003724D+05 0.66003724D+05 0.66003724D+05 0.11368363D+01  1  2  5  4  7  2        1 -.149145917308D-05 0.100000000000D+01
  </mgrwgt>
  </event>
  <event>
  8     66 0.58687835E-06 0.14814924E+03 0.75467711E-02 0.10290592E+00
       -1 -1    0    0    0  501 0.00000000E+00 0.00000000E+00 0.20260521E+04 0.20260521E+04 0.32000000E+00 0.0000E+00 0.9000E+01
        1 -1    0    0  501    0 0.00000000E+00 0.00000000E+00 -.11016465E+03 0.11016511E+03 0.32000000E+00 0.0000E+00 0.9000E+01
       25  2    1    2    0    0 0.10815402E+03 0.11693542E+03 0.17011102E+03 0.38071184E+03 0.30105243E+03 0.0000E+00 0.0000E+00
       23  2    1    2    0    0 -.10815402E+03 -.11693542E+03 0.17457764E+04 0.17555054E+04 0.93234523E+02 0.0000E+00 0.0000E+00
       23  1    3    3    0    0 0.13529227E+03 -.14722768E+02 0.30733197E+02 0.16667495E+03 0.91188000E+02 0.0000E+00 0.9000E+01
      -13  1    4    4    0    0 -.85952370E+02 -.92443635E+02 0.16359298E+04 0.16407925E+04 0.10565837E+00 0.0000E+00 0.9000E+01
       13  1    4    4    0    0 -.22201648E+02 -.24491786E+02 0.10984663E+03 0.11471292E+03 0.10565837E+00 0.0000E+00 0.9000E+01
       23  1    3    3    0    0 -.27138249E+02 0.13165819E+03 0.13937782E+03 0.21403689E+03 0.91188000E+02 0.0000E+00 0.9000E+01
#aMCatNLO 1  0  0  1  2 0.26001757D+02 0.00000000D+00  -5  7  0 0.00000000D+00 0.00000000D+00 0.00000000D+00 0.00000000D+00 0.00000000D+00
  <mgrwgt>
 0.2475944152D-03    9    2    0
 0.472440304215946D+03 0.000000000000000D+00 0.000000000000000D+00 0.472440304215946D+03
 0.472440304215946D+03 0.000000000000000D+00 0.000000000000000D+00 -.472440304215946D+03
 0.314508038563557D+03 0.135292266604256D+03 -.147227673168327D+02 -.268475879171133D+03
 0.392464645656390D+03 -.859524517521397D+02 -.924437225234099D+02 0.371611130476479D+03
 0.366157431725349D+02 -.222015664990308D+02 -.244916981278303D+02 0.157467398492952D+02
 0.201292181039409D+03 -.271382483530854D+02 0.131658187968073D+03 -.118881991154641D+03
 0.000000000000000D+00 0.000000000000000D+00 -.000000000000000D+00 0.000000000000000D+00
 0.510314667527628D+03 0.000000000000000D+00 0.000000000000000D+00 0.510314667527628D+03
 0.477103051175958D+03 0.000000000000000D+00 0.000000000000000D+00 -.477103051175958D+03
 0.311134990179121D+03 0.127650224480384D+03 -.107635153716680D+02 -.268475879171133D+03
 0.393543139728762D+03 -.955533013255392D+02 -.874696355277395D+02 0.371611130476479D+03
 0.368620382787716D+02 -.230990755820425D+02 -.240267092511507D+02 0.157467398492952D+02
 0.203698138044352D+03 -.320850837464537D+02 0.134221085075434D+03 -.118881991154641D+03
 0.421794124725786D+02 0.230872361736513D+02 -.119612249248759D+02 0.332116163516697D+02
0.137559963925D-03 0.000000000000D+00 0.000000000000D+00 0.239812706023D-06 0.000000000000D+00  7 -1 1 23 -13 13 23 21 0 0.31170036D+00 0.16948445D-01 0.58937013D+05 0.58937013D+05 0.58937013D+05 0.11410660D+01  1  2  2  1  7  1       -1 0.986562258271D-04 0.100000000000D+01
-.352326116859D-05 0.000000000000D+00 -.528266481841D-06 0.239812706023D-06 0.000000000000D+00  7 -1 1 23 -13 13 23 21 2 0.31170036D+00 0.16948445D-01 0.58937013D+05 0.58937013D+05 0.58937013D+05 0.11410660D+01  1  2  3  1  7  1       -1 -.329002190310D-05 0.100000000000D+01
0.870535827876D-05 0.000000000000D+00 0.000000000000D+00 0.239812706023D-06 0.000000000000D+00  7 -1 1 23 -13 13 23 21 2 0.31170036D+00 0.16948445D-01 0.58937013D+05 0.58937013D+05 0.58937013D+05 0.11410660D+01  1  2 15  1  7  1       -1 0.812906510217D-05 0.100000000000D+01
0.736205011163D-03 0.000000000000D+00 0.000000000000D+00 0.239812706023D-06 0.000000000000D+00  7 -1 1 23 -13 13 23 21 2 0.33815142D+00 0.16948445D-01 0.65414898D+05 0.65414898D+05 0.65414898D+05 0.11371692D+01  1  2 12  1  7  1       -1 0.384577096760D-03 0.100000000000D+01
-.750372762086D-03 0.000000000000D+00 0.000000000000D+00 0.239812706023D-06 0.000000000000D+00  7 -1 1 23 -13 13 23 21 2 0.31170036D+00 0.16948445D-01 0.58937013D+05 0.58937013D+05 0.58937013D+05 0.11410660D+01  1  2  4  1  7  1       -1 -.700698218105D-03 0.100000000000D+01
-.121973299531D-02 0.000000000000D+00 -.163965879530D-03 0.239812706023D-06 0.000000000000D+00  7 -1 1 23 -13 13 23 21 2 0.33784887D+00 0.16948445D-01 0.58937013D+05 0.58937013D+05 0.58937013D+05 0.11410660D+01  1  2  5  1  7  1       -1 -.650448317373D-03 0.100000000000D+01
0.122948065876D-02 0.000000000000D+00 0.163435300387D-03 0.239812706023D-06 0.000000000000D+00  7 -1 1 23 -13 13 23 21 2 0.31170036D+00 0.16948445D-01 0.58937013D+05 0.58937013D+05 0.58937013D+05 0.11410660D+01  1  2  6  1  7  1       -1 0.114808925686D-02 0.100000000000D+01
0.103951936038D-04 0.000000000000D+00 0.000000000000D+00 0.239812706023D-06 0.000000000000D+00  7 21 1 23 -13 13 23 1 2 0.33815142D+00 0.16948445D-01 0.65414898D+05 0.65414898D+05 0.65414898D+05 0.11371692D+01  1  2 12  3  7  1       -1 0.649117239169D-04 0.100000000000D+01
-.160324301710D-04 0.000000000000D+00 -.220359703367D-05 0.239812706023D-06 0.000000000000D+00  7 21 1 23 -13 13 23 1 2 0.33784887D+00 0.16948445D-01 0.58937013D+05 0.58937013D+05 0.58937013D+05 0.11410660D+01  1  2  5  3  7  1       -1 -.102332395897D-03 0.100000000000D+01
  </mgrwgt>
  </event>
  <event>
  8     66 0.58687835E-06 0.11376933E+03 0.75467711E-02 0.10311977E+00
       -1 -1    0    0    0  501 0.00000000E+00 0.00000000E+00 0.67805816E+03 0.67805823E+03 0.32000000E+00 0.0000E+00 0.9000E+01
        1 -1    0    0  501    0 0.00000000E+00 0.00000000E+00 -.13560039E+03 0.13560077E+03 0.32000000E+00 0.0000E+00 0.9000E+01
       25  2    1    2    0    0 0.14702626E+03 -.91354946E+02 0.50786477E+03 0.61512005E+03 0.30080493E+03 0.0000E+00 0.0000E+00
       23  2    1    2    0    0 -.14702626E+03 0.91354946E+02 0.34592996E+02 0.19853895E+03 0.90876799E+02 0.0000E+00 0.0000E+00
       23  1    3    3    0    0 -.62402879E+01 -.40212302E+02 0.37198119E+03 0.38515091E+03 0.91188000E+02 0.0000E+00 0.9000E+01
      -13  1    4    4    0    0 0.71907209E+01 0.26705555E+02 -.56739664E+00 0.27662723E+02 0.10565837E+00 0.0000E+00 0.9000E+01
       13  1    4    4    0    0 -.15421698E+03 0.64649391E+02 0.35160393E+02 0.17087623E+03 0.10565837E+00 0.0000E+00 0.9000E+01
       23  1    3    3    0    0 0.15326655E+03 -.51142644E+02 0.13588358E+03 0.22996914E+03 0.91188000E+02 0.0000E+00 0.9000E+01
#aMCatNLO 1  0  0  1  2 0.21669278D+02 0.00000000D+00  -5  7  0 0.00000000D+00 0.00000000D+00 0.00000000D+00 0.00000000D+00 0.00000000D+00
  <mgrwgt>
 0.2042296067D-03    9    2    0
 0.303224566020484D+03 0.000000000000000D+00 0.000000000000000D+00 0.303224566020484D+03
 0.303224566020484D+03 0.000000000000000D+00 0.000000000000000D+00 -.303224566020484D+03
 0.184017781507800D+03 -.624028591239578D+01 -.402123024800286D+02 0.154568179545593D+03
 0.376217557593813D+02 0.719093864259601D+01 0.267055038749930D+02 -.255049597262904D+02
 0.197810635999869D+03 -.154217203226904D+03 0.646494433297596D+02 -.105671904594820D+03
 0.186998958773917D+03 0.153266550496704D+03 -.511426447247240D+02 -.233913152244830D+02
 0.000000000000000D+00 0.000000000000000D+00 0.000000000000000D+00 0.000000000000000D+00
 0.352747934012418D+03 0.000000000000000D+00 0.000000000000000D+00 0.352747934012418D+03
 0.305797755085100D+03 0.000000000000000D+00 0.000000000000000D+00 -.305797755085100D+03
 0.185326909918028D+03 -.108042369052301D+02 -.449750879112191D+02 0.154568179545593D+03
 0.367790255214457D+02 0.627157651968739D+01 0.257460885500142D+02 -.255049597262904D+02
 0.200081505810194D+03 -.159133911867401D+03 0.595185319069302D+02 -.105671904594820D+03
 0.184648704148367D+03 0.148674141942974D+03 -.559351275073221D+02 -.233913152244830D+02
 0.517095436994833D+02 0.149924303099697D+02 0.156455949615969D+02 0.469501789273175D+02
0.495283973687D-05 0.000000000000D+00 0.000000000000D+00 0.202556808737D-06 0.000000000000D+00  7 -1 1 23 -13 13 23 21 0 0.10431667D+00 0.20861634D-01 0.57663095D+05 0.57663095D+05 0.57663095D+05 0.11418877D+01  1  2  2  1  7  1       -1 0.142222872626D-03 0.100000000000D+01
-.256950458585D-06 0.000000000000D+00 -.190202087022D-07 0.202556808737D-06 0.000000000000D+00  7 -1 1 23 -13 13 23 21 2 0.10431667D+00 0.20861634D-01 0.57663095D+05 0.57663095D+05 0.57663095D+05 0.11418877D+01  1  2  3  1  7  1       -1 -.962080463431D-05 0.100000000000D+01
0.321481122213D-06 0.000000000000D+00 0.000000000000D+00 0.202556808737D-06 0.000000000000D+00  7 -1 1 23 -13 13 23 21 2 0.10431667D+00 0.20861634D-01 0.57663095D+05 0.57663095D+05 0.57663095D+05 0.11418877D+01  1  2 15  1  7  1       -1 0.120369782076D-04 0.100000000000D+01
0.404736153439D-04 0.000000000000D+00 0.000000000000D+00 0.202556808737D-06 0.000000000000D+00  7 -1 1 23 -13 13 23 21 2 0.12175086D+00 0.20861634D-01 0.63372497D+05 0.63372497D+05 0.63372497D+05 0.11383502D+01  1  2 12  1  7  1       -1 0.104893516304D-02 0.100000000000D+01
-.407390188992D-04 0.000000000000D+00 0.000000000000D+00 0.202556808737D-06 0.000000000000D+00  7 -1 1 23 -13 13 23 21 2 0.10431667D+00 0.20861634D-01 0.57663095D+05 0.57663095D+05 0.57663095D+05 0.11418877D+01  1  2  4  1  7  1       -1 -.152536074067D-02 0.100000000000D+01
-.502165868386D-04 0.000000000000D+00 -.417174771104D-05 0.202556808737D-06 0.000000000000D+00  7 -1 1 23 -13 13 23 21 2 0.12183418D+00 0.20861634D-01 0.57663095D+05 0.57663095D+05 0.57663095D+05 0.11418877D+01  1  2  5  1  7  1       -1 -.130996939847D-02 0.100000000000D+01
0.503066093387D-04 0.000000000000D+00 0.412198567591D-05 0.202556808737D-06 0.000000000000D+00  7 -1 1 23 -13 13 23 21 2 0.10431667D+00 0.20861634D-01 0.57663095D+05 0.57663095D+05 0.57663095D+05 0.11418877D+01  1  2  6  1  7  1       -1 0.188359290319D-02 0.100000000000D+01
0.945764448432D-06 0.000000000000D+00 0.000000000000D+00 0.202556808737D-06 0.000000000000D+00  7 21 1 23 -13 13 23 1 2 0.12175086D+00 0.20861634D-01 0.63372497D+05 0.63372497D+05 0.63372497D+05 0.11383502D+01  1  2 12  3  7  1       -1 0.167878502781D-03 0.100000000000D+01
-.114682265013D-05 0.000000000000D+00 -.978301519606D-07 0.202556808737D-06 0.000000000000D+00  7 21 1 23 -13 13 23 1 2 0.12183418D+00 0.20861634D-01 0.57663095D+05 0.57663095D+05 0.57663095D+05 0.11418877D+01  1  2  5  3  7  1       -1 -.205485869332D-03 0.100000000000D+01
  </mgrwgt>
  </event>
  <event>
  7     66 0.58687835E-06 0.55342262E+03 0.75467711E-02 0.92480761E-01
       -3 -1    0    0    0  501 0.00000000E+00 0.00000000E+00 0.65501819E+03 0.65501839E+03 0.50000000E+00 0.0000E+00 0.9000E+01
        3 -1    0    0  501    0 0.00000000E+00 0.00000000E+00 -.49604801E+03 0.49604826E+03 0.50000000E+00 0.0000E+00 0.9000E+01
       25  2    1    2    0    0 0.41935930E+03 0.29881786E+03 0.42552867E+01 0.59573800E+03 0.29955187E+03 0.0000E+00 0.0000E+00
       23  1    3    3    0    0 0.13326233E+03 -.84560259E+01 -.31076635E+02 0.16465528E+03 0.91188000E+02 0.0000E+00 0.9000E+01
      -11  1    1    2    0    0 -.40971710E+03 -.28686466E+03 0.17499546E+03 0.52988946E+03 0.51099893E-03 0.0000E+00 0.9000E+01
       11  1    1    2    0    0 -.96422049E+01 -.11953193E+02 -.20280553E+02 0.25439177E+02 0.51099893E-03 0.0000E+00 0.9000E+01
       23  1    3    3    0    0 0.28609697E+03 0.30727388E+03 0.35331922E+02 0.43108272E+03 0.91188000E+02 0.0000E+00 0.9000E+01
#aMCatNLO 1  0  0  2  2 0.10285089D+03 0.00000000D+00  -5  7  0 0.00000000D+00 0.00000000D+00 0.00000000D+00 0.00000000D+00 0.00000000D+00
  <mgrwgt>
 0.3090392428D-04    4    2    0
 0.570018178638652D+03 0.000000000000000D+00 0.000000000000000D+00 0.570018178638652D+03
 0.570018178638652D+03 0.000000000000000D+00 0.000000000000000D+00 -.570018178638652D+03
 0.170581804667642D+03 0.133262328884335D+03 -.845602589277091D+01 -.543373542426724D+02
 0.510614439889926D+03 -.409717096460447D+03 -.286864664463090D+03 0.102799179834289D+03
 0.285132937290414D+02 -.964220502134189D+01 -.119531927425351D+02 -.240240917594153D+02
 0.430326818990693D+03 0.286096972597454D+03 0.307273883098396D+03 -.244377338322008D+02
 0.000000000000000D+00 -.000000000000000D+00 0.000000000000000D+00 0.000000000000000D+00
 0.758917943132923D+03 0.000000000000000D+00 0.000000000000000D+00 0.758917943132923D+03
 0.586506803550608D+03 0.000000000000000D+00 0.000000000000000D+00 -.586506803550608D+03
 0.183319703242521D+03 0.149176424908475D+03 -.920371872442691D+01 -.543373542426724D+02
 0.476979996453013D+03 -.365307360018022D+03 -.288951169505121D+03 0.102799179834289D+03
 0.278107711315580D+02 -.710944786539057D+01 -.120721894085699D+02 -.240240917594153D+02
 0.456555944534665D+03 0.325977948364529D+03 0.305400153063385D+03 -.244377338322008D+02
 0.200758331321774D+03 -.102737565389591D+03 0.482692457473354D+01 0.172411139582315D+03
0.629899572366D-04 0.000000000000D+00 0.000000000000D+00 0.213142616753D-08 0.000000000000D+00  7 -3 3 23 -11 11 23 21 0 0.10077206D+00 0.76315112D-01 0.30627659D+06 0.30627659D+06 0.30627659D+06 0.10838872D+01  1  2  2  2  7  2        3 0.340350682890D-04 0.100000000000D+01
-.349572768335D-05 0.000000000000D+00 -.241898021425D-06 0.213142616753D-08 0.000000000000D+00  7 -3 3 23 -11 11 23 21 2 0.10077206D+00 0.76315112D-01 0.30627659D+06 0.30627659D+06 0.30627659D+06 0.10838872D+01  1  2  3  2  7  2        3 -.221901924624D-05 0.100000000000D+01
0.403972567135D-05 0.000000000000D+00 0.000000000000D+00 0.213142616753D-08 0.000000000000D+00  7 -3 3 23 -11 11 23 21 2 0.10077206D+00 0.76315112D-01 0.30627659D+06 0.30627659D+06 0.30627659D+06 0.10838872D+01  1  2 15  2  7  2        3 0.256433848007D-05 0.100000000000D+01
-.547663965382D-05 0.000000000000D+00 0.000000000000D+00 0.213142616753D-08 0.000000000000D+00  7 -3 3 23 -11 11 23 21 2 0.10077206D+00 0.76315112D-01 0.30627659D+06 0.30627659D+06 0.30627659D+06 0.10838872D+01  1  2  4  2  7  2        3 -.347646324238D-05 0.100000000000D+01
  </mgrwgt>
  </event>
  <event>
  9     66 0.58687835E-06 0.21903665E+03 0.75467711E-02 0.10231190E+00
       -1 -1    0    0    0  501 0.00000000E+00 0.00000000E+00 0.78651979E+03 0.78651986E+03 0.32000000E+00 0.0000E+00 0.9000E+01
       21 -1    0    0  501  502 0.00000000E+00 0.00000000E+00 -.11985008E+03 0.11985243E+03 0.75000000E+00 0.0000E+00 0.9000E+01
       25  2    1    2    0    0 0.51454706E+02 -.79521037E+02 0.31121864E+03 0.44188920E+03 0.29906160E+03 0.0000E+00 0.0000E+00
       23  2    1    2    0    0 0.11430830E+02 0.13599922E+03 0.34041853E+03 0.37863173E+03 0.94078496E+02 0.0000E+00 0.0000E+00
       23  1    3    3    0    0 -.54030105E+02 -.12777900E+03 0.15832736E+03 0.22941126E+03 0.91188000E+02 0.0000E+00 0.9000E+01
      -13  1    4    4    0    0 0.89861115E+01 0.64644090E+02 0.27208595E+03 0.27980419E+03 0.10565837E+00 0.0000E+00 0.9000E+01
       13  1    4    4    0    0 0.24447189E+01 0.71355126E+02 0.68332573E+02 0.98827539E+02 0.10565837E+00 0.0000E+00 0.9000E+01
       23  1    3    3    0    0 0.10548481E+03 0.48257964E+02 0.15289128E+03 0.21247793E+03 0.91188000E+02 0.0000E+00 0.9000E+01
       -1  1    1    2    0  502 -.62885536E+02 -.56478179E+02 0.15032549E+02 0.85851356E+02 0.32000000E+00 0.0000E+00 0.9000E+01
#aMCatNLO 2  0  0  2  1 0.84524407D+02 0.00000000D+00  -5  7  0 0.00000000D+00 0.00000000D+00 0.00000000D+00 0.00000000D+00 0.00000000D+00
  <mgrwgt>
 0.9206663079D-05    2    2    0
 0.245702677048919D+03 0.000000000000000D+00 0.000000000000000D+00 0.245702677048919D+03
 0.245702677048919D+03 0.000000000000000D+00 0.000000000000000D+00 -.245702677048919D+03
 0.194705259249804D+03 -.772339134315873D+02 -.148618632030347D+03 -.392722734891150D+02
 0.978170363015496D+02 -.388753116225336D+01 0.530821874098872D+02 0.820691237437248D+02
 0.658890725514924D+02 -.639810090353946D+01 0.634133068306353D+02 -.167088809717366D+02
 0.132993985994992D+03 0.875195454973802D+02 0.321231377898247D+02 -.260879692828731D+02
 0.000000000000000D+00 -.000000000000000D+00 -.000000000000000D+00 -.000000000000000D+00
 0.266395396895428D+03 0.000000000000000D+00 0.000000000000000D+00 0.266395396895428D+03
 0.353855249787993D+03 0.000000000000000D+00 0.000000000000000D+00 -.353855249787993D+03
 0.170599812253788D+03 -.540300976977805D+02 -.127779034566678D+03 -.392722734891150D+02
 0.104856839831165D+03 0.898611238308035D+01 0.646441456866309D+02 0.820691237437248D+02
 0.733261064534222D+02 0.244470915568854D+01 0.713551300288566D+02 -.167088809717366D+02
 0.149838939146804D+03 0.105484812312405D+03 0.482579379040610D+02 -.260879692828731D+02
 0.121628948998242D+03 -.628855361533935D+02 -.564781790528709D+02 -.874598528925646D+02
-.151036620240D-06 0.000000000000D+00 0.000000000000D+00 0.185563547433D-07 0.000000000000D+00  7 -1 21 23 -13 13 23 -1 2 0.11160401D+00 0.18791694D-01 0.71490882D+05 0.71490882D+05 0.71490882D+05 0.11338824D+01  1  2 13  4  7  2        1 -.469159450973D-04 0.100000000000D+01
0.211448069830D-06 0.000000000000D+00 0.000000000000D+00 0.185563547433D-07 0.882431960736D-12  7 -1 21 23 -13 13 23 -1 2 0.12100314D+00 0.18438645D-01 0.71490882D+05 0.71490882D+05 0.71490882D+05 0.11338824D+01  1  2  1  4  7  2        1 0.561226081767D-04 0.100000000000D+01
  </mgrwgt>
  </event>
  <event>
  8     66 0.58687835E-06 0.69376766E+02 0.75467711E-02 0.10385614E+00
       -1 -1    0    0    0  501 0.00000000E+00 0.00000000E+00 0.94254995E+02 0.94255538E+02 0.32000000E+00 0.0000E+00 0.9000E+01
        1 -1    0    0  501    0 0.00000000E+00 0.00000000E+00 -.71803387E+03 0.71803394E+03 0.32000000E+00 0.0000E+00 0.9000E+01
       25  2    1    2    0    0 -.74508174E+02 -.86524821E+02 -.24013527E+03 0.40188537E+03 0.30134514E+03 0.0000E+00 0.0000E+00
       23  2    1    2    0    0 0.74508174E+02 0.86524821E+02 -.38364361E+03 0.41040411E+03 0.90615130E+02 0.0000E+00 0.0000E+00
       23  1    3    3    0    0 -.67782660E+01 -.16151189E+03 -.15000948E+03 0.23864227E+03 0.91188000E+02 0.0000E+00 0.9000E+01
      -13  1    4    4    0    0 -.11326491E+02 0.58343351E+01 -.47162358E+01 0.13586129E+02 0.10565837E+00 0.0000E+00 0.9000E+01
       13  1    4    4    0    0 0.85834665E+02 0.80690486E+02 -.37892737E+03 0.39681798E+03 0.10565837E+00 0.0000E+00 0.9000E+01
       23  1    3    3    0    0 -.67729908E+02 0.74987074E+02 -.90125791E+02 0.16324310E+03 0.91188000E+02 0.0000E+00 0.9000E+01
#aMCatNLO 1  0  0  2  1 0.25325823D+02 0.00000000D+00  -5  7  0 0.00000000D+00 0.00000000D+00 0.00000000D+00 0.00000000D+00 0.00000000D+00
  <mgrwgt>
 0.3117953538D-03    9    2    0
 0.260150971729448D+03 0.000000000000000D+00 0.000000000000000D+00 0.260150971729448D+03
 0.260150971729448D+03 0.000000000000000D+00 0.000000000000000D+00 -.260150971729448D+03
 0.192722439954010D+03 -.677826669865625D+01 -.161511895074553D+03 0.519100218437222D+02
 0.155561109744379D+02 -.113266216973166D+02 0.583423355757943D+01 0.892535424341898D+01
 0.165219997266538D+03 0.858347969258055D+02 0.806905885291416D+02 -.115840683942565D+03
 0.146803395263910D+03 -.677299085298327D+02 0.749870729878318D+02 0.550053078554237D+02
 0.000000000000000D+00 0.000000000000000D+00 -.000000000000000D+00 -.000000000000000D+00
 0.269764766532638D+03 0.000000000000000D+00 0.000000000000000D+00 0.269764766532638D+03
 0.277690105582817D+03 0.000000000000000D+00 0.000000000000000D+00 -.277690105582817D+03
 0.193159717335383D+03 -.161630561459429D+02 -.161367686682596D+03 0.519100218437222D+02
 0.161301526350132D+02 -.120972427450343D+02 0.584607506161352D+01 0.892535424341898D+01
 0.161298416969164D+03 0.778937545366238D+02 0.808126120396140D+02 -.115840683942565D+03
 0.150329662120822D+03 -.749562887309078D+02 0.750981148683467D+02 0.550053078554237D+02
 0.265369230550726D+02 0.253228330852612D+02 -.389115286977919D+00 -.792533905017846D+01
0.146479520224D-05 0.000000000000D+00 0.000000000000D+00 0.719971908225D-07 0.000000000000D+00  7 -1 1 23 -13 13 23 21 0 0.14500816D-01 0.11046680D+00 0.51134118D+05 0.51134118D+05 0.51134118D+05 0.11464396D+01  1  2  2  2  7  2        1 0.148690240198D-03 0.100000000000D+01
-.794338308349D-07 0.000000000000D+00 -.562519926605D-08 0.719971908225D-07 0.000000000000D+00  7 -1 1 23 -13 13 23 21 2 0.14500816D-01 0.11046680D+00 0.51134118D+05 0.51134118D+05 0.51134118D+05 0.11464396D+01  1  2  3  2  7  2        1 -.105977435131D-04 0.100000000000D+01
0.942486097120D-07 0.000000000000D+00 0.000000000000D+00 0.719971908225D-07 0.000000000000D+00  7 -1 1 23 -13 13 23 21 2 0.14500816D-01 0.11046680D+00 0.51134118D+05 0.51134118D+05 0.51134118D+05 0.11464396D+01  1  2 15  2  7  2        1 0.125742719657D-04 0.100000000000D+01
0.338879317043D-05 0.000000000000D+00 0.000000000000D+00 0.719971908225D-07 0.000000000000D+00  7 -1 1 23 -13 13 23 21 2 0.14500816D-01 0.11984740D+00 0.56873138D+05 0.56873138D+05 0.56873138D+05 0.11424074D+01  1  2 12  2  7  2        1 0.396528482533D-03 0.100000000000D+01
-.311854176505D-05 0.000000000000D+00 0.000000000000D+00 0.719971908225D-07 0.000000000000D+00  7 -1 1 23 -13 13 23 21 2 0.14500816D-01 0.11046680D+00 0.51134118D+05 0.51134118D+05 0.51134118D+05 0.11464396D+01  1  2  4  2  7  2        1 -.416063350006D-03 0.100000000000D+01
-.105850383850D-04 0.000000000000D+00 -.203707333668D-05 0.719971908225D-07 0.000000000000D+00  7 -1 1 23 -13 13 23 21 2 0.14500816D-01 0.12109392D+00 0.51134118D+05 0.51134118D+05 0.51134118D+05 0.11464396D+01  1  2  5  2  7  2        1 -.122800004166D-02 0.100000000000D+01
0.107353921002D-04 0.000000000000D+00 0.202851035888D-05 0.719971908225D-07 0.000000000000D+00  7 -1 1 23 -13 13 23 21 2 0.14500816D-01 0.11046680D+00 0.51134118D+05 0.51134118D+05 0.51134118D+05 0.11464396D+01  1  2  6  2  7  2        1 0.143227301006D-02 0.100000000000D+01
0.460772043020D-07 0.000000000000D+00 0.000000000000D+00 0.719971908225D-07 0.000000000000D+00  7 -1 21 23 -13 13 23 -1 2 0.14500816D-01 0.11984740D+00 0.56873138D+05 0.56873138D+05 0.56873138D+05 0.11424074D+01  1  2 12  4  7  2        1 0.103219861672D-04 0.100000000000D+01
-.153956991474D-06 0.000000000000D+00 -.307313928708D-07 0.719971908225D-07 0.000000000000D+00  7 -1 21 23 -13 13 23 -1 2 0.14500816D-01 0.12109392D+00 0.51134118D+05 0.51134118D+05 0.51134118D+05 0.11464396D+01  1  2  5  4  7  2        1 -.339315019351D-04 0.100000000000D+01
  </mgrwgt>
  </event>
  <event>
  8     66 0.58687835E-06 0.19592442E+03 0.75467711E-02 0.10639319E+00
       -1 -1    0    0    0  501 0.00000000E+00 0.00000000E+00 0.16284692E+02 0.16287835E+02 0.32000000E+00 0.0000E+00 0.9000E+01
        1 -1    0    0  501    0 0.00000000E+00 0.00000000E+00 -.34125247E+04 0.34125247E+04 0.32000000E+00 0.0000E+00 0.9000E+01
       25  2    1    2    0    0 -.47597267E+02 0.92762622E+02 -.19054639E+04 0.19316441E+04 0.29930863E+03 0.0000E+00 0.0000E+00
       23  2    1    2    0    0 0.47597267E+02 -.92762622E+02 -.14907760E+04 0.14971684E+04 0.90717745E+02 0.0000E+00 0.0000E+00
       23  1    3    3    0    0 0.28357360E+01 0.12001993E+03 -.16120589E+04 0.16190929E+04 0.91188000E+02 0.0000E+00 0.9000E+01
      -11  1    4    4    0    0 -.22210943E+02 -.80854588E+01 -.45054374E+03 0.45116334E+03 0.51099893E-03 0.0000E+00 0.9000E+01
       11  1    4    4    0    0 0.69808210E+02 -.84677164E+02 -.10402323E+04 0.10460051E+04 0.51099893E-03 0.0000E+00 0.9000E+01
       23  1    3    3    0    0 -.50433003E+02 -.27257303E+02 -.29340506E+03 0.31255116E+03 0.91188000E+02 0.0000E+00 0.9000E+01
#aMCatNLO 1  0  0  2  2 0.63694841D+01 0.00000000D+00  -5  7  0 0.00000000D+00 0.00000000D+00 0.00000000D+00 0.00000000D+00 0.00000000D+00
  <mgrwgt>
 0.6106561100D-04    6    2    0
 0.235748440372327D+03 0.000000000000000D+00 0.000000000000000D+00 0.235748440372327D+03
 0.235748440372327D+03 0.000000000000000D+00 0.000000000000000D+00 -.235748440372327D+03
 0.162519178313354D+03 0.283573594174225D+01 0.120019925654152D+03 -.606993247350273D+02
 0.356309002501231D+02 -.222109434451332D+02 -.808545882308180D+01 -.266619654101412D+02
 0.113843428311950D+03 0.698082103995888D+02 -.846771636258447D+02 -.302806520885310D+02
 0.159503373869228D+03 -.504330028961978D+02 -.272573032052252D+02 0.117641942233700D+03
 0.000000000000000D+00 -.000000000000000D+00 0.000000000000000D+00 0.000000000000000D+00
 0.240743926721219D+03 0.000000000000000D+00 0.000000000000000D+00 0.240743926721219D+03
 0.237809080537758D+03 0.000000000000000D+00 0.000000000000000D+00 -.237809080537758D+03
 0.161161886874178D+03 0.395722638850321D+01 0.118143280692840D+03 -.606993247350273D+02
 0.355739916834923D+02 -.219642326713043D+02 -.849829205937421D+01 -.266619654101412D+02
 0.115319511848114D+03 0.706022143614587D+02 -.860058093923851D+02 -.302806520885310D+02
 0.159484511277659D+03 -.493277733838770D+02 -.291067379475184D+02 0.117641942233700D+03
 0.701310557553319D+01 -.326743469478066D+01 0.546755870643741D+01 0.293484618346155D+01
0.532542779216D-05 0.000000000000D+00 0.000000000000D+00 0.751044066997D-07 0.000000000000D+00  7 -1 1 23 -11 11 23 21 0 0.25055802D-02 0.52500404D+00 0.38386377D+05 0.38386377D+05 0.38386377D+05 0.11575315D+01  1  2  2  2  7  2        1 0.952850975382D-04 0.100000000000D+01
-.283540874935D-06 0.000000000000D+00 -.204510449393D-07 0.751044066997D-07 0.000000000000D+00  7 -1 1 23 -11 11 23 21 2 0.25055802D-02 0.52500404D+00 0.38386377D+05 0.38386377D+05 0.38386377D+05 0.11575315D+01  1  2  3  2  7  2        1 -.679754053285D-05 0.100000000000D+01
0.345665370176D-06 0.000000000000D+00 0.000000000000D+00 0.751044066997D-07 0.000000000000D+00  7 -1 1 23 -11 11 23 21 2 0.25055802D-02 0.52500404D+00 0.38386377D+05 0.38386377D+05 0.38386377D+05 0.11575315D+01  1  2 15  2  7  2        1 0.828689819454D-05 0.100000000000D+01
-.275743183996D-05 0.000000000000D+00 0.000000000000D+00 0.751044066997D-07 0.000000000000D+00  7 -1 1 23 -11 11 23 21 2 0.25055802D-02 0.52500404D+00 0.38386377D+05 0.38386377D+05 0.38386377D+05 0.11575315D+01  1  2  4  2  7  2        1 -.661060057143D-04 0.100000000000D+01
0.138211460743D-05 0.000000000000D+00 0.000000000000D+00 0.751044066997D-07 0.132065137434D-07  7 -1 1 23 -11 11 23 21 2 0.25586732D-02 0.52959302D+00 0.39635003D+05 0.39635003D+05 0.39635003D+05 0.11562769D+01  1  2 11  2  7  2        1 0.303600824036D-04 0.100000000000D+01
0.107505523007D-07 0.000000000000D+00 0.000000000000D+00 0.751044066997D-07 0.216708443058D-10  7 -1 21 23 -11 11 23 -1 2 0.25586732D-02 0.52959302D+00 0.39635003D+05 0.39635003D+05 0.39635003D+05 0.11562769D+01  1  2 11  4  7  2        1 0.370791106133D-07 0.100000000000D+01
  </mgrwgt>
  </event>
  <event>
  8     66 0.58687835E-06 0.31862156E+03 0.75467711E-02 0.92898340E-01
       -1 -1    0    0    0  501 0.00000000E+00 0.00000000E+00 0.44245044E+02 0.44246201E+02 0.32000000E+00 0.0000E+00 0.9000E+01
        1 -1    0    0  501    0 0.00000000E+00 0.00000000E+00 -.28578260E+04 0.28578260E+04 0.32000000E+00 0.0000E+00 0.9000E+01
       25  2    1    2    0    0 -.23405197E+03 0.72005708E+02 -.22201830E+04 0.22536475E+04 0.29958209E+03 0.0000E+00 0.0000E+00
       23  2    1    2    0    0 0.23405197E+03 -.72005708E+02 -.59339791E+03 0.64842466E+03 0.91478475E+02 0.0000E+00 0.0000E+00
       23  1    3    3    0    0 -.20143382E+03 -.49776543E+02 -.11395724E+04 0.11618924E+04 0.91188000E+02 0.0000E+00 0.9000E+01
      -13  1    4    4    0    0 0.57943018E+02 -.51827099E+02 -.25247094E+03 0.26416856E+03 0.10565837E+00 0.0000E+00 0.9000E+01
       13  1    4    4    0    0 0.17610895E+03 -.20178609E+02 -.34092697E+03 0.38425610E+03 0.10565837E+00 0.0000E+00 0.9000E+01
       23  1    3    3    0    0 -.32618148E+02 0.12178225E+03 -.10806106E+04 0.10917552E+04 0.91188000E+02 0.0000E+00 0.9000E+01
#aMCatNLO 1  0  0  2  2 0.43334392D+03 0.00000000D+00  -5  7  0 0.00000000D+00 0.00000000D+00 0.00000000D+00 0.00000000D+00 0.00000000D+00
  <mgrwgt>
 0.1538283278D-03    3    2    0
 0.355592941442764D+03 0.000000000000000D+00 0.000000000000000D+00 0.355592941442764D+03
 0.355592941442764D+03 0.000000000000000D+00 0.000000000000000D+00 -.355592941442764D+03
 0.232873376616118D+03 -.201433817783314D+03 -.497765426751870D+02 -.534927195526287D+02
 0.791476300951424D+02 0.579428601107526D+02 -.518271404153334D+02 0.148633720343862D+02
 0.219230229356504D+03 0.176109105949740D+03 -.201785675025410D+02 0.128997293300419D+03
 0.179934646817764D+03 -.326181482771780D+02 0.121782250593061D+03 -.903679457821760D+02
 0.000000000000000D+00 0.000000000000000D+00 -.000000000000000D+00 0.000000000000000D+00
 0.734165153420835D+03 0.000000000000000D+00 0.000000000000000D+00 0.734165153420835D+03
 0.564147607422108D+03 0.000000000000000D+00 0.000000000000000D+00 -.564147607422108D+03
 0.394128354301749D+03 -.377270262474436D+03 -.427502786884366D+02 -.534927195526287D+02
 0.561443099701620D+02 0.200015713337304D+02 -.503110411140015D+02 0.148633720343862D+02
 0.149008882506296D+03 0.728400828620618D+02 -.160520315097186D+02 0.128997293300419D+03
 0.233528344742785D+03 -.148569761904997D+03 0.126415571338768D+03 -.903679457821760D+02
 0.465502869321950D+03 0.432998370183642D+03 -.173022200266117D+02 0.170017545998727D+03
0.145850209861D-04 0.000000000000D+00 0.000000000000D+00 0.387966271720D-06 0.000000000000D+00  7 -1 1 23 -13 13 23 21 0 0.68070202D-02 0.43966562D+00 0.10151970D+06 0.10151970D+06 0.10151970D+06 0.11211849D+01  1  2  2  2  7  2        1 0.152000731905D-03 0.100000000000D+01
-.798405329497D-06 0.000000000000D+00 -.560103209107D-07 0.387966271720D-06 0.000000000000D+00  7 -1 1 23 -13 13 23 21 2 0.68070202D-02 0.43966562D+00 0.10151970D+06 0.10151970D+06 0.10151970D+06 0.11211849D+01  1  2  3  2  7  2        1 -.104596351643D-04 0.100000000000D+01
0.937909462106D-06 0.000000000000D+00 0.000000000000D+00 0.387966271720D-06 0.000000000000D+00  7 -1 1 23 -13 13 23 21 2 0.68070202D-02 0.43966562D+00 0.10151970D+06 0.10151970D+06 0.10151970D+06 0.11211849D+01  1  2 15  2  7  2        1 0.122872310947D-04 0.100000000000D+01
  </mgrwgt>
  </event>
  <event>
  8     66 0.58687835E-06 0.21361986E+03 0.75467711E-02 0.89900862E-01
       -1 -1    0    0    0  501 0.00000000E+00 0.00000000E+00 0.19846417E+03 0.19846443E+03 0.32000000E+00 0.0000E+00 0.9000E+01
        1 -1    0    0  501    0 0.00000000E+00 0.00000000E+00 -.75173706E+03 0.75173713E+03 0.32000000E+00 0.0000E+00 0.9000E+01
       25  2    1    2    0    0 -.70737074E+02 -.13826587E+03 -.65944147E+03 0.74097566E+03 0.30010114E+03 0.0000E+00 0.0000E+00
       23  2    1    2    0    0 0.70737074E+02 0.13826587E+03 0.10616858E+03 0.20922590E+03 0.91556121E+02 0.0000E+00 0.0000E+00
       23  1    3    3    0    0 -.19716967E+01 -.87455013E+02 -.57830503E+03 0.59194951E+03 0.91188000E+02 0.0000E+00 0.9000E+01
      -13  1    4    4    0    0 0.60008385E+02 0.14904129E+03 0.81274932E+02 0.18005538E+03 0.10565837E+00 0.0000E+00 0.9000E+01
       13  1    4    4    0    0 0.10728689E+02 -.10775418E+02 0.24893647E+02 0.29170520E+02 0.10565837E+00 0.0000E+00 0.9000E+01
       23  1    3    3    0    0 -.68765378E+02 -.50810861E+02 -.81136444E+02 0.14902615E+03 0.91188000E+02 0.0000E+00 0.9000E+01
#aMCatNLO 1  0  0  2  1 0.72115835D+03 0.00000000D+00  -5  7  0 0.00000000D+00 0.00000000D+00 0.00000000D+00 0.00000000D+00 0.00000000D+00
  <mgrwgt>
 0.2991694442D-03    3    2    0
 0.386255133163571D+03 0.000000000000000D+00 0.000000000000000D+00 0.386255133163571D+03
 0.386255133163571D+03 0.000000000000000D+00 0.000000000000000D+00 -.386255133163571D+03
 0.313925734584993D+03 -.197169668014796D+01 -.874550125556166D+02 -.287370577272319D+03
 0.279680877059292D+03 0.600084506810062D+02 0.149041504928363D+03 0.228925771044259D+03
 0.537088272792304D+02 0.107286238339139D+02 -.107756309018889D+02 0.515113631833485D+02
 0.125194827403627D+03 -.687653778347722D+02 -.508108614708579D+02 0.693344304471117D+01
 0.000000000000000D+00 0.000000000000000D+00 -.000000000000000D+00 0.000000000000000D+00
 0.921866957191648D+03 0.000000000000000D+00 0.000000000000000D+00 0.921866957191648D+03
 0.858846942515587D+03 0.000000000000000D+00 0.000000000000000D+00 -.858846942515587D+03
 0.391191143727046D+03 -.244542014524187D+03 0.482971431567174D+02 -.287370577272319D+03
 0.401671569459066D+03 -.174386561832978D+03 0.280218429293245D+03 0.228925771044259D+03
 0.598220929782004D+02 -.283276408209568D+02 0.110818336390903D+02 0.515113631833485D+02
 0.204122405415382D+03 -.182055228487128D+03 0.125907186691898D+02 0.693344304471117D+01
 0.723906688127542D+03 0.629311445665251D+03 -.352188124758242D+03 0.630200146760614D+02
0.998163159920D-05 0.000000000000D+00 0.000000000000D+00 0.173054578698D-05 0.000000000000D+00  7 -1 1 23 -13 13 23 21 0 0.30532975D-01 0.11565188D+00 0.45633447D+05 0.45633447D+05 0.45633447D+05 0.11508027D+01  1  2  2  2  7  2        1 0.287749613267D-03 0.100000000000D+01
-.318000846149D-06 0.000000000000D+00 -.383320935649D-07 0.173054578698D-05 0.000000000000D+00  7 -1 1 23 -13 13 23 21 2 0.30532975D-01 0.11565188D+00 0.45633447D+05 0.45633447D+05 0.45633447D+05 0.11508027D+01  1  2  3  2  7  2        1 -.121406852807D-04 0.100000000000D+01
0.617120360867D-06 0.000000000000D+00 0.000000000000D+00 0.173054578698D-05 0.000000000000D+00  7 -1 1 23 -13 13 23 21 2 0.30532975D-01 0.11565188D+00 0.45633447D+05 0.45633447D+05 0.45633447D+05 0.11508027D+01  1  2 15  2  7  2        1 0.235605161820D-04 0.100000000000D+01
  </mgrwgt>
  </event>
  <event>
  8     66 0.58687835E-06 0.20739961E+03 0.75467711E-02 0.93504551E-01
       -1 -1    0    0    0  501 0.00000000E+00 0.00000000E+00 0.16570843E+03 0.16570874E+03 0.32000000E+00 0.0000E+00 0.9000E+01
        1 -1    0    0  501    0 0.00000000E+00 0.00000000E+00 -.31271653E+03 0.31271669E+03 0.32000000E+00 0.0000E+00 0.9000E+01
       25  2    1    2    0    0 0.10355908E+03 0.86693856E+01 -.88414264E+02 0.32961783E+03 0.30005199E+03 0.0000E+00 0.0000E+00
       23  2    1    2    0    0 -.10355908E+03 -.86693856E+01 -.58593832E+02 0.14880760E+03 0.88942806E+02 0.0000E+00 0.0000E+00
       23  1    3    3    0    0 0.13316301E+03 -.55933756E+02 0.18932874E+02 0.17185656E+03 0.91188000E+02 0.0000E+00 0.9000E+01
      -13  1    4    4    0    0 -.10215718E+03 0.16232859E+02 -.24045876E+02 0.10619704E+03 0.10565837E+00 0.0000E+00 0.9000E+01
       13  1    4    4    0    0 -.14018922E+01 -.24902244E+02 -.34547955E+02 0.42610555E+02 0.10565837E+00 0.0000E+00 0.9000E+01
       23  1    3    3    0    0 -.29603938E+02 0.64603142E+02 -.10734714E+03 0.15776127E+03 0.91188000E+02 0.0000E+00 0.9000E+01
#aMCatNLO 1  0  0  2  1 0.47577548D+03 0.00000000D+00  -5  7  0 0.00000000D+00 0.00000000D+00 0.00000000D+00 0.00000000D+00 0.00000000D+00
  <mgrwgt>
 0.1726251386D-03    3    2    0
 0.227639798541310D+03 0.000000000000000D+00 0.000000000000000D+00 0.227639798541310D+03
 0.227639798541310D+03 0.000000000000000D+00 0.000000000000000D+00 -.227639798541310D+03
 0.186706886820006D+03 0.133163016872033D+03 -.559337534950048D+02 0.753872429494367D+02
 0.103831740993115D+03 -.102157331472665D+03 0.162329149725938D+02 0.902233537050237D+01
 0.336213147262337D+02 -.140175345939721D+01 -.249023012941082D+02 -.225455823037902D+02
 0.131119654543265D+03 -.296039319399704D+02 0.646031398165191D+02 -.618639960161488D+02
 0.000000000000000D+00 0.000000000000000D+00 0.000000000000000D+00 0.000000000000000D+00
 0.586314166363670D+03 0.000000000000000D+00 0.000000000000000D+00 0.586314166363670D+03
 0.549405618784976D+03 0.000000000000000D+00 0.000000000000000D+00 -.549405618784976D+03
 0.259276641482515D+03 0.470344941851531D+02 -.225862005285710D+03 0.753872429494367D+02
 0.183314929275652D+03 -.157611214710993D+03 -.931754568388314D+02 0.902233537050237D+01
 0.725040417072039D+02 -.218967260069715D+02 -.653380912840175D+02 -.225455823037902D+02
 0.143419243299715D+03 -.826229969742752D+02 -.400014296315245D+02 -.618639960161488D+02
 0.477204929383560D+03 0.215096443507086D+03 0.424376983040083D+03 0.369085475786934D+02
0.131617421896D-05 0.000000000000D+00 0.000000000000D+00 0.471636078627D-07 0.000000000000D+00  7 -1 1 23 -13 13 23 21 0 0.25493641D-01 0.48110271D-01 0.43014599D+05 0.43014599D+05 0.43014599D+05 0.11530887D+01  1  2  2  2  7  2        1 0.170274694892D-03 0.100000000000D+01
-.723499193373D-07 0.000000000000D+00 -.505445555743D-08 0.471636078627D-07 0.000000000000D+00  7 -1 1 23 -13 13 23 21 2 0.25493641D-01 0.48110271D-01 0.43014599D+05 0.43014599D+05 0.43014599D+05 0.11530887D+01  1  2  3  2  7  2        1 -.124451513762D-04 0.100000000000D+01
0.860142298373D-07 0.000000000000D+00 0.000000000000D+00 0.471636078627D-07 0.000000000000D+00  7 -1 1 23 -13 13 23 21 2 0.25493641D-01 0.48110271D-01 0.43014599D+05 0.43014599D+05 0.43014599D+05 0.11530887D+01  1  2 15  2  7  2        1 0.147955950834D-04 0.100000000000D+01
  </mgrwgt>
  </event>
  <event>
  8     66 0.58687835E-06 0.36577350E+03 0.75467711E-02 0.97653340E-01
       -1 -1    0    0    0  501 0.00000000E+00 0.00000000E+00 0.33117317E+03 0.33117333E+03 0.32000000E+00 0.0000E+00 0.9000E+01
        1 -1    0    0  501    0 0.00000000E+00 0.00000000E+00 -.51118979E+03 0.51118989E+03 0.32000000E+00 0.0000E+00 0.9000E+01
       25  2    1    2    0    0 -.33693553E+03 0.29290326E+02 -.77128015E+01 0.45206912E+03 0.29987252E+03 0.0000E+00 0.0000E+00
       23  2    1    2    0    0 0.33693553E+03 -.29290326E+02 -.17230381E+03 0.39029410E+03 0.90870278E+02 0.0000E+00 0.0000E+00
       23  1    3    3    0    0 -.13914927E+03 -.16679097E+02 -.11702295E+03 0.20408413E+03 0.91188000E+02 0.0000E+00 0.9000E+01
      -13  1    4    4    0    0 0.58625060E+02 0.13534578E+02 0.12930585E-01 0.60167216E+02 0.10565837E+00 0.0000E+00 0.9000E+01
       13  1    4    4    0    0 0.27831047E+03 -.42824904E+02 -.17231674E+03 0.33012688E+03 0.10565837E+00 0.0000E+00 0.9000E+01
       23  1    3    3    0    0 -.19778626E+03 0.45969423E+02 0.10931015E+03 0.24798499E+03 0.91188000E+02 0.0000E+00 0.9000E+01
#aMCatNLO 1  0  0  1  1 0.41826840D+02 0.00000000D+00  -5  7  0 0.00000000D+00 0.00000000D+00 0.00000000D+00 0.00000000D+00 0.00000000D+00
  <mgrwgt>
 0.2101128607D-03    4    2    0
 0.411451639476835D+03 0.000000000000000D+00 0.000000000000000D+00 0.411451639476835D+03
 0.411451639476835D+03 0.000000000000000D+00 0.000000000000000D+00 -.411451639476835D+03
 0.183310596129638D+03 -.139149266865899D+03 -.166790971747724D+02 -.751452763486877D+02
 0.615925500349580D+02 0.586247633071183D+02 0.135346542646418D+02 0.131754499327262D+02
 0.300238362185761D+03 0.278310764881169D+03 -.428249798597796D+02 -.104173957298630D+03
 0.277761770603313D+03 -.197786261322388D+03 0.459694227699103D+02 0.166143783714591D+03
 0.000000000000000D+00 -.000000000000000D+00 0.000000000000000D+00 -.000000000000000D+00
 0.415317135113636D+03 0.000000000000000D+00 0.000000000000000D+00 0.415317135113636D+03
 0.543154485094388D+03 0.000000000000000D+00 0.000000000000000D+00 -.543154485094388D+03
 0.176649331945988D+03 -.130087777747873D+03 -.178911334482520D+02 -.751452763486877D+02
 0.645343550299415D+02 0.617998322206107D+02 0.131099670367672D+02 0.131754499327262D+02
 0.314935745274879D+03 0.293796914993064D+03 -.448963585733322D+02 -.104173957298630D+03
 0.267846156247256D+03 -.184051342776603D+03 0.441322832805892D+02 0.166143783714591D+03
 0.134506031709959D+03 -.414576266891982D+02 0.554524170422783D+01 -.127837349980752D+03
0.108180871131D-04 0.000000000000D+00 0.000000000000D+00 0.143757147452D-05 0.000000000000D+00  7 -1 1 23 -13 13 23 21 0 0.50949739D-01 0.78644602D-01 0.13379025D+06 0.13379025D+06 0.13379025D+06 0.11114928D+01  1  2  2  1  7  1       -1 0.220639893047D-03 0.100000000000D+01
-.590885685965D-06 0.000000000000D+00 -.415443029821D-07 0.143757147452D-05 0.000000000000D+00  7 -1 1 23 -13 13 23 21 2 0.50949739D-01 0.78644602D-01 0.13379025D+06 0.13379025D+06 0.13379025D+06 0.11114928D+01  1  2  3  1  7  1       -1 -.148884784083D-04 0.100000000000D+01
0.697647242975D-06 0.000000000000D+00 0.000000000000D+00 0.143757147452D-05 0.000000000000D+00  7 -1 1 23 -13 13 23 21 2 0.50949739D-01 0.78644602D-01 0.13379025D+06 0.13379025D+06 0.13379025D+06 0.11114928D+01  1  2 15  1  7  1       -1 0.175785370341D-04 0.100000000000D+01
-.524552585075D-06 0.000000000000D+00 0.000000000000D+00 0.143757147452D-05 0.000000000000D+00  7 -1 1 23 -13 13 23 21 2 0.50949739D-01 0.78644602D-01 0.13379025D+06 0.13379025D+06 0.13379025D+06 0.11114928D+01  1  2  4  1  7  1       -1 -.132170909237D-04 0.100000000000D+01
  </mgrwgt>
  </event>
  <event>
  8     66 0.58687835E-06 0.60842401E+03 0.75467711E-02 0.85528676E-01
       -1 -1    0    0    0  501 0.00000000E+00 0.00000000E+00 0.49375454E+03 0.49375464E+03 0.32000000E+00 0.0000E+00 0.9000E+01
        1 -1    0    0  501    0 0.00000000E+00 0.00000000E+00 -.19557149E+04 0.19557149E+04 0.32000000E+00 0.0000E+00 0.9000E+01
       25  2    1    2    0    0 0.46331121E+03 0.33189771E+03 -.17061401E+04 0.18238428E+04 0.30112313E+03 0.0000E+00 0.0000E+00
       23  2    1    2    0    0 -.46331121E+03 -.33189771E+03 0.24417971E+03 0.62562679E+03 0.83497226E+02 0.0000E+00 0.0000E+00
       23  1    3    3    0    0 0.21956542E+03 0.21039595E+02 -.59812064E+03 0.64398384E+03 0.91188000E+02 0.0000E+00 0.9000E+01
      -11  1    4    4    0    0 -.28574982E+03 -.17016683E+03 0.10880838E+03 0.34992709E+03 0.51099893E-03 0.0000E+00 0.9000E+01
       11  1    4    4    0    0 -.17756139E+03 -.16173088E+03 0.13537134E+03 0.27569970E+03 0.51099893E-03 0.0000E+00 0.9000E+01
       23  1    3    3    0    0 0.24374579E+03 0.31085811E+03 -.11080194E+04 0.11798589E+04 0.91188000E+02 0.0000E+00 0.9000E+01
#aMCatNLO 1  0  0  1  1 0.94301231D+03 0.00000000D+00  -5  7  0 0.00000000D+00 0.00000000D+00 0.00000000D+00 0.00000000D+00 0.00000000D+00
  <mgrwgt>
 0.5204406663D-03    5    2    0
 0.982671493405562D+03 0.000000000000000D+00 0.000000000000000D+00 0.982671493405562D+03
 0.982671493405562D+03 0.000000000000000D+00 0.000000000000000D+00 -.982671493405562D+03
 0.357693371146658D+03 0.219565421244138D+03 0.210395954626344D+02 -.266416323889723D+03
 0.517064606517174D+03 -.285749820199600D+03 -.170166826559044D+03 0.395911730954616D+03
 0.444312040565027D+03 -.177561388454067D+03 -.161730881184223D+03 0.373802440859737D+03
 0.646272968582265D+03 0.243745787409528D+03 0.310858112280632D+03 -.503297847924630D+03
 0.000000000000000D+00 0.000000000000000D+00 -.000000000000000D+00 0.000000000000000D+00
 0.203568058617719D+04 0.000000000000000D+00 0.000000000000000D+00 0.203568058617719D+04
 0.132500846289065D+04 0.000000000000000D+00 0.000000000000000D+00 -.132500846289065D+04
 0.402931440915993D+03 0.213168346291610D+03 0.193958998860647D+03 -.266416323889723D+03
 0.496980571662584D+03 -.294278233823755D+03 0.603648159125822D+02 0.395911730954616D+03
 0.418412458370489D+03 -.184817151342089D+03 0.343997252421306D+02 0.373802440859737D+03
 0.861548296152006D+03 0.231064573895912D+03 0.653644134237554D+03 -.503297847924630D+03
 0.118081628196676D+04 0.348624649783216D+02 -.942367674252914D+03 0.710672123286541D+03
0.696547298804D-03 0.000000000000D+00 0.000000000000D+00 0.377868241070D-07 0.000000000000D+00  7 -1 1 23 -11 11 23 21 0 0.75962247D-01 0.30087922D+00 0.37017978D+06 0.37017978D+06 0.37017978D+06 0.10778617D+01  1  2  2  1  7  1       -1 0.498415991683D-03 0.100000000000D+01
-.278837077643D-04 0.000000000000D+00 -.267492503252D-05 0.377868241070D-07 0.000000000000D+00  7 -1 1 23 -11 11 23 21 2 0.75962247D-01 0.30087922D+00 0.37017978D+06 0.37017978D+06 0.37017978D+06 0.10778617D+01  1  2  3  1  7  1       -1 -.231802397642D-04 0.100000000000D+01
0.432791272973D-04 0.000000000000D+00 0.000000000000D+00 0.377868241070D-07 0.000000000000D+00  7 -1 1 23 -11 11 23 21 2 0.75962247D-01 0.30087922D+00 0.37017978D+06 0.37017978D+06 0.37017978D+06 0.10778617D+01  1  2 15  1  7  1       -1 0.359787355405D-04 0.100000000000D+01
0.341009364534D-04 0.000000000000D+00 -.208581095242D-03 0.377868241070D-07 0.000000000000D+00  7 -1 1 23 -11 11 23 21 2 0.19796879D+00 0.30087922D+00 0.37017978D+06 0.37017978D+06 0.37017978D+06 0.10778617D+01  1  2  5  1  7  1       -1 0.230172681279D-05 0.100000000000D+01
0.161615700165D-04 0.000000000000D+00 -.221457902288D-04 0.377868241070D-07 0.000000000000D+00  7 21 1 23 -11 11 23 1 2 0.19796879D+00 0.30087922D+00 0.37017978D+06 0.37017978D+06 0.37017978D+06 0.10778617D+01  1  2  5  3  7  1       -1 0.692445200662D-05 0.100000000000D+01
  </mgrwgt>
  </event>
  <event>
  8     66 0.58687835E-06 0.18014046E+03 0.75467711E-02 0.99489540E-01
       -1 -1    0    0    0  501 0.00000000E+00 0.00000000E+00 0.62408902E+02 0.62409723E+02 0.32000000E+00 0.0000E+00 0.9000E+01
        1 -1    0    0  501    0 0.00000000E+00 0.00000000E+00 -.16627519E+04 0.16627520E+04 0.32000000E+00 0.0000E+00 0.9000E+01
       25  2    1    2    0    0 0.79536419E+02 0.17931613E+03 -.57523288E+03 0.67747359E+03 0.29932804E+03 0.0000E+00 0.0000E+00
       23  2    1    2    0    0 -.79536419E+02 -.17931613E+03 -.10251102E+04 0.10476881E+04 0.91209801E+02 0.0000E+00 0.0000E+00
       23  1    3    3    0    0 0.12168866E+03 0.39128093E+01 -.20016891E+03 0.25140860E+03 0.91188000E+02 0.0000E+00 0.9000E+01
      -13  1    4    4    0    0 -.89651723E+02 -.13452159E+03 -.90027899E+03 0.91467795E+03 0.10565837E+00 0.0000E+00 0.9000E+01
       13  1    4    4    0    0 0.10115304E+02 -.44794543E+02 -.12483117E+03 0.13301016E+03 0.10565837E+00 0.0000E+00 0.9000E+01
       23  1    3    3    0    0 -.42152244E+02 0.17540332E+03 -.37506397E+03 0.42606498E+03 0.91188000E+02 0.0000E+00 0.9000E+01
#aMCatNLO 1  0  0  2  1 0.10172927D+03 0.00000000D+00  -5  7  0 0.00000000D+00 0.00000000D+00 0.00000000D+00 0.00000000D+00 0.00000000D+00
  <mgrwgt>
 0.2114015002D-03    7    2    0
 0.322135465526851D+03 0.000000000000000D+00 0.000000000000000D+00 0.322135465526851D+03
 0.322135465526851D+03 0.000000000000000D+00 0.000000000000000D+00 -.322135465526851D+03
 0.175984294748005D+03 0.121688662497038D+03 0.391280963439591D+01 0.884973445612888D+02
 0.212972978594605D+03 -.896518572621066D+02 -.134521706593318D+03 -.138650440158458D+03
 0.460849513661582D+02 0.101154381408352D+02 -.447944223717863D+02 -.386786478798199D+01
 0.209228706344934D+03 -.421522433757666D+02 0.175403319330709D+03 0.540209603851507D+02
 0.000000000000000D+00 -.000000000000000D+00 -.000000000000000D+00 -.000000000000000D+00
 0.331299096924309D+03 0.000000000000000D+00 0.000000000000000D+00 0.331299096924309D+03
 0.826299308687073D+03 0.000000000000000D+00 0.000000000000000D+00 -.826299308687073D+03
 0.187089253131940D+03 0.134096052272506D+03 0.295568277052387D+02 0.884973445612888D+02
 0.190325851435148D+03 -.758698403418771D+02 -.106036562066478D+03 -.138650440158458D+03
 0.409846526980117D+02 0.130908862877131D+02 -.386446642495531D+02 -.386786478798199D+01
 0.233853167544382D+03 -.270107120141728D+02 0.206698354860638D+03 0.540209603851507D+02
 0.505345480801900D+03 -.443063862041688D+02 -.915739562498455D+02 -.495000211762764D+03
0.527729712847D-05 0.000000000000D+00 0.000000000000D+00 0.249110986427D-06 0.000000000000D+00  7 -1 1 23 -13 13 23 21 0 0.96014351D-02 0.25580806D+00 0.78913163D+05 0.78913163D+05 0.78913163D+05 0.11302611D+01  1  2  2  2  7  2        1 0.209128335250D-03 0.100000000000D+01
-.286500388990D-06 0.000000000000D+00 -.202662105176D-07 0.249110986427D-06 0.000000000000D+00  7 -1 1 23 -13 13 23 21 2 0.96014351D-02 0.25580806D+00 0.78913163D+05 0.78913163D+05 0.78913163D+05 0.11302611D+01  1  2  3  2  7  2        1 -.145038776163D-04 0.100000000000D+01
0.348393603550D-06 0.000000000000D+00 0.000000000000D+00 0.249110986427D-06 0.000000000000D+00  7 -1 1 23 -13 13 23 21 2 0.96014351D-02 0.25580806D+00 0.78913163D+05 0.78913163D+05 0.78913163D+05 0.11302611D+01  1  2 15  2  7  2        1 0.176371774085D-04 0.100000000000D+01
0.220876970247D-04 0.000000000000D+00 0.000000000000D+00 0.249110986427D-06 0.000000000000D+00  7 -1 1 23 -13 13 23 21 2 0.96014351D-02 0.65336113D+00 0.11064877D+06 0.11064877D+06 0.11064877D+06 0.11181335D+01  1  2 12  2  7  2        1 0.118415898555D-04 0.100000000000D+01
-.242165334229D-04 0.000000000000D+00 -.129967111165D-05 0.249110986427D-06 0.000000000000D+00  7 -1 1 23 -13 13 23 21 2 0.96014351D-02 0.65804947D+00 0.78913163D+05 0.78913163D+05 0.78913163D+05 0.11302611D+01  1  2  5  2  7  2        1 -.126987211151D-04 0.100000000000D+01
0.228785276602D-05 0.000000000000D+00 0.000000000000D+00 0.249110986427D-06 0.000000000000D+00  7 -1 21 23 -13 13 23 -1 2 0.96014351D-02 0.65336113D+00 0.11064877D+06 0.11064877D+06 0.11064877D+06 0.11181335D+01  1  2 12  4  7  2        1 0.847224843229D-07 0.100000000000D+01
-.245162182768D-05 0.000000000000D+00 -.135810595340D-06 0.249110986427D-06 0.000000000000D+00  7 -1 21 23 -13 13 23 -1 2 0.96014351D-02 0.65804947D+00 0.78913163D+05 0.78913163D+05 0.78913163D+05 0.11302611D+01  1  2  5  4  7  2        1 -.877260762646D-07 0.100000000000D+01
  </mgrwgt>
  </event>
  <event>
  9     66 0.58687835E-06 0.18446826E+03 0.75467711E-02 0.10490257E+00
       -3 -1    0    0    0  501 0.00000000E+00 0.00000000E+00 0.30605640E+03 0.30605681E+03 0.50000000E+00 0.0000E+00 0.9000E+01
       21 -1    0    0  501  502 0.00000000E+00 0.00000000E+00 -.29412037E+03 0.29412133E+03 0.75000000E+00 0.0000E+00 0.9000E+01
       25  2    1    2    0    0 0.44890818E+02 -.77299886E+02 0.14632400E+03 0.35365534E+03 0.30930717E+03 0.0000E+00 0.0000E+00
       23  2    1    2    0    0 -.32696691E+01 0.28034878E+02 0.49414573E+00 0.97014278E+02 0.92816383E+02 0.0000E+00 0.0000E+00
       23  1    3    3    0    0 0.14561379E+03 -.26746693E+02 0.55222760E+02 0.18243784E+03 0.91188000E+02 0.0000E+00 0.9000E+01
      -13  1    4    4    0    0 -.20850234E+02 0.34391879E+02 0.37858391E+02 0.55234071E+02 0.10565837E+00 0.0000E+00 0.9000E+01
       13  1    4    4    0    0 0.17580565E+02 -.63570009E+01 -.37364246E+02 0.41780208E+02 0.10565837E+00 0.0000E+00 0.9000E+01
       23  1    3    3    0    0 -.10072298E+03 -.50553193E+02 0.91101243E+02 0.17121750E+03 0.91188000E+02 0.0000E+00 0.9000E+01
       -3  1    1    2    0  502 -.41621149E+02 0.49265007E+02 -.13488212E+03 0.14950852E+03 0.50000000E+00 0.0000E+00 0.9000E+01
#aMCatNLO 2  0  0  2  1 0.64493108D+02 0.00000000D+00  -5  7  0 0.00000000D+00 0.00000000D+00 0.00000000D+00 0.00000000D+00 0.00000000D+00
  <mgrwgt>
 0.2128037406D-05    2    2    0
 0.210587378217242D+03 0.000000000000000D+00 0.000000000000000D+00 0.210587378217242D+03
 0.210587378217242D+03 0.000000000000000D+00 0.000000000000000D+00 -.210587378217242D+03
 0.158445629168800D+03 0.129285974178103D+03 -.742068543144720D+01 -.445380368260805D+01
 0.519880232858013D+02 -.256331803435244D+02 0.400537076476321D+02 0.210094058535549D+02
 0.552499216519033D+02 0.120625588590873D+02 0.174855311433856D+00 -.539167686525497D+02
 0.155491182327979D+03 -.115715352693666D+03 -.328078775276188D+02 0.373611664816028D+02
 0.000000000000000D+00 -.000000000000000D+00 0.000000000000000D+00 -.000000000000000D+00
 0.218256910205428D+03 0.000000000000000D+00 0.000000000000000D+00 0.218256910205428D+03
 0.412438647828798D+03 0.000000000000000D+00 0.000000000000000D+00 -.412438647828798D+03
 0.173936709383453D+03 0.145614085872020D+03 -.267475074643698D+02 -.445380368260805D+01
 0.453757820173533D+02 -.208502334069958D+02 0.343923570905044D+02 0.210094058535549D+02
 0.570655008628729D+02 0.175799963130706D+02 -.635587731398313D+01 -.539167686525497D+02
 0.149705962434280D+03 -.100722699684338D+03 -.505539795842689D+02 0.373611664816028D+02
 0.204611603336267D+03 -.416211490937566D+02 0.492650072721174D+02 -.194181737623370D+03
-.113689527007D-06 0.000000000000D+00 0.000000000000D+00 0.280272094826D-09 0.000000000000D+00  7 -3 21 23 -13 13 23 -3 2 0.45431055D-01 0.45281407D-01 0.48897253D+05 0.48897253D+05 0.48897253D+05 0.11481483D+01  1  2 13  4  7  2        3 -.236356243885D-04 0.100000000000D+01
0.133046135302D-06 0.000000000000D+00 0.000000000000D+00 0.280272094826D-09 0.419065852394D-13  7 -3 21 23 -13 13 23 -3 2 0.47085641D-01 0.45249331D-01 0.48897253D+05 0.48897253D+05 0.48897253D+05 0.11481483D+01  1  2  1  4  7  2        3 0.257636617950D-04 0.100000000000D+01
  </mgrwgt>
  </event>
  <event>
  8     66 0.58687835E-06 0.84196195E+02 0.75467711E-02 0.10542486E+00
       -1 -1    0    0    0  501 0.00000000E+00 0.00000000E+00 0.10412961E+03 0.10413010E+03 0.32000000E+00 0.0000E+00 0.9000E+01
        1 -1    0    0  501    0 0.00000000E+00 0.00000000E+00 -.76807301E+03 0.76807308E+03 0.32000000E+00 0.0000E+00 0.9000E+01
       25  2    1    2    0    0 0.29702898E+02 0.59586805E+02 -.14323604E+03 0.33935862E+03 0.30035789E+03 0.0000E+00 0.0000E+00
       23  2    1    2    0    0 -.29702898E+02 -.59586805E+02 -.52070736E+03 0.53284456E+03 0.91401948E+02 0.0000E+00 0.0000E+00
       23  1    3    3    0    0 0.36364698E+02 0.13720402E+03 -.14024404E+03 0.21938773E+03 0.91188000E+02 0.0000E+00 0.9000E+01
      -13  1    4    4    0    0 -.54622970E+02 -.59949239E+02 -.46202154E+03 0.46908581E+03 0.10565837E+00 0.0000E+00 0.9000E+01
       13  1    4    4    0    0 0.24920072E+02 0.36243381E+00 -.58685824E+02 0.63758752E+02 0.10565837E+00 0.0000E+00 0.9000E+01
       23  1    3    3    0    0 -.66618004E+01 -.77617210E+02 -.29919934E+01 0.11997089E+03 0.91188000E+02 0.0000E+00 0.9000E+01
#aMCatNLO 1  0  0  1  2 0.27424203D+02 0.00000000D+00  -5  7  0 0.00000000D+00 0.00000000D+00 0.00000000D+00 0.00000000D+00 0.00000000D+00
  <mgrwgt>
 0.3113643738D-03    6    2    0
 0.282806270308908D+03 0.000000000000000D+00 0.000000000000000D+00 0.282806270308908D+03
 0.282806270308908D+03 0.000000000000000D+00 0.000000000000000D+00 -.282806270308908D+03
 0.173681736953575D+03 0.363646980566296D+02 0.137204014830941D+03 0.412645302497392D+02
 0.181011006296263D+03 -.546230760304105D+02 -.599493201704197D+02 -.161825161753252D+03
 0.294307581194605D+02 0.249201779996342D+02 0.362514215553471D+00 -.156532052754782D+02
 0.181489039248518D+03 -.666180002585333D+01 -.776172088760751D+02 0.136213836778991D+03
 0.000000000000000D+00 0.000000000000000D+00 0.000000000000000D+00 -.000000000000000D+00
 0.294051467596577D+03 0.000000000000000D+00 0.000000000000000D+00 0.294051467596577D+03
 0.300367693455441D+03 0.000000000000000D+00 0.000000000000000D+00 -.300367693455441D+03
 0.172076261661351D+03 0.279876375827016D+02 0.137145613014611D+03 0.412645302497392D+02
 0.183892294372060D+03 -.634639908583532D+02 -.600109558104612D+02 -.161825161753252D+03
 0.282569627612279D+02 0.235225139445539D+02 0.352770210518420D+00 -.156532052754782D+02
 0.182051474387545D+03 -.154696971089339D+02 -.776786143284181D+02 0.136213836778991D+03
 0.281421678698340D+02 0.274235364400316D+02 0.191186913750315D+00 -.631622585886424D+01
0.216087359396D-05 0.000000000000D+00 0.000000000000D+00 0.411591007026D-06 0.000000000000D+00  7 -1 1 23 -13 13 23 21 0 0.16019983D-01 0.11816512D+00 0.38940585D+05 0.38940585D+05 0.38940585D+05 0.11569692D+01  1  2  2  1  7  1       -1 0.169743926931D-03 0.100000000000D+01
-.101146005396D-06 0.000000000000D+00 -.829832357187D-08 0.411591007026D-06 0.000000000000D+00  7 -1 1 23 -13 13 23 21 2 0.16019983D-01 0.11816512D+00 0.38940585D+05 0.38940585D+05 0.38940585D+05 0.11569692D+01  1  2  3  1  7  1       -1 -.106354822436D-04 0.100000000000D+01
0.138197870066D-06 0.000000000000D+00 0.000000000000D+00 0.411591007026D-06 0.000000000000D+00  7 -1 1 23 -13 13 23 21 2 0.16019983D-01 0.11816512D+00 0.38940585D+05 0.38940585D+05 0.38940585D+05 0.11569692D+01  1  2 15  1  7  1       -1 0.145314784052D-04 0.100000000000D+01
0.337867410624D-05 0.000000000000D+00 0.000000000000D+00 0.411591007026D-06 0.000000000000D+00  7 -1 1 23 -13 13 23 21 2 0.17130233D-01 0.11816512D+00 0.45397072D+05 0.45397072D+05 0.45397072D+05 0.11510030D+01  1  2 12  1  7  1       -1 0.316384925539D-03 0.100000000000D+01
-.213889008652D-05 0.000000000000D+00 0.000000000000D+00 0.411591007026D-06 0.000000000000D+00  7 -1 1 23 -13 13 23 21 2 0.16019983D-01 0.11816512D+00 0.38940585D+05 0.38940585D+05 0.38940585D+05 0.11569692D+01  1  2  4  1  7  1       -1 -.224903864933D-03 0.100000000000D+01
0.386273280951D-07 0.000000000000D+00 0.000000000000D+00 0.411591007026D-06 0.000000000000D+00  7 21 1 23 -13 13 23 1 2 0.17130233D-01 0.11816512D+00 0.45397072D+05 0.45397072D+05 0.45397072D+05 0.11510030D+01  1  2 12  3  7  1       -1 0.462433901477D-04 0.100000000000D+01
  </mgrwgt>
  </event>
  <event>
  8     66 0.58687835E-06 0.46487991E+02 0.75467711E-02 0.11012684E+00
       -1 -1    0    0    0  501 0.00000000E+00 0.00000000E+00 0.97130237E+02 0.97130764E+02 0.32000000E+00 0.0000E+00 0.9000E+01
        1 -1    0    0  501    0 0.00000000E+00 0.00000000E+00 -.44697945E+03 0.44697957E+03 0.32000000E+00 0.0000E+00 0.9000E+01
       25  2    1    2    0    0 0.16498918E+01 0.11162704E+02 -.34027983E+03 0.45353379E+03 0.29962510E+03 0.0000E+00 0.0000E+00
       23  2    1    2    0    0 -.16498918E+01 -.11162704E+02 -.95693817E+01 0.90576546E+02 0.89359999E+02 0.0000E+00 0.0000E+00
       23  1    3    3    0    0 0.99636774E+01 -.35024076E+02 -.33690614E+03 0.35092301E+03 0.91188000E+02 0.0000E+00 0.9000E+01
      -11  1    4    4    0    0 0.18202650E+02 0.14060404E+02 0.31153336E+02 0.38724175E+02 0.51099893E-03 0.0000E+00 0.9000E+01
       11  1    4    4    0    0 -.19852541E+02 -.25223108E+02 -.40722718E+02 0.51852370E+02 0.51099893E-03 0.0000E+00 0.9000E+01
       23  1    3    3    0    0 -.83137856E+01 0.46186780E+02 -.33736926E+01 0.10261077E+03 0.91188000E+02 0.0000E+00 0.9000E+01
#aMCatNLO 1  0  0  1  2 0.50354125D+02 0.00000000D+00  -5  7  0 0.00000000D+00 0.00000000D+00 0.00000000D+00 0.00000000D+00 0.00000000D+00
  <mgrwgt>
 0.3503569812D-03    9    2    0
 0.208363611558297D+03 0.000000000000000D+00 0.000000000000000D+00 0.208363611558297D+03
 0.208363611558297D+03 0.000000000000000D+00 0.000000000000000D+00 -.208363611558297D+03
 0.175353283889112D+03 0.996367746119436D+01 -.350240757732936D+02 -.145284417864998D+03
 0.767149165339640D+02 0.182026492651157D+02 0.140604036643436D+02 0.731857023423289D+02
 0.335149673271754D+02 -.198525411261612D+02 -.252231076388669D+02 -.963973478960108D+01
 0.131144055366342D+03 -.831378560014888D+01 0.461867797478169D+02 0.817384503122707D+02
 0.000000000000000D+00 -.000000000000000D+00 0.000000000000000D+00 0.000000000000000D+00
 0.256197305203046D+03 0.000000000000000D+00 0.000000000000000D+00 0.256197305203046D+03
 0.223564659438678D+03 0.000000000000000D+00 0.000000000000000D+00 -.223564659438678D+03
 0.180988871412124D+03 0.130094250733871D+02 -.562575596335544D+02 -.145284417864998D+03
 0.759034820658358D+02 0.195071177827938D+02 0.496627810205018D+01 0.731857023423289D+02
 0.364350323328158D+02 -.192546605743719D+02 -.293912425808304D+02 -.963973478960108D+01
 0.126431016602960D+03 -.611222553003117D+01 0.308385644101107D+02 0.817384503122707D+02
 0.600035622279868D+02 -.714965675177794D+01 0.498439597022240D+02 0.326326457643679D+02
0.177629799005D-05 0.000000000000D+00 0.000000000000D+00 0.531370178381D-07 0.000000000000D+00  7 -1 1 23 -11 11 23 21 0 0.14943163D-01 0.68766119D-01 0.16364087D+05 0.16364087D+05 0.16364087D+05 0.11925763D+01  1  2  2  1  7  1       -1 0.331361144976D-03 0.100000000000D+01
-.701257565835D-07 0.000000000000D+00 -.682145199181D-08 0.531370178381D-07 0.000000000000D+00  7 -1 1 23 -11 11 23 21 2 0.14943163D-01 0.68766119D-01 0.16364087D+05 0.16364087D+05 0.16364087D+05 0.11925763D+01  1  2  3  1  7  1       -1 -.186052577837D-04 0.100000000000D+01
0.111593091140D-06 0.000000000000D+00 0.000000000000D+00 0.531370178381D-07 0.000000000000D+00  7 -1 1 23 -11 11 23 21 2 0.14943163D-01 0.68766119D-01 0.16364087D+05 0.16364087D+05 0.16364087D+05 0.11925763D+01  1  2 15  1  7  1       -1 0.296070706212D-04 0.100000000000D+01
0.177504517595D-05 0.000000000000D+00 0.000000000000D+00 0.531370178381D-07 0.000000000000D+00  7 -1 1 23 -11 11 23 21 2 0.18825617D-01 0.68766119D-01 0.24026229D+05 0.24026229D+05 0.24026229D+05 0.11763905D+01  1  2 12  1  7  1       -1 0.321496174423D-03 0.100000000000D+01
-.216410178013D-05 0.000000000000D+00 0.000000000000D+00 0.531370178381D-07 0.000000000000D+00  7 -1 1 23 -11 11 23 21 2 0.14943163D-01 0.68766119D-01 0.16364087D+05 0.16364087D+05 0.16364087D+05 0.11925763D+01  1  2  4  1  7  1       -1 -.574163808723D-03 0.100000000000D+01
-.290829394509D-05 0.000000000000D+00 -.101568445376D-05 0.531370178381D-07 0.000000000000D+00  7 -1 1 23 -11 11 23 21 2 0.19630366D-01 0.68766119D-01 0.16364087D+05 0.16364087D+05 0.16364087D+05 0.11925763D+01  1  2  5  1  7  1       -1 -.505650449733D-03 0.100000000000D+01
0.310575530369D-05 0.000000000000D+00 0.979022193133D-06 0.531370178381D-07 0.000000000000D+00  7 -1 1 23 -11 11 23 21 2 0.14943163D-01 0.68766119D-01 0.16364087D+05 0.16364087D+05 0.16364087D+05 0.11925763D+01  1  2  6  1  7  1       -1 0.823996500766D-03 0.100000000000D+01
0.566432774008D-07 0.000000000000D+00 0.000000000000D+00 0.531370178381D-07 0.000000000000D+00  7 21 1 23 -11 11 23 1 2 0.18825617D-01 0.68766119D-01 0.24026229D+05 0.24026229D+05 0.24026229D+05 0.11763905D+01  1  2 12  3  7  1       -1 0.130252130358D-03 0.100000000000D+01
-.853286257271D-07 0.000000000000D+00 -.366479057553D-07 0.531370178381D-07 0.000000000000D+00  7 21 1 23 -11 11 23 1 2 0.19630366D-01 0.68766119D-01 0.16364087D+05 0.16364087D+05 0.16364087D+05 0.11925763D+01  1  2  5  3  7  1       -1 -.187936523687D-03 0.100000000000D+01
  </mgrwgt>
  </event>
  <event>
  8     66 0.58687835E-06 0.13148807E+03 0.75467711E-02 0.99124963E-01
       -1 -1    0    0    0  501 0.00000000E+00 0.00000000E+00 0.57677510E+02 0.57678398E+02 0.32000000E+00 0.0000E+00 0.9000E+01
        1 -1    0    0  501    0 0.00000000E+00 0.00000000E+00 -.13714713E+04 0.13714713E+04 0.32000000E+00 0.0000E+00 0.9000E+01
       25  2    1    2    0    0 0.52822443E+02 -.17455343E+03 -.73573870E+03 0.81520966E+03 0.29999375E+03 0.0000E+00 0.0000E+00
       23  2    1    2    0    0 -.52822443E+02 0.17455343E+03 -.57805507E+03 0.61394005E+03 0.97548013E+02 0.0000E+00 0.0000E+00
       23  1    3    3    0    0 -.36567693E+02 0.29013255E+02 -.14565111E+03 0.17806871E+03 0.91188000E+02 0.0000E+00 0.9000E+01
      -11  1    4    4    0    0 0.71948491E+01 0.47874231E+01 -.16125431E+00 0.86435685E+01 0.51099893E-03 0.0000E+00 0.9000E+01
       11  1    4    4    0    0 -.60017292E+02 0.16976600E+03 -.57789382E+03 0.60529649E+03 0.51099893E-03 0.0000E+00 0.9000E+01
       23  1    3    3    0    0 0.89390136E+02 -.20356668E+03 -.59008758E+03 0.63714096E+03 0.91188000E+02 0.0000E+00 0.9000E+01
#aMCatNLO 1  0  0  2  1 0.13360389D+03 0.00000000D+00  -5  7  0 0.00000000D+00 0.00000000D+00 0.00000000D+00 0.00000000D+00 0.00000000D+00
  <mgrwgt>
 0.2332009814D-03    9    2    0
 0.281253817531803D+03 0.000000000000000D+00 0.000000000000000D+00 0.281253817531803D+03
 0.281253817531803D+03 0.000000000000000D+00 0.000000000000000D+00 -.281253817531803D+03
 0.112231920154044D+03 -.365676929098336D+02 0.290132551032893D+02 0.458452551637271D+02
 0.215838818885918D+02 0.719484891066273D+01 0.478742324598725D+01 0.197782376666172D+02
 0.188132563801297D+03 -.600172922385967D+02 0.169766004258472D+03 -.545095403843085D+02
 0.240559269219673D+03 0.893901362377676D+02 -.203566682607749D+03 -.111139524460359D+02
 0.000000000000000D+00 0.000000000000000D+00 -.000000000000000D+00 -.000000000000000D+00
 0.309399145257662D+03 0.000000000000000D+00 0.000000000000000D+00 0.309399145257662D+03
 0.508679274375939D+03 0.000000000000000D+00 0.000000000000000D+00 -.508679274375939D+03
 0.123893102781985D+03 -.422897336455344D+02 0.560717449354840D+02 0.458452551637271D+02
 0.229432622632073D+02 0.611581827886881D+01 0.988996283415507D+01 0.197782376666172D+02
 0.235765129937664D+03 -.702896464397061D+02 0.218342098792231D+03 -.545095403843085D+02
 0.195554918639041D+03 0.788217385418541D+02 -.153590652235703D+03 -.111139524460359D+02
 0.239922006011704D+03 0.276418232645175D+02 -.130713154326166D+03 -.199280129118277D+03
0.318031310285D-05 0.000000000000D+00 0.000000000000D+00 0.242185026960D-07 0.000000000000D+00  7 -1 1 23 -11 11 23 21 0 0.88735343D-02 0.21099565D+00 0.70609359D+05 0.70609359D+05 0.70609359D+05 0.11343398D+01  1  2  2  2  7  2        1 0.221544578322D-03 0.100000000000D+01
-.175991029442D-06 0.000000000000D+00 -.122132397106D-07 0.242185026960D-07 0.000000000000D+00  7 -1 1 23 -11 11 23 21 2 0.88735343D-02 0.21099565D+00 0.70609359D+05 0.70609359D+05 0.70609359D+05 0.11343398D+01  1  2  3  2  7  2        1 -.157749536238D-04 0.100000000000D+01
0.207710284580D-06 0.000000000000D+00 0.000000000000D+00 0.242185026960D-07 0.000000000000D+00  7 -1 1 23 -11 11 23 21 2 0.88735343D-02 0.21099565D+00 0.70609359D+05 0.70609359D+05 0.70609359D+05 0.11343398D+01  1  2 15  2  7  2        1 0.186181086435D-04 0.100000000000D+01
0.206844524936D-05 0.000000000000D+00 0.000000000000D+00 0.242185026960D-07 0.000000000000D+00  7 -1 1 23 -11 11 23 21 2 0.88735343D-02 0.38458936D+00 0.11728804D+06 0.11728804D+06 0.11728804D+06 0.11160829D+01  1  2 12  2  7  2        1 0.318007165979D-04 0.100000000000D+01
-.305624576797D-05 0.000000000000D+00 0.000000000000D+00 0.242185026960D-07 0.000000000000D+00  7 -1 1 23 -11 11 23 21 2 0.88735343D-02 0.21099565D+00 0.70609359D+05 0.70609359D+05 0.70609359D+05 0.11343398D+01  1  2  4  2  7  2        1 -.273946549467D-03 0.100000000000D+01
-.332514004730D-05 0.000000000000D+00 -.889305137416D-06 0.242185026960D-07 0.000000000000D+00  7 -1 1 23 -11 11 23 21 2 0.88735343D-02 0.39215339D+00 0.70609359D+05 0.70609359D+05 0.70609359D+05 0.11343398D+01  1  2  5  2  7  2        1 -.498217262507D-04 0.100000000000D+01
0.335764987954D-05 0.000000000000D+00 0.742130045061D-06 0.242185026960D-07 0.000000000000D+00  7 -1 1 23 -11 11 23 21 2 0.88735343D-02 0.21099565D+00 0.70609359D+05 0.70609359D+05 0.70609359D+05 0.11343398D+01  1  2  6  2  7  2        1 0.300962903067D-03 0.100000000000D+01
0.135830147082D-06 0.000000000000D+00 0.000000000000D+00 0.242185026960D-07 0.000000000000D+00  7 -1 21 23 -11 11 23 -1 2 0.88735343D-02 0.38458936D+00 0.11728804D+06 0.11728804D+06 0.11728804D+06 0.11160829D+01  1  2 12  4  7  2        1 0.744879604454D-06 0.100000000000D+01
-.175200307790D-06 0.000000000000D+00 -.600816261419D-07 0.242185026960D-07 0.000000000000D+00  7 -1 21 23 -11 11 23 -1 2 0.88735343D-02 0.39215339D+00 0.70609359D+05 0.70609359D+05 0.70609359D+05 0.11343398D+01  1  2  5  4  7  2        1 -.926975507334D-06 0.100000000000D+01
  </mgrwgt>
  </event>
  <event>
  8     66 0.58687835E-06 0.51707858E+03 0.75467711E-02 0.94228504E-01
       -1 -1    0    0    0  501 0.00000000E+00 0.00000000E+00 0.29586282E+03 0.29586299E+03 0.32000000E+00 0.0000E+00 0.9000E+01
        1 -1    0    0  501    0 0.00000000E+00 0.00000000E+00 -.17884725E+04 0.17884726E+04 0.32000000E+00 0.0000E+00 0.9000E+01
       25  2    1    2    0    0 0.42729010E+03 0.25398454E+03 -.82439593E+02 0.58612065E+03 0.29942636E+03 0.0000E+00 0.0000E+00
       23  2    1    2    0    0 -.42729010E+03 -.25398454E+03 -.14101701E+04 0.14982149E+04 0.94779452E+02 0.0000E+00 0.0000E+00
       23  1    3    3    0    0 0.16679986E+03 0.65029399E+02 -.14246917E+03 0.24630009E+03 0.91188000E+02 0.0000E+00 0.9000E+01
      -11  1    4    4    0    0 -.23090898E+03 -.16092203E+03 -.91862283E+03 0.96077196E+03 0.51099893E-03 0.0000E+00 0.9000E+01
       11  1    4    4    0    0 -.19638112E+03 -.93062512E+02 -.49154729E+03 0.53744294E+03 0.51099893E-03 0.0000E+00 0.9000E+01
       23  1    3    3    0    0 0.26049024E+03 0.18895514E+03 0.60029579E+02 0.33982056E+03 0.91188000E+02 0.0000E+00 0.9000E+01
#aMCatNLO 1  0  0  1  2 0.16553551D+01 0.00000000D+00  -5  7  0 0.00000000D+00 0.00000000D+00 0.00000000D+00 0.00000000D+00 0.00000000D+00
  <mgrwgt>
 0.9833692291D-04    6    2    0
 0.727421976170157D+03 0.000000000000000D+00 0.000000000000000D+00 0.727421976170157D+03
 0.727421976170157D+03 0.000000000000000D+00 0.000000000000000D+00 -.727421976170157D+03
 0.206703378407110D+03 0.166799863344445D+03 0.650293994331404D+02 0.485800174820109D+02
 0.434016165765490D+03 -.230908980319562D+03 -.160922031910734D+03 -.330386401958794D+03
 0.265680155437975D+03 -.196381121485423D+03 -.930625116872694D+02 -.152839029819385D+03
 0.548444252729739D+03 0.260490238460540D+03 0.188955144164863D+03 0.434645414296169D+03
 0.000000000000000D+00 0.000000000000000D+00 0.000000000000000D+00 -.000000000000000D+00
 0.727640198344258D+03 0.000000000000000D+00 0.000000000000000D+00 0.727640198344258D+03
 0.730568468010632D+03 0.000000000000000D+00 0.000000000000000D+00 -.730568468010632D+03
 0.206626400264409D+03 0.166795985212285D+03 0.647942833955160D+02 0.485800174820109D+02
 0.434203855705052D+03 -.230917126531525D+03 -.161415904991668D+03 -.330386401958794D+03
 0.265789886852041D+03 -.196386108087332D+03 -.933648299254106D+02 -.152839029819385D+03
 0.548224751269202D+03 0.260479948789790D+03 0.188331321531917D+03 0.434645414296169D+03
 0.336377226418618D+01 0.273006167827118D-01 0.165512998964500D+01 -.292826966637453D+01
0.367039022121D-04 0.000000000000D+00 0.000000000000D+00 0.240680556291D-06 0.000000000000D+00  7 -1 1 23 -11 11 23 21 0 0.45517372D-01 0.27514964D+00 0.26737026D+06 0.26737026D+06 0.26737026D+06 0.10882712D+01  1  2  2  1  7  1       -1 0.910385708891D-04 0.100000000000D+01
-.175028782051D-05 0.000000000000D+00 -.140952648854D-06 0.240680556291D-06 0.000000000000D+00  7 -1 1 23 -11 11 23 21 2 0.45517372D-01 0.27514964D+00 0.26737026D+06 0.26737026D+06 0.26737026D+06 0.10882712D+01  1  2  3  1  7  1       -1 -.514158391482D-05 0.100000000000D+01
0.231144100530D-05 0.000000000000D+00 0.000000000000D+00 0.240680556291D-06 0.000000000000D+00  7 -1 1 23 -11 11 23 21 2 0.45517372D-01 0.27514964D+00 0.26737026D+06 0.26737026D+06 0.26737026D+06 0.10882712D+01  1  2 15  1  7  1       -1 0.679000776537D-05 0.100000000000D+01
-.118984974427D-03 0.000000000000D+00 0.000000000000D+00 0.240680556291D-06 0.000000000000D+00  7 -1 1 23 -11 11 23 21 2 0.45517372D-01 0.27514964D+00 0.26737026D+06 0.26737026D+06 0.26737026D+06 0.10882712D+01  1  2  4  1  7  1       -1 -.349526074197D-03 0.100000000000D+01
0.118985616465D-03 0.000000000000D+00 0.000000000000D+00 0.240680556291D-06 0.554691972620D-06  7 -1 1 23 -11 11 23 21 2 0.45531027D-01 0.27633981D+00 0.26821874D+06 0.26821874D+06 0.26821874D+06 0.10881683D+01  1  2 11  1  7  1       -1 0.345117607072D-03 0.100000000000D+01
0.372341733232D-06 0.000000000000D+00 0.000000000000D+00 0.240680556291D-06 0.312269895900D-10  7 21 1 23 -11 11 23 1 2 0.45531027D-01 0.27633981D+00 0.26821874D+06 0.26821874D+06 0.26821874D+06 0.10881683D+01  1  2 11  3  7  1       -1 0.100583952909D-04 0.100000000000D+01
  </mgrwgt>
  </event>
  <event>
  8     66 0.58687835E-06 0.28292670E+03 0.75467711E-02 0.95102996E-01
       -1 -1    0    0    0  501 0.00000000E+00 0.00000000E+00 0.99779916E+02 0.99780429E+02 0.32000000E+00 0.0000E+00 0.9000E+01
        1 -1    0    0  501    0 0.00000000E+00 0.00000000E+00 -.11216619E+04 0.11216620E+04 0.32000000E+00 0.0000E+00 0.9000E+01
       25  2    1    2    0    0 -.17875192E+03 0.12348484E+03 -.85697377E+03 0.93361922E+03 0.30006676E+03 0.0000E+00 0.0000E+00
       23  2    1    2    0    0 0.17875192E+03 -.12348484E+03 -.16490822E+03 0.28782316E+03 0.91905885E+02 0.0000E+00 0.0000E+00
       23  1    3    3    0    0 0.23225802E+02 0.55557261E+02 -.47002560E+03 0.48256125E+03 0.91188000E+02 0.0000E+00 0.9000E+01
      -13  1    4    4    0    0 0.85988208E+02 -.94133275E+02 -.13578912E+03 0.18626256E+03 0.10565837E+00 0.0000E+00 0.9000E+01
       13  1    4    4    0    0 0.92763717E+02 -.29351563E+02 -.29119105E+02 0.10156060E+03 0.10565837E+00 0.0000E+00 0.9000E+01
       23  1    3    3    0    0 -.20197773E+03 0.67927577E+02 -.38694817E+03 0.45105797E+03 0.91188000E+02 0.0000E+00 0.9000E+01
#aMCatNLO 1  0  0  1  2 0.32962655D+03 0.00000000D+00  -5  7  0 0.00000000D+00 0.00000000D+00 0.00000000D+00 0.00000000D+00 0.00000000D+00
  <mgrwgt>
 0.1491510447D-03    3    2    0
 0.334543976005181D+03 0.000000000000000D+00 0.000000000000000D+00 0.334543976005181D+03
 0.334543976005181D+03 0.000000000000000D+00 0.000000000000000D+00 -.334543976005181D+03
 0.163072836268995D+03 0.232258022933402D+02 0.555572609025024D+02 -.121043180120387D+03
 0.132641040861069D+03 0.859881989978817D+02 -.941333598735660D+02 0.365866903767246D+02
 0.140929358483948D+03 0.927637260464651D+02 -.293514782539406D+02 0.101953253685118D+03
 0.232444716396349D+03 -.201977727337687D+03 0.679275772250041D+02 -.174967639414552D+02
 0.000000000000000D+00 0.000000000000000D+00 0.000000000000000D+00 -.000000000000000D+00
 0.505523693002678D+03 0.000000000000000D+00 0.000000000000000D+00 0.505523693002678D+03
 0.577813546309082D+03 0.000000000000000D+00 0.000000000000000D+00 -.577813546309082D+03
 0.160018178926961D+03 -.452517825480109D+02 0.243185313222658D+02 -.121043180120387D+03
 0.128570142466302D+03 0.306257465416871D+02 -.119389108673477D+03 0.365866903767246D+02
 0.121526800141458D+03 0.371374070709715D+02 -.547276000906748D+02 0.101953253685118D+03
 0.335761776291051D+03 -.322406357291414D+03 0.129893457795061D+02 -.174967639414552D+02
 0.337460341485987D+03 0.299894986226767D+03 0.136808831662380D+03 -.722898533064030D+02
0.331405348630D-05 0.000000000000D+00 0.000000000000D+00 0.459056929872D-06 0.000000000000D+00  7 -1 1 23 -13 13 23 21 0 0.15350799D-01 0.17256341D+00 0.80047516D+05 0.80047516D+05 0.80047516D+05 0.11297408D+01  1  2  2  1  7  1       -1 0.147068314292D-03 0.100000000000D+01
-.177827488049D-06 0.000000000000D+00 -.127268379977D-07 0.459056929872D-06 0.000000000000D+00  7 -1 1 23 -13 13 23 21 2 0.15350799D-01 0.17256341D+00 0.80047516D+05 0.80047516D+05 0.80047516D+05 0.11297408D+01  1  2  3  1  7  1       -1 -.100720098499D-04 0.100000000000D+01
0.214599365804D-06 0.000000000000D+00 0.000000000000D+00 0.459056929872D-06 0.000000000000D+00  7 -1 1 23 -13 13 23 21 2 0.15350799D-01 0.17256341D+00 0.80047516D+05 0.80047516D+05 0.80047516D+05 0.11297408D+01  1  2 15  1  7  1       -1 0.121547402479D-04 0.100000000000D+01
  </mgrwgt>
  </event>
  <event>
  8     66 0.58687835E-06 0.32378315E+03 0.75467711E-02 0.91822918E-01
       -1 -1    0    0    0  501 0.00000000E+00 0.00000000E+00 0.15933775E+03 0.15933807E+03 0.32000000E+00 0.0000E+00 0.9000E+01
        1 -1    0    0  501    0 0.00000000E+00 0.00000000E+00 -.98002300E+03 0.98002306E+03 0.32000000E+00 0.0000E+00 0.9000E+01
       25  2    1    2    0    0 -.21567244E+03 0.11836806E+03 -.14411101E+03 0.41441280E+03 0.30073973E+03 0.0000E+00 0.0000E+00
       23  2    1    2    0    0 0.21567244E+03 -.11836806E+03 -.67657425E+03 0.72494833E+03 0.85274598E+02 0.0000E+00 0.0000E+00
       23  1    3    3    0    0 -.22974935E+03 0.15077132E+03 -.93241605E+02 0.30418087E+03 0.91188000E+02 0.0000E+00 0.9000E+01
      -11  1    4    4    0    0 0.11156322E+03 -.10856145E+03 -.39285423E+03 0.42257116E+03 0.51099893E-03 0.0000E+00 0.9000E+01
       11  1    4    4    0    0 0.10410922E+03 -.98066173E+01 -.28372002E+03 0.30237716E+03 0.51099893E-03 0.0000E+00 0.9000E+01
       23  1    3    3    0    0 0.14076906E+02 -.32403255E+02 -.50869401E+02 0.11023193E+03 0.91188000E+02 0.0000E+00 0.9000E+01
#aMCatNLO 1  0  0  1  2 0.48115015D+03 0.00000000D+00  -5  7  0 0.00000000D+00 0.00000000D+00 0.00000000D+00 0.00000000D+00 0.00000000D+00
  <mgrwgt>
 0.3194405792D-03    5    2    0
 0.395164357902674D+03 0.000000000000000D+00 0.000000000000000D+00 0.395164357902674D+03
 0.395164357902674D+03 0.000000000000000D+00 0.000000000000000D+00 -.395164357902674D+03
 0.341693074841531D+03 -.229749349012963D+03 0.150771319792768D+03 0.181444624628912D+03
 0.201247248788973D+03 0.111563224912682D+03 -.108561447265145D+03 -.127548085677169D+03
 0.141298100790135D+03 0.104109217609330D+03 -.980661727112908D+01 -.950276504674813D+02
 0.106090291384710D+03 0.140769064909508D+02 -.324032552564943D+02 0.411311115157380D+02
 0.000000000000000D+00 -.000000000000000D+00 -.000000000000000D+00 0.000000000000000D+00
 0.802087052524414D+03 0.000000000000000D+00 0.000000000000000D+00 0.802087052524414D+03
 0.633134539946728D+03 0.000000000000000D+00 0.000000000000000D+00 -.633134539946728D+03
 0.370990265183572D+03 -.927415412029694D+02 0.296302852239982D+03 0.181444624628912D+03
 0.234042574292043D+03 0.195244294853547D+03 -.196742915622688D+02 -.127548085677169D+03
 0.204522103496288D+03 0.170590451875334D+03 0.608106421125951D+02 -.950276504674813D+02
 0.115715259534829D+03 0.567172918976078D+02 0.128899344643178D+02 0.411311115157380D+02
 0.509951389964409D+03 -.329810497423519D+03 -.350329137254626D+03 0.168952512577686D+03
0.108929581813D-04 0.000000000000D+00 0.000000000000D+00 0.949280802596D-08 0.000000000000D+00  7 -1 1 23 -11 11 23 21 0 0.24513528D-01 0.15077280D+00 0.10483553D+06 0.10483553D+06 0.10483553D+06 0.11200430D+01  1  2  2  1  7  1       -1 0.289346038712D-03 0.100000000000D+01
-.575959520869D-06 0.000000000000D+00 -.418318275980D-07 0.949280802596D-08 0.000000000000D+00  7 -1 1 23 -11 11 23 21 2 0.24513528D-01 0.15077280D+00 0.10483553D+06 0.10483553D+06 0.10483553D+06 0.11200430D+01  1  2  3  1  7  1       -1 -.191925653748D-04 0.100000000000D+01
0.715247745018D-06 0.000000000000D+00 0.000000000000D+00 0.949280802596D-08 0.000000000000D+00  7 -1 1 23 -11 11 23 21 2 0.24513528D-01 0.15077280D+00 0.10483553D+06 0.10483553D+06 0.10483553D+06 0.11200430D+01  1  2 15  1  7  1       -1 0.238340345250D-04 0.100000000000D+01
0.229987289477D-05 0.000000000000D+00 -.361836524406D-05 0.949280802596D-08 0.000000000000D+00  7 -1 1 23 -11 11 23 21 2 0.77964497D-01 0.15077280D+00 0.10483553D+06 0.10483553D+06 0.10483553D+06 0.11200430D+01  1  2  5  1  7  1       -1 0.981952454505D-05 0.100000000000D+01
0.465082284499D-06 0.000000000000D+00 -.481594280277D-06 0.949280802596D-08 0.000000000000D+00  7 21 1 23 -11 11 23 1 2 0.77964497D-01 0.15077280D+00 0.10483553D+06 0.10483553D+06 0.10483553D+06 0.11200430D+01  1  2  5  3  7  1       -1 0.156335467758D-04 0.100000000000D+01
  </mgrwgt>
  </event>
  <event>
  8     66 0.58687835E-06 0.40426974E+03 0.75467711E-02 0.94046838E-01
       -1 -1    0    0    0  501 0.00000000E+00 0.00000000E+00 0.25069098E+03 0.25069118E+03 0.32000000E+00 0.0000E+00 0.9000E+01
        1 -1    0    0  501    0 0.00000000E+00 0.00000000E+00 -.13739279E+04 0.13739280E+04 0.32000000E+00 0.0000E+00 0.9000E+01
       25  2    1    2    0    0 -.34623587E+03 -.35675495E+02 -.16419761E+02 0.46008833E+03 0.30043242E+03 0.0000E+00 0.0000E+00
       23  2    1    2    0    0 0.34623587E+03 0.35675495E+02 -.11068172E+04 0.11645308E+04 0.99678154E+02 0.0000E+00 0.0000E+00
       23  1    3    3    0    0 -.79420502E+01 -.57885547E+02 0.44976912E+01 0.10839416E+03 0.91188000E+02 0.0000E+00 0.9000E+01
      -13  1    4    4    0    0 0.14282706E+03 0.10417523E+01 -.61141179E+03 0.62787343E+03 0.10565837E+00 0.0000E+00 0.9000E+01
       13  1    4    4    0    0 0.20340881E+03 0.34633742E+02 -.49540539E+03 0.53665739E+03 0.10565837E+00 0.0000E+00 0.9000E+01
       23  1    3    3    0    0 -.33829382E+03 0.22210053E+02 -.20917452E+02 0.35169417E+03 0.91188000E+02 0.0000E+00 0.9000E+01
#aMCatNLO 1  0  0  2  2 0.21257220D+03 0.00000000D+00  -5  7  0 0.00000000D+00 0.00000000D+00 0.00000000D+00 0.00000000D+00 0.00000000D+00
  <mgrwgt>
 0.1075997149D-03    4    2    0
 0.586882895917101D+03 0.000000000000000D+00 0.000000000000000D+00 0.586882895917101D+03
 0.586882895917101D+03 0.000000000000000D+00 0.000000000000000D+00 -.586882895917101D+03
 0.154333340679284D+03 -.794205028242901D+01 -.578855475026974D+02 0.109953244285252D+03
 0.283953498284184D+03 0.142826994821909D+03 0.104171606706278D+01 -.245415878796796D+03
 0.268713071761715D+03 0.203408878488614D+03 0.346337786479656D+02 -.172139607482371D+03
 0.466765881109018D+03 -.338293823028094D+03 0.222100527876690D+02 0.307602241993915D+03
 0.000000000000000D+00 -.000000000000000D+00 -.000000000000000D+00 0.000000000000000D+00
 0.722085129571661D+03 0.000000000000000D+00 0.000000000000000D+00 0.722085129571661D+03
 0.686332007129574D+03 0.000000000000000D+00 0.000000000000000D+00 -.686332007129574D+03
 0.148136601083936D+03 0.103908680852045D+02 -.378353692764424D+02 0.109953244285252D+03
 0.306166252772049D+03 0.178594572784123D+03 0.401596730929315D+02 -.245415878796796D+03
 0.302571200457258D+03 0.238034824677681D+03 0.725031662938081D+02 -.172139607482371D+03
 0.435985146171720D+03 -.283577440987095D+03 0.820517642827003D+02 0.307602241993915D+03
 0.215557936216270D+03 -.143442824559913D+03 -.156879234392998D+03 0.357531224420863D+02
0.281543715462D-04 0.000000000000D+00 0.000000000000D+00 0.443744368620D-07 0.000000000000D+00  7 -1 1 23 -13 13 23 21 0 0.38567862D-01 0.21137354D+00 0.16343402D+06 0.16343402D+06 0.16343402D+06 0.11046242D+01  1  2  2  2  7  2        1 0.180809201896D-03 0.100000000000D+01
-.129990682508D-05 0.000000000000D+00 -.108120199954D-06 0.443744368620D-07 0.000000000000D+00  7 -1 1 23 -13 13 23 21 2 0.38567862D-01 0.21137354D+00 0.16343402D+06 0.16343402D+06 0.16343402D+06 0.11046242D+01  1  2  3  2  7  2        1 -.101862895876D-04 0.100000000000D+01
0.177604099113D-05 0.000000000000D+00 0.000000000000D+00 0.443744368620D-07 0.000000000000D+00  7 -1 1 23 -13 13 23 21 2 0.38567862D-01 0.21137354D+00 0.16343402D+06 0.16343402D+06 0.16343402D+06 0.11046242D+01  1  2 15  2  7  2        1 0.139173573874D-04 0.100000000000D+01
-.981864411860D-05 0.000000000000D+00 0.000000000000D+00 0.443744368620D-07 0.000000000000D+00  7 -1 1 23 -13 13 23 21 2 0.38567862D-01 0.21137354D+00 0.16343402D+06 0.16343402D+06 0.16343402D+06 0.11046242D+01  1  2  4  2  7  2        1 -.769405548301D-04 0.100000000000D+01
  </mgrwgt>
  </event>
  <event>
  8     66 0.58687835E-06 0.36153384E+03 0.75467711E-02 0.85636307E-01
       -1 -1    0    0    0  501 0.00000000E+00 0.00000000E+00 0.14521875E+03 0.14521911E+03 0.32000000E+00 0.0000E+00 0.9000E+01
        1 -1    0    0  501    0 0.00000000E+00 0.00000000E+00 -.23328960E+04 0.23328960E+04 0.32000000E+00 0.0000E+00 0.9000E+01
       25  2    1    2    0    0 -.13746170E+03 0.27199182E+03 -.20993163E+03 0.47429902E+03 0.29666986E+03 0.0000E+00 0.0000E+00
       23  2    1    2    0    0 0.13746170E+03 -.27199182E+03 -.19777456E+04 0.20038161E+04 0.10452751E+03 0.0000E+00 0.0000E+00
       23  1    3    3    0    0 -.12967556E+03 0.26870044E+03 -.22061074E+03 0.38209950E+03 0.91188000E+02 0.0000E+00 0.9000E+01
      -13  1    4    4    0    0 0.51588987E+02 -.23671796E+02 -.26285981E+03 0.26891833E+03 0.10565837E+00 0.0000E+00 0.9000E+01
       13  1    4    4    0    0 0.85872713E+02 -.24832002E+03 -.17148858E+04 0.17348978E+04 0.10565837E+00 0.0000E+00 0.9000E+01
       23  1    3    3    0    0 -.77861365E+01 0.32913738E+01 0.10679105E+02 0.92199521E+02 0.91188000E+02 0.0000E+00 0.9000E+01
#aMCatNLO 1  0  0  2  2 0.11531790D+04 0.00000000D+00  -5  7  0 0.00000000D+00 0.00000000D+00 0.00000000D+00 0.00000000D+00 0.00000000D+00
  <mgrwgt>
 0.8595421117D-03    3    2    0
 0.582048719336781D+03 0.000000000000000D+00 0.000000000000000D+00 0.582048719336781D+03
 0.582048719336781D+03 0.000000000000000D+00 0.000000000000000D+00 -.582048719336781D+03
 0.398816670270317D+03 -.129675563615836D+03 0.268700442556002D+03 0.248442761038890D+03
 0.784794170758418D+02 0.515889453799335D+02 -.236715695978208D+02 -.541964612491045D+02
 0.470459097906394D+03 0.858727549737740D+02 -.248320247174405D+03 -.390249519665757D+03
 0.216342253421010D+03 -.778613673787154D+01 0.329137421622390D+01 0.196003219875972D+03
 0.000000000000000D+00 0.000000000000000D+00 -.000000000000000D+00 0.000000000000000D+00
 0.189392947578282D+04 0.000000000000000D+00 0.000000000000000D+00 0.189392947578282D+04
 0.112865464388770D+04 0.000000000000000D+00 0.000000000000000D+00 -.112865464388770D+04
 0.831557348158734D+03 -.515636687615739D+03 0.596294702982366D+03 0.248442761038890D+03
 0.563305416859774D+02 0.929985081946293D+01 0.122223684057421D+02 -.541964612491045D+02
 0.438179086216270D+03 -.199161722022894D+03 -.639002964357709D+01 -.390249519665757D+03
 0.312513067818559D+03 -.173684953814302D+03 0.144102188845771D+03 0.196003219875972D+03
 0.138400407579097D+04 0.879183512633473D+03 -.746229230590303D+03 0.765274831895117D+03
0.223630785310D-03 0.000000000000D+00 0.000000000000D+00 0.115850560133D-08 0.000000000000D+00  7 -1 1 23 -13 13 23 21 0 0.22341375D-01 0.35890711D+00 0.13070672D+06 0.13070672D+06 0.13070672D+06 0.11123016D+01  1  2  2  2  7  2        1 0.836331785713D-03 0.100000000000D+01
-.899849018395D-05 0.000000000000D+00 -.858801098930D-06 0.115850560133D-08 0.000000000000D+00  7 -1 1 23 -13 13 23 21 2 0.22341375D-01 0.35890711D+00 0.13070672D+06 0.13070672D+06 0.13070672D+06 0.11123016D+01  1  2  3  2  7  2        1 -.416353067167D-04 0.100000000000D+01
0.140148550722D-04 0.000000000000D+00 0.000000000000D+00 0.115850560133D-08 0.000000000000D+00  7 -1 1 23 -13 13 23 21 2 0.22341375D-01 0.35890711D+00 0.13070672D+06 0.13070672D+06 0.13070672D+06 0.11123016D+01  1  2 15  2  7  2        1 0.648456327219D-04 0.100000000000D+01
  </mgrwgt>
  </event>
  <event>
  9     66 -.58687835E-06 0.20616487E+03 0.75467711E-02 0.10476426E+00
       -1 -1    0    0    0  501 0.00000000E+00 0.00000000E+00 0.79673059E+02 0.79673702E+02 0.32000000E+00 0.0000E+00 0.9000E+01
        1 -1    0    0  502    0 0.00000000E+00 0.00000000E+00 -.79244893E+03 0.79244899E+03 0.32000000E+00 0.0000E+00 0.9000E+01
       25  2    1    2    0    0 -.11323719E+03 -.18458284E+02 -.33600964E+03 0.46338946E+03 0.29776491E+03 0.0000E+00 0.0000E+00
       23  2    1    2    0    0 0.86969485E+02 -.24808539E+01 -.30788979E+03 0.33209795E+03 0.89011702E+02 0.0000E+00 0.0000E+00
       23  1    3    3    0    0 -.54328816E+01 0.85340921E+02 -.22058596E+03 0.25354685E+03 0.91188000E+02 0.0000E+00 0.9000E+01
      -13  1    4    4    0    0 0.10886044E+02 -.29985825E+02 -.34498331E+02 0.46987250E+02 0.10565837E+00 0.0000E+00 0.9000E+01
       13  1    4    4    0    0 0.76083442E+02 0.27504971E+02 -.27339145E+03 0.28511070E+03 0.10565837E+00 0.0000E+00 0.9000E+01
       23  1    3    3    0    0 -.10780431E+03 -.10379920E+03 -.11542369E+03 0.20984261E+03 0.91188000E+02 0.0000E+00 0.9000E+01
       21  1    1    2  502  501 0.26267704E+02 0.20939138E+02 -.68876441E+02 0.76635282E+02 0.75000000E+00 0.0000E+00 0.9000E+01
#aMCatNLO 2  0  0  2  1 0.33592258D+02 0.00000000D+00  -5  7  0 0.00000000D+00 0.00000000D+00 0.00000000D+00 0.00000000D+00 0.00000000D+00
  <mgrwgt>
 -.3326308314D-04    2    2    0
 0.232951342023329D+03 0.000000000000000D+00 0.000000000000000D+00 0.232951342023329D+03
 0.232951342023329D+03 0.000000000000000D+00 0.000000000000000D+00 -.232951342023329D+03
 0.131577715887907D+03 0.186718624830557D+01 0.911601287647468D+02 -.261493501523008D+02
 0.318142100425646D+02 0.126956153138131D+02 -.285433379728746D+02 0.602023004563360D+01
 0.114487205742677D+03 0.823664766414516D+02 0.325134449205097D+02 -.725669325784150D+02
 0.188023552373510D+03 -.969292782035704D+02 -.951302357123819D+02 0.926960526850822D+02
 0.000000000000000D+00 0.000000000000000D+00 0.000000000000000D+00 -.000000000000000D+00
 0.245506451500781D+03 0.000000000000000D+00 0.000000000000000D+00 0.245506451500781D+03
 0.257162842083066D+03 0.000000000000000D+00 0.000000000000000D+00 -.257162842083066D+03
 0.127716987336750D+03 -.543288706104718D+01 0.853409206369951D+02 -.261493501523008D+02
 0.324638437227716D+02 0.108859581984384D+02 -.299858949100413D+02 0.602023004563360D+01
 0.108679309198295D+03 0.760835410511694D+02 0.275050418122466D+02 -.725669325784150D+02
 0.198251999141469D+03 -.107804316561862D+03 -.103799205039458D+03 0.926960526850822D+02
 0.355571541845608D+02 0.262677043733014D+02 0.209391375002572D+02 -.116563905822857D+02
-.226001465602D-05 0.000000000000D+00 0.000000000000D+00 0.370130324674D-08 0.000000000000D+00  7 -1 1 23 -13 13 23 21 2 0.11630422D-01 0.12464822D+00 0.49874809D+05 0.49874809D+05 0.49874809D+05 0.11473912D+01  1  2 13  2  7  2        1 -.352977574941D-03 0.100000000000D+01
0.214364953400D-05 0.000000000000D+00 0.000000000000D+00 0.370130324674D-08 0.232511155937D-10  7 -1 1 23 -13 13 23 21 2 0.12257254D-01 0.12191334D+00 0.49874809D+05 0.49874809D+05 0.49874809D+05 0.11473912D+01  1  2  1  2  7  2        1 0.319714491803D-03 0.100000000000D+01
  </mgrwgt>
  </event>
  <event>
  9     66 0.58687835E-06 0.38805638E+03 0.75467711E-02 0.96905284E-01
       -1 -1    0    0    0  502 0.00000000E+00 0.00000000E+00 0.94474048E+02 0.94474589E+02 0.32000000E+00 0.0000E+00 0.9000E+01
        1 -1    0    0  501    0 0.00000000E+00 0.00000000E+00 -.31859543E+04 0.31859543E+04 0.32000000E+00 0.0000E+00 0.9000E+01
       25  2    1    2    0    0 -.30463194E+03 -.19474160E+03 -.61932996E+03 0.77698899E+03 0.29902741E+03 0.0000E+00 0.0000E+00
       23  2    1    2    0    0 0.29362468E+03 0.15082263E+03 -.22948466E+04 0.23204448E+04 0.95814324E+02 0.0000E+00 0.0000E+00
       23  1    3    3    0    0 -.20376411E+02 -.17395717E+02 -.26214931E+03 0.27884641E+03 0.91188000E+02 0.0000E+00 0.9000E+01
      -13  1    4    4    0    0 0.19489864E+03 0.71313376E+02 -.11474361E+04 0.11660534E+04 0.10565837E+00 0.0000E+00 0.9000E+01
       13  1    4    4    0    0 0.98726034E+02 0.79509258E+02 -.11474105E+04 0.11543914E+04 0.10565837E+00 0.0000E+00 0.9000E+01
       23  1    3    3    0    0 -.28425553E+03 -.17734589E+03 -.35718065E+03 0.49814258E+03 0.91188000E+02 0.0000E+00 0.9000E+01
       21  1    1    2  501  502 0.11007259E+02 0.43918969E+02 -.17730366E+03 0.18299504E+03 0.75000000E+00 0.0000E+00 0.9000E+01
#aMCatNLO 2  0  0  1  2 0.45277319D+02 0.00000000D+00  -5  7  0 0.00000000D+00 0.00000000D+00 0.00000000D+00 0.00000000D+00 0.00000000D+00
  <mgrwgt>
 0.6577392057D-04    2    2    0
 0.524314138985728D+03 0.000000000000000D+00 0.000000000000000D+00 0.524314138985728D+03
 0.524314138985728D+03 0.000000000000000D+00 0.000000000000000D+00 -.524314138985728D+03
 0.941903295909629D+02 -.193836934511098D+02 -.134347727090824D+02 0.588349303490020D+00
 0.260549361292450D+03 0.197604776207776D+03 0.821103753905042D+02 -.148647934203639D+03
 0.225506697731367D+03 0.101067933112016D+03 0.888539073089000D+02 -.180951724982418D+03
 0.468381889356676D+03 -.279289015868681D+03 -.157529509990322D+03 0.329011309882567D+03
 0.000000000000000D+00 0.000000000000000D+00 0.000000000000000D+00 -.000000000000000D+00
 0.541098425220103D+03 0.000000000000000D+00 0.000000000000000D+00 0.541098425220103D+03
 0.556253075747903D+03 0.000000000000000D+00 0.000000000000000D+00 -.556253075747903D+03
 0.950442350511591D+02 -.203764112995750D+02 -.173957172921271D+02 0.588349303490020D+00
 0.255278927708435D+03 0.194898759206057D+03 0.713133665514304D+02 -.148647934203639D+03
 0.220934509090899D+03 0.987259182948971D+02 0.795092673211957D+02 -.180951724982418D+03
 0.478347635370324D+03 -.284255525547518D+03 -.177345885448303D+03 0.329011309882567D+03
 0.477461937471884D+02 0.110072593461388D+02 0.439189688678040D+02 -.151546505278003D+02
-.716104200396D-06 0.000000000000D+00 0.000000000000D+00 0.360635564034D-07 0.000000000000D+00  7 -1 1 23 -13 13 23 21 2 0.14083591D-01 0.46200111D+00 0.15058775D+06 0.15058775D+06 0.15058775D+06 0.11074179D+01  1  2  8  1  7  1       -1 -.230099502397D-05 0.100000000000D+01
0.309742958598D-04 0.000000000000D+00 0.000000000000D+00 0.360635564034D-07 0.114470878557D-09  7 -1 1 23 -13 13 23 21 2 0.14534433D-01 0.49014421D+00 0.16885785D+06 0.16885785D+06 0.16885785D+06 0.11035161D+01  1  2  1  1  7  1       -1 0.680749155925D-04 0.100000000000D+01
  </mgrwgt>
  </event>
  <event>
  8     66 0.58687835E-06 0.25126835E+03 0.75467711E-02 0.98683322E-01
       -1 -1    0    0    0  501 0.00000000E+00 0.00000000E+00 0.49439926E+03 0.49439937E+03 0.32000000E+00 0.0000E+00 0.9000E+01
        1 -1    0    0  501    0 0.00000000E+00 0.00000000E+00 -.18808863E+03 0.18808891E+03 0.32000000E+00 0.0000E+00 0.9000E+01
       25  2    1    2    0    0 0.10226372E+03 -.15472079E+03 0.31811056E+03 0.47502986E+03 0.30010440E+03 0.0000E+00 0.0000E+00
       23  2    1    2    0    0 -.10226372E+03 0.15472079E+03 -.11799935E+02 0.20745841E+03 0.92213694E+02 0.0000E+00 0.0000E+00
       23  1    3    3    0    0 0.17950071E+02 0.96418658E+01 -.30381739E+01 0.93486108E+02 0.91188000E+02 0.0000E+00 0.9000E+01
      -11  1    4    4    0    0 -.15649474E+02 -.88690366E+01 -.13261818E+02 0.22348191E+02 0.51099893E-03 0.0000E+00 0.9000E+01
       11  1    4    4    0    0 -.86614242E+02 0.16358982E+03 0.14618833E+01 0.18511022E+03 0.51099893E-03 0.0000E+00 0.9000E+01
       23  1    3    3    0    0 0.84313645E+02 -.16436265E+03 0.32114874E+03 0.38154375E+03 0.91188000E+02 0.0000E+00 0.9000E+01
#aMCatNLO 1  0  0  2  1 0.18673931D+03 0.00000000D+00  -5  7  0 0.00000000D+00 0.00000000D+00 0.00000000D+00 0.00000000D+00 0.00000000D+00
  <mgrwgt>
 0.2502506214D-03    3    2    0
 0.304944274104468D+03 0.000000000000000D+00 0.000000000000000D+00 0.304944274104468D+03
 0.304944274104468D+03 0.000000000000000D+00 0.000000000000000D+00 -.304944274104468D+03
 0.106140372384680D+03 0.179500710803174D+02 0.964186579095388D+01 -.503523254501644D+02
 0.316690880946136D+02 -.156494735683210D+02 -.886903663576228D+01 -.260646370957343D+02
 0.206411097900727D+03 -.866142424910425D+02 0.163589822293422D+03 -.913339168999820D+02
 0.265667989828917D+03 0.843136449790462D+02 -.164362651448614D+03 0.167750879445881D+03
 0.000000000000000D+00 -.000000000000000D+00 -.000000000000000D+00 0.000000000000000D+00
 0.589076695464886D+03 0.000000000000000D+00 0.000000000000000D+00 0.589076695464886D+03
 0.351187895995192D+03 0.000000000000000D+00 0.000000000000000D+00 -.351187895995192D+03
 0.115029478433617D+03 0.247971227796766D+02 0.420270816060363D+02 -.503523254501644D+02
 0.294723154763683D+02 -.137566371366239D+02 0.837096022864117D-01 -.260646370957343D+02
 0.259389724690318D+03 -.721938217054574D+02 0.231795593155234D+03 -.913339168999820D+02
 0.233945146297540D+03 0.997808389029923D+02 -.912058483055024D+02 0.167750879445881D+03
 0.302427926562234D+03 -.386275028405877D+02 -.182700536058054D+03 0.237888799469694D+03
0.678256631146D-05 0.000000000000D+00 0.000000000000D+00 0.422202261400D-06 0.000000000000D+00  7 -1 1 23 -11 11 23 21 0 0.76061454D-01 0.28936742D-01 0.63135782D+05 0.63135782D+05 0.63135782D+05 0.11384898D+01  1  2  2  2  7  2        1 0.246841878447D-03 0.100000000000D+01
-.359636177494D-06 0.000000000000D+00 -.260468405267D-07 0.422202261400D-06 0.000000000000D+00  7 -1 1 23 -11 11 23 21 2 0.76061454D-01 0.28936742D-01 0.63135782D+05 0.63135782D+05 0.63135782D+05 0.11384898D+01  1  2  3  2  7  2        1 -.169647103209D-04 0.100000000000D+01
0.431898377087D-06 0.000000000000D+00 0.000000000000D+00 0.422202261400D-06 0.000000000000D+00  7 -1 1 23 -11 11 23 21 2 0.76061454D-01 0.28936742D-01 0.63135782D+05 0.63135782D+05 0.63135782D+05 0.11384898D+01  1  2 15  2  7  2        1 0.203734532671D-04 0.100000000000D+01
  </mgrwgt>
  </event>
  <event>
  9     66 0.58687835E-06 0.35091549E+03 0.75467711E-02 0.95528300E-01
       -1 -1    0    0    0  502 0.00000000E+00 0.00000000E+00 0.40890120E+03 0.40890132E+03 0.32000000E+00 0.0000E+00 0.9000E+01
        1 -1    0    0  501    0 0.00000000E+00 0.00000000E+00 -.12779500E+04 0.12779501E+04 0.32000000E+00 0.0000E+00 0.9000E+01
       25  2    1    2    0    0 0.16759248E+03 -.39438517E+03 -.82702292E+03 0.97853014E+03 0.29987903E+03 0.0000E+00 0.0000E+00
       23  2    1    2    0    0 -.13420791E+03 0.20320244E+03 -.29219655E+03 0.39169644E+03 0.93510892E+02 0.0000E+00 0.0000E+00
       23  1    3    3    0    0 -.19394604E+01 -.14208935E+03 -.47730316E+03 0.50628717E+03 0.91188000E+02 0.0000E+00 0.9000E+01
      -13  1    4    4    0    0 -.91413729E+02 0.14990185E+03 -.26552131E+03 0.31832156E+03 0.10565837E+00 0.0000E+00 0.9000E+01
       13  1    4    4    0    0 -.42794177E+02 0.53300586E+02 -.26675231E+02 0.73374881E+02 0.10565837E+00 0.0000E+00 0.9000E+01
       23  1    3    3    0    0 0.16953194E+03 -.25229582E+03 -.34971976E+03 0.47224297E+03 0.91188000E+02 0.0000E+00 0.9000E+01
       21  1    1    2  501  502 -.33384576E+02 0.19118273E+03 0.25017063E+03 0.31662481E+03 0.75000000E+00 0.0000E+00 0.9000E+01
#aMCatNLO 2  0  0  1  2 0.19407567D+03 0.00000000D+00  -5  7  0 0.00000000D+00 0.00000000D+00 0.00000000D+00 0.00000000D+00 0.00000000D+00
  <mgrwgt>
 0.6347852004D-04    2    2    0
 0.383145961758026D+03 0.000000000000000D+00 0.000000000000000D+00 0.383145961758026D+03
 0.383145961758026D+03 0.000000000000000D+00 0.000000000000000D+00 -.383145961758026D+03
 0.172807347570639D+03 -.997281379520041D+01 -.960849137747969D+02 -.110523121383247D+03
 0.222769676579832D+03 -.999617577383440D+02 0.198853429069941D+03 -.955455600589513D+01
 0.107404862998092D+03 -.470149409615859D+02 0.774717729370494D+02 0.576500157849740D+02
 0.263310036367487D+03 0.156949512495130D+03 -.180240288232193D+03 0.624276616041677D+02
 0.000000000000000D+00 -.000000000000000D+00 0.000000000000000D+00 0.000000000000000D+00
 0.128773542947500D+04 0.000000000000000D+00 0.000000000000000D+00 0.128773542947500D+04
 0.405793792487761D+03 0.000000000000000D+00 0.000000000000000D+00 -.405793792487761D+03
 0.201801276823523D+03 -.193946027309378D+01 -.142089345544123D+03 -.110523121383247D+03
 0.175836209395798D+03 -.914137911686649D+02 0.149901973897561D+03 -.955455600589513D+01
 0.894192377386047D+02 -.427941155989938D+02 0.533004636738303D+02 0.576500157849740D+02
 0.323429631964803D+03 0.169531943529066D+03 -.252295823744233D+03 0.624276616041677D+02
 0.903042866040034D+03 -.333845764883130D+02 0.191182731716965D+03 0.881941636987241D+03
-.176650777431D-04 0.000000000000D+00 0.000000000000D+00 0.254358843672D-06 0.000000000000D+00  7 -1 1 23 -13 13 23 21 2 0.61836619D-01 0.18563473D+00 0.21353552D+06 0.21353552D+06 0.21353552D+06 0.10956478D+01  1  2 13  1  7  1       -1 -.748647388327D-04 0.100000000000D+01
0.378333867053D-04 0.000000000000D+00 0.000000000000D+00 0.254358843672D-06 0.802008551096D-10  7 -1 1 23 -13 13 23 21 2 0.62907865D-01 0.19660764D+00 0.21353552D+06 0.21353552D+06 0.21353552D+06 0.10956478D+01  1  2  1  1  7  1       -1 0.138343258874D-03 0.100000000000D+01
  </mgrwgt>
  </event>
  <event>
  9     66 0.58687835E-06 0.29346698E+03 0.75467711E-02 0.97023680E-01
       21 -1    0    0  502  501 0.00000000E+00 0.00000000E+00 0.58867636E+03 0.58867684E+03 0.75000000E+00 0.0000E+00 0.9000E+01
        1 -1    0    0  501    0 0.00000000E+00 0.00000000E+00 -.31750372E+03 0.31750388E+03 0.32000000E+00 0.0000E+00 0.9000E+01
       25  2    1    2    0    0 0.34750887E+03 0.61857952E+01 0.16012679E+03 0.48537658E+03 0.29857857E+03 0.0000E+00 0.0000E+00
       23  2    1    2    0    0 -.17157461E+03 -.78918831E+02 0.23149196E+02 0.21111656E+03 0.91478354E+02 0.0000E+00 0.0000E+00
       23  1    3    3    0    0 0.27342571E+03 0.41566384E+02 0.20346223E+03 0.35524852E+03 0.91188000E+02 0.0000E+00 0.9000E+01
      -11  1    4    4    0    0 -.16825029E+03 -.94860863E+02 0.17765743E+02 0.19396485E+03 0.51099893E-03 0.0000E+00 0.9000E+01
       11  1    4    4    0    0 -.33243188E+01 0.15942032E+02 0.53834526E+01 0.17151707E+02 0.51099893E-03 0.0000E+00 0.9000E+01
       23  1    3    3    0    0 0.74083152E+02 -.35380589E+02 -.43335438E+02 0.13012806E+03 0.91188000E+02 0.0000E+00 0.9000E+01
        1  1    1    2  502    0 -.17593426E+03 0.72733036E+02 0.87896653E+02 0.20968758E+03 0.32000000E+00 0.0000E+00 0.9000E+01
#aMCatNLO 2  0  0  1  2 0.19037583D+03 0.00000000D+00  -5  7  0 0.00000000D+00 0.00000000D+00 0.00000000D+00 0.00000000D+00 0.00000000D+00
  <mgrwgt>
 0.3323933110D-04    1    2    0
 0.322207095688727D+03 0.000000000000000D+00 0.000000000000000D+00 0.322207095688727D+03
 0.322207095688727D+03 0.000000000000000D+00 0.000000000000000D+00 -.322207095688727D+03
 0.256134519535674D+03 0.197395751403799D+03 0.729979537906459D+02 0.113999372032828D+03
 0.239815678454285D+03 -.226525276698225D+03 -.707693819347719D+02 -.344899004036297D+02
 0.197136604878756D+02 -.813893927773518D+01 0.179324459820616D+02 0.901919267455741D+00
 0.128750332899618D+03 0.372684645721612D+02 -.201610178379356D+02 -.804113908966540D+02
 0.000000000000000D+00 -.000000000000000D+00 0.000000000000000D+00 0.000000000000000D+00
 0.449617206138666D+03 0.000000000000000D+00 0.000000000000000D+00 0.449617206138666D+03
 0.415702752772246D+03 0.000000000000000D+00 0.000000000000000D+00 -.415702752772246D+03
 0.312730703534159D+03 0.273425712885164D+03 0.415663842345089D+02 0.113999372032828D+03
 0.196204729219292D+03 -.168250287375417D+03 -.948608630376778D+02 -.344899004036297D+02
 0.163099033091661D+02 -.332431877214248D+01 0.159420322509560D+02 0.901919267455741D+00
 0.146701542785939D+03 0.740831522152689D+02 -.353805890805885D+02 -.804113908966540D+02
 0.193373080062356D+03 -.175934258952874D+03 0.727330356328014D+02 0.339144533664199D+02
0.294390667740D-06 0.000000000000D+00 0.000000000000D+00 0.650161575736D-07 0.103530420490D-11  7 21 1 23 -11 11 23 1 2 0.90565615D-01 0.48846761D-01 0.16553625D+06 0.16553625D+06 0.16553625D+06 0.11041900D+01  1  2  1  3  7  1       -1 0.332393311026D-04 0.100000000000D+01
  </mgrwgt>
  </event>
  <event>
  9     66 -.58687835E-06 0.54005924E+03 0.75467711E-02 0.93669693E-01
       -1 -1    0    0    0  501 0.00000000E+00 0.00000000E+00 0.26995219E+03 0.26995238E+03 0.32000000E+00 0.0000E+00 0.9000E+01
        1 -1    0    0  502    0 0.00000000E+00 0.00000000E+00 -.14489905E+04 0.14489906E+04 0.32000000E+00 0.0000E+00 0.9000E+01
       25  2    1    2    0    0 -.45996993E+03 -.18184194E+03 -.20437592E+03 0.61355452E+03 0.30006801E+03 0.0000E+00 0.0000E+00
       23  2    1    2    0    0 0.46523650E+03 0.17497214E+03 -.92311586E+03 0.10531147E+04 0.99234269E+02 0.0000E+00 0.0000E+00
       23  1    3    3    0    0 -.37077471E+03 -.22572942E+03 -.15293217E+03 0.46918137E+03 0.91188000E+02 0.0000E+00 0.9000E+01
      -11  1    4    4    0    0 0.36621420E+03 0.16687233E+03 -.67527646E+03 0.78610274E+03 0.51099893E-03 0.0000E+00 0.9000E+01
       11  1    4    4    0    0 0.99022299E+02 0.80998047E+01 -.24783940E+03 0.26701196E+03 0.51099893E-03 0.0000E+00 0.9000E+01
       23  1    3    3    0    0 -.89195220E+02 0.43887478E+02 -.51443743E+02 0.14437316E+03 0.91188000E+02 0.0000E+00 0.9000E+01
       21  1    1    2  502  501 -.52665723E+01 0.68698045E+01 -.51546569E+02 0.52273725E+02 0.75000000E+00 0.0000E+00 0.9000E+01
#aMCatNLO 2  0  0  2  1 0.86562693D+01 0.00000000D+00  -5  7  0 0.00000000D+00 0.00000000D+00 0.00000000D+00 0.00000000D+00 0.00000000D+00
  <mgrwgt>
 -.2313149357D-03    5    2    0
 0.613692445225034D+03 0.000000000000000D+00 0.000000000000000D+00 0.613692445225034D+03
 0.613692445225034D+03 0.000000000000000D+00 0.000000000000000D+00 -.613692445225034D+03
 0.496944662957376D+03 -.372906285429450D+03 -.222948952477440D+03 0.223323562514666D+03
 0.446495859450568D+03 0.364297016552450D+03 0.169373138144501D+03 -.194830634943709D+03
 0.134528197810901D+03 0.984442531782727D+02 0.885381690047369D+01 -.912588349077168D+02
 0.149416170231224D+03 -.898349843012735D+02 0.447219974324655D+02 0.627659073367600D+02
 0.000000000000000D+00 -.000000000000000D+00 0.000000000000000D+00 -.000000000000000D+00
 0.614529432203051D+03 0.000000000000000D+00 0.000000000000000D+00 0.614529432203051D+03
 0.636504571631485D+03 0.000000000000000D+00 0.000000000000000D+00 -.636504571631485D+03
 0.496604791313445D+03 -.370774706721539D+03 -.225729419200920D+03 0.223323562514666D+03
 0.447122122002639D+03 0.366214200497430D+03 0.166872331516049D+03 -.194830634943709D+03
 0.134904401043719D+03 0.990222986781385D+02 0.809980473518493D+01 -.912588349077168D+02
 0.148784100364881D+03 -.891952201257074D+02 0.438874783999590D+02 0.627659073367600D+02
 0.236185891098518D+02 -.526657232832150D+01 0.686980454972734D+01 -.219751394284339D+02
-.187511754924D-03 0.000000000000D+00 0.000000000000D+00 0.695698656791D-07 0.000000000000D+00  7 -1 1 23 -11 11 23 21 2 0.41474157D-01 0.22306308D+00 0.29642840D+06 0.29642840D+06 0.29642840D+06 0.10849369D+01  1  2 13  2  7  2        1 -.108171860743D-02 0.100000000000D+01
-.542652411093D-03 0.000000000000D+00 0.000000000000D+00 0.695698656791D-07 0.000000000000D+00  7 -1 1 23 -11 11 23 21 2 0.41474157D-01 0.21493012D+00 0.29166398D+06 0.29166398D+06 0.29166398D+06 0.10854585D+01  1  2  8  2  7  2        1 -.340608888466D-02 0.100000000000D+01
-.693743877970D-04 0.000000000000D+00 0.000000000000D+00 0.695698656791D-07 0.000000000000D+00  7 -1 1 23 -11 11 23 21 2 0.41474157D-01 0.22304038D+00 0.29166398D+06 0.29166398D+06 0.29166398D+06 0.10854585D+01  1  2  9  2  7  2        1 -.400964929235D-03 0.100000000000D+01
0.693268257897D-04 0.000000000000D+00 0.000000000000D+00 0.695698656791D-07 0.000000000000D+00  7 -1 1 23 -11 11 23 21 2 0.41474157D-01 0.21493012D+00 0.29166398D+06 0.29166398D+06 0.29166398D+06 0.10854585D+01  1  2 10  2  7  2        1 0.435146561416D-03 0.100000000000D+01
0.732616453191D-03 0.000000000000D+00 0.000000000000D+00 0.695698656791D-07 0.583120062543D-08  7 -1 1 23 -11 11 23 21 2 0.41530722D-01 0.22291948D+00 0.29642840D+06 0.29642840D+06 0.29642840D+06 0.10849369D+01  1  2  1  2  7  2        1 0.422231092425D-02 0.100000000000D+01
  </mgrwgt>
  </event>
  <event>
  9     66 -.58687835E-06 0.36751467E+03 0.75467711E-02 0.97634025E-01
       -1 -1    0    0    0  501 0.00000000E+00 0.00000000E+00 0.15478110E+03 0.15478143E+03 0.32000000E+00 0.0000E+00 0.9000E+01
        1 -1    0    0  502    0 0.00000000E+00 0.00000000E+00 -.16554853E+04 0.16554854E+04 0.32000000E+00 0.0000E+00 0.9000E+01
       25  2    1    2    0    0 -.12311740E+03 -.26974402E+03 -.12878385E+04 0.13551870E+04 0.30013992E+03 0.0000E+00 0.0000E+00
       23  2    1    2    0    0 0.13822270E+03 0.30475856E+03 -.14193846E+03 0.37454767E+03 0.90311305E+02 0.0000E+00 0.0000E+00
       23  1    3    3    0    0 -.13913592E+03 -.23931865E+03 -.11501145E+04 0.11864699E+04 0.91188000E+02 0.0000E+00 0.9000E+01
      -11  1    4    4    0    0 0.13957785E+03 0.31051483E+03 -.14129301E+03 0.36859891E+03 0.51099893E-03 0.0000E+00 0.9000E+01
       11  1    4    4    0    0 -.13551550E+01 -.57562722E+01 -.64544758E+00 0.59487576E+01 0.51099893E-03 0.0000E+00 0.9000E+01
       23  1    3    3    0    0 0.16018519E+02 -.30425371E+02 -.13772403E+03 0.16871709E+03 0.91188000E+02 0.0000E+00 0.9000E+01
       21  1    1    2  502  501 -.15105297E+02 -.35014543E+02 -.70927274E+02 0.80532160E+02 0.75000000E+00 0.0000E+00 0.9000E+01
#aMCatNLO 2  0  0  2  1 0.38133820D+02 0.00000000D+00  -5  7  0 0.00000000D+00 0.00000000D+00 0.00000000D+00 0.00000000D+00 0.00000000D+00
  <mgrwgt>
 -.6951596770D-04    3    2    0
 0.486380902228273D+03 0.000000000000000D+00 0.000000000000000D+00 0.486380902228273D+03
 0.486380902228273D+03 0.000000000000000D+00 0.000000000000000D+00 -.486380902228273D+03
 0.430066406841622D+03 -.145725413236116D+03 -.254593303534401D+03 -.300978764503855D+03
 0.434412507353933D+03 0.132733869531501D+03 0.294650276749578D+03 0.290305289025402D+03
 0.985744829941911D+01 -.150633646608104D+01 -.610671552786607D+01 0.759001073045323D+01
 0.984254419615725D+02 0.144978801706960D+02 -.339502576873117D+02 0.308346474799929D+01
 0.000000000000000D+00 -.000000000000000D+00 -.000000000000000D+00 -.000000000000000D+00
 0.502337165721490D+03 0.000000000000000D+00 0.000000000000000D+00 0.502337165721490D+03
 0.510084685477294D+03 0.000000000000000D+00 0.000000000000000D+00 -.510084685477294D+03
 0.418969792543482D+03 -.139135916890706D+03 -.239318648810835D+03 -.300978764503855D+03
 0.447413231249794D+03 0.139577850372396D+03 0.310514834342388D+03 0.290305289025402D+03
 0.962181779361829D+01 -.135515498191782D+01 -.575627220865884D+01 0.759001073045323D+01
 0.975041293020232D+02 0.160185187426842D+02 -.304253708175232D+02 0.308346474799929D+01
 0.389128803098659D+02 -.151052972424561D+02 -.350145425053708D+02 -.774751975580424D+01
-.390846000659D-04 0.000000000000D+00 0.000000000000D+00 0.234200087107D-05 0.000000000000D+00  7 -1 1 23 -11 11 23 21 2 0.23055958D-01 0.25850925D+00 0.14953817D+06 0.14953817D+06 0.14953817D+06 0.11076576D+01  1  2 13  2  7  2        1 -.457714638893D-03 0.100000000000D+01
-.313452509417D-05 0.000000000000D+00 0.000000000000D+00 0.234200087107D-05 0.000000000000D+00  7 -1 1 23 -11 11 23 21 2 0.23055958D-01 0.24285282D+00 0.13506703D+06 0.13506703D+06 0.13506703D+06 0.11111638D+01  1  2  8  2  7  2        1 -.432768853115D-04 0.100000000000D+01
0.374019135013D-04 0.000000000000D+00 0.000000000000D+00 0.234200087107D-05 0.105606119401D-07  7 -1 1 23 -11 11 23 21 2 0.23812334D-01 0.25468826D+00 0.14953817D+06 0.14953817D+06 0.14953817D+06 0.11076576D+01  1  2  1  2  7  2        1 0.431475556502D-03 0.100000000000D+01
  </mgrwgt>
  </event>
  <event>
  9     66 -.58687835E-06 0.27242207E+03 0.75467711E-02 0.10047794E+00
       -1 -1    0    0    0  502 0.00000000E+00 0.00000000E+00 0.44606494E+03 0.44606505E+03 0.32000000E+00 0.0000E+00 0.9000E+01
        1 -1    0    0  501    0 0.00000000E+00 0.00000000E+00 -.29159147E+03 0.29159165E+03 0.32000000E+00 0.0000E+00 0.9000E+01
       25  2    1    2    0    0 0.62970844E+02 0.18557506E+03 -.65996227E+02 0.36514969E+03 0.30095742E+03 0.0000E+00 0.0000E+00
       23  2    1    2    0    0 0.68863758E+00 -.20350656E+03 0.20817395E+03 0.30523282E+03 0.91734890E+02 0.0000E+00 0.0000E+00
       23  1    3    3    0    0 0.16931832E+01 -.36134071E+02 0.25461367E+02 0.10135122E+03 0.91188000E+02 0.0000E+00 0.9000E+01
      -13  1    4    4    0    0 0.27093887E+01 -.16250364E+02 -.87531071E+01 0.18655915E+02 0.10565837E+00 0.0000E+00 0.9000E+01
       13  1    4    4    0    0 -.20207511E+01 -.18725620E+03 0.21692705E+03 0.28657691E+03 0.10565837E+00 0.0000E+00 0.9000E+01
       23  1    3    3    0    0 0.61277661E+02 0.22170913E+03 -.91457594E+02 0.26379847E+03 0.91188000E+02 0.0000E+00 0.9000E+01
       21  1    1    2  501  502 -.63659482E+02 0.17931503E+02 0.12295744E+02 0.67274187E+02 0.75000000E+00 0.0000E+00 0.9000E+01
#aMCatNLO 2  0  0  1  2 0.66136740D+02 0.00000000D+00  -5  7  0 0.00000000D+00 0.00000000D+00 0.00000000D+00 0.00000000D+00 0.00000000D+00
  <mgrwgt>
 -.2936194568D-04    2    2    0
 0.325892675952742D+03 0.000000000000000D+00 0.000000000000000D+00 0.325892675952742D+03
 0.325892675952742D+03 0.000000000000000D+00 0.000000000000000D+00 -.325892675952742D+03
 0.975295365007009D+02 -.783999287103990D+01 -.334487790132663D+02 0.405867470306286D+01
 0.203855947974885D+02 0.694028799679384D+00 -.156824518630820D+02 -.130058257267550D+02
 0.242480139150199D+03 -.258227479098195D+02 -.180551917413085D+03 0.159783630861063D+03
 0.291390081457096D+03 0.329687119811800D+02 0.229683148289433D+03 -.150836479837370D+03
 0.000000000000000D+00 -.000000000000000D+00 0.000000000000000D+00 -.000000000000000D+00
 0.359640884672516D+03 0.000000000000000D+00 0.000000000000000D+00 0.359640884672516D+03
 0.361658845037062D+03 0.000000000000000D+00 0.000000000000000D+00 -.361658845037062D+03
 0.981848359279024D+02 0.169318343256896D+01 -.361340691274525D+02 0.405867470306286D+01
 0.209895039632582D+02 0.270939489758472D+01 -.162501370172024D+02 -.130058257267550D+02
 0.246170389647910D+03 -.202075736575021D+01 -.187256424690659D+03 0.159783630861063D+03
 0.289787481070632D+03 0.612776608771006D+02 0.221709128068655D+03 -.150836479837370D+03
 0.661675190998752D+02 -.636594818415040D+02 0.179315027666587D+02 -.201796036454649D+01
-.381142854301D-05 0.000000000000D+00 0.000000000000D+00 0.184875832125D-06 0.000000000000D+00  7 -1 1 23 -13 13 23 21 2 0.71692803D-01 0.40423567D-01 0.94684393D+05 0.94684393D+05 0.94684393D+05 0.11236739D+01  1  2 13  1  7  1       -1 -.126791113564D-03 0.100000000000D+01
0.308285493861D-05 0.000000000000D+00 0.000000000000D+00 0.184875832125D-06 0.286459081766D-09  7 -1 1 23 -13 13 23 21 2 0.68624993D-01 0.44859985D-01 0.94684393D+05 0.94684393D+05 0.94684393D+05 0.11236739D+01  1  2  1  1  7  1       -1 0.974291678876D-04 0.100000000000D+01
  </mgrwgt>
  </event>
  <event>
  8     66 0.58687835E-06 0.37503294E+03 0.75467711E-02 0.92862929E-01
       -1 -1    0    0    0  501 0.00000000E+00 0.00000000E+00 0.23752473E+03 0.23752494E+03 0.32000000E+00 0.0000E+00 0.9000E+01
        1 -1    0    0  501    0 0.00000000E+00 0.00000000E+00 -.98833874E+03 0.98833879E+03 0.32000000E+00 0.0000E+00 0.9000E+01
       25  2    1    2    0    0 -.26558544E+03 -.34191783E+03 -.42305236E+03 0.67560599E+03 0.30004453E+03 0.0000E+00 0.0000E+00
       23  2    1    2    0    0 0.26558544E+03 0.34191783E+03 -.32776165E+03 0.55025775E+03 0.88952000E+02 0.0000E+00 0.0000E+00
       23  1    3    3    0    0 -.27081128E+02 -.19845776E+03 -.25911795E+03 0.33996505E+03 0.91188000E+02 0.0000E+00 0.9000E+01
      -13  1    4    4    0    0 0.25401647E+03 0.28531506E+03 -.26481875E+03 0.46482044E+03 0.10565837E+00 0.0000E+00 0.9000E+01
       13  1    4    4    0    0 0.11568965E+02 0.56602769E+02 -.62942901E+02 0.85437313E+02 0.10565837E+00 0.0000E+00 0.9000E+01
       23  1    3    3    0    0 -.23850431E+03 -.14346007E+03 -.16393441E+03 0.33564094E+03 0.91188000E+02 0.0000E+00 0.9000E+01
#aMCatNLO 1  0  0  2  1 0.19748948D+03 0.00000000D+00  -5  7  0 0.00000000D+00 0.00000000D+00 0.00000000D+00 0.00000000D+00 0.00000000D+00
  <mgrwgt>
 0.2199398430D-03    9    2    0
 0.484515278990495D+03 0.000000000000000D+00 0.000000000000000D+00 0.484515278990495D+03
 0.484515278990495D+03 0.000000000000000D+00 0.000000000000000D+00 -.484515278990495D+03
 0.229302815569748D+03 -.270811275738303D+02 -.198457759109188D+03 -.643868019310127D+02
 0.382833468561950D+03 0.254016816889564D+03 0.285315386647711D+03 0.251406350463669D+02
 0.593125249554579D+02 0.115686231373408D+02 0.566024466505818D+02 -.134277923898921D+02
 0.297581748893834D+03 -.238504312453074D+03 -.143460074189105D+03 0.526739592745379D+02
 0.000000000000000D+00 0.000000000000000D+00 0.000000000000000D+00 -.000000000000000D+00
 0.543081671929266D+03 0.000000000000000D+00 0.000000000000000D+00 0.543081671929266D+03
 0.695075801644123D+03 0.000000000000000D+00 0.000000000000000D+00 -.695075801644123D+03
 0.258143195225007D+03 -.703049112242287D+02 -.221887848003954D+03 -.643868019310127D+02
 0.317480217249217D+03 0.191917206732613D+03 0.251653377831546D+03 0.251406350463669D+02
 0.529616516767369D+02 0.161282369944161D+01 0.512057588516808D+02 -.134277923898921D+02
 0.360365044566229D+03 -.296847081137596D+03 -.175085631722464D+03 0.526739592745379D+02
 0.249207364856199D+03 0.173621961929770D+03 0.941143430431908D+02 -.151994129714857D+03
0.134678955404D-04 0.000000000000D+00 0.000000000000D+00 0.360836682771D-06 0.000000000000D+00  7 -1 1 23 -13 13 23 21 0 0.36542287D-01 0.15205213D+00 0.22692839D+06 0.22692839D+06 0.22692839D+06 0.10936368D+01  1  2  2  2  7  2        1 0.177038331511D-03 0.100000000000D+01
-.747954927548D-06 0.000000000000D+00 -.517202650535D-07 0.360836682771D-06 0.000000000000D+00  7 -1 1 23 -13 13 23 21 2 0.36542287D-01 0.15205213D+00 0.22692839D+06 0.22692839D+06 0.22692839D+06 0.10936368D+01  1  2  3  2  7  2        1 -.117595094927D-04 0.100000000000D+01
0.865060021243D-06 0.000000000000D+00 0.000000000000D+00 0.360836682771D-06 0.000000000000D+00  7 -1 1 23 -13 13 23 21 2 0.36542287D-01 0.15205213D+00 0.22692839D+06 0.22692839D+06 0.22692839D+06 0.10936368D+01  1  2 15  2  7  2        1 0.136006611587D-04 0.100000000000D+01
0.861203445256D-05 0.000000000000D+00 0.000000000000D+00 0.360836682771D-06 0.000000000000D+00  7 -1 1 23 -13 13 23 21 2 0.36542287D-01 0.22416956D+00 0.34321026D+06 0.34321026D+06 0.34321026D+06 0.10802546D+01  1  2 12  2  7  2        1 0.604058387803D-04 0.100000000000D+01
-.107588124825D-04 0.000000000000D+00 0.000000000000D+00 0.360836682771D-06 0.000000000000D+00  7 -1 1 23 -13 13 23 21 2 0.36542287D-01 0.15205213D+00 0.22692839D+06 0.22692839D+06 0.22692839D+06 0.10936368D+01  1  2  4  2  7  2        1 -.169152381859D-03 0.100000000000D+01
-.150400593574D-04 0.000000000000D+00 -.496509298320D-05 0.360836682771D-06 0.000000000000D+00  7 -1 1 23 -13 13 23 21 2 0.36542287D-01 0.23116118D+00 0.22692839D+06 0.22692839D+06 0.22692839D+06 0.10936368D+01  1  2  5  2  7  2        1 -.102481054670D-03 0.100000000000D+01
0.160930855416D-04 0.000000000000D+00 0.455920688284D-05 0.360836682771D-06 0.000000000000D+00  7 -1 1 23 -13 13 23 21 2 0.36542287D-01 0.15205213D+00 0.22692839D+06 0.22692839D+06 0.22692839D+06 0.10936368D+01  1  2  6  2  7  2        1 0.253018979116D-03 0.100000000000D+01
0.401029488018D-06 0.000000000000D+00 0.000000000000D+00 0.360836682771D-06 0.000000000000D+00  7 -1 21 23 -13 13 23 -1 2 0.36542287D-01 0.22416956D+00 0.34321026D+06 0.34321026D+06 0.34321026D+06 0.10802546D+01  1  2 12  4  7  2        1 0.225712837052D-05 0.100000000000D+01
-.560449022379D-06 0.000000000000D+00 -.244522028941D-06 0.360836682771D-06 0.000000000000D+00  7 -1 21 23 -13 13 23 -1 2 0.36542287D-01 0.23116118D+00 0.22692839D+06 0.22692839D+06 0.22692839D+06 0.10936368D+01  1  2  5  4  7  2        1 -.298814987459D-05 0.100000000000D+01
  </mgrwgt>
  </event>
  <event>
  8     66 0.58687835E-06 0.25947674E+03 0.75467711E-02 0.97095461E-01
       -1 -1    0    0    0  501 0.00000000E+00 0.00000000E+00 0.60435784E+02 0.60436631E+02 0.32000000E+00 0.0000E+00 0.9000E+01
        1 -1    0    0  501    0 0.00000000E+00 0.00000000E+00 -.12963292E+04 0.12963293E+04 0.32000000E+00 0.0000E+00 0.9000E+01
       25  2    1    2    0    0 0.13293668E+03 0.96642184E+02 -.98155188E+03 0.10400835E+04 0.30218837E+03 0.0000E+00 0.0000E+00
       23  2    1    2    0    0 -.13293668E+03 -.96642184E+02 -.25434159E+03 0.31668238E+03 0.92661817E+02 0.0000E+00 0.0000E+00
       23  1    3    3    0    0 0.12133777E+03 0.16756304E+03 -.59650202E+03 0.63791076E+03 0.91188000E+02 0.0000E+00 0.9000E+01
      -13  1    4    4    0    0 -.10458169E+03 -.37367557E+02 -.10206526E+03 0.15083432E+03 0.10565837E+00 0.0000E+00 0.9000E+01
       13  1    4    4    0    0 -.28354996E+02 -.59274627E+02 -.15227633E+03 0.16584806E+03 0.10565837E+00 0.0000E+00 0.9000E+01
       23  1    3    3    0    0 0.11598918E+02 -.70920852E+02 -.38504986E+03 0.40217278E+03 0.91188000E+02 0.0000E+00 0.9000E+01
#aMCatNLO 1  0  0  2  2 0.24861028D+03 0.00000000D+00  -5  7  0 0.00000000D+00 0.00000000D+00 0.00000000D+00 0.00000000D+00 0.00000000D+00
  <mgrwgt>
 0.1199947872D-03    5    2    0
 0.279902261380287D+03 0.000000000000000D+00 0.000000000000000D+00 0.279902261380287D+03
 0.279902261380287D+03 0.000000000000000D+00 0.000000000000000D+00 -.279902261380287D+03
 0.229156116021901D+03 0.121337768989145D+03 0.167563038083545D+03 -.373771086521207D+02
 0.140236689611870D+03 -.104581787999286D+03 -.373675356489806D+02 0.856308706699317D+02
 0.657722786672007D+02 -.283549003434022D+02 -.592746513672757D+02 -.291684296450019D+01
 0.124639438459602D+03 0.115989193535435D+02 -.709208510672884D+02 -.453369190533109D+02
 0.000000000000000D+00 -.000000000000000D+00 -.000000000000000D+00 -.000000000000000D+00
 0.383846297306112D+03 0.000000000000000D+00 0.000000000000000D+00 0.383846297306112D+03
 0.505426684527556D+03 0.000000000000000D+00 0.000000000000000D+00 -.505426684527556D+03
 0.342078973137234D+03 0.202550166015133D+03 0.257447382031114D+03 -.373771086521207D+02
 0.109993554401579D+03 -.690065960854915D+02 0.200641344104699D+01 0.856308706699317D+02
 0.439923032524265D+02 -.127496881016785D+02 -.420030978129448D+02 -.291684296450019D+01
 0.116461227922072D+03 0.458761607433207D+02 -.329834490513534D+02 -.453369190533109D+02
 0.276746923120357D+03 -.166670042571283D+03 -.184467248607863D+03 -.121580387221444D+03
0.170000298055D-05 0.000000000000D+00 0.000000000000D+00 0.121025106173D-07 0.000000000000D+00  7 -1 1 23 -13 13 23 21 0 0.92978811D-02 0.19943534D+00 0.67328180D+05 0.67328180D+05 0.67328180D+05 0.11360992D+01  1  2  2  2  7  2        1 0.124006702220D-03 0.100000000000D+01
-.937852961712D-07 0.000000000000D+00 -.652845906636D-08 0.121025106173D-07 0.000000000000D+00  7 -1 1 23 -13 13 23 21 2 0.92978811D-02 0.19943534D+00 0.67328180D+05 0.67328180D+05 0.67328180D+05 0.11360992D+01  1  2  3  2  7  2        1 -.883004126657D-05 0.100000000000D+01
0.110227960400D-06 0.000000000000D+00 0.000000000000D+00 0.121025106173D-07 0.000000000000D+00  7 -1 1 23 -13 13 23 21 2 0.92978811D-02 0.19943534D+00 0.67328180D+05 0.67328180D+05 0.67328180D+05 0.11360992D+01  1  2 15  2  7  2        1 0.103781453895D-04 0.100000000000D+01
-.473600928149D-06 0.000000000000D+00 -.460224386287D-06 0.121025106173D-07 0.000000000000D+00  7 -1 1 23 -13 13 23 21 2 0.92978811D-02 0.40997611D+00 0.67328180D+05 0.67328180D+05 0.67328180D+05 0.11360992D+01  1  2  5  2  7  2        1 -.552711204305D-05 0.100000000000D+01
-.874269677428D-08 0.000000000000D+00 -.358611340659D-07 0.121025106173D-07 0.000000000000D+00  7 -1 21 23 -13 13 23 -1 2 0.92978811D-02 0.40997611D+00 0.67328180D+05 0.67328180D+05 0.67328180D+05 0.11360992D+01  1  2  5  4  7  2        1 -.329071297068D-07 0.100000000000D+01
  </mgrwgt>
  </event>
  <event>
  7     66 0.58687835E-06 0.92841404E+03 0.75467711E-02 0.84274509E-01
       -1 -1    0    0    0  501 0.00000000E+00 0.00000000E+00 0.63051217E+03 0.63051225E+03 0.32000000E+00 0.0000E+00 0.9000E+01
        1 -1    0    0  501    0 0.00000000E+00 0.00000000E+00 -.29686757E+04 0.29686757E+04 0.32000000E+00 0.0000E+00 0.9000E+01
       23  2    1    2    0    0 -.65093314E+03 -.11641036E+04 -.12749617E+04 0.18469574E+04 0.82905974E+02 0.0000E+00 0.0000E+00
       23  1    1    2    0    0 0.51166116E+03 0.85539750E+03 -.95941126E+03 0.13864657E+04 0.91188000E+02 0.0000E+00 0.9000E+01
      -13  1    3    3    0    0 -.64796927E+03 -.11342383E+04 -.12447948E+04 0.18044043E+04 0.10565837E+00 0.0000E+00 0.9000E+01
       13  1    3    3    0    0 -.29638628E+01 -.29865296E+02 -.30166837E+02 0.42553139E+02 0.10565837E+00 0.0000E+00 0.9000E+01
       23  1    1    2    0    0 0.13927197E+03 0.30870609E+03 -.10379058E+03 0.36576477E+03 0.91188000E+02 0.0000E+00 0.9000E+01
#aMCatNLO 1  0  0  2  1 0.10348750D+03 0.00000000D+00  -5  7  0 0.00000000D+00 0.00000000D+00 0.00000000D+00 0.00000000D+00 0.00000000D+00
  <mgrwgt>
 0.4136012836D-02    9    2    0
 0.136813242226498D+04 0.000000000000000D+00 0.000000000000000D+00 0.136813242226498D+04
 0.136813242226498D+04 0.000000000000000D+00 0.000000000000000D+00 -.136813242226498D+04
 0.100388322473840D+04 0.511661162564528D+03 0.855397497664703D+03 -.772285781252770D+02
 0.130976431126897D+04 -.647970321326520D+03 -.113424008656025D+04 -.954800491918550D+02
 0.301930056948073D+02 -.296281514273385D+01 -.298635024994954D+02 -.331821304007065D+01
 0.392424302827776D+03 0.139271973904726D+03 0.308706091395047D+03 0.176026840357203D+03
 0.000000000000000D+00 -.000000000000000D+00 0.000000000000000D+00 -.000000000000000D+00
 0.141339780392176D+04 0.000000000000000D+00 0.000000000000000D+00 0.141339780392176D+04
 0.142956626357375D+04 0.000000000000000D+00 0.000000000000000D+00 -.142956626357375D+04
 0.990714633938198D+03 0.534614282887823D+03 0.825483827708564D+03 -.772285781252770D+02
 0.132981550980179D+04 -.617594978761890D+03 -.117382677279223D+04 -.954800491918550D+02
 0.310424443418691D+02 -.225813943748890D+01 -.307818716003367D+02 -.331821304007065D+01
 0.386648543061273D+03 0.148237266178813D+03 0.297022068030469D+03 0.176026840357203D+03
 0.104742936352384D+03 -.629984308672580D+02 0.821027486535308D+02 -.161684596519928D+02
0.178121082544D-01 0.000000000000D+00 0.000000000000D+00 0.428117095978D-10 0.000000000000D+00  7 -1 1 23 -13 13 23 21 0 0.97001880D-01 0.45671934D+00 0.18062387D+07 0.18062387D+07 0.18062387D+07 0.10311873D+01  1  2  2  2  7  2        1 0.130023407807D-02 0.100000000000D+01
-.989179361048D-03 0.000000000000D+00 -.684031857327D-04 0.428117095978D-10 0.000000000000D+00  7 -1 1 23 -13 13 23 21 2 0.97001880D-01 0.45671934D+00 0.18062387D+07 0.18062387D+07 0.18062387D+07 0.10311873D+01  1  2  3  2  7  2        1 -.767814586726D-04 0.100000000000D+01
0.114269603839D-02 0.000000000000D+00 0.000000000000D+00 0.428117095978D-10 0.000000000000D+00  7 -1 1 23 -13 13 23 21 2 0.97001880D-01 0.45671934D+00 0.18062387D+07 0.18062387D+07 0.18062387D+07 0.10311873D+01  1  2 15  2  7  2        1 0.886976337173D-04 0.100000000000D+01
0.322057839087D-01 0.000000000000D+00 0.000000000000D+00 0.428117095978D-10 0.000000000000D+00  7 -1 1 23 -13 13 23 21 2 0.97001880D-01 0.48448952D+00 0.19497803D+07 0.19497803D+07 0.19497803D+07 0.10290893D+01  1  2 12  2  7  2        1 0.179785217348D-02 0.100000000000D+01
-.274545625052D-01 0.000000000000D+00 0.000000000000D+00 0.428117095978D-10 0.000000000000D+00  7 -1 1 23 -13 13 23 21 2 0.97001880D-01 0.45671934D+00 0.18062387D+07 0.18062387D+07 0.18062387D+07 0.10311873D+01  1  2  4  2  7  2        1 -.213106079582D-02 0.100000000000D+01
-.155357712186D+00 0.000000000000D+00 -.248434314773D-01 0.428117095978D-10 0.000000000000D+00  7 -1 1 23 -13 13 23 21 2 0.97001880D-01 0.48243199D+00 0.18062387D+07 0.18062387D+07 0.18062387D+07 0.10311873D+01  1  2  5  2  7  2        1 -.898094966519D-02 0.100000000000D+01
0.156520797605D+00 0.000000000000D+00 0.248062147101D-01 0.428117095978D-10 0.000000000000D+00  7 -1 1 23 -13 13 23 21 2 0.97001880D-01 0.45671934D+00 0.18062387D+07 0.18062387D+07 0.18062387D+07 0.10311873D+01  1  2  6  2  7  2        1 0.121493589797D-01 0.100000000000D+01
0.368880567930D-03 0.000000000000D+00 0.000000000000D+00 0.428117095978D-10 0.000000000000D+00  7 -1 21 23 -13 13 23 -1 2 0.97001880D-01 0.48448952D+00 0.19497803D+07 0.19497803D+07 0.19497803D+07 0.10290893D+01  1  2 12  4  7  2        1 0.362808598153D-05 0.100000000000D+01
-.144617713120D-02 0.000000000000D+00 -.235429094722D-03 0.428117095978D-10 0.000000000000D+00  7 -1 21 23 -13 13 23 -1 2 0.97001880D-01 0.48243199D+00 0.18062387D+07 0.18062387D+07 0.18062387D+07 0.10311873D+01  1  2  5  4  7  2        1 -.149661955631D-04 0.100000000000D+01
  </mgrwgt>
  </event>
  <event>
  8     66 0.58687835E-06 0.26474532E+03 0.75467711E-02 0.96277181E-01
       -1 -1    0    0    0  501 0.00000000E+00 0.00000000E+00 0.28744656E+03 0.28744673E+03 0.32000000E+00 0.0000E+00 0.9000E+01
        1 -1    0    0  501    0 0.00000000E+00 0.00000000E+00 -.27783002E+03 0.27783021E+03 0.32000000E+00 0.0000E+00 0.9000E+01
       25  2    1    2    0    0 -.74483370E+02 0.17097732E+03 0.44219519E+02 0.35537552E+03 0.29925805E+03 0.0000E+00 0.0000E+00
       23  2    1    2    0    0 0.74483370E+02 -.17097732E+03 -.34602987E+02 0.20990142E+03 0.89890066E+02 0.0000E+00 0.0000E+00
       23  1    3    3    0    0 0.23919791E+02 0.18295180E+03 0.71633790E+02 0.21792239E+03 0.91188000E+02 0.0000E+00 0.9000E+01
      -11  1    4    4    0    0 0.76912662E+02 -.15731689E+03 -.27230133E+01 0.17513302E+03 0.51099893E-03 0.0000E+00 0.9000E+01
       11  1    4    4    0    0 -.24292925E+01 -.13660431E+02 -.31879973E+02 0.34768399E+02 0.51099893E-03 0.0000E+00 0.9000E+01
       23  1    3    3    0    0 -.98403161E+02 -.11974479E+02 -.27414271E+02 0.13745313E+03 0.91188000E+02 0.0000E+00 0.9000E+01
#aMCatNLO 1  0  0  2  2 0.27185781D+03 0.00000000D+00  -5  7  0 0.00000000D+00 0.00000000D+00 0.00000000D+00 0.00000000D+00 0.00000000D+00
  <mgrwgt>
 0.2337864851D-03    3    2    0
 0.282597568665778D+03 0.000000000000000D+00 0.000000000000000D+00 0.282597568665778D+03
 0.282597568665778D+03 0.000000000000000D+00 0.000000000000000D+00 -.282597568665778D+03
 0.216735114360945D+03 0.239197910287061D+02 0.182951796465185D+03 0.679363100290000D+02
 0.175204700808423D+03 0.769126620089957D+02 -.157316887058799D+03 -.570321437330441D+01
 0.353158536909765D+02 -.242929248980104D+01 -.136604308085910D+02 -.324761557153114D+02
 0.137939468471212D+03 -.984031605479008D+02 -.119744785977943D+02 -.297569399403842D+02
 0.000000000000000D+00 -.000000000000000D+00 0.000000000000000D+00 0.000000000000000D+00
 0.503383286662431D+03 0.000000000000000D+00 0.000000000000000D+00 0.503383286662431D+03
 0.410940001478130D+03 0.000000000000000D+00 0.000000000000000D+00 -.410940001478130D+03
 0.153042409995787D+03 0.273346796922623D+02 0.987127194392067D+02 0.679363100290000D+02
 0.271524246242265D+03 0.810381956514734D+02 -.259086280008795D+03 -.570321437330441D+01
 0.457067317276325D+02 -.168105039769621D+01 -.321181989647151D+02 -.324761557153114D+02
 0.156904587483315D+03 -.956802810923482D+02 -.791429501900376D+02 -.297569399403842D+02
 0.287145312691562D+03 -.110115438536913D+02 0.271634709724341D+03 0.924432851843007D+02
0.386004410507D-05 0.000000000000D+00 0.000000000000D+00 0.847853112748D-07 0.000000000000D+00  7 -1 1 23 -11 11 23 21 0 0.44222575D-01 0.42743108D-01 0.70090085D+05 0.70090085D+05 0.70090085D+05 0.11346121D+01  1  2  2  2  7  2        1 0.230782164725D-03 0.100000000000D+01
-.213336605260D-06 0.000000000000D+00 -.148235857364D-07 0.847853112748D-07 0.000000000000D+00  7 -1 1 23 -11 11 23 21 2 0.44222575D-01 0.42743108D-01 0.70090085D+05 0.70090085D+05 0.70090085D+05 0.11346121D+01  1  2  3  2  7  2        1 -.164198886973D-04 0.100000000000D+01
0.252370457359D-06 0.000000000000D+00 0.000000000000D+00 0.847853112748D-07 0.000000000000D+00  7 -1 1 23 -11 11 23 21 2 0.44222575D-01 0.42743108D-01 0.70090085D+05 0.70090085D+05 0.70090085D+05 0.11346121D+01  1  2 15  2  7  2        1 0.194242090582D-04 0.100000000000D+01
  </mgrwgt>
  </event>
  <event>
  8     66 0.58687835E-06 0.45608745E+03 0.75467711E-02 0.91117723E-01
       -1 -1    0    0    0  501 0.00000000E+00 0.00000000E+00 0.16920546E+03 0.16920576E+03 0.32000000E+00 0.0000E+00 0.9000E+01
        1 -1    0    0  501    0 0.00000000E+00 0.00000000E+00 -.30330108E+04 0.30330108E+04 0.32000000E+00 0.0000E+00 0.9000E+01
       25  2    1    2    0    0 -.28131713E+03 0.29122770E+03 -.27169723E+04 0.27633925E+04 0.30074387E+03 0.0000E+00 0.0000E+00
       23  2    1    2    0    0 0.28131713E+03 -.29122770E+03 -.14683305E+03 0.43882407E+03 0.83986414E+02 0.0000E+00 0.0000E+00
       23  1    3    3    0    0 -.16708226E+03 0.15788007E+02 -.11395145E+04 0.11554109E+04 0.91188000E+02 0.0000E+00 0.9000E+01
      -11  1    4    4    0    0 -.12296878E+01 0.18738982E+01 -.85928378E+01 0.88803429E+01 0.51099893E-03 0.0000E+00 0.9000E+01
       11  1    4    4    0    0 0.28254682E+03 -.29310159E+03 -.13824022E+03 0.42994372E+03 0.51099893E-03 0.0000E+00 0.9000E+01
       23  1    3    3    0    0 -.11423487E+03 0.27543969E+03 -.15774577E+04 0.16079816E+04 0.91188000E+02 0.0000E+00 0.9000E+01
#aMCatNLO 1  0  0  1  2 0.38602902D+03 0.00000000D+00  -5  7  0 0.00000000D+00 0.00000000D+00 0.00000000D+00 0.00000000D+00 0.00000000D+00
  <mgrwgt>
 0.5397245962D-03    4    2    0
 0.716381530757857D+03 0.000000000000000D+00 0.000000000000000D+00 0.716381530757857D+03
 0.716381530757857D+03 0.000000000000000D+00 0.000000000000000D+00 -.716381530757857D+03
 0.304675751012633D+03 -.167082255435735D+03 0.157880066091239D+02 -.237373799474437D+03
 0.267215582066018D+01 -.122968776824348D+01 0.187389824442808D+01 -.145491927337906D+01
 0.684607159979623D+03 0.282546817594424D+03 -.293101594432977D+03 0.550405046037438D+03
 0.440807994702797D+03 -.114234874390445D+03 0.275439689579425D+03 -.311576327289623D+03
 0.000000000000000D+00 0.000000000000000D+00 0.000000000000000D+00 -.000000000000000D+00
 0.851096549111525D+03 0.000000000000000D+00 0.000000000000000D+00 0.851096549111525D+03
 0.108318546879950D+04 0.000000000000000D+00 0.000000000000000D+00 -.108318546879950D+04
 0.341465062786079D+03 -.222487442485180D+03 -.493574211134900D+02 -.237373799474437D+03
 0.259749324435615D+01 -.168154885780331D+01 0.134259990363714D+01 -.145491927337906D+01
 0.719857148994448D+03 0.162117019505214D+03 -.434702970132120D+03 0.550405046037438D+03
 0.419936215534047D+03 -.188041841775042D+03 0.188657445619348D+03 -.311576327289623D+03
 0.450426097352099D+03 0.250093813612811D+03 0.294060345722625D+03 -.232088919687979D+03
0.658365664158D-03 0.000000000000D+00 0.000000000000D+00 0.625792119870D-07 0.000000000000D+00  7 -1 1 23 -11 11 23 21 0 0.26031634D-01 0.46661707D+00 0.20801577D+06 0.20801577D+06 0.20801577D+06 0.10965171D+01  1  2  2  1  7  1       -1 0.597371044375D-03 0.100000000000D+01
-.275092349352D-04 0.000000000000D+00 -.252829750203D-05 0.625792119870D-07 0.000000000000D+00  7 -1 1 23 -11 11 23 21 2 0.26031634D-01 0.46661707D+00 0.20801577D+06 0.20801577D+06 0.20801577D+06 0.10965171D+01  1  2  3  1  7  1       -1 -.300114021338D-04 0.100000000000D+01
0.409479223778D-04 0.000000000000D+00 0.000000000000D+00 0.625792119870D-07 0.000000000000D+00  7 -1 1 23 -11 11 23 21 2 0.26031634D-01 0.46661707D+00 0.20801577D+06 0.20801577D+06 0.20801577D+06 0.10965171D+01  1  2 15  1  7  1       -1 0.446724370169D-04 0.100000000000D+01
-.662789272296D-04 0.000000000000D+00 0.000000000000D+00 0.625792119870D-07 0.000000000000D+00  7 -1 1 23 -11 11 23 21 2 0.26031634D-01 0.46661707D+00 0.20801577D+06 0.20801577D+06 0.20801577D+06 0.10965171D+01  1  2  4  1  7  1       -1 -.723074830242D-04 0.100000000000D+01
  </mgrwgt>
  </event>
  <event>
  8     66 0.58687835E-06 0.71132383E+03 0.75467711E-02 0.86610937E-01
       -1 -1    0    0    0  501 0.00000000E+00 0.00000000E+00 0.20096553E+03 0.20096578E+03 0.32000000E+00 0.0000E+00 0.9000E+01
        1 -1    0    0  501    0 0.00000000E+00 0.00000000E+00 -.27349303E+04 0.27349303E+04 0.32000000E+00 0.0000E+00 0.9000E+01
       25  2    1    2    0    0 -.61184871E+03 0.30774605E+03 -.16712427E+04 0.18308300E+04 0.29970014E+03 0.0000E+00 0.0000E+00
       23  2    1    2    0    0 0.61184871E+03 -.30774605E+03 -.86272208E+03 0.11050660E+04 0.88402696E+02 0.0000E+00 0.0000E+00
       23  1    3    3    0    0 -.10592348E+03 0.12805555E+03 -.29381394E+03 0.34965682E+03 0.91188000E+02 0.0000E+00 0.9000E+01
      -13  1    4    4    0    0 0.56532081E+03 -.26137366E+03 -.80350941E+03 0.10166274E+04 0.10565837E+00 0.0000E+00 0.9000E+01
       13  1    4    4    0    0 0.46527897E+02 -.46372390E+02 -.59212665E+02 0.88438649E+02 0.10565837E+00 0.0000E+00 0.9000E+01
       23  1    3    3    0    0 -.50592523E+03 0.17969049E+03 -.13774287E+04 0.14811732E+04 0.91188000E+02 0.0000E+00 0.9000E+01
#aMCatNLO 1  0  0  2  2 0.61849585D+03 0.00000000D+00  -5  7  0 0.00000000D+00 0.00000000D+00 0.00000000D+00 0.00000000D+00 0.00000000D+00
  <mgrwgt>
 0.2850743668D-03    3    2    0
 0.741368394816907D+03 0.000000000000000D+00 0.000000000000000D+00 0.741368394816907D+03
 0.741368394816907D+03 0.000000000000000D+00 0.000000000000000D+00 -.741368394816907D+03
 0.190217113490683D+03 -.105923476837917D+03 0.128055554662500D+03 0.157889485202186D+02
 0.639795920763107D+03 0.565321551105263D+03 -.261373965484650D+03 0.146403600529087D+03
 0.739191727141051D+02 0.465271555558125D+02 -.463720830598114D+02 0.338953950163864D+02
 0.578804582665919D+03 -.505925229823158D+03 0.179690493881961D+03 -.196087944065692D+03
 0.000000000000000D+00 -.000000000000000D+00 -.000000000000000D+00 0.000000000000000D+00
 0.127673923729474D+04 0.000000000000000D+00 0.000000000000000D+00 0.127673923729474D+04
 0.100527285209870D+04 0.000000000000000D+00 0.000000000000000D+00 -.100527285209870D+04
 0.226799810797950D+03 -.604130342018941D+02 0.198050188682396D+03 0.157889485202186D+02
 0.730364889987280D+03 0.714851753233516D+03 -.313979167655872D+02 0.146403600529087D+03
 0.744549455171019D+02 0.627197161046455D+02 -.214680767743737D+02 0.338953950163864D+02
 0.574943614089717D+03 -.380012855368735D+03 0.373342545104541D+03 -.196087944065692D+03
 0.675448829001386D+03 -.337145579767533D+03 -.518526740246976D+03 0.271466385196036D+03
0.265930736339D-03 0.000000000000D+00 0.000000000000D+00 0.616773759348D-06 0.000000000000D+00  7 -1 1 23 -13 13 23 21 0 0.30917794D-01 0.42075852D+00 0.50598159D+06 0.50598159D+06 0.50598159D+06 0.10681456D+01  1  2  2  2  7  2        1 0.281914788732D-03 0.100000000000D+01
-.147431868125D-04 0.000000000000D+00 -.102124404871D-05 0.616773759348D-06 0.000000000000D+00  7 -1 1 23 -13 13 23 21 2 0.30917794D-01 0.42075852D+00 0.50598159D+06 0.50598159D+06 0.50598159D+06 0.10681456D+01  1  2  3  2  7  2        1 -.178320626549D-04 0.100000000000D+01
0.173554617206D-04 0.000000000000D+00 0.000000000000D+00 0.616773759348D-06 0.000000000000D+00  7 -1 1 23 -13 13 23 21 2 0.30917794D-01 0.42075852D+00 0.50598159D+06 0.50598159D+06 0.50598159D+06 0.10681456D+01  1  2 15  2  7  2        1 0.209916407316D-04 0.100000000000D+01
  </mgrwgt>
  </event>
  <event>
  8     66 0.58687835E-06 0.25925349E+03 0.75467711E-02 0.95829426E-01
       -1 -1    0    0    0  501 0.00000000E+00 0.00000000E+00 0.60014035E+02 0.60014888E+02 0.32000000E+00 0.0000E+00 0.9000E+01
        1 -1    0    0  501    0 0.00000000E+00 0.00000000E+00 -.26372312E+04 0.26372312E+04 0.32000000E+00 0.0000E+00 0.9000E+01
       25  2    1    2    0    0 0.20416539E+03 0.39061365E+01 -.23513509E+04 0.23795873E+04 0.30312665E+03 0.0000E+00 0.0000E+00
       23  2    1    2    0    0 -.20416539E+03 -.39061365E+01 -.22586623E+03 0.31765880E+03 0.90514070E+02 0.0000E+00 0.0000E+00
       23  1    3    3    0    0 0.13541341E+03 0.66060175E+02 -.19446531E+04 0.19526115E+04 0.91188000E+02 0.0000E+00 0.9000E+01
      -13  1    4    4    0    0 -.18722266E+03 -.20888809E+02 -.15864806E+03 0.24628822E+03 0.10565837E+00 0.0000E+00 0.9000E+01
       13  1    4    4    0    0 -.16942730E+02 0.16982673E+02 -.67218172E+02 0.71370590E+02 0.10565837E+00 0.0000E+00 0.9000E+01
       23  1    3    3    0    0 0.68751974E+02 -.62154039E+02 -.40669783E+03 0.42697580E+03 0.91188000E+02 0.0000E+00 0.9000E+01
#aMCatNLO 1  0  0  1  2 0.30228744D+03 0.00000000D+00  -5  7  0 0.00000000D+00 0.00000000D+00 0.00000000D+00 0.00000000D+00 0.00000000D+00
  <mgrwgt>
 0.3241428259D-03    3    2    0
 0.397834212816807D+03 0.000000000000000D+00 0.000000000000000D+00 0.397834212816807D+03
 0.397834212816807D+03 0.000000000000000D+00 0.000000000000000D+00 -.397834212816807D+03
 0.320334961120092D+03 0.135413415760617D+03 0.660601718710885D+02 -.267578953761718D+03
 0.321025362206817D+03 -.187222892791221D+03 -.208888608142470D+02 0.259939468124384D+03
 0.242159880503667D+02 -.169424983124557D+02 0.169827242737619D+02 0.330951725019176D+01
 0.130092114256339D+03 0.687519753430602D+02 -.621540353306034D+02 0.432996838714178D+01
 0.000000000000000D+00 -.000000000000000D+00 -.000000000000000D+00 -.000000000000000D+00
 0.493756641374054D+03 0.000000000000000D+00 0.000000000000000D+00 0.493756641374054D+03
 0.760644136943452D+03 0.000000000000000D+00 0.000000000000000D+00 -.760644136943452D+03
 0.387950235473048D+03 0.192959856895958D+03 0.182642084389304D+03 -.267578953761718D+03
 0.304812711421982D+03 -.136375078891444D+03 0.821224683809788D+02 0.259939468124384D+03
 0.288412216628637D+02 -.126317296979851D+02 0.257158038453819D+02 0.330951725019176D+01
 0.129551481937900D+03 0.898473829506583D+02 -.194173705477878D+02 0.432996838714178D+01
 0.403245127821712D+03 -.133800431257187D+03 -.271062986067877D+03 -.266887495569399D+03
0.331263613335D-04 0.000000000000D+00 0.000000000000D+00 0.572053562165D-07 0.000000000000D+00  7 -1 1 23 -13 13 23 21 0 0.92329955D-02 0.40572794D+00 0.67212371D+05 0.67212371D+05 0.67212371D+05 0.11361630D+01  1  2  2  1  7  1       -1 0.316392578406D-03 0.100000000000D+01
-.143002176251D-05 0.000000000000D+00 -.127213949892D-06 0.572053562165D-07 0.000000000000D+00  7 -1 1 23 -13 13 23 21 2 0.92329955D-02 0.40572794D+00 0.67212371D+05 0.67212371D+05 0.67212371D+05 0.11361630D+01  1  2  3  1  7  1       -1 -.176309814715D-04 0.100000000000D+01
0.205863240132D-05 0.000000000000D+00 0.000000000000D+00 0.572053562165D-07 0.000000000000D+00  7 -1 1 23 -13 13 23 21 2 0.92329955D-02 0.40572794D+00 0.67212371D+05 0.67212371D+05 0.67212371D+05 0.11361630D+01  1  2 15  1  7  1       -1 0.253812289267D-04 0.100000000000D+01
  </mgrwgt>
  </event>
  <event>
  8     66 0.58687835E-06 0.58863177E+03 0.75467711E-02 0.91745003E-01
       -1 -1    0    0    0  501 0.00000000E+00 0.00000000E+00 0.30770872E+03 0.30770889E+03 0.32000000E+00 0.0000E+00 0.9000E+01
        1 -1    0    0  501    0 0.00000000E+00 0.00000000E+00 -.13192984E+04 0.13192984E+04 0.32000000E+00 0.0000E+00 0.9000E+01
       25  2    1    2    0    0 -.35097002E+03 -.42422609E+03 -.23271608E+03 0.66858688E+03 0.29950613E+03 0.0000E+00 0.0000E+00
       23  2    1    2    0    0 0.35097002E+03 0.42422609E+03 -.77887356E+03 0.95842041E+03 0.93690598E+02 0.0000E+00 0.0000E+00
       23  1    3    3    0    0 -.20718553E+03 -.75562849E+02 -.94999305E+02 0.25685737E+03 0.91188000E+02 0.0000E+00 0.9000E+01
      -13  1    4    4    0    0 0.34303881E+03 0.41360797E+03 -.72196719E+03 0.89999101E+03 0.10565837E+00 0.0000E+00 0.9000E+01
       13  1    4    4    0    0 0.79312053E+01 0.10618112E+02 -.56906370E+02 0.58429397E+02 0.10565837E+00 0.0000E+00 0.9000E+01
       23  1    3    3    0    0 -.14378449E+03 -.34866324E+03 -.13771677E+03 0.41172952E+03 0.91188000E+02 0.0000E+00 0.9000E+01
#aMCatNLO 1  0  0  1  2 0.11718005D+03 0.00000000D+00  -5  7  0 0.00000000D+00 0.00000000D+00 0.00000000D+00 0.00000000D+00 0.00000000D+00
  <mgrwgt>
 0.8829890528D-04    4    2    0
 0.637149731777787D+03 0.000000000000000D+00 0.000000000000000D+00 0.637149731777787D+03
 0.637149731777787D+03 0.000000000000000D+00 0.000000000000000D+00 -.637149731777787D+03
 0.252537573554628D+03 -.207185528266824D+03 -.755628486361968D+02 0.826098510810854D+02
 0.575970022893844D+03 0.343039239172368D+03 0.413608486840171D+03 -.207348902273830D+03
 0.294265797539900D+02 0.793077915739847D+01 0.106175994353706D+02 -.262734261223109D+02
 0.416365287353113D+03 -.143784490062942D+03 -.348663237639344D+03 0.151012477315055D+03
 0.000000000000000D+00 0.000000000000000D+00 -.000000000000000D+00 -.000000000000000D+00
 0.688412904198387D+03 0.000000000000000D+00 0.000000000000000D+00 0.688412904198387D+03
 0.710507864988382D+03 0.000000000000000D+00 0.000000000000000D+00 -.710507864988382D+03
 0.268516119932280D+03 -.229252613504422D+03 -.663664600927282D+02 0.826098510810854D+02
 0.563913615141526D+03 0.294764157897848D+03 0.433726975511778D+03 -.207348902273830D+03
 0.292531484901914D+02 0.544564071376137D+01 0.116532730853305D+02 -.262734261223109D+02
 0.417992968296133D+03 -.179120300894437D+03 -.333937149331530D+03 0.151012477315055D+03
 0.119244917326638D+03 0.108163115787250D+03 -.450766391728507D+02 -.220949607899959D+02
0.542722678347D-04 0.000000000000D+00 0.000000000000D+00 0.433553324334D-06 0.000000000000D+00  7 -1 1 23 -13 13 23 21 0 0.47339819D-01 0.20296899D+00 0.34648736D+06 0.34648736D+06 0.34648736D+06 0.10799531D+01  1  2  2  1  7  1       -1 0.256350630475D-03 0.100000000000D+01
-.299212853256D-05 0.000000000000D+00 -.208419798702D-06 0.433553324334D-06 0.000000000000D+00  7 -1 1 23 -13 13 23 21 2 0.47339819D-01 0.20296899D+00 0.34648736D+06 0.34648736D+06 0.34648736D+06 0.10799531D+01  1  2  3  1  7  1       -1 -.164833864024D-04 0.100000000000D+01
0.349828153816D-05 0.000000000000D+00 0.000000000000D+00 0.433553324334D-06 0.000000000000D+00  7 -1 1 23 -13 13 23 21 2 0.47339819D-01 0.20296899D+00 0.34648736D+06 0.34648736D+06 0.34648736D+06 0.10799531D+01  1  2 15  1  7  1       -1 0.192717410734D-04 0.100000000000D+01
-.310115570306D-04 0.000000000000D+00 0.000000000000D+00 0.433553324334D-06 0.000000000000D+00  7 -1 1 23 -13 13 23 21 2 0.47339819D-01 0.20296899D+00 0.34648736D+06 0.34648736D+06 0.34648736D+06 0.10799531D+01  1  2  4  1  7  1       -1 -.170840079868D-03 0.100000000000D+01
  </mgrwgt>
  </event>
  <event>
  8     66 0.58687835E-06 0.46930502E+03 0.75467711E-02 0.94104844E-01
       -1 -1    0    0    0  501 0.00000000E+00 0.00000000E+00 0.34271726E+03 0.34271741E+03 0.32000000E+00 0.0000E+00 0.9000E+01
        1 -1    0    0  501    0 0.00000000E+00 0.00000000E+00 -.77588810E+03 0.77588816E+03 0.32000000E+00 0.0000E+00 0.9000E+01
       25  2    1    2    0    0 0.40025650E+03 0.12237150E+03 -.45668417E+03 0.68858431E+03 0.30067900E+03 0.0000E+00 0.0000E+00
       23  2    1    2    0    0 -.40025650E+03 -.12237150E+03 0.23513335E+02 0.43002127E+03 0.95840279E+02 0.0000E+00 0.0000E+00
       23  1    3    3    0    0 0.79502308E+02 0.13541769E+03 -.15655697E+03 0.23975801E+03 0.91188000E+02 0.0000E+00 0.9000E+01
      -11  1    4    4    0    0 -.35397366E+03 -.85562051E+02 -.53729586E+01 0.36420747E+03 0.51099893E-03 0.0000E+00 0.9000E+01
       11  1    4    4    0    0 -.46282847E+02 -.36809446E+02 0.28886294E+02 0.65813792E+02 0.51099893E-03 0.0000E+00 0.9000E+01
       23  1    3    3    0    0 0.32075420E+03 -.13046189E+02 -.30012720E+03 0.44882630E+03 0.91188000E+02 0.0000E+00 0.9000E+01
#aMCatNLO 1  0  0  1  2 0.10179428D+03 0.00000000D+00  -5  7  0 0.00000000D+00 0.00000000D+00 0.00000000D+00 0.00000000D+00 0.00000000D+00
  <mgrwgt>
 0.1751771815D-03    4    2    0
 0.515664972526087D+03 0.000000000000000D+00 0.000000000000000D+00 0.515664972526087D+03
 0.515664972526087D+03 0.000000000000000D+00 0.000000000000000D+00 -.515664972526087D+03
 0.194291587293918D+03 0.795023084086727D+02 0.135417686558383D+03 -.691042883912282D+02
 0.392771588389611D+03 -.353973657633453D+03 -.855620506097601D+02 0.147143827064359D+03
 0.835158286860348D+02 -.462828468080569D+02 -.368094464796064D+02 0.589733531548109D+02
 0.360750940682611D+03 0.320754196032837D+03 -.130461894690162D+02 -.137012891827942D+03
 0.000000000000000D+00 0.000000000000000D+00 0.000000000000000D+00 -.000000000000000D+00
 0.549702976470306D+03 0.000000000000000D+00 0.000000000000000D+00 0.549702976470306D+03
 0.600325247140204D+03 0.000000000000000D+00 0.000000000000000D+00 -.600325247140204D+03
 0.180184169234931D+03 0.666444991844140D+02 0.122205529961957D+03 -.691042883912282D+02
 0.425099159337370D+03 -.382055651890844D+03 -.114417954379787D+03 0.147143827064359D+03
 0.897113754836183D+02 -.522306880363142D+02 -.429212038052747D+02 0.589733531548109D+02
 0.341346712370735D+03 0.296647327904875D+03 -.378174169153753D+02 -.137012891827942D+03
 0.113686807183856D+03 0.709945128378689D+02 0.729510451384792D+02 -.506222706698978D+02
0.283969514178D-04 0.000000000000D+00 0.000000000000D+00 0.656274858003D-07 0.000000000000D+00  7 -1 1 23 -11 11 23 21 0 0.52725749D-01 0.11936742D+00 0.22024720D+06 0.22024720D+06 0.22024720D+06 0.10946233D+01  1  2  2  1  7  1       -1 0.290626132896D-03 0.100000000000D+01
-.156058593814D-05 0.000000000000D+00 -.109051770533D-06 0.656274858003D-07 0.000000000000D+00  7 -1 1 23 -11 11 23 21 2 0.52725749D-01 0.11936742D+00 0.22024720D+06 0.22024720D+06 0.22024720D+06 0.10946233D+01  1  2  3  1  7  1       -1 -.191372702062D-04 0.100000000000D+01
0.184267347117D-05 0.000000000000D+00 0.000000000000D+00 0.656274858003D-07 0.000000000000D+00  7 -1 1 23 -11 11 23 21 2 0.52725749D-01 0.11936742D+00 0.22024720D+06 0.22024720D+06 0.22024720D+06 0.10946233D+01  1  2 15  1  7  1       -1 0.225964743484D-04 0.100000000000D+01
-.969659692287D-05 0.000000000000D+00 0.000000000000D+00 0.656274858003D-07 0.000000000000D+00  7 -1 1 23 -11 11 23 21 2 0.52725749D-01 0.11936742D+00 0.22024720D+06 0.22024720D+06 0.22024720D+06 0.10946233D+01  1  2  4  1  7  1       -1 -.118908155494D-03 0.100000000000D+01
  </mgrwgt>
  </event>
  <event>
  9     66 0.58687835E-06 0.24040880E+03 0.75467711E-02 0.98777073E-01
       21 -1    0    0  502  501 0.00000000E+00 0.00000000E+00 0.12107132E+03 0.12107364E+03 0.75000000E+00 0.0000E+00 0.9000E+01
        1 -1    0    0  501    0 0.00000000E+00 0.00000000E+00 -.13801744E+04 0.13801744E+04 0.32000000E+00 0.0000E+00 0.9000E+01
       25  2    1    2    0    0 -.98285293E+02 -.97777163E+02 -.29746001E+03 0.44325437E+03 0.29794566E+03 0.0000E+00 0.0000E+00
       23  2    1    2    0    0 0.18378237E+03 -.66554557E+02 -.73992160E+03 0.76907300E+03 0.76051509E+02 0.0000E+00 0.0000E+00
       23  1    3    3    0    0 0.53507740E+02 -.99564924E+02 -.17759344E+03 0.22941433E+03 0.91188000E+02 0.0000E+00 0.9000E+01
      -13  1    4    4    0    0 0.17789525E+02 -.14286165E+02 -.21161611E+03 0.21284255E+03 0.10565837E+00 0.0000E+00 0.9000E+01
       13  1    4    4    0    0 0.16599284E+03 -.52268391E+02 -.52830549E+03 0.55623045E+03 0.10565837E+00 0.0000E+00 0.9000E+01
       23  1    3    3    0    0 -.15179303E+03 0.17877606E+01 -.11986656E+03 0.21384005E+03 0.91188000E+02 0.0000E+00 0.9000E+01
        1  1    1    2  502    0 -.85497072E+02 0.16433172E+03 -.22172149E+03 0.28892072E+03 0.32000000E+00 0.0000E+00 0.9000E+01
#aMCatNLO 2  0  0  1  2 0.18524218D+03 0.00000000D+00  -5  7  0 0.00000000D+00 0.00000000D+00 0.00000000D+00 0.00000000D+00 0.00000000D+00
  <mgrwgt>
 0.1147377907D-03    2    2    0
 0.299692507472093D+03 0.000000000000000D+00 0.000000000000000D+00 0.299692507472093D+03
 0.299692507472093D+03 0.000000000000000D+00 0.000000000000000D+00 -.299692507472093D+03
 0.121719208528437D+03 0.345938125212831D+02 -.632109520585600D+02 0.361657027566425D+02
 0.577916225394753D+02 0.948355275110802D+01 0.167805729710340D+01 -.569834887197140D+02
 0.172673443821676D+03 0.139930138346430D+03 -.217346881570171D+01 -.101148161707930D+03
 0.247200740054598D+03 -.184007503618821D+03 0.637063635771583D+02 0.121965947671001D+03
 0.000000000000000D+00 -.000000000000000D+00 0.000000000000000D+00 0.000000000000000D+00
 0.434167009802714D+03 0.000000000000000D+00 0.000000000000000D+00 0.434167009802714D+03
 0.384877697944399D+03 0.000000000000000D+00 0.000000000000000D+00 -.384877697944399D+03
 0.149664496191817D+03 0.535077391127090D+02 -.995649229172344D+02 0.361657027566425D+02
 0.613813286663198D+02 0.177892410130966D+02 -.142860920601456D+02 -.569834887197140D+02
 0.201287507513067D+03 0.165993125396062D+03 -.522684645381578D+02 -.101148161707930D+03
 0.215023870138205D+03 -.151793033133391D+03 0.178776007650671D+01 0.121965947671001D+03
 0.191687505237704D+03 -.854970723884761D+02 0.164331719439031D+03 0.492893118583148D+02
-.242088358668D-07 0.000000000000D+00 0.000000000000D+00 0.234549678942D-09 0.000000000000D+00  7 21 1 23 -13 13 23 1 2 0.19786075D-01 0.16533850D+00 0.12404523D+06 0.12404523D+06 0.12404523D+06 0.11141227D+01  1  2 13  3  7  1       -1 -.115523321244D-04 0.100000000000D+01
0.387105215532D-06 0.000000000000D+00 0.000000000000D+00 0.234549678942D-09 0.270484555195D-14  7 21 1 23 -13 13 23 1 2 0.18626532D-01 0.21233464D+00 0.12404523D+06 0.12404523D+06 0.12404523D+06 0.11141227D+01  1  2  1  3  7  1       -1 0.126290122820D-03 0.100000000000D+01
  </mgrwgt>
  </event>
  <event>
  8     66 0.58687835E-06 0.33591586E+03 0.75467711E-02 0.98334624E-01
       -1 -1    0    0    0  501 0.00000000E+00 0.00000000E+00 0.15463167E+03 0.15463201E+03 0.32000000E+00 0.0000E+00 0.9000E+01
        1 -1    0    0  501    0 0.00000000E+00 0.00000000E+00 -.15182331E+04 0.15182331E+04 0.32000000E+00 0.0000E+00 0.9000E+01
       25  2    1    2    0    0 0.27522214E+03 0.13030909E+02 -.16547668E+03 0.44011289E+03 0.30066558E+03 0.0000E+00 0.0000E+00
       23  2    1    2    0    0 -.27522214E+03 -.13030909E+02 -.11981247E+04 0.12327522E+04 0.90874510E+02 0.0000E+00 0.0000E+00
       23  1    3    3    0    0 0.22760425E+03 -.75547702E+02 -.48923015E+02 0.26118932E+03 0.91188000E+02 0.0000E+00 0.9000E+01
      -13  1    4    4    0    0 -.67741016E+02 0.17070555E+02 -.46575329E+03 0.47096325E+03 0.10565837E+00 0.0000E+00 0.9000E+01
       13  1    4    4    0    0 -.20748112E+03 -.30101464E+02 -.73237142E+03 0.76178896E+03 0.10565837E+00 0.0000E+00 0.9000E+01
       23  1    3    3    0    0 0.47617888E+02 0.88578611E+02 -.11655366E+03 0.17892356E+03 0.91188000E+02 0.0000E+00 0.9000E+01
#aMCatNLO 1  0  0  2  1 0.59636066D+02 0.00000000D+00  -5  7  0 0.00000000D+00 0.00000000D+00 0.00000000D+00 0.00000000D+00 0.00000000D+00
  <mgrwgt>
 0.2354754861D-03    4    2    0
 0.484527836755172D+03 0.000000000000000D+00 0.000000000000000D+00 0.484527836755172D+03
 0.484527836755172D+03 0.000000000000000D+00 0.000000000000000D+00 -.484527836755172D+03
 0.382045139907840D+03 0.227604249034955D+03 -.755477018433884D+02 0.283076117238135D+03
 0.157633866824965D+03 -.677408272888477D+02 0.170706185759063D+02 -.141308917870916D+03
 0.284511670735592D+03 -.207481310114427D+03 -.301015272732796D+02 -.192333810843998D+03
 0.144864996041947D+03 0.476178883683198D+02 0.885786105407618D+02 0.505666114767796D+02
 0.000000000000000D+00 -.000000000000000D+00 -.000000000000000D+00 0.000000000000000D+00
 0.590496490047228D+03 0.000000000000000D+00 0.000000000000000D+00 0.590496490047228D+03
 0.493908046756153D+03 0.000000000000000D+00 0.000000000000000D+00 -.493908046756153D+03
 0.396607742104701D+03 0.251526935759774D+03 -.747299283424583D+02 0.283076117238135D+03
 0.153801608746689D+03 -.581725414849868D+02 0.173977010089846D+02 -.141308917870916D+03
 0.272225600690890D+03 -.190376574949327D+03 -.295168187361764D+02 -.192333810843998D+03
 0.148254001316619D+03 0.566234338544910D+02 0.888864562499300D+02 0.505666114767796D+02
 0.113515583944481D+03 -.596012531799520D+02 -.203741018027984D+01 0.965884432910745D+02
0.233106643843D-04 0.000000000000D+00 0.000000000000D+00 0.820803150199D-06 0.000000000000D+00  7 -1 1 23 -13 13 23 21 0 0.23789516D-01 0.23357434D+00 0.11283946D+06 0.11283946D+06 0.11283946D+06 0.11174423D+01  1  2  2  2  7  2        1 0.273207922372D-03 0.100000000000D+01
-.108375072640D-05 0.000000000000D+00 -.895190890748D-07 0.820803150199D-06 0.000000000000D+00  7 -1 1 23 -13 13 23 21 2 0.23789516D-01 0.23357434D+00 0.11283946D+06 0.11283946D+06 0.11283946D+06 0.11174423D+01  1  2  3  2  7  2        1 -.158605494208D-04 0.100000000000D+01
0.144621824575D-05 0.000000000000D+00 0.000000000000D+00 0.820803150199D-06 0.000000000000D+00  7 -1 1 23 -13 13 23 21 2 0.23789516D-01 0.23357434D+00 0.11283946D+06 0.11283946D+06 0.11283946D+06 0.11174423D+01  1  2 15  2  7  2        1 0.211652139198D-04 0.100000000000D+01
-.294072342594D-05 0.000000000000D+00 0.000000000000D+00 0.820803150199D-06 0.000000000000D+00  7 -1 1 23 -13 13 23 21 2 0.23789516D-01 0.23357434D+00 0.11283946D+06 0.11283946D+06 0.11283946D+06 0.11174423D+01  1  2  4  2  7  2        1 -.430371007777D-04 0.100000000000D+01
  </mgrwgt>
  </event>
  <event>
  8     66 0.58687835E-06 0.22709517E+03 0.75467711E-02 0.96353024E-01
       -1 -1    0    0    0  501 0.00000000E+00 0.00000000E+00 0.54215217E+03 0.54215227E+03 0.32000000E+00 0.0000E+00 0.9000E+01
        1 -1    0    0  501    0 0.00000000E+00 0.00000000E+00 -.32551454E+03 0.32551469E+03 0.32000000E+00 0.0000E+00 0.9000E+01
       25  2    1    2    0    0 0.32368281E+03 -.13024349E+03 0.21252206E+03 0.50696689E+03 0.30019305E+03 0.0000E+00 0.0000E+00
       23  2    1    2    0    0 -.32368281E+03 0.13024349E+03 0.41155762E+01 0.36070007E+03 0.91398445E+02 0.0000E+00 0.0000E+00
       23  1    3    3    0    0 0.10870585E+03 0.30531288E+02 -.11555528E+02 0.14559500E+03 0.91188000E+02 0.0000E+00 0.9000E+01
      -13  1    4    4    0    0 -.22991753E+03 0.10539689E+03 0.42331311E+02 0.25644205E+03 0.10565837E+00 0.0000E+00 0.9000E+01
       13  1    4    4    0    0 -.93765286E+02 0.24846606E+02 -.38215735E+02 0.10425803E+03 0.10565837E+00 0.0000E+00 0.9000E+01
       23  1    3    3    0    0 0.21497696E+03 -.16077478E+03 0.22407759E+03 0.36137189E+03 0.91188000E+02 0.0000E+00 0.9000E+01
#aMCatNLO 1  0  0  2  1 0.77741489D+02 0.00000000D+00  -5  7  0 0.00000000D+00 0.00000000D+00 0.00000000D+00 0.00000000D+00 0.00000000D+00
  <mgrwgt>
 0.1711502836D-03    9    2    0
 0.420093468526568D+03 0.000000000000000D+00 0.000000000000000D+00 0.420093468526568D+03
 0.420093468526568D+03 0.000000000000000D+00 0.000000000000000D+00 -.420093468526568D+03
 0.153336509800591D+03 0.108705853296597D+03 0.305312883524489D+02 -.494743548156517D+02
 0.253914790717768D+03 -.229917708019718D+03 0.105396995971955D+03 -.224062876062833D+02
 0.117521535344242D+03 -.937651037389840D+02 0.248464981489316D+02 -.663480830184306D+02
 0.315414101190536D+03 0.214976958462105D+03 -.160774782473335D+03 0.138228725440366D+03
 0.000000000000000D+00 -.000000000000000D+00 0.000000000000000D+00 -.000000000000000D+00
 0.431206175949685D+03 0.000000000000000D+00 0.000000000000000D+00 0.431206175949685D+03
 0.584036600655880D+03 0.000000000000000D+00 0.000000000000000D+00 -.584036600655880D+03
 0.151702090519856D+03 0.109450196791682D+03 0.164686235591041D+02 -.494743548156517D+02
 0.244136335500147D+03 -.228702382760452D+03 0.824362099252290D+02 -.224062876062833D+02
 0.115269163783146D+03 -.931970568018755D+02 0.141145528626701D+02 -.663480830184306D+02
 0.332668345080583D+03 0.216558384395263D+03 -.190652201891034D+03 0.138228725440366D+03
 0.171466841721834D+03 -.410914162461756D+01 0.776328155440304D+02 -.152830424706194D+03
0.973142424550D-05 0.000000000000D+00 0.000000000000D+00 0.136927529672D-05 0.000000000000D+00  7 -1 1 23 -13 13 23 21 0 0.83408046D-01 0.50079179D-01 0.15154394D+06 0.15154394D+06 0.15154394D+06 0.11072011D+01  1  2  2  2  7  2        1 0.141507993567D-03 0.100000000000D+01
-.536821743507D-06 0.000000000000D+00 -.373712314456D-07 0.136927529672D-05 0.000000000000D+00  7 -1 1 23 -13 13 23 21 2 0.83408046D-01 0.50079179D-01 0.15154394D+06 0.15154394D+06 0.15154394D+06 0.11072011D+01  1  2  3  2  7  2        1 -.956946574666D-05 0.100000000000D+01
0.630126923429D-06 0.000000000000D+00 0.000000000000D+00 0.136927529672D-05 0.000000000000D+00  7 -1 1 23 -13 13 23 21 2 0.83408046D-01 0.50079179D-01 0.15154394D+06 0.15154394D+06 0.15154394D+06 0.11072011D+01  1  2 15  2  7  2        1 0.112327380229D-04 0.100000000000D+01
0.320322910199D-04 0.000000000000D+00 0.000000000000D+00 0.136927529672D-05 0.000000000000D+00  7 -1 1 23 -13 13 23 21 2 0.83408046D-01 0.70090382D-01 0.18537575D+06 0.18537575D+06 0.18537575D+06 0.11003671D+01  1  2 12  2  7  2        1 0.356782991834D-03 0.100000000000D+01
-.316563603142D-04 0.000000000000D+00 0.000000000000D+00 0.136927529672D-05 0.000000000000D+00  7 -1 1 23 -13 13 23 21 2 0.83408046D-01 0.50079179D-01 0.15154394D+06 0.15154394D+06 0.15154394D+06 0.11072011D+01  1  2  4  2  7  2        1 -.564311075985D-03 0.100000000000D+01
-.374085700199D-04 0.000000000000D+00 -.459371845850D-05 0.136927529672D-05 0.000000000000D+00  7 -1 1 23 -13 13 23 21 2 0.83408046D-01 0.70674440D-01 0.15154394D+06 0.15154394D+06 0.15154394D+06 0.11072011D+01  1  2  5  2  7  2        1 -.419745354002D-03 0.100000000000D+01
0.370317028705D-04 0.000000000000D+00 0.433401628795D-05 0.136927529672D-05 0.000000000000D+00  7 -1 1 23 -13 13 23 21 2 0.83408046D-01 0.50079179D-01 0.15154394D+06 0.15154394D+06 0.15154394D+06 0.11072011D+01  1  2  6  2  7  2        1 0.660132746942D-03 0.100000000000D+01
0.134414424068D-05 0.000000000000D+00 0.000000000000D+00 0.136927529672D-05 0.000000000000D+00  7 -1 21 23 -13 13 23 -1 2 0.83408046D-01 0.70090382D-01 0.18537575D+06 0.18537575D+06 0.18537575D+06 0.11003671D+01  1  2 12  4  7  2        1 0.483925072752D-04 0.100000000000D+01
-.147064835483D-05 0.000000000000D+00 -.196179807678D-06 0.136927529672D-05 0.000000000000D+00  7 -1 21 23 -13 13 23 -1 2 0.83408046D-01 0.70674440D-01 0.15154394D+06 0.15154394D+06 0.15154394D+06 0.11072011D+01  1  2  5  4  7  2        1 -.532727983498D-04 0.100000000000D+01
  </mgrwgt>
  </event>
  <event>
  8     66 0.58687835E-06 0.36780768E+03 0.75467711E-02 0.83091604E-01
       -1 -1    0    0    0  501 0.00000000E+00 0.00000000E+00 0.61149363E+03 0.61149371E+03 0.32000000E+00 0.0000E+00 0.9000E+01
        1 -1    0    0  501    0 0.00000000E+00 0.00000000E+00 -.88614969E+03 0.88614975E+03 0.32000000E+00 0.0000E+00 0.9000E+01
       25  2    1    2    0    0 0.28723371E+03 0.98385480E+02 -.78896313E+03 0.89704668E+03 0.30007836E+03 0.0000E+00 0.0000E+00
       23  2    1    2    0    0 -.28723371E+03 -.98385480E+02 0.51430707E+03 0.60059677E+03 0.63417798E+02 0.0000E+00 0.0000E+00
       23  1    3    3    0    0 -.17598364E+02 0.45725848E+02 -.21694234E+03 0.24037426E+03 0.91188000E+02 0.0000E+00 0.9000E+01
      -11  1    4    4    0    0 -.23809392E+03 -.55751133E+02 0.42061972E+03 0.48653659E+03 0.51099893E-03 0.0000E+00 0.9000E+01
       11  1    4    4    0    0 -.49139797E+02 -.42634347E+02 0.93687344E+02 0.11406018E+03 0.51099893E-03 0.0000E+00 0.9000E+01
       23  1    3    3    0    0 0.30483208E+03 0.52659632E+02 -.57202080E+03 0.65667242E+03 0.91188000E+02 0.0000E+00 0.9000E+01
#aMCatNLO 1  0  0  2  2 0.15204447D+04 0.00000000D+00  -5  7  0 0.00000000D+00 0.00000000D+00 0.00000000D+00 0.00000000D+00 0.00000000D+00
  <mgrwgt>
 0.5707352231D-03    5    2    0
 0.736121588422383D+03 0.000000000000000D+00 0.000000000000000D+00 0.736121588422383D+03
 0.736121588422383D+03 0.000000000000000D+00 0.000000000000000D+00 -.736121588422383D+03
 0.204049447491687D+03 -.175983638987825D+02 0.457258479305301D+02 -.175841889482520D+03
 0.573399906117025D+03 -.238093916566599D+03 -.557511326038152D+02 0.518642989389023D+03
 0.133505991211997D+03 -.491397967214473D+02 -.426343469115211D+02 0.116582342278326D+03
 0.561287832024057D+03 0.304832077186828D+03 0.526596315848063D+02 -.459383442184829D+03
 0.000000000000000D+00 0.000000000000000D+00 0.000000000000000D+00 -.000000000000000D+00
 0.162078424189590D+04 0.000000000000000D+00 0.000000000000000D+00 0.162078424189590D+04
 0.208552589721410D+04 0.000000000000000D+00 0.000000000000000D+00 -.208552589721410D+04
 0.256406302902499D+03 -.909449138186164D+02 -.135046634085674D+03 -.175841889482520D+03
 0.970090822238855D+03 -.483958409867506D+03 -.661717394714837D+03 0.518642989389023D+03
 0.251801432471080D+03 -.110515879355793D+03 -.193903994991343D+03 0.116582342278326D+03
 0.638125786818556D+03 0.113776040219852D+03 -.418223784805586D+03 -.459383442184829D+03
 0.158988579467900D+04 0.571643162822064D+03 0.140889180859744D+04 -.464741655318202D+03
0.199155734960D-03 0.000000000000D+00 0.000000000000D+00 0.106112717233D-07 0.000000000000D+00  7 -1 1 23 -11 11 23 21 0 0.94075953D-01 0.13633073D+00 0.13528249D+06 0.13528249D+06 0.13528249D+06 0.11111087D+01  1  2  2  2  7  2        1 0.536999301207D-03 0.100000000000D+01
-.458809555490D-05 0.000000000000D+00 -.764810461154D-06 0.106112717233D-07 0.000000000000D+00  7 -1 1 23 -11 11 23 21 2 0.94075953D-01 0.13633073D+00 0.13528249D+06 0.13528249D+06 0.13528249D+06 0.11111087D+01  1  2  3  2  7  2        1 -.152730727402D-04 0.100000000000D+01
0.125090161302D-04 0.000000000000D+00 0.000000000000D+00 0.106112717233D-07 0.000000000000D+00  7 -1 1 23 -11 11 23 21 2 0.94075953D-01 0.13633073D+00 0.13528249D+06 0.13528249D+06 0.13528249D+06 0.11111087D+01  1  2 15  2  7  2        1 0.416406134045D-04 0.100000000000D+01
0.142532207813D-03 0.000000000000D+00 -.658039802742D-04 0.106112717233D-07 0.000000000000D+00  7 -1 1 23 -11 11 23 21 2 0.94075953D-01 0.53358857D+00 0.13528249D+06 0.13528249D+06 0.13528249D+06 0.11111087D+01  1  2  5  2  7  2        1 0.719469812718D-05 0.100000000000D+01
0.241450948252D-04 0.000000000000D+00 -.106849170494D-04 0.106112717233D-07 0.000000000000D+00  7 -1 21 23 -11 11 23 -1 2 0.94075953D-01 0.53358857D+00 0.13528249D+06 0.13528249D+06 0.13528249D+06 0.11111087D+01  1  2  5  4  7  2        1 0.173683070189D-06 0.100000000000D+01
  </mgrwgt>
  </event>
  <event>
  8     66 0.58687835E-06 0.22661627E+03 0.75467711E-02 0.91092279E-01
       -1 -1    0    0    0  501 0.00000000E+00 0.00000000E+00 0.24705249E+03 0.24705270E+03 0.32000000E+00 0.0000E+00 0.9000E+01
        1 -1    0    0  501    0 0.00000000E+00 0.00000000E+00 -.50275676E+03 0.50275686E+03 0.32000000E+00 0.0000E+00 0.9000E+01
       25  2    1    2    0    0 -.10094709E+02 0.14746594E+03 -.40272916E+03 0.52372276E+03 0.30041080E+03 0.0000E+00 0.0000E+00
       23  2    1    2    0    0 0.10094709E+02 -.14746594E+03 0.14702489E+03 0.22608680E+03 0.87468941E+02 0.0000E+00 0.0000E+00
       23  1    3    3    0    0 0.17491336E+01 0.16811054E+03 -.38203353E+03 0.42723423E+03 0.91188000E+02 0.0000E+00 0.9000E+01
      -11  1    4    4    0    0 0.35559607E+02 -.27119183E+02 0.19144606E+02 0.48646189E+02 0.51099893E-03 0.0000E+00 0.9000E+01
       11  1    4    4    0    0 -.25464899E+02 -.12034676E+03 0.12788029E+03 0.17744061E+03 0.51099893E-03 0.0000E+00 0.9000E+01
       23  1    3    3    0    0 -.11843842E+02 -.20644605E+02 -.20695624E+02 0.96488530E+02 0.91188000E+02 0.0000E+00 0.9000E+01
#aMCatNLO 1  0  0  2  2 0.61678911D+03 0.00000000D+00  -5  7  0 0.00000000D+00 0.00000000D+00 0.00000000D+00 0.00000000D+00 0.00000000D+00
  <mgrwgt>
 0.1659673219D-03    5    2    0
 0.352430739629645D+03 0.000000000000000D+00 0.000000000000000D+00 0.352430739629645D+03
 0.352430739629645D+03 0.000000000000000D+00 0.000000000000000D+00 -.352430739629645D+03
 0.315887180709915D+03 0.174913362366914D+01 0.168110542598564D+03 -.251406534504657D+03
 0.586934255692378D+02 0.355596070780339D+02 -.271191829534541D+02 0.380129249788093D+02
 0.235147197600972D+03 -.254648985616223D+02 -.120346755075336D+03 0.200405593793372D+03
 0.951336753791658D+02 -.118438421400808D+02 -.206446045697739D+02 0.129880157324752D+02
 0.000000000000000D+00 -.000000000000000D+00 0.000000000000000D+00 -.000000000000000D+00
 0.770149860681562D+03 0.000000000000000D+00 0.000000000000000D+00 0.770149860681562D+03
 0.783402408807101D+03 0.000000000000000D+00 0.000000000000000D+00 -.783402408807101D+03
 0.413697033057701D+03 0.275526908648581D+03 0.153979416922068D+03 -.251406534504657D+03
 0.110290203470765D+03 0.989710147005990D+02 -.303921826348799D+02 0.380129249788093D+02
 0.295638798949053D+03 0.173713491551041D+03 -.130627410115608D+03 0.200405593793372D+03
 0.116994761292650D+03 0.677577313528742D+02 -.247532647375814D+02 0.129880157324752D+02
 0.616931472718495D+03 -.615969146253095D+03 0.317934405660012D+02 -.132525481255393D+02
0.422999681768D-05 0.000000000000D+00 0.000000000000D+00 0.541664333723D-07 0.000000000000D+00  7 -1 1 23 -11 11 23 21 0 0.38008100D-01 0.77347217D-01 0.51354934D+05 0.51354934D+05 0.51354934D+05 0.11462754D+01  1  2  2  2  7  2        1 0.150105435285D-03 0.100000000000D+01
-.179281345248D-06 0.000000000000D+00 -.162443015636D-07 0.541664333723D-07 0.000000000000D+00  7 -1 1 23 -11 11 23 21 2 0.38008100D-01 0.77347217D-01 0.51354934D+05 0.51354934D+05 0.51354934D+05 0.11462754D+01  1  2  3  2  7  2        1 -.835929042081D-05 0.100000000000D+01
0.267557473355D-06 0.000000000000D+00 0.000000000000D+00 0.541664333723D-07 0.000000000000D+00  7 -1 1 23 -11 11 23 21 2 0.38008100D-01 0.77347217D-01 0.51354934D+05 0.51354934D+05 0.51354934D+05 0.11462754D+01  1  2 15  2  7  2        1 0.124753114772D-04 0.100000000000D+01
0.264600916764D-05 0.000000000000D+00 -.147130100126D-05 0.541664333723D-07 0.000000000000D+00  7 -1 1 23 -11 11 23 21 2 0.38008100D-01 0.29435736D+00 0.51354934D+05 0.51354934D+05 0.51354934D+05 0.11462754D+01  1  2  5  2  7  2        1 0.106769622877D-04 0.100000000000D+01
0.448080420539D-06 0.000000000000D+00 -.233071842689D-06 0.541664333723D-07 0.000000000000D+00  7 -1 21 23 -11 11 23 -1 2 0.38008100D-01 0.29435736D+00 0.51354934D+05 0.51354934D+05 0.51354934D+05 0.11462754D+01  1  2  5  4  7  2        1 0.106890325351D-05 0.100000000000D+01
  </mgrwgt>
  </event>
  <event>
  8     66 0.58687835E-06 0.24985982E+03 0.75467711E-02 0.10072062E+00
       -1 -1    0    0    0  501 0.00000000E+00 0.00000000E+00 0.65185225E+02 0.65186010E+02 0.32000000E+00 0.0000E+00 0.9000E+01
        1 -1    0    0  501    0 0.00000000E+00 0.00000000E+00 -.24502817E+04 0.24502817E+04 0.32000000E+00 0.0000E+00 0.9000E+01
       25  2    1    2    0    0 0.11706238E+03 0.18078431E+03 -.56854805E+03 0.68404886E+03 0.31351139E+03 0.0000E+00 0.0000E+00
       23  2    1    2    0    0 -.11706238E+03 -.18078431E+03 -.18165484E+04 0.18314189E+04 0.88658490E+02 0.0000E+00 0.0000E+00
       23  1    3    3    0    0 -.67218490E+02 0.73039422E+02 -.12696759E+03 0.18517317E+03 0.91188000E+02 0.0000E+00 0.9000E+01
      -13  1    4    4    0    0 -.94527874E+02 -.18454996E+03 -.17044361E+04 0.17170022E+04 0.10565837E+00 0.0000E+00 0.9000E+01
       13  1    4    4    0    0 -.22534510E+02 0.37656537E+01 -.11211236E+03 0.11441668E+03 0.10565837E+00 0.0000E+00 0.9000E+01
       23  1    3    3    0    0 0.18428087E+03 0.10774489E+03 -.44158046E+03 0.49887569E+03 0.91188000E+02 0.0000E+00 0.9000E+01
#aMCatNLO 1  0  0  2  1 0.69690217D+01 0.00000000D+00  -5  7  0 0.00000000D+00 0.00000000D+00 0.00000000D+00 0.00000000D+00 0.00000000D+00
  <mgrwgt>
 0.5278649207D-03   11    2    0
 0.399653823984478D+03 0.000000000000000D+00 0.000000000000000D+00 0.399653823984478D+03
 0.399653823984478D+03 0.000000000000000D+00 0.000000000000000D+00 -.399653823984478D+03
 0.203885429791285D+03 -.672184902252065D+02 0.730394215619060D+02 0.152973640235574D+03
 0.317549176014099D+03 -.945279760039494D+02 -.184550232335617D+03 -.240506034611816D+03
 0.255375278179005D+02 -.225344079191547D+02 0.376592099828684D+01 -.114098039342418D+02
 0.252335514345672D+03 0.184280874148311D+03 0.107744889775425D+03 0.989421983104835D+02
 0.000000000000000D+00 0.000000000000000D+00 -.000000000000000D+00 -.000000000000000D+00
 0.401152235320459D+03 0.000000000000000D+00 0.000000000000000D+00 0.401152235320459D+03
 0.407855126753141D+03 0.000000000000000D+00 0.000000000000000D+00 -.407855126753141D+03
 0.204685288251140D+03 -.677943929588702D+02 0.747248389684961D+02 0.152973640235574D+03
 0.316305109799164D+03 -.954214282261090D+02 -.181935485366794D+03 -.240506034611816D+03
 0.256330972211564D+02 -.226065357088908D+02 0.397700774126280D+01 -.114098039342418D+02
 0.252714532952645D+03 0.183568978532615D+03 0.109828299337897D+03 0.989421983104835D+02
 0.966933384949554D+01 0.225337836125505D+01 -.659466068086186D+01 -.670289143268204D+01
0.990685558824D-05 0.000000000000D+00 0.000000000000D+00 0.518476451576D-09 0.000000000000D+00  7 -1 1 23 -13 13 23 21 0 0.10028558D-01 0.37696648D+00 0.89136922D+05 0.89136922D+05 0.89136922D+05 0.11258436D+01  1  2  2  2  7  2        1 0.110747134397D-03 0.100000000000D+01
-.493466492225D-06 0.000000000000D+00 -.380449339938D-07 0.518476451576D-09 0.000000000000D+00  7 -1 1 23 -13 13 23 21 2 0.10028558D-01 0.37696648D+00 0.89136922D+05 0.89136922D+05 0.89136922D+05 0.11258436D+01  1  2  3  2  7  2        1 -.699214526569D-05 0.100000000000D+01
0.631944485231D-06 0.000000000000D+00 0.000000000000D+00 0.518476451576D-09 0.000000000000D+00  7 -1 1 23 -13 13 23 21 2 0.10028558D-01 0.37696648D+00 0.89136922D+05 0.89136922D+05 0.89136922D+05 0.11258436D+01  1  2 15  2  7  2        1 0.895430127518D-05 0.100000000000D+01
0.116202089692D-04 0.000000000000D+00 0.000000000000D+00 0.518476451576D-09 0.000000000000D+00  7 -1 1 23 -13 13 23 21 2 0.10028558D-01 0.38540014D+00 0.91173935D+05 0.91173935D+05 0.91173935D+05 0.11250301D+01  1  2 12  2  7  2        1 0.150741675488D-03 0.100000000000D+01
-.181895574827D-04 0.000000000000D+00 0.000000000000D+00 0.518476451576D-09 0.000000000000D+00  7 -1 1 23 -13 13 23 21 2 0.10028558D-01 0.37696648D+00 0.89136922D+05 0.89136922D+05 0.89136922D+05 0.11258436D+01  1  2  4  2  7  2        1 -.257735895429D-03 0.100000000000D+01
-.379810155579D-03 0.000000000000D+00 -.395218867286D-04 0.518476451576D-09 0.000000000000D+00  7 -1 1 23 -13 13 23 21 2 0.10028558D-01 0.38518728D+00 0.89136922D+05 0.89136922D+05 0.89136922D+05 0.11258436D+01  1  2  5  2  7  2        1 -.494938331288D-02 0.100000000000D+01
0.380583404635D-03 0.000000000000D+00 0.395126915452D-04 0.518476451576D-09 0.000000000000D+00  7 -1 1 23 -13 13 23 21 2 0.10028558D-01 0.37696648D+00 0.89136922D+05 0.89136922D+05 0.89136922D+05 0.11258436D+01  1  2  6  2  7  2        1 0.539265480604D-02 0.100000000000D+01
0.640998910436D-05 0.000000000000D+00 0.000000000000D+00 0.518476451576D-09 0.720839834160D-10  7 -1 1 23 -13 13 23 21 2 0.10066158D-01 0.38470222D+00 0.91173935D+05 0.91173935D+05 0.91173935D+05 0.11250301D+01  1  2 11  2  7  2        1 0.832689013313D-04 0.100000000000D+01
0.526474356969D-06 0.000000000000D+00 0.000000000000D+00 0.518476451576D-09 0.000000000000D+00  7 -1 21 23 -13 13 23 -1 2 0.10028558D-01 0.38540014D+00 0.91173935D+05 0.91173935D+05 0.91173935D+05 0.11250301D+01  1  2 12  4  7  2        1 0.246083232933D-05 0.100000000000D+01
-.148109301312D-05 0.000000000000D+00 -.154816576341D-06 0.518476451576D-09 0.000000000000D+00  7 -1 21 23 -13 13 23 -1 2 0.10028558D-01 0.38518728D+00 0.89136922D+05 0.89136922D+05 0.89136922D+05 0.11258436D+01  1  2  5  4  7  2        1 -.697108145081D-05 0.100000000000D+01
0.254822406056D-07 0.000000000000D+00 0.000000000000D+00 0.518476451576D-09 0.265565261888D-12  7 -1 21 23 -13 13 23 -1 2 0.10066158D-01 0.38470222D+00 0.91173935D+05 0.91173935D+05 0.91173935D+05 0.11250301D+01  1  2 11  4  7  2        1 0.119704902552D-06 0.100000000000D+01
  </mgrwgt>
  </event>
  <event>
  8     66 0.58687835E-06 0.22379503E+03 0.75467711E-02 0.93726897E-01
       -1 -1    0    0    0  501 0.00000000E+00 0.00000000E+00 0.45250532E+03 0.45250543E+03 0.32000000E+00 0.0000E+00 0.9000E+01
        1 -1    0    0  501    0 0.00000000E+00 0.00000000E+00 -.61723094E+03 0.61723102E+03 0.32000000E+00 0.0000E+00 0.9000E+01
       25  2    1    2    0    0 0.38592918E+03 -.56124430E+02 0.19701168E+03 0.53026910E+03 0.30046703E+03 0.0000E+00 0.0000E+00
       23  2    1    2    0    0 -.38592918E+03 0.56124430E+02 -.36173730E+03 0.53946735E+03 0.89888099E+02 0.0000E+00 0.0000E+00
       23  1    3    3    0    0 0.11511404E+03 -.66348628E+01 0.18992834E+03 0.24017346E+03 0.91188000E+02 0.0000E+00 0.9000E+01
      -13  1    4    4    0    0 -.14268356E+03 -.68743965E+01 -.87479404E+02 0.16750676E+03 0.10565837E+00 0.0000E+00 0.9000E+01
       13  1    4    4    0    0 -.24324562E+03 0.62998826E+02 -.27425789E+03 0.37196060E+03 0.10565837E+00 0.0000E+00 0.9000E+01
       23  1    3    3    0    0 0.27081514E+03 -.49489567E+02 0.70833344E+01 0.29009564E+03 0.91188000E+02 0.0000E+00 0.9000E+01
#aMCatNLO 1  0  0  2  1 0.22938646D+03 0.00000000D+00  -5  7  0 0.00000000D+00 0.00000000D+00 0.00000000D+00 0.00000000D+00 0.00000000D+00
  <mgrwgt>
 0.3662230111D-03    8    2    0
 0.528488778128712D+03 0.000000000000000D+00 0.000000000000000D+00 0.528488778128712D+03
 0.528488778128712D+03 0.000000000000000D+00 0.000000000000000D+00 -.528488778128712D+03
 0.272672174759981D+03 0.115114041812957D+03 -.663486280063371D+01 0.229651038572525D+03
 0.155895199612774D+03 -.142683425035263D+03 -.687449300457618D+01 -.624299193371515D+02
 0.333708852917332D+03 -.243245755332710D+03 0.629989225343945D+02 -.219600174834918D+03
 0.294701328967337D+03 0.270815138555015D+03 -.494895667291846D+02 0.523790555995445D+02
 0.000000000000000D+00 0.000000000000000D+00 -.000000000000000D+00 -.000000000000000D+00
 0.568859943333350D+03 0.000000000000000D+00 0.000000000000000D+00 0.568859943333350D+03
 0.100944227090042D+04 0.000000000000000D+00 0.000000000000000D+00 -.100944227090042D+04
 0.254474534880448D+03 0.603780620139771D+02 0.754504265178836D+01 0.229651038572525D+03
 0.189125789214276D+03 -.178508483845823D+03 0.240634838397362D+01 -.624299193371515D+02
 0.396008198561062D+03 -.319015511755807D+03 0.826278391296282D+02 -.219600174834918D+03
 0.241973513956956D+03 0.215089810437228D+03 -.350533606556405D+02 0.523790555995445D+02
 0.496720177621032D+03 0.222056123150425D+03 -.575258695097496D+02 -.440582327567074D+03
0.175205800099D-04 0.000000000000D+00 0.000000000000D+00 0.716048828588D-06 0.000000000000D+00  7 -1 1 23 -13 13 23 21 0 0.69616218D-01 0.94958621D-01 0.17269624D+06 0.17269624D+06 0.17269624D+06 0.11027551D+01  1  2  2  2  7  2        1 0.151198103828D-03 0.100000000000D+01
-.904983411951D-06 0.000000000000D+00 -.672836405129D-07 0.716048828588D-06 0.000000000000D+00  7 -1 1 23 -13 13 23 21 2 0.69616218D-01 0.94958621D-01 0.17269624D+06 0.17269624D+06 0.17269624D+06 0.11027551D+01  1  2  3  2  7  2        1 -.949722380265D-05 0.100000000000D+01
0.112428094604D-05 0.000000000000D+00 0.000000000000D+00 0.716048828588D-06 0.000000000000D+00  7 -1 1 23 -13 13 23 21 2 0.69616218D-01 0.94958621D-01 0.17269624D+06 0.17269624D+06 0.17269624D+06 0.11027551D+01  1  2 15  2  7  2        1 0.117986115774D-04 0.100000000000D+01
0.141148423108D-04 0.000000000000D+00 0.000000000000D+00 0.716048828588D-06 0.000000000000D+00  7 -1 1 23 -13 13 23 21 2 0.69616218D-01 0.18194244D+00 0.29339297D+06 0.29339297D+06 0.29339297D+06 0.10852681D+01  1  2 12  2  7  2        1 0.478586523880D-04 0.100000000000D+01
-.249473640539D-04 0.000000000000D+00 -.545069177154D-05 0.716048828588D-06 0.000000000000D+00  7 -1 1 23 -13 13 23 21 2 0.69616218D-01 0.18706372D+00 0.17269624D+06 0.17269624D+06 0.17269624D+06 0.11027551D+01  1  2  5  2  7  2        1 -.848839105887D-04 0.100000000000D+01
0.239699117999D-04 0.000000000000D+00 0.440001810619D-05 0.716048828588D-06 0.000000000000D+00  7 -1 1 23 -13 13 23 21 2 0.69616218D-01 0.94958621D-01 0.17269624D+06 0.17269624D+06 0.17269624D+06 0.11027551D+01  1  2  6  2  7  2        1 0.251548938784D-03 0.100000000000D+01
0.996306653908D-06 0.000000000000D+00 0.000000000000D+00 0.716048828588D-06 0.000000000000D+00  7 -1 21 23 -13 13 23 -1 2 0.69616218D-01 0.18194244D+00 0.29339297D+06 0.29339297D+06 0.29339297D+06 0.10852681D+01  1  2 12  4  7  2        1 0.361725123910D-05 0.100000000000D+01
-.150880726847D-05 0.000000000000D+00 -.400199054647D-06 0.716048828588D-06 0.000000000000D+00  7 -1 21 23 -13 13 23 -1 2 0.69616218D-01 0.18706372D+00 0.17269624D+06 0.17269624D+06 0.17269624D+06 0.11027551D+01  1  2  5  4  7  2        1 -.541741231408D-05 0.100000000000D+01
  </mgrwgt>
  </event>
  <event>
  8     66 0.58687835E-06 0.14046567E+03 0.75467711E-02 0.10446055E+00
       -1 -1    0    0    0  501 0.00000000E+00 0.00000000E+00 0.39584261E+03 0.39584273E+03 0.32000000E+00 0.0000E+00 0.9000E+01
        1 -1    0    0  501    0 0.00000000E+00 0.00000000E+00 -.62772974E+03 0.62772982E+03 0.32000000E+00 0.0000E+00 0.9000E+01
       25  2    1    2    0    0 -.83546484E+02 -.60746727E+02 -.57181188E+03 0.65663939E+03 0.30583703E+03 0.0000E+00 0.0000E+00
       23  2    1    2    0    0 0.83546484E+02 0.60746727E+02 0.33992475E+03 0.36693316E+03 0.91765615E+02 0.0000E+00 0.0000E+00
       23  1    3    3    0    0 -.93913025E+02 -.14646456E+03 -.32603456E+03 0.38063803E+03 0.91188000E+02 0.0000E+00 0.9000E+01
      -11  1    4    4    0    0 -.10398588E+02 0.26439172E+02 0.14598489E+03 0.14872373E+03 0.51099893E-03 0.0000E+00 0.9000E+01
       11  1    4    4    0    0 0.93945073E+02 0.34307555E+02 0.19393986E+03 0.21820943E+03 0.51099893E-03 0.0000E+00 0.9000E+01
       23  1    3    3    0    0 0.10366540E+02 0.85717831E+02 -.24577732E+03 0.27600136E+03 0.91188000E+02 0.0000E+00 0.9000E+01
#aMCatNLO 1  0  0  1  2 0.74685712D+01 0.00000000D+00  -5  7  0 0.00000000D+00 0.00000000D+00 0.00000000D+00 0.00000000D+00 0.00000000D+00
  <mgrwgt>
 0.1613126081D-03    8    2    0
 0.498479971397195D+03 0.000000000000000D+00 0.000000000000000D+00 0.498479971397195D+03
 0.498479971397195D+03 0.000000000000000D+00 0.000000000000000D+00 -.498479971397195D+03
 0.314964932522456D+03 -.939130246295827D+02 -.146464557340041D+03 -.246203441533591D+03
 0.186648965488679D+03 -.103985883205606D+02 0.264391721499540D+02 0.184474051982816D+03
 0.269143553838803D+03 0.939450728075572D+02 0.343075545840122D+02 0.249871101903818D+03
 0.226202490944452D+03 0.103665401425861D+02 0.857178306060752D+02 -.188141712353043D+03
 0.000000000000000D+00 0.000000000000000D+00 0.000000000000000D+00 -.000000000000000D+00
 0.501334565731272D+03 0.000000000000000D+00 0.000000000000000D+00 0.501334565731272D+03
 0.503403081338786D+03 0.000000000000000D+00 0.000000000000000D+00 -.503403081338786D+03
 0.316241944112291D+03 -.946951234049321D+02 -.148695712286071D+03 -.246203441533591D+03
 0.186493057923103D+03 -.108609310648249D+02 0.251202104878989D+02 0.184474051982816D+03
 0.268675756547278D+03 0.932786861765135D+02 0.324065008109041D+02 0.249871101903818D+03
 0.225577158642229D+03 0.980676121154319D+01 0.841209050385576D+02 -.188141712353043D+03
 0.774972984515616D+01 0.247060708170024D+01 0.704809594871039D+01 -.206851560751397D+01
0.992166934982D-05 0.000000000000D+00 0.000000000000D+00 0.162658126471D-07 0.000000000000D+00  7 -1 1 23 -11 11 23 21 0 0.60898879D-01 0.96573822D-01 0.50723793D+05 0.50723793D+05 0.50723793D+05 0.11467468D+01  1  2  2  1  7  1       -1 0.111904945287D-03 0.100000000000D+01
-.128176280297D-06 0.000000000000D+00 -.381018227388D-07 0.162658126471D-07 0.000000000000D+00  7 -1 1 23 -11 11 23 21 2 0.60898879D-01 0.96573822D-01 0.50723793D+05 0.50723793D+05 0.50723793D+05 0.11467468D+01  1  2  3  1  7  1       -1 -.190111000756D-05 0.100000000000D+01
0.617301974640D-06 0.000000000000D+00 0.000000000000D+00 0.162658126471D-07 0.000000000000D+00  7 -1 1 23 -11 11 23 21 2 0.60898879D-01 0.96573822D-01 0.50723793D+05 0.50723793D+05 0.50723793D+05 0.11467468D+01  1  2 15  1  7  1       -1 0.915582008585D-05 0.100000000000D+01
0.307031840029D-05 0.000000000000D+00 0.000000000000D+00 0.162658126471D-07 0.000000000000D+00  7 -1 1 23 -11 11 23 21 2 0.61546022D-01 0.96573822D-01 0.52100312D+05 0.52100312D+05 0.52100312D+05 0.11457268D+01  1  2 12  1  7  1       -1 0.445400687289D-04 0.100000000000D+01
-.272214701679D-05 0.000000000000D+00 0.000000000000D+00 0.162658126471D-07 0.000000000000D+00  7 -1 1 23 -11 11 23 21 2 0.60898879D-01 0.96573822D-01 0.50723793D+05 0.50723793D+05 0.50723793D+05 0.11467468D+01  1  2  4  1  7  1       -1 -.403748721968D-04 0.100000000000D+01
0.956231647820D-06 0.000000000000D+00 0.000000000000D+00 0.162658126471D-07 0.204157916377D-08  7 -1 1 23 -11 11 23 21 2 0.61247622D-01 0.97527608D-01 0.52100312D+05 0.52100312D+05 0.52100312D+05 0.11457268D+01  1  2 11  1  7  1       -1 0.138006803285D-04 0.100000000000D+01
0.186259039427D-06 0.000000000000D+00 0.000000000000D+00 0.162658126471D-07 0.000000000000D+00  7 21 1 23 -11 11 23 1 2 0.61546022D-01 0.96573822D-01 0.52100312D+05 0.52100312D+05 0.52100312D+05 0.11457268D+01  1  2 12  3  7  1       -1 0.237652262350D-04 0.100000000000D+01
0.331736184964D-08 0.000000000000D+00 0.000000000000D+00 0.162658126471D-07 0.217398624309D-11  7 21 1 23 -11 11 23 1 2 0.61247622D-01 0.97527608D-01 0.52100312D+05 0.52100312D+05 0.52100312D+05 0.11457268D+01  1  2 11  3  7  1       -1 0.421849663164D-06 0.100000000000D+01
  </mgrwgt>
  </event>
  <event>
  8     66 0.58687835E-06 0.22219421E+03 0.75467711E-02 0.10447414E+00
       -1 -1    0    0    0  501 0.00000000E+00 0.00000000E+00 0.47223887E+03 0.47223898E+03 0.32000000E+00 0.0000E+00 0.9000E+01
        1 -1    0    0  501    0 0.00000000E+00 0.00000000E+00 -.18541699E+03 0.18541726E+03 0.32000000E+00 0.0000E+00 0.9000E+01
       25  2    1    2    0    0 0.24501036E+02 0.12228056E+03 0.36227135E+03 0.48629241E+03 0.29947777E+03 0.0000E+00 0.0000E+00
       23  2    1    2    0    0 -.24501036E+02 -.12228056E+03 -.75449471E+02 0.17136383E+03 0.90111620E+02 0.0000E+00 0.0000E+00
       23  1    3    3    0    0 -.83610072E+02 0.21159552E+02 0.24882792E+03 0.27869150E+03 0.91188000E+02 0.0000E+00 0.9000E+01
      -13  1    4    4    0    0 0.20415890E+02 -.74923159E+01 0.72548270E+01 0.22925685E+02 0.10565837E+00 0.0000E+00 0.9000E+01
       13  1    4    4    0    0 -.44916926E+02 -.11478825E+03 -.82704298E+02 0.14843815E+03 0.10565837E+00 0.0000E+00 0.9000E+01
       23  1    3    3    0    0 0.10811111E+03 0.10112101E+03 0.11344343E+03 0.20760090E+03 0.91188000E+02 0.0000E+00 0.9000E+01
#aMCatNLO 1  0  0  1  2 0.99733724D+01 0.00000000D+00  -5  7  0 0.00000000D+00 0.00000000D+00 0.00000000D+00 0.00000000D+00 0.00000000D+00
  <mgrwgt>
 0.2235887739D-03    6    2    0
 0.295907477108566D+03 0.000000000000000D+00 0.000000000000000D+00 0.295907477108566D+03
 0.295907477108566D+03 0.000000000000000D+00 0.000000000000000D+00 -.295907477108566D+03
 0.189102886907399D+03 -.836100718094930D+02 0.211595521473281D+02 0.141443556720158D+03
 0.219599512051711D+02 0.204159791306927D+02 -.749216850362829D+01 -.304871516902672D+01
 0.205035079407243D+03 -.449170148078058D+02 -.114788395988363D+03 -.163845871826874D+03
 0.175717036697318D+03 0.108111107486606D+03 0.101121012344663D+03 0.254510302757429D+02
 0.000000000000000D+00 0.000000000000000D+00 0.000000000000000D+00 -.000000000000000D+00
 0.296157099710131D+03 0.000000000000000D+00 0.000000000000000D+00 0.296157099710131D+03
 0.415728696672284D+03 0.000000000000000D+00 0.000000000000000D+00 -.415728696672284D+03
 0.189913426545173D+03 -.859391424344953D+02 0.189747805811810D+02 0.141443556720158D+03
 0.217985180545739D+02 0.201470815615629D+02 -.774440635203630D+01 -.304871516902672D+01
 0.206939713053455D+03 -.474486166236249D+02 -.117163150795982D+03 -.163845871826874D+03
 0.173247327133726D+03 0.105966707311406D+03 0.991094698525954D+02 0.254510302757429D+02
 0.119986811595486D+03 0.727397018515159D+01 0.682330671424175D+01 -.119571596962153D+03
0.547714622400D-05 0.000000000000D+00 0.000000000000D+00 0.287664656977D-06 0.000000000000D+00  7 -1 1 23 -13 13 23 21 0 0.72652163D-01 0.28525720D-01 0.49370266D+05 0.49370266D+05 0.49370266D+05 0.11477799D+01  1  2  2  1  7  1       -1 0.222695955004D-03 0.100000000000D+01
-.273919208990D-06 0.000000000000D+00 -.210336836659D-07 0.287664656977D-06 0.000000000000D+00  7 -1 1 23 -13 13 23 21 2 0.72652163D-01 0.28525720D-01 0.49370266D+05 0.49370266D+05 0.49370266D+05 0.11477799D+01  1  2  3  1  7  1       -1 -.146722830529D-04 0.100000000000D+01
0.351652669348D-06 0.000000000000D+00 0.000000000000D+00 0.287664656977D-06 0.000000000000D+00  7 -1 1 23 -13 13 23 21 2 0.72652163D-01 0.28525720D-01 0.49370266D+05 0.49370266D+05 0.49370266D+05 0.11477799D+01  1  2 15  1  7  1       -1 0.188360192774D-04 0.100000000000D+01
-.610652809851D-07 0.000000000000D+00 0.000000000000D+00 0.287664656977D-06 0.000000000000D+00  7 -1 1 23 -13 13 23 21 2 0.72652163D-01 0.28525720D-01 0.49370266D+05 0.49370266D+05 0.49370266D+05 0.11477799D+01  1  2  4  1  7  1       -1 -.327091732859D-05 0.100000000000D+01
0.401927550493D-17 0.000000000000D+00 0.000000000000D+00 0.287664656977D-06 0.213531963154D-07  7 -1 1 23 -13 13 23 21 2 0.72713451D-01 0.40076583D-01 0.51998374D+05 0.51998374D+05 0.51998374D+05 0.11458013D+01  1  2 11  1  7  1       -1 0.138173723191D-15 0.100000000000D+01
0.610128733352D-17 0.000000000000D+00 0.000000000000D+00 0.287664656977D-06 0.388962835801D-11  7 21 1 23 -13 13 23 1 2 0.72713451D-01 0.40076583D-01 0.51998374D+05 0.51998374D+05 0.51998374D+05 0.11458013D+01  1  2 11  3  7  1       -1 0.173398059510D-14 0.100000000000D+01
  </mgrwgt>
  </event>
  <event>
  8     66 0.58687835E-06 0.29090784E+03 0.75467711E-02 0.91382902E-01
       -1 -1    0    0    0  501 0.00000000E+00 0.00000000E+00 0.47825088E+03 0.47825099E+03 0.32000000E+00 0.0000E+00 0.9000E+01
        1 -1    0    0  501    0 0.00000000E+00 0.00000000E+00 -.19832917E+03 0.19832943E+03 0.32000000E+00 0.0000E+00 0.9000E+01
       25  2    1    2    0    0 -.21246018E+03 -.11690268E+02 0.13952772E+03 0.39327739E+03 0.29987185E+03 0.0000E+00 0.0000E+00
       23  2    1    2    0    0 0.21246018E+03 0.11690268E+02 0.14039400E+03 0.28330303E+03 0.12358859E+03 0.0000E+00 0.0000E+00
       23  1    3    3    0    0 0.30258743E+01 0.35179096E+02 -.27993462E+02 0.10171337E+03 0.91188000E+02 0.0000E+00 0.9000E+01
      -11  1    4    4    0    0 -.15293122E+02 0.87594704E+01 0.15858449E+02 0.23708613E+02 0.51099893E-03 0.0000E+00 0.9000E+01
       11  1    4    4    0    0 0.22775331E+03 0.29307977E+01 0.12453555E+03 0.25959442E+03 0.51099893E-03 0.0000E+00 0.9000E+01
       23  1    3    3    0    0 -.21548606E+03 -.46869364E+02 0.16752118E+03 0.29156402E+03 0.91188000E+02 0.0000E+00 0.9000E+01
#aMCatNLO 1  0  0  2  2 0.55014810D+03 0.00000000D+00  -5  7  0 0.00000000D+00 0.00000000D+00 0.00000000D+00 0.00000000D+00 0.00000000D+00
  <mgrwgt>
 0.2419606137D-03    5    2    0
 0.307979258535946D+03 0.000000000000000D+00 0.000000000000000D+00 0.307979258535946D+03
 0.307979258535946D+03 0.000000000000000D+00 0.000000000000000D+00 -.307979258535946D+03
 0.124445480000852D+03 0.302587368621795D+01 0.351790961903589D+02 -.769720821357128D+02
 0.188351285056422D+02 -.152931203685246D+02 0.875947002279284D+01 0.664486419256786D+01
 0.228548336678938D+03 0.227753306944868D+03 0.293079811025464D+01 0.188197714338634D+02
 0.244129571886461D+03 -.215486060262561D+03 -.468693643234063D+02 0.515074465092815D+02
 0.000000000000000D+00 -.000000000000000D+00 0.000000000000000D+00 -.000000000000000D+00
 0.563820776139364D+03 0.000000000000000D+00 0.000000000000000D+00 0.563820776139364D+03
 0.914420496956608D+03 0.000000000000000D+00 0.000000000000000D+00 -.914420496956608D+03
 0.152317491942612D+03 0.922204785516176D+02 -.213553018028619D+02 -.769720821357128D+02
 0.952873892254136D+01 -.615207115248919D+01 0.296558018792197D+01 0.664486419256786D+01
 0.476849081042063D+03 0.455087344821692D+03 -.141160797946806D+03 0.188197714338634D+02
 0.187178662943625D+03 -.764849239807857D+02 -.134972737525435D+03 0.515074465092815D+02
 0.652367298245131D+03 -.464670828240035D+03 0.294523257087182D+03 -.350599720817244D+03
0.615567659685D-05 0.000000000000D+00 0.000000000000D+00 0.126436471335D-08 0.000000000000D+00  7 -1 1 23 -11 11 23 21 0 0.73577087D-01 0.30512208D-01 0.84627373D+05 0.84627373D+05 0.84627373D+05 0.11277196D+01  1  2  2  2  7  2        1 0.222489329895D-03 0.100000000000D+01
-.340629869349D-06 0.000000000000D+00 -.236394189588D-07 0.126436471335D-08 0.000000000000D+00  7 -1 1 23 -11 11 23 21 2 0.73577087D-01 0.30512208D-01 0.84627373D+05 0.84627373D+05 0.84627373D+05 0.11277196D+01  1  2  3  2  7  2        1 -.156573543053D-04 0.100000000000D+01
0.406409916363D-06 0.000000000000D+00 0.000000000000D+00 0.126436471335D-08 0.000000000000D+00  7 -1 1 23 -11 11 23 21 2 0.73577087D-01 0.30512208D-01 0.84627373D+05 0.84627373D+05 0.84627373D+05 0.11277196D+01  1  2 15  2  7  2        1 0.186809925560D-04 0.100000000000D+01
0.258887206212D-05 0.000000000000D+00 -.259189326841D-05 0.126436471335D-08 0.000000000000D+00  7 -1 1 23 -11 11 23 21 2 0.73577087D-01 0.14756706D+00 0.84627373D+05 0.84627373D+05 0.84627373D+05 0.11277196D+01  1  2  5  2  7  2        1 0.131659684874D-04 0.100000000000D+01
0.438997172843D-06 0.000000000000D+00 -.496839853432D-06 0.126436471335D-08 0.000000000000D+00  7 -1 21 23 -11 11 23 -1 2 0.73577087D-01 0.14756706D+00 0.84627373D+05 0.84627373D+05 0.84627373D+05 0.11277196D+01  1  2  5  4  7  2        1 0.328167703089D-05 0.100000000000D+01
  </mgrwgt>
  </event>
  <event>
  8     66 0.58687835E-06 0.22653123E+03 0.75467711E-02 0.93881493E-01
       -1 -1    0    0    0  501 0.00000000E+00 0.00000000E+00 0.37793003E+03 0.37793016E+03 0.32000000E+00 0.0000E+00 0.9000E+01
        1 -1    0    0  501    0 0.00000000E+00 0.00000000E+00 -.64158382E+03 0.64158390E+03 0.32000000E+00 0.0000E+00 0.9000E+01
       25  2    1    2    0    0 0.35701196E+03 0.14840852E+03 -.36360391E+03 0.60982015E+03 0.30031681E+03 0.0000E+00 0.0000E+00
       23  2    1    2    0    0 -.35701196E+03 -.14840852E+03 0.99950119E+02 0.40969391E+03 0.91522898E+02 0.0000E+00 0.0000E+00
       23  1    3    3    0    0 0.25653617E+03 -.73164008E+01 -.26841676E+03 0.38239658E+03 0.91188000E+02 0.0000E+00 0.9000E+01
      -11  1    4    4    0    0 -.16940333E+03 -.89162905E+02 0.93000896E+02 0.21283017E+03 0.51099893E-03 0.0000E+00 0.9000E+01
       11  1    4    4    0    0 -.18760863E+03 -.59245616E+02 0.69492225E+01 0.19686374E+03 0.51099893E-03 0.0000E+00 0.9000E+01
       23  1    3    3    0    0 0.10047580E+03 0.15572492E+03 -.95187147E+02 0.22742357E+03 0.91188000E+02 0.0000E+00 0.9000E+01
#aMCatNLO 1  0  0  2  1 0.18009266D+03 0.00000000D+00  -5  7  0 0.00000000D+00 0.00000000D+00 0.00000000D+00 0.00000000D+00 0.00000000D+00
  <mgrwgt>
 0.1770943488D-03    9    2    0
 0.492416388580837D+03 0.000000000000000D+00 0.000000000000000D+00 0.492416388580837D+03
 0.492416388580837D+03 0.000000000000000D+00 0.000000000000000D+00 -.492416388580837D+03
 0.324003832164250D+03 0.256536168853657D+03 -.731640075525443D+01 -.175496143157040D+03
 0.245222733370357D+03 -.169403333440501D+03 -.891629047203546D+02 0.153253632918455D+03
 0.205656784788129D+03 -.187608631241381D+03 -.592456158992832D+02 0.598971753076961D+02
 0.209949426838938D+03 0.100475795828225D+03 0.155724921374892D+03 -.376546650691108D+02
 0.000000000000000D+00 0.000000000000000D+00 0.000000000000000D+00 -.000000000000000D+00
 0.542266485897332D+03 0.000000000000000D+00 0.000000000000000D+00 0.542266485897332D+03
 0.695098449304399D+03 0.000000000000000D+00 0.000000000000000D+00 -.695098449304399D+03
 0.305608363331969D+03 0.226229016596298D+03 -.557023893681468D+02 -.175496143157040D+03
 0.279551290960554D+03 -.194663972243040D+03 -.129492031359341D+03 0.153253632918455D+03
 0.236459998005355D+03 -.208890462736236D+03 -.932224952717581D+02 0.598971753076961D+02
 0.179544152459515D+03 0.817270465258735D+02 0.125792159545404D+03 -.376546650691108D+02
 0.236201130444337D+03 0.955983718571050D+02 0.152624756453842D+03 -.152831963407067D+03
0.134464418942D-04 0.000000000000D+00 0.000000000000D+00 0.164756561552D-05 0.000000000000D+00  7 -1 1 23 -11 11 23 21 0 0.58143098D-01 0.98705219D-01 0.18795731D+06 0.18795731D+06 0.18795731D+06 0.10999028D+01  1  2  2  2  7  2        1 0.154105797047D-03 0.100000000000D+01
-.732296563588D-06 0.000000000000D+00 -.516378774030D-07 0.164756561552D-05 0.000000000000D+00  7 -1 1 23 -11 11 23 21 2 0.58143098D-01 0.98705219D-01 0.18795731D+06 0.18795731D+06 0.18795731D+06 0.10999028D+01  1  2  3  2  7  2        1 -.101533004000D-04 0.100000000000D+01
0.869086290503D-06 0.000000000000D+00 0.000000000000D+00 0.164756561552D-05 0.000000000000D+00  7 -1 1 23 -11 11 23 21 2 0.58143098D-01 0.98705219D-01 0.18795731D+06 0.18795731D+06 0.18795731D+06 0.10999028D+01  1  2 15  2  7  2        1 0.120498915601D-04 0.100000000000D+01
0.102289074772D-04 0.000000000000D+00 0.000000000000D+00 0.164756561552D-05 0.000000000000D+00  7 -1 1 23 -11 11 23 21 2 0.58143098D-01 0.14272364D+00 0.28536246D+06 0.28536246D+06 0.28536246D+06 0.10861628D+01  1  2 12  2  7  2        1 0.762746235770D-04 0.100000000000D+01
-.128882532249D-04 0.000000000000D+00 0.000000000000D+00 0.164756561552D-05 0.000000000000D+00  7 -1 1 23 -11 11 23 21 2 0.58143098D-01 0.98705219D-01 0.18795731D+06 0.18795731D+06 0.18795731D+06 0.10999028D+01  1  2  4  2  7  2        1 -.178695781369D-03 0.100000000000D+01
-.167128911001D-04 0.000000000000D+00 -.539689311015D-05 0.164756561552D-05 0.000000000000D+00  7 -1 1 23 -11 11 23 21 2 0.58143098D-01 0.14779430D+00 0.18795731D+06 0.18795731D+06 0.18795731D+06 0.10999028D+01  1  2  5  2  7  2        1 -.122313613369D-03 0.100000000000D+01
0.178305885964D-04 0.000000000000D+00 0.498515540543D-05 0.164756561552D-05 0.000000000000D+00  7 -1 1 23 -11 11 23 21 2 0.58143098D-01 0.98705219D-01 0.18795731D+06 0.18795731D+06 0.18795731D+06 0.10999028D+01  1  2  6  2  7  2        1 0.247221318972D-03 0.100000000000D+01
0.458885255626D-06 0.000000000000D+00 0.000000000000D+00 0.164756561552D-05 0.000000000000D+00  7 -1 21 23 -11 11 23 -1 2 0.58143098D-01 0.14272364D+00 0.28536246D+06 0.28536246D+06 0.28536246D+06 0.10861628D+01  1  2 12  4  7  2        1 0.499204079224D-05 0.100000000000D+01
-.614400585241D-06 0.000000000000D+00 -.258626779741D-06 0.164756561552D-05 0.000000000000D+00  7 -1 21 23 -11 11 23 -1 2 0.58143098D-01 0.14779430D+00 0.18795731D+06 0.18795731D+06 0.18795731D+06 0.10999028D+01  1  2  5  4  7  2        1 -.638662804872D-05 0.100000000000D+01
  </mgrwgt>
  </event>
  <event>
  9     66 0.58687835E-06 0.26332675E+03 0.75467711E-02 0.10109215E+00
       -1 -1    0    0    0  501 0.00000000E+00 0.00000000E+00 0.89559025E+02 0.89559597E+02 0.32000000E+00 0.0000E+00 0.9000E+01
        1 -1    0    0  502    0 0.00000000E+00 0.00000000E+00 -.21714454E+04 0.21714454E+04 0.32000000E+00 0.0000E+00 0.9000E+01
       25  2    1    2    0    0 -.11363018E+03 0.97701221E+02 -.30405137E+03 0.45266825E+03 0.30000661E+03 0.0000E+00 0.0000E+00
       23  2    1    2    0    0 0.14430403E+03 -.13811511E+03 -.17087072E+04 0.17225849E+04 0.87857672E+02 0.0000E+00 0.0000E+00
       23  1    3    3    0    0 0.66618881E+02 0.15598784E+02 -.75212587E+02 0.13657812E+03 0.91188000E+02 0.0000E+00 0.9000E+01
      -13  1    4    4    0    0 0.59920355E+02 -.30463973E+02 -.88956334E+03 0.89209947E+03 0.10565837E+00 0.0000E+00 0.9000E+01
       13  1    4    4    0    0 0.84383679E+02 -.10765114E+03 -.81914390E+03 0.83048547E+03 0.10565837E+00 0.0000E+00 0.9000E+01
       23  1    3    3    0    0 -.18024906E+03 0.82102437E+02 -.22883878E+03 0.31609014E+03 0.91188000E+02 0.0000E+00 0.9000E+01
       21  1    1    2  502  501 -.30673853E+02 0.40413888E+02 -.69127780E+02 0.85751851E+02 0.75000000E+00 0.0000E+00 0.9000E+01
#aMCatNLO 2  0  0  2  2 0.50736255D+02 0.00000000D+00  -5  7  0 0.00000000D+00 0.00000000D+00 0.00000000D+00 0.00000000D+00 0.00000000D+00
  <mgrwgt>
 0.8159212437D-04    1    2    0
 0.411690121746562D+03 0.000000000000000D+00 0.000000000000000D+00 0.411690121746562D+03
 0.411690121746562D+03 0.000000000000000D+00 0.000000000000000D+00 -.411690121746562D+03
 0.175246069264808D+03 0.600708229408685D+02 0.242260829000018D+02 0.134909327280567D+03
 0.178528405895801D+03 0.532128557864242D+02 -.216265398542347D+02 -.169035725409401D+03
 0.183193918042720D+03 0.774154767749215D+02 -.984703474746774D+02 -.133680388358841D+03
 0.286411850289795D+03 -.190699155502214D+03 0.958708044289103D+02 0.167806786487675D+03
 0.000000000000000D+00 -.000000000000000D+00 0.000000000000000D+00 0.000000000000000D+00
 0.454666412161174D+03 0.000000000000000D+00 0.000000000000000D+00 0.454666412161174D+03
 0.427722420270331D+03 0.000000000000000D+00 0.000000000000000D+00 -.427722420270331D+03
 0.176627221337500D+03 0.666188810718034D+02 0.155987842748105D+02 0.134909327280567D+03
 0.181910879322683D+03 0.599203196812918D+02 -.304638612221270D+02 -.169035725409401D+03
 0.191258591158513D+03 0.843837146690994D+02 -.107651247827476D+03 -.133680388358841D+03
 0.275145241242672D+03 -.180249062876829D+03 0.821024370843708D+02 0.167806786487675D+03
 0.574468993701372D+02 -.306738525453658D+02 0.404138876904220D+02 0.269439918908424D+02
0.610045968633D-05 0.000000000000D+00 0.000000000000D+00 0.158785331423D-06 0.420626175667D-09  7 -1 1 23 -13 13 23 21 2 0.13778280D-01 0.33406669D+00 0.86080951D+05 0.86080951D+05 0.86080951D+05 0.11271031D+01  1  2  1  2  7  2        1 0.815921243705D-04 0.100000000000D+01
  </mgrwgt>
  </event>
  <event>
  8     66 0.58687835E-06 0.14024146E+03 0.75467711E-02 0.10488435E+00
       -1 -1    0    0    0  501 0.00000000E+00 0.00000000E+00 0.41997077E+03 0.41997089E+03 0.32000000E+00 0.0000E+00 0.9000E+01
        1 -1    0    0  501    0 0.00000000E+00 0.00000000E+00 -.24724586E+03 0.24724607E+03 0.32000000E+00 0.0000E+00 0.9000E+01
       25  2    1    2    0    0 0.90590961E+02 -.29382748E+02 0.33081719E+03 0.45631653E+03 0.29952412E+03 0.0000E+00 0.0000E+00
       23  2    1    2    0    0 -.90590961E+02 0.29382748E+02 -.15809229E+03 0.21090042E+03 0.10205758E+03 0.0000E+00 0.0000E+00
       23  1    3    3    0    0 0.63849148E+02 0.75946394E+02 0.27041284E+03 0.30213064E+03 0.91188000E+02 0.0000E+00 0.9000E+01
      -11  1    4    4    0    0 0.13152923E+02 -.14870987E+02 -.45218669E+01 0.20361555E+02 0.51099893E-03 0.0000E+00 0.9000E+01
       11  1    4    4    0    0 -.10374388E+03 0.44253735E+02 -.15357042E+03 0.19053887E+03 0.51099893E-03 0.0000E+00 0.9000E+01
       23  1    3    3    0    0 0.26741813E+02 -.10532914E+03 0.60404354E+02 0.15418589E+03 0.91188000E+02 0.0000E+00 0.9000E+01
#aMCatNLO 1  0  0  1  2 0.28521979D+02 0.00000000D+00  -5  7  0 0.00000000D+00 0.00000000D+00 0.00000000D+00 0.00000000D+00 0.00000000D+00
  <mgrwgt>
 0.2256873466D-03    6    2    0
 0.322236162426835D+03 0.000000000000000D+00 0.000000000000000D+00 0.322236162426835D+03
 0.322236162426835D+03 0.000000000000000D+00 0.000000000000000D+00 -.322236162426835D+03
 0.240320101988668D+03 0.638491479519249D+02 0.759463934815500D+02 0.198982239656716D+03
 0.222920564954271D+02 0.131529224483334D+02 -.148709867722457D+02 -.101385485294066D+02
 0.238421722870301D+03 -.103743883449709D+03 0.442537348985268D+02 -.210056496045104D+03
 0.143438443499275D+03 0.267418130494503D+02 -.105329141607831D+03 0.212128049177945D+02
 0.000000000000000D+00 0.000000000000000D+00 -.000000000000000D+00 -.000000000000000D+00
 0.335360149803170D+03 0.000000000000000D+00 0.000000000000000D+00 0.335360149803170D+03
 0.338429679714874D+03 0.000000000000000D+00 0.000000000000000D+00 -.338429679714874D+03
 0.239196343502075D+03 0.540175757380740D+02 0.799237712657607D+02 0.198982239656716D+03
 0.215274441087390D+02 0.122544869752312D+02 -.145075233084643D+02 -.101385485294066D+02
 0.243645811391471D+03 -.113627760884188D+03 0.482522728408485D+02 -.210056496045104D+03
 0.140733556140464D+03 0.209154069649765D+02 -.102972059991777D+03 0.212128049177945D+02
 0.286866743752938D+02 0.264402912059062D+02 -.106964608063680D+02 -.306952991170411D+01
0.389753857777D-05 0.000000000000D+00 0.000000000000D+00 0.115618797429D-07 0.000000000000D+00  7 -1 1 23 -11 11 23 21 0 0.64610913D-01 0.38037850D-01 0.41873627D+05 0.41873627D+05 0.41873627D+05 0.11541331D+01  1  2  2  1  7  1       -1 0.137147178763D-03 0.100000000000D+01
-.162247127943D-06 0.000000000000D+00 -.149675743841D-07 0.115618797429D-07 0.000000000000D+00  7 -1 1 23 -11 11 23 21 2 0.64610913D-01 0.38037850D-01 0.41873627D+05 0.41873627D+05 0.41873627D+05 0.11541331D+01  1  2  3  1  7  1       -1 -.760475607739D-05 0.100000000000D+01
0.243781595411D-06 0.000000000000D+00 0.000000000000D+00 0.115618797429D-07 0.000000000000D+00  7 -1 1 23 -11 11 23 21 2 0.64610913D-01 0.38037850D-01 0.41873627D+05 0.41873627D+05 0.41873627D+05 0.11541331D+01  1  2 15  1  7  1       -1 0.114263937536D-04 0.100000000000D+01
0.716437894988D-05 0.000000000000D+00 0.000000000000D+00 0.115618797429D-07 0.000000000000D+00  7 -1 1 23 -11 11 23 21 2 0.68794340D-01 0.38037850D-01 0.49024761D+05 0.49024761D+05 0.49024761D+05 0.11480486D+01  1  2 12  1  7  1       -1 0.294511918374D-03 0.100000000000D+01
-.506369704851D-05 0.000000000000D+00 0.000000000000D+00 0.115618797429D-07 0.000000000000D+00  7 -1 1 23 -11 11 23 21 2 0.64610913D-01 0.38037850D-01 0.41873627D+05 0.41873627D+05 0.41873627D+05 0.11541331D+01  1  2  4  1  7  1       -1 -.237342758494D-03 0.100000000000D+01
0.792442178116D-07 0.000000000000D+00 0.000000000000D+00 0.115618797429D-07 0.000000000000D+00  7 21 1 23 -11 11 23 1 2 0.68794340D-01 0.38037850D-01 0.49024761D+05 0.49024761D+05 0.49024761D+05 0.11480486D+01  1  2 12  3  7  1       -1 0.275493703138D-04 0.100000000000D+01
  </mgrwgt>
  </event>
  <event>
  8     66 0.58687835E-06 0.15369785E+03 0.75467711E-02 0.96055006E-01
       -3 -1    0    0    0  501 0.00000000E+00 0.00000000E+00 0.20243439E+03 0.20243501E+03 0.50000000E+00 0.0000E+00 0.9000E+01
        3 -1    0    0  501    0 0.00000000E+00 0.00000000E+00 -.10001701E+04 0.10001702E+04 0.50000000E+00 0.0000E+00 0.9000E+01
       25  2    1    2    0    0 0.10768947E+03 0.29201760E+03 -.11617758E+03 0.44804245E+03 0.30062186E+03 0.0000E+00 0.0000E+00
       23  2    1    2    0    0 -.10768947E+03 -.29201760E+03 -.68155812E+03 0.75456278E+03 0.89287296E+02 0.0000E+00 0.0000E+00
       23  1    3    3    0    0 0.13221977E+03 0.21139066E+03 0.16911287E+02 0.26602504E+03 0.91188000E+02 0.0000E+00 0.9000E+01
      -11  1    4    4    0    0 -.87232837E+02 -.28661248E+03 -.60472226E+03 0.67486687E+03 0.51099893E-03 0.0000E+00 0.9000E+01
       11  1    4    4    0    0 -.20456631E+02 -.54051222E+01 -.76835856E+02 0.79695909E+02 0.51099893E-03 0.0000E+00 0.9000E+01
       23  1    3    3    0    0 -.24530300E+02 0.80626946E+02 -.13308887E+03 0.18201741E+03 0.91188000E+02 0.0000E+00 0.9000E+01
#aMCatNLO 1  0  0  2  1 0.15649398D+03 0.00000000D+00  -5  7  0 0.00000000D+00 0.00000000D+00 0.00000000D+00 0.00000000D+00 0.00000000D+00
  <mgrwgt>
 0.2337236024D-04    9    2    0
 0.449965858474535D+03 0.000000000000000D+00 0.000000000000000D+00 0.449965858474535D+03
 0.449965858474535D+03 0.000000000000000D+00 0.000000000000000D+00 -.449965858474535D+03
 0.370487928566411D+03 0.132219767979174D+03 0.211390657391284D+03 0.258414350980444D+03
 0.365794303655529D+03 -.872328372965305D+02 -.286612481701299D+03 -.209878988984254D+03
 0.383895919783579D+02 -.204566310562952D+02 -.540512217251182D+01 -.320323535256409D+02
 0.125259892748771D+03 -.245302996263481D+02 0.806269464825273D+02 -.165030084705485D+02
 0.000000000000000D+00 0.000000000000000D+00 -.000000000000000D+00 -.000000000000000D+00
 0.518648976441758D+03 0.000000000000000D+00 0.000000000000000D+00 0.518648976441758D+03
 0.555581046680521D+03 0.000000000000000D+00 0.000000000000000D+00 -.555581046680521D+03
 0.399805694249666D+03 0.104389690396341D+03 0.271761214224490D+03 0.258414350980444D+03
 0.332371736667004D+03 -.112457004409380D+03 -.231894811234008D+03 -.209878988984254D+03
 0.396013729650779D+02 -.232743807310242D+02 0.707297614090118D+00 -.320323535256409D+02
 0.141658363994113D+03 -.341738375882384D+02 0.101546247007964D+03 -.165030084705485D+02
 0.160792855246418D+03 0.655155323323014D+02 -.142119947612536D+03 -.369320702387631D+02
0.131906080822D-04 0.000000000000D+00 0.000000000000D+00 0.213241227677D-06 0.000000000000D+00  7 -3 3 23 -11 11 23 21 0 0.31143810D-01 0.15387238D+00 0.12616958D+06 0.12616958D+06 0.12616958D+06 0.11135305D+01  1  2  2  2  7  2        3 0.161468377658D-04 0.100000000000D+01
-.682984536367D-06 0.000000000000D+00 -.506554082023D-07 0.213241227677D-06 0.000000000000D+00  7 -3 3 23 -11 11 23 21 2 0.31143810D-01 0.15387238D+00 0.12616958D+06 0.12616958D+06 0.12616958D+06 0.11135305D+01  1  2  3  2  7  2        3 -.103666341523D-05 0.100000000000D+01
0.862430310059D-06 0.000000000000D+00 0.000000000000D+00 0.213241227677D-06 0.000000000000D+00  7 -3 3 23 -11 11 23 21 2 0.31143810D-01 0.15387238D+00 0.12616958D+06 0.12616958D+06 0.12616958D+06 0.11135305D+01  1  2 15  2  7  2        3 0.130903395760D-05 0.100000000000D+01
0.632329531388D-05 0.000000000000D+00 0.000000000000D+00 0.213241227677D-06 0.000000000000D+00  7 -3 3 23 -11 11 23 21 2 0.31143810D-01 0.19945008D+00 0.19503942D+06 0.19503942D+06 0.19503942D+06 0.10986641D+01  1  2 12  2  7  2        3 0.393709981188D-05 0.100000000000D+01
-.785780443014D-05 0.000000000000D+00 0.000000000000D+00 0.213241227677D-06 0.000000000000D+00  7 -3 3 23 -11 11 23 21 2 0.31143810D-01 0.15387238D+00 0.12616958D+06 0.12616958D+06 0.12616958D+06 0.11135305D+01  1  2  4  2  7  2        3 -.119269148026D-04 0.100000000000D+01
-.148333363547D-04 0.000000000000D+00 -.612126852504D-05 0.213241227677D-06 0.000000000000D+00  7 -3 3 23 -11 11 23 21 2 0.31143810D-01 0.20808868D+00 0.12616958D+06 0.12616958D+06 0.12616958D+06 0.11135305D+01  1  2  5  2  7  2        3 -.819525285604D-05 0.100000000000D+01
0.162057670406D-04 0.000000000000D+00 0.585262798059D-05 0.213241227677D-06 0.000000000000D+00  7 -3 3 23 -11 11 23 21 2 0.31143810D-01 0.15387238D+00 0.12616958D+06 0.12616958D+06 0.12616958D+06 0.11135305D+01  1  2  6  2  7  2        3 0.245978128525D-04 0.100000000000D+01
0.219916797318D-06 0.000000000000D+00 0.000000000000D+00 0.213241227677D-06 0.000000000000D+00  7 -3 21 23 -11 11 23 -3 2 0.31143810D-01 0.19945008D+00 0.19503942D+06 0.19503942D+06 0.19503942D+06 0.10986641D+01  1  2 12  4  7  2        3 0.177946589750D-05 0.100000000000D+01
-.437370381857D-06 0.000000000000D+00 -.237667161013D-06 0.213241227677D-06 0.000000000000D+00  7 -3 21 23 -11 11 23 -3 2 0.31143810D-01 0.20808868D+00 0.12616958D+06 0.12616958D+06 0.12616958D+06 0.11135305D+01  1  2  5  4  7  2        3 -.323905897070D-05 0.100000000000D+01
  </mgrwgt>
  </event>
  <event>
  8     66 0.58687835E-06 0.23309149E+03 0.75467711E-02 0.91953967E-01
       -1 -1    0    0    0  501 0.00000000E+00 0.00000000E+00 0.23790095E+03 0.23790117E+03 0.32000000E+00 0.0000E+00 0.9000E+01
        1 -1    0    0  501    0 0.00000000E+00 0.00000000E+00 -.31891876E+03 0.31891892E+03 0.32000000E+00 0.0000E+00 0.9000E+01
       25  2    1    2    0    0 0.65855034E+02 0.95159516E+02 0.88108675E+02 0.33263072E+03 0.29914518E+03 0.0000E+00 0.0000E+00
       23  2    1    2    0    0 -.65855034E+02 -.95159516E+02 -.16912648E+03 0.22418937E+03 0.90911428E+02 0.0000E+00 0.0000E+00
       23  1    3    3    0    0 -.63069534E+02 0.11701699E+03 0.39599191E+02 0.16599424E+03 0.91188000E+02 0.0000E+00 0.9000E+01
      -11  1    4    4    0    0 -.81128087E+02 -.10070033E+03 -.13827046E+03 0.18931731E+03 0.51099893E-03 0.0000E+00 0.9000E+01
       11  1    4    4    0    0 0.15273054E+02 0.55408098E+01 -.30856022E+02 0.34872064E+02 0.51099893E-03 0.0000E+00 0.9000E+01
       23  1    3    3    0    0 0.12892457E+03 -.21857471E+02 0.48509484E+02 0.16663647E+03 0.91188000E+02 0.0000E+00 0.9000E+01
#aMCatNLO 1  0  0  1  1 0.55198922D+03 0.00000000D+00  -5  7  0 0.00000000D+00 0.00000000D+00 0.00000000D+00 0.00000000D+00 0.00000000D+00
  <mgrwgt>
 0.1953029872D-03    5    2    0
 0.275447238016063D+03 0.000000000000000D+00 0.000000000000000D+00 0.275447238016063D+03
 0.275447238016063D+03 0.000000000000000D+00 0.000000000000000D+00 -.275447238016063D+03
 0.173603425962694D+03 -.630695343855238D+02 0.117016987479058D+03 0.644372301988841D+02
 0.171018794144301D+03 -.811280873303744D+02 -.100700326268276D+03 -.111915618597892D+03
 0.307092901371313D+02 0.152730537660504D+02 0.554080984090813D+01 -.260594273861253D+02
 0.175562965788000D+03 0.128924567949848D+03 -.218574710516903D+02 0.735378157851329D+02
 0.000000000000000D+00 0.000000000000000D+00 0.000000000000000D+00 0.000000000000000D+00
 0.112927666541276D+04 0.000000000000000D+00 0.000000000000000D+00 0.112927666541276D+04
 0.492955727834746D+03 0.000000000000000D+00 0.000000000000000D+00 -.492955727834746D+03
 0.172792514232608D+03 -.131542096322108D+03 -.930171437463854D+01 0.644372301988841D+02
 0.369542349665376D+03 -.187981552123150D+03 -.297824408958416D+03 -.111915618597892D+03
 0.312989396489047D+02 0.301580169719408D+01 -.170714617879151D+02 -.260594273861253D+02
 0.206223119652289D+03 0.534563873265493D+02 -.161081743343770D+03 0.735378157851329D+02
 0.842375470048324D+03 0.263051459421515D+03 0.485279328464739D+03 0.636320937578010D+03
0.272215694779D-05 0.000000000000D+00 0.000000000000D+00 0.124108718007D-06 0.000000000000D+00  7 -1 1 23 -11 11 23 21 0 0.36600175D-01 0.49064453D-01 0.54331644D+05 0.54331644D+05 0.54331644D+05 0.11441350D+01  1  2  2  1  7  1       -1 0.188617158011D-03 0.100000000000D+01
-.146105004228D-06 0.000000000000D+00 -.104537994399D-07 0.124108718007D-06 0.000000000000D+00  7 -1 1 23 -11 11 23 21 2 0.36600175D-01 0.49064453D-01 0.54331644D+05 0.54331644D+05 0.54331644D+05 0.11441350D+01  1  2  3  1  7  1       -1 -.132521909330D-04 0.100000000000D+01
0.175363609670D-06 0.000000000000D+00 0.000000000000D+00 0.124108718007D-06 0.000000000000D+00  7 -1 1 23 -11 11 23 21 2 0.36600175D-01 0.49064453D-01 0.54331644D+05 0.54331644D+05 0.54331644D+05 0.11441350D+01  1  2 15  1  7  1       -1 0.159060399767D-04 0.100000000000D+01
0.142273217926D-05 0.000000000000D+00 -.130947786414D-05 0.124108718007D-06 0.000000000000D+00  7 -1 1 23 -11 11 23 21 2 0.22257816D+00 0.49064453D-01 0.54331644D+05 0.54331644D+05 0.54331644D+05 0.11441350D+01  1  2  5  1  7  1       -1 0.189619574061D-05 0.100000000000D+01
0.227613197383D-06 0.000000000000D+00 -.289722145758D-06 0.124108718007D-06 0.000000000000D+00  7 21 1 23 -11 11 23 1 2 0.22257816D+00 0.49064453D-01 0.54331644D+05 0.54331644D+05 0.54331644D+05 0.11441350D+01  1  2  5  3  7  1       -1 0.213578439803D-05 0.100000000000D+01
  </mgrwgt>
  </event>
  <event>
  8     66 0.58687835E-06 0.98615398E+02 0.75467711E-02 0.10639889E+00
       -1 -1    0    0    0  501 0.00000000E+00 0.00000000E+00 0.86374153E+02 0.86374746E+02 0.32000000E+00 0.0000E+00 0.9000E+01
        1 -1    0    0  501    0 0.00000000E+00 0.00000000E+00 -.79715931E+03 0.79715937E+03 0.32000000E+00 0.0000E+00 0.9000E+01
       25  2    1    2    0    0 -.12138838E+03 0.66927292E+02 -.32802305E+03 0.46654426E+03 0.30141338E+03 0.0000E+00 0.0000E+00
       23  2    1    2    0    0 0.12138838E+03 -.66927292E+02 -.38276211E+03 0.41698986E+03 0.90328881E+02 0.0000E+00 0.0000E+00
       23  1    3    3    0    0 -.34401583E+02 0.50524738E+02 0.52070154E+01 0.10990260E+03 0.91188000E+02 0.0000E+00 0.9000E+01
      -13  1    4    4    0    0 0.14022707E+02 -.77178387E+01 -.10181641E+01 0.16038989E+02 0.10565837E+00 0.0000E+00 0.9000E+01
       13  1    4    4    0    0 0.10736567E+03 -.59209454E+02 -.38174395E+03 0.40095087E+03 0.10565837E+00 0.0000E+00 0.9000E+01
       23  1    3    3    0    0 -.86986799E+02 0.16402554E+02 -.33323006E+03 0.35664166E+03 0.91188000E+02 0.0000E+00 0.9000E+01
#aMCatNLO 1  0  0  1  2 0.22721383D+02 0.00000000D+00  -5  7  0 0.00000000D+00 0.00000000D+00 0.00000000D+00 0.00000000D+00 0.00000000D+00
  <mgrwgt>
 0.2109980052D-03    9    2    0
 0.262400934674777D+03 0.000000000000000D+00 0.000000000000000D+00 0.262400934674777D+03
 0.262400934674777D+03 0.000000000000000D+00 0.000000000000000D+00 -.262400934674777D+03
 0.192079664450349D+03 -.344015932378839D+02 0.505247397607763D+02 0.157617027018529D+03
 0.256233901593566D+02 0.140225810750905D+02 -.771776916860498D+01 0.200090325181218D+02
 0.157994757623968D+03 0.107365812491340D+03 -.592095295883459D+02 -.996451571861765D+02
 0.149104057115880D+03 -.869868003285464D+02 0.164025589961746D+02 -.779809023504739D+02
 0.000000000000000D+00 -.000000000000000D+00 0.000000000000000D+00 0.000000000000000D+00
 0.275969029584632D+03 0.000000000000000D+00 0.000000000000000D+00 0.275969029584632D+03
 0.272334681593818D+03 0.000000000000000D+00 0.000000000000000D+00 -.272334681593818D+03
 0.189636645619924D+03 -.307009899337215D+02 0.431407930954773D+02 0.157617027018529D+03
 0.262181352294488D+02 0.145251661496222D+02 -.872059521616950D+01 0.200090325181218D+02
 0.162517267534796D+03 0.110473062111111D+03 -.654095363392328D+02 -.996451571861765D+02
 0.146921453680101D+03 -.841169387206778D+02 0.106762210702865D+02 -.779809023504739D+02
 0.230102091141798D+02 -.101802996063338D+02 0.203131173896385D+02 0.363434799081371D+01
0.156533110908D-05 0.000000000000D+00 0.000000000000D+00 0.533813262074D-07 0.000000000000D+00  7 -1 1 23 -13 13 23 21 0 0.13288382D-01 0.12263994D+00 0.35246647D+05 0.35246647D+05 0.35246647D+05 0.11608967D+01  1  2  2  1  7  1       -1 0.155199696337D-03 0.100000000000D+01
-.751102275880D-07 0.000000000000D+00 -.601128362001D-08 0.533813262074D-07 0.000000000000D+00  7 -1 1 23 -13 13 23 21 2 0.13288382D-01 0.12263994D+00 0.35246647D+05 0.35246647D+05 0.35246647D+05 0.11608967D+01  1  2  3  1  7  1       -1 -.100362364176D-04 0.100000000000D+01
0.100741574677D-06 0.000000000000D+00 0.000000000000D+00 0.533813262074D-07 0.000000000000D+00  7 -1 1 23 -13 13 23 21 2 0.13288382D-01 0.12263994D+00 0.35246647D+05 0.35246647D+05 0.35246647D+05 0.11608967D+01  1  2 15  1  7  1       -1 0.134610996799D-04 0.100000000000D+01
0.348173082552D-05 0.000000000000D+00 0.000000000000D+00 0.533813262074D-07 0.000000000000D+00  7 -1 1 23 -13 13 23 21 2 0.14215802D-01 0.12263994D+00 0.39603644D+05 0.39603644D+05 0.39603644D+05 0.11563079D+01  1  2 12  1  7  1       -1 0.415818998229D-03 0.100000000000D+01
-.298162338372D-05 0.000000000000D+00 0.000000000000D+00 0.533813262074D-07 0.000000000000D+00  7 -1 1 23 -13 13 23 21 2 0.13288382D-01 0.12263994D+00 0.35246647D+05 0.35246647D+05 0.35246647D+05 0.11608967D+01  1  2  4  1  7  1       -1 -.398404826457D-03 0.100000000000D+01
-.116019827842D-04 0.000000000000D+00 -.247568550144D-05 0.533813262074D-07 0.000000000000D+00  7 -1 1 23 -13 13 23 21 2 0.14501705D-01 0.12263994D+00 0.35246647D+05 0.35246647D+05 0.35246647D+05 0.11608967D+01  1  2  5  1  7  1       -1 -.135466473374D-02 0.100000000000D+01
0.117827123797D-04 0.000000000000D+00 0.246626504775D-05 0.533813262074D-07 0.000000000000D+00  7 -1 1 23 -13 13 23 21 2 0.13288382D-01 0.12263994D+00 0.35246647D+05 0.35246647D+05 0.35246647D+05 0.11608967D+01  1  2  6  1  7  1       -1 0.157440725292D-02 0.100000000000D+01
0.413950796217D-07 0.000000000000D+00 0.000000000000D+00 0.533813262074D-07 0.000000000000D+00  7 21 1 23 -13 13 23 1 2 0.14215802D-01 0.12263994D+00 0.39603644D+05 0.39603644D+05 0.39603644D+05 0.11563079D+01  1  2 12  3  7  1       -1 0.659563529588D-04 0.100000000000D+01
-.161192384390D-06 0.000000000000D+00 -.357484554838D-07 0.533813262074D-07 0.000000000000D+00  7 21 1 23 -13 13 23 1 2 0.14501705D-01 0.12263994D+00 0.35246647D+05 0.35246647D+05 0.35246647D+05 0.11608967D+01  1  2  5  3  7  1       -1 -.250739598353D-03 0.100000000000D+01
  </mgrwgt>
  </event>
  <event>
  8     66 0.58687835E-06 0.30730593E+03 0.75467711E-02 0.87199898E-01
       -1 -1    0    0    0  501 0.00000000E+00 0.00000000E+00 0.15804936E+04 0.15804936E+04 0.32000000E+00 0.0000E+00 0.9000E+01
        1 -1    0    0  501    0 0.00000000E+00 0.00000000E+00 -.52502759E+03 0.52502769E+03 0.32000000E+00 0.0000E+00 0.9000E+01
       25  2    1    2    0    0 0.69449851E+03 -.84595871E+02 0.11649488E+04 0.13917748E+04 0.30074334E+03 0.0000E+00 0.0000E+00
       23  2    1    2    0    0 -.69449851E+03 0.84595871E+02 -.10948287E+03 0.71374651E+03 0.89235312E+02 0.0000E+00 0.0000E+00
       23  1    3    3    0    0 0.13763955E+03 0.33386147E+02 0.15515251E+03 0.22901274E+03 0.91188000E+02 0.0000E+00 0.9000E+01
      -13  1    4    4    0    0 -.20805139E+03 0.33595553E+02 0.73442148E+01 0.21087435E+03 0.10565837E+00 0.0000E+00 0.9000E+01
       13  1    4    4    0    0 -.48644712E+03 0.51000318E+02 -.11682708E+03 0.50287216E+03 0.10565837E+00 0.0000E+00 0.9000E+01
       23  1    3    3    0    0 0.55685897E+03 -.11798202E+03 0.10097963E+04 0.11627620E+04 0.91188000E+02 0.0000E+00 0.9000E+01
#aMCatNLO 1  0  0  1  2 0.50924925D+03 0.00000000D+00  -5  7  0 0.00000000D+00 0.00000000D+00 0.00000000D+00 0.00000000D+00 0.00000000D+00
  <mgrwgt>
 0.1171769381D-03    7    2    0
 0.910935158292089D+03 0.000000000000000D+00 0.000000000000000D+00 0.910935158292089D+03
 0.910935158292089D+03 0.000000000000000D+00 0.000000000000000D+00 -.910935158292089D+03
 0.174783567976408D+03 0.137639548657554D+03 0.333861468833627D+02 0.466343664285368D+02
 0.239450533700359D+03 -.208051002573117D+03 0.335955284242009D+02 -.113677961310038D+03
 0.648847554303408D+03 -.486447511241504D+03 0.510003426117027D+02 -.426346024475367D+03
 0.758788660604003D+03 0.556858965157067D+03 -.117982017919266D+03 0.493389619356868D+03
 0.000000000000000D+00 0.000000000000000D+00 0.000000000000000D+00 0.000000000000000D+00
 0.256800146231113D+04 0.000000000000000D+00 0.000000000000000D+00 0.256800146231113D+04
 0.985820074693714D+03 0.000000000000000D+00 0.000000000000000D+00 -.985820074693714D+03
 0.148888594155356D+03 0.108063471414296D+03 0.290067679644167D+00 0.466343664285368D+02
 0.280377566914256D+03 -.255551151970380D+03 -.195578594882763D+02 -.113677961310038D+03
 0.753692636971493D+03 -.614606932678041D+03 -.924119945850194D+02 -.426346024475367D+03
 0.708745791511659D+03 0.422760586022301D+03 -.268040138894259D+03 0.493389619356868D+03
 0.166211694745208D+04 0.339334027211825D+03 0.379719925287911D+03 0.158218138761741D+04
0.382793073958D-03 0.000000000000D+00 0.000000000000D+00 0.105259658509D-05 0.000000000000D+00  7 -1 1 23 -13 13 23 21 0 0.24315287D+00 0.80773485D-01 0.52185103D+06 0.52185103D+06 0.52185103D+06 0.10672000D+01  1  2  2  1  7  1       -1 0.115888577134D-03 0.100000000000D+01
-.198757345600D-04 0.000000000000D+00 -.147002619573D-05 0.105259658509D-05 0.000000000000D+00  7 -1 1 23 -13 13 23 21 2 0.24315287D+00 0.80773485D-01 0.52185103D+06 0.52185103D+06 0.52185103D+06 0.10672000D+01  1  2  3  1  7  1       -1 -.685316775405D-05 0.100000000000D+01
0.242904383134D-04 0.000000000000D+00 0.000000000000D+00 0.105259658509D-05 0.000000000000D+00  7 -1 1 23 -13 13 23 21 2 0.24315287D+00 0.80773485D-01 0.52185103D+06 0.52185103D+06 0.52185103D+06 0.10672000D+01  1  2 15  1  7  1       -1 0.837536082395D-05 0.100000000000D+01
0.150101443253D-03 0.000000000000D+00 0.000000000000D+00 0.105259658509D-05 0.000000000000D+00  7 -1 1 23 -13 13 23 21 2 0.67487311D+00 0.80773485D-01 0.10376170D+07 0.10376170D+07 0.10376170D+07 0.10467981D+01  1  2 12  1  7  1       -1 0.516643939907D-07 0.100000000000D+01
-.627777340395D-03 0.000000000000D+00 -.953554595148D-04 0.105259658509D-05 0.000000000000D+00  7 -1 1 23 -13 13 23 21 2 0.69071417D+00 0.80773485D-01 0.52185103D+06 0.52185103D+06 0.52185103D+06 0.10672000D+01  1  2  5  1  7  1       -1 -.242554129563D-06 0.100000000000D+01
0.171793839463D-04 0.000000000000D+00 0.000000000000D+00 0.105259658509D-05 0.000000000000D+00  7 21 1 23 -13 13 23 1 2 0.67487311D+00 0.80773485D-01 0.10376170D+07 0.10376170D+07 0.10376170D+07 0.10467981D+01  1  2 12  3  7  1       -1 0.191616014619D-07 0.100000000000D+01
-.685876368183D-04 0.000000000000D+00 -.112104799967D-04 0.105259658509D-05 0.000000000000D+00  7 21 1 23 -13 13 23 1 2 0.69071417D+00 0.80773485D-01 0.52185103D+06 0.52185103D+06 0.52185103D+06 0.10672000D+01  1  2  5  3  7  1       -1 -.621039698239D-07 0.100000000000D+01
  </mgrwgt>
  </event>
  <event>
  8     66 0.58687835E-06 0.31414485E+03 0.75467711E-02 0.95673334E-01
       -1 -1    0    0    0  501 0.00000000E+00 0.00000000E+00 0.21062464E+03 0.21062489E+03 0.32000000E+00 0.0000E+00 0.9000E+01
        1 -1    0    0  501    0 0.00000000E+00 0.00000000E+00 -.11117933E+04 0.11117933E+04 0.32000000E+00 0.0000E+00 0.9000E+01
       25  2    1    2    0    0 0.10893381E+02 -.27201756E+03 -.29558856E+02 0.40490264E+03 0.29826198E+03 0.0000E+00 0.0000E+00
       23  2    1    2    0    0 -.10893381E+02 0.27201756E+03 -.87160976E+03 0.91751555E+03 0.89548811E+02 0.0000E+00 0.0000E+00
       23  1    3    3    0    0 -.47043099E+02 -.91827123E+02 -.11371100E+03 0.17857972E+03 0.91188000E+02 0.0000E+00 0.9000E+01
      -13  1    4    4    0    0 0.22108749E+02 0.36472207E+02 -.76407442E+02 0.87505012E+02 0.10565837E+00 0.0000E+00 0.9000E+01
       13  1    4    4    0    0 -.33002131E+02 0.23554535E+03 -.79520232E+03 0.83001054E+03 0.10565837E+00 0.0000E+00 0.9000E+01
       23  1    3    3    0    0 0.57936480E+02 -.18019044E+03 0.84152147E+02 0.22632292E+03 0.91188000E+02 0.0000E+00 0.9000E+01
#aMCatNLO 1  0  0  1  2 0.23657499D+03 0.00000000D+00  -5  7  0 0.00000000D+00 0.00000000D+00 0.00000000D+00 0.00000000D+00 0.00000000D+00
  <mgrwgt>
 0.1507566493D-03    4    2    0
 0.483912440337993D+03 0.000000000000000D+00 0.000000000000000D+00 0.483912440337993D+03
 0.483912440337993D+03 0.000000000000000D+00 0.000000000000000D+00 -.483912440337993D+03
 0.138128590061468D+03 -.470430988853760D+02 -.918271228908195D+02 0.109079052628890D+02
 0.484196740372966D+02 0.221088259799442D+02 0.364719301809972D+02 -.229229787885229D+02
 0.393676721907796D+03 -.330022072719935D+02 0.235545629748910D+03 -.313704434130974D+03
 0.387599894669425D+03 0.579364801774253D+02 -.180190437039087D+03 0.325719507656607D+03
 0.000000000000000D+00 -.000000000000000D+00 0.000000000000000D+00 -.000000000000000D+00
 0.595971218617917D+03 0.000000000000000D+00 0.000000000000000D+00 0.595971218617917D+03
 0.641209875900313D+03 0.000000000000000D+00 0.000000000000000D+00 -.641209875900313D+03
 0.134726538909975D+03 -.146679330120227D+02 -.974774757910339D+02 0.109079052628890D+02
 0.536362758837053D+02 0.342181028680501D+02 0.343585298033169D+02 -.229229787885229D+02
 0.387421336616737D+03 0.596776675883858D+02 0.219370453944178D+03 -.313704434130974D+03
 0.420535439593393D+03 0.153824417463057D+03 -.196925507576081D+03 0.325719507656607D+03
 0.240861503514421D+03 -.233052254907470D+03 0.406739996196206D+02 -.452386572823961D+02
0.162762684608D-04 0.000000000000D+00 0.000000000000D+00 0.103122779581D-06 0.000000000000D+00  7 -1 1 23 -13 13 23 21 0 0.32403814D-01 0.17104514D+00 0.98686986D+05 0.98686986D+05 0.98686986D+05 0.11221934D+01  1  2  2  1  7  1       -1 0.217915987758D-03 0.100000000000D+01
-.699011572583D-06 0.000000000000D+00 -.625051565293D-07 0.103122779581D-06 0.000000000000D+00  7 -1 1 23 -13 13 23 21 2 0.32403814D-01 0.17104514D+00 0.98686986D+05 0.98686986D+05 0.98686986D+05 0.11221934D+01  1  2  3  1  7  1       -1 -.117856632792D-04 0.100000000000D+01
0.991216394944D-06 0.000000000000D+00 0.000000000000D+00 0.103122779581D-06 0.000000000000D+00  7 -1 1 23 -13 13 23 21 2 0.32403814D-01 0.17104514D+00 0.98686986D+05 0.98686986D+05 0.98686986D+05 0.11221934D+01  1  2 15  1  7  1       -1 0.167123737657D-04 0.100000000000D+01
-.427544731499D-05 0.000000000000D+00 0.000000000000D+00 0.103122779581D-06 0.000000000000D+00  7 -1 1 23 -13 13 23 21 2 0.32403814D-01 0.17104514D+00 0.98686986D+05 0.98686986D+05 0.98686986D+05 0.11221934D+01  1  2  4  1  7  1       -1 -.720860489276D-04 0.100000000000D+01
  </mgrwgt>
  </event>
  <event>
  8     66 0.58687835E-06 0.17188429E+03 0.75467711E-02 0.96236735E-01
       -1 -1    0    0    0  502 0.00000000E+00 0.00000000E+00 0.21702941E+03 0.21702964E+03 0.32000000E+00 0.0000E+00 0.9000E+01
        1 -1    0    0  501    0 0.00000000E+00 0.00000000E+00 -.12158054E+04 0.12158054E+04 0.32000000E+00 0.0000E+00 0.9000E+01
       25  2    1    2    0    0 -.21956474E+03 -.93112563E+02 -.52863739E+03 0.65317138E+03 0.30049416E+03 0.0000E+00 0.0000E+00
       23  1    3    3    0    0 -.88684327E+02 -.65131066E+02 -.45190556E+03 0.47396293E+03 0.91188000E+02 0.0000E+00 0.9000E+01
      -13  1    1    2    0    0 -.27221051E+02 -.38506583E+02 0.33163926E+02 0.57650669E+02 0.10565837E+00 0.0000E+00 0.9000E+01
       13  1    1    2    0    0 0.42760857E+01 -.14769121E+03 -.14052226E+03 0.20390560E+03 0.10565837E+00 0.0000E+00 0.9000E+01
       23  1    3    3    0    0 -.13088041E+03 -.27981497E+02 -.76731831E+02 0.17920846E+03 0.91188000E+02 0.0000E+00 0.9000E+01
       21  1    1    2  501  502 0.24250970E+03 0.27931035E+03 -.36278027E+03 0.51810744E+03 0.75000000E+00 0.0000E+00 0.9000E+01
#aMCatNLO 2  0  0  1  2 0.36989895D+03 0.00000000D+00  -5  7  0 0.00000000D+00 0.00000000D+00 0.00000000D+00 0.00000000D+00 0.00000000D+00
  <mgrwgt>
 0.7416763981D-05    1    2    0
 0.271758572227866D+03 0.000000000000000D+00 0.000000000000000D+00 0.271758572227866D+03
 0.271758572227866D+03 0.000000000000000D+00 0.000000000000000D+00 -.271758572227866D+03
 0.195838742106406D+03 -.425943520573374D+01 0.321145813601462D+02 -.170258839540301D+03
 0.103894282874873D+03 0.164408889124635D+02 0.117612953640476D+02 0.101908739160152D+03
 0.104743879760381D+03 0.552658016244501D+02 -.889601014817325D+02 0.175267293697518D+01
 0.139040239714072D+03 -.674472553311799D+02 0.450842247575387D+02 0.665974274431745D+02
 0.000000000000000D+00 0.000000000000000D+00 0.000000000000000D+00 -.000000000000000D+00
 0.511908514492247D+03 0.000000000000000D+00 0.000000000000000D+00 0.511908514492247D+03
 0.515454086778017D+03 0.000000000000000D+00 0.000000000000000D+00 -.515454086778017D+03
 0.222286542783458D+03 -.886911543168024D+02 -.651295820880589D+02 -.170258839540301D+03
 0.112292360313297D+03 -.272135146666846D+02 -.385176282629862D+02 0.101908739160152D+03
 0.147757065807340D+03 0.427847872894860D+01 -.147684708935409D+03 0.175267293697518D+01
 0.175110695035697D+03 -.130883513409327D+03 -.279784336135277D+02 0.665974274431745D+02
 0.369915937330472D+03 0.242509703663865D+03 0.279310352899981D+03 -.354557228576985D+01
0.583054155752D-06 0.000000000000D+00 0.000000000000D+00 0.387843337256D-09 0.221566470383D-13  7 -1 1 23 -13 13 23 21 2 0.33389136D-01 0.18704687D+00 0.18908105D+06 0.18908105D+06 0.18908105D+06 0.10997029D+01  1  2  1  1  7  1       -1 0.741676398126D-05 0.100000000000D+01
  </mgrwgt>
  </event>
  <event>
  8     66 0.58687835E-06 0.23371253E+03 0.75467711E-02 0.92772599E-01
       -1 -1    0    0    0  501 0.00000000E+00 0.00000000E+00 0.58832470E+02 0.58833340E+02 0.32000000E+00 0.0000E+00 0.9000E+01
        1 -1    0    0  501    0 0.00000000E+00 0.00000000E+00 -.22995213E+04 0.22995213E+04 0.32000000E+00 0.0000E+00 0.9000E+01
       25  2    1    2    0    0 0.11148844E+03 -.98479789E+02 -.21161508E+04 0.21431834E+04 0.30498059E+03 0.0000E+00 0.0000E+00
       23  2    1    2    0    0 -.11148844E+03 0.98479789E+02 -.12453805E+03 0.21517123E+03 0.93064457E+02 0.0000E+00 0.0000E+00
       23  1    3    3    0    0 -.54162223E+02 -.63521068E+02 -.47575620E+03 0.49155640E+03 0.91188000E+02 0.0000E+00 0.9000E+01
      -13  1    4    4    0    0 -.58133890E+02 0.70101915E+02 -.18215365E+02 0.92874314E+02 0.10565837E+00 0.0000E+00 0.9000E+01
       13  1    4    4    0    0 -.53354545E+02 0.28377874E+02 -.10632269E+03 0.12229692E+03 0.10565837E+00 0.0000E+00 0.9000E+01
       23  1    3    3    0    0 0.16565066E+03 -.34958722E+02 -.16403946E+04 0.16516270E+04 0.91188000E+02 0.0000E+00 0.9000E+01
#aMCatNLO 1  0  0  2  2 0.48583148D+03 0.00000000D+00  -5  7  0 0.00000000D+00 0.00000000D+00 0.00000000D+00 0.00000000D+00 0.00000000D+00
  <mgrwgt>
 0.1913272119D-03    5    2    0
 0.367814586417853D+03 0.000000000000000D+00 0.000000000000000D+00 0.367814586417853D+03
 0.367814586417853D+03 0.000000000000000D+00 0.000000000000000D+00 -.367814586417853D+03
 0.126752319085834D+03 -.541622225188117D+02 -.635210676143976D+02 -.279718907224176D+02
 0.242263057712502D+03 -.581338975663463D+02 0.701019691369414D+02 0.224493993258350D+03
 0.682181812939958D+02 -.533545380030492D+02 0.283778202957132D+02 0.316498475321110D+02
 0.298395614743374D+03 0.165650658088207D+03 -.349587218182571D+02 -.228171950068043D+03
 0.000000000000000D+00 -.000000000000000D+00 -.000000000000000D+00 -.000000000000000D+00
 0.631371022962407D+03 0.000000000000000D+00 0.000000000000000D+00 0.631371022962407D+03
 0.750411309496330D+03 0.000000000000000D+00 0.000000000000000D+00 -.750411309496330D+03
 0.983003267588314D+02 0.525895896182909D+00 -.237697214921110D+02 -.279718907224176D+02
 0.286493628144995D+03 0.703547417934135D+02 0.163496961029203D+03 0.224493993258350D+03
 0.642693205847027D+02 -.211598834409783D+02 0.517792627639448D+02 0.316498475321110D+02
 0.432516278386946D+03 0.343263305175362D+03 0.941432113746239D+02 -.228171950068043D+03
 0.500202778583262D+03 -.392984059423980D+03 -.285649713675661D+03 -.119040286533923D+03
0.110985843298D-04 0.000000000000D+00 0.000000000000D+00 0.705936037736D-08 0.000000000000D+00  7 -1 1 23 -13 13 23 21 0 0.90512179D-02 0.35377258D+00 0.54621546D+05 0.54621546D+05 0.54621546D+05 0.11439335D+01  1  2  2  2  7  2        1 0.186362698135D-03 0.100000000000D+01
-.462415666357D-06 0.000000000000D+00 -.426214861507D-07 0.705936037736D-08 0.000000000000D+00  7 -1 1 23 -13 13 23 21 2 0.90512179D-02 0.35377258D+00 0.54621546D+05 0.54621546D+05 0.54621546D+05 0.11439335D+01  1  2  3  2  7  2        1 -.101607439048D-04 0.100000000000D+01
0.686506621230D-06 0.000000000000D+00 0.000000000000D+00 0.705936037736D-08 0.000000000000D+00  7 -1 1 23 -13 13 23 21 2 0.90512179D-02 0.35377258D+00 0.54621546D+05 0.54621546D+05 0.54621546D+05 0.11439335D+01  1  2 15  2  7  2        1 0.150847353902D-04 0.100000000000D+01
0.607703051238D-06 0.000000000000D+00 -.238242241060D-05 0.705936037736D-08 0.000000000000D+00  7 -1 1 23 -13 13 23 21 2 0.90512179D-02 0.78216884D+00 0.54621546D+05 0.54621546D+05 0.54621546D+05 0.11439335D+01  1  2  5  2  7  2        1 0.400478372494D-07 0.100000000000D+01
0.202500543810D-06 0.000000000000D+00 -.204959218850D-06 0.705936037736D-08 0.000000000000D+00  7 -1 21 23 -13 13 23 -1 2 0.90512179D-02 0.78216884D+00 0.54621546D+05 0.54621546D+05 0.54621546D+05 0.11439335D+01  1  2  5  4  7  2        1 0.474474285135D-09 0.100000000000D+01
  </mgrwgt>
  </event>
  <event>
  8     66 0.58687835E-06 0.52401562E+03 0.75467711E-02 0.90412424E-01
       -1 -1    0    0    0  501 0.00000000E+00 0.00000000E+00 0.29854810E+03 0.29854828E+03 0.32000000E+00 0.0000E+00 0.9000E+01
        1 -1    0    0  501    0 0.00000000E+00 0.00000000E+00 -.10107313E+04 0.10107313E+04 0.32000000E+00 0.0000E+00 0.9000E+01
       25  2    1    2    0    0 -.35670605E+03 -.34453788E+03 -.47751150E+03 0.75131532E+03 0.30085200E+03 0.0000E+00 0.0000E+00
       23  2    1    2    0    0 0.35670605E+03 0.34453788E+03 -.23467169E+03 0.55796429E+03 0.10152733E+03 0.0000E+00 0.0000E+00
       23  1    3    3    0    0 -.21435728E+03 -.11556110E+03 -.10015684E+03 0.27865759E+03 0.91188000E+02 0.0000E+00 0.9000E+01
      -13  1    4    4    0    0 0.24770507E+03 0.29032483E+03 -.20256283E+03 0.43206251E+03 0.10565837E+00 0.0000E+00 0.9000E+01
       13  1    4    4    0    0 0.10900098E+03 0.54213051E+02 -.32108859E+02 0.12590178E+03 0.10565837E+00 0.0000E+00 0.9000E+01
       23  1    3    3    0    0 -.14234877E+03 -.22897678E+03 -.37735466E+03 0.47265773E+03 0.91188000E+02 0.0000E+00 0.9000E+01
#aMCatNLO 1  0  0  2  2 0.36880140D+03 0.00000000D+00  -5  7  0 0.00000000D+00 0.00000000D+00 0.00000000D+00 0.00000000D+00 0.00000000D+00
  <mgrwgt>
 0.1564276962D-03    4    2    0
 0.549319630529746D+03 0.000000000000000D+00 0.000000000000000D+00 0.549319630529746D+03
 0.549319630529746D+03 0.000000000000000D+00 0.000000000000000D+00 -.549319630529746D+03
 0.267158385936959D+03 -.214357278505119D+03 -.115561101231441D+03 0.612775722960419D+02
 0.383591887002510D+03 0.247705223698728D+03 0.290325078852341D+03 0.386808287901350D+02
 0.129226166235789D+03 0.109000824423504D+03 0.542128011507868D+02 0.433496771196926D+02
 0.318662821884234D+03 -.142348769617113D+03 -.228976778771686D+03 -.143308078205869D+03
 0.000000000000000D+00 0.000000000000000D+00 -.000000000000000D+00 0.000000000000000D+00
 0.809781577461460D+03 0.000000000000000D+00 0.000000000000000D+00 0.809781577461460D+03
 0.727069606165666D+03 0.000000000000000D+00 0.000000000000000D+00 -.727069606165666D+03
 0.291823637778951D+03 -.267211824855863D+03 -.410936006361514D+02 0.612775722960419D+02
 0.435975229125271D+03 0.170211053422982D+03 0.399507686018154D+03 0.386808287901350D+02
 0.129975070577988D+03 0.844920509672989D+02 0.887435506879842D+02 0.433496771196926D+02
 0.301114624504298D+03 -.200951827278118D+03 -.146410121169578D+03 -.143308078205869D+03
 0.377962621640617D+03 0.213460547743700D+03 -.300747514900409D+03 0.827119712957940D+02
0.245327624191D-04 0.000000000000D+00 0.000000000000D+00 0.666420635694D-08 0.000000000000D+00  7 -1 1 23 -13 13 23 21 0 0.45930495D-01 0.15549714D+00 0.27459237D+06 0.27459237D+06 0.27459237D+06 0.10874068D+01  1  2  2  2  7  2        1 0.206148234334D-03 0.100000000000D+01
-.135924584751D-05 0.000000000000D+00 -.942122673142D-07 0.666420635694D-08 0.000000000000D+00  7 -1 1 23 -13 13 23 21 2 0.45930495D-01 0.15549714D+00 0.27459237D+06 0.27459237D+06 0.27459237D+06 0.10874068D+01  1  2  3  2  7  2        1 -.135056430276D-04 0.100000000000D+01
0.158402276598D-05 0.000000000000D+00 0.000000000000D+00 0.666420635694D-08 0.000000000000D+00  7 -1 1 23 -13 13 23 21 2 0.45930495D-01 0.15549714D+00 0.27459237D+06 0.27459237D+06 0.27459237D+06 0.10874068D+01  1  2 15  2  7  2        1 0.157390556419D-04 0.100000000000D+01
-.522879152181D-05 0.000000000000D+00 0.000000000000D+00 0.666420635694D-08 0.000000000000D+00  7 -1 1 23 -13 13 23 21 2 0.45930495D-01 0.15549714D+00 0.27459237D+06 0.27459237D+06 0.27459237D+06 0.10874068D+01  1  2  4  2  7  2        1 -.519539507064D-04 0.100000000000D+01
  </mgrwgt>
  </event>
  <event>
  8     66 0.58687835E-06 0.41170703E+03 0.75467711E-02 0.95593109E-01
       -1 -1    0    0    0  501 0.00000000E+00 0.00000000E+00 0.23208550E+03 0.23208572E+03 0.32000000E+00 0.0000E+00 0.9000E+01
        1 -1    0    0  501    0 0.00000000E+00 0.00000000E+00 -.91290024E+03 0.91290030E+03 0.32000000E+00 0.0000E+00 0.9000E+01
       25  2    1    2    0    0 -.26336787E+03 -.23925851E+03 -.61445456E+03 0.77178801E+03 0.30248149E+03 0.0000E+00 0.0000E+00
       23  2    1    2    0    0 0.26336787E+03 0.23925851E+03 -.66360184E+02 0.37319801E+03 0.90916481E+02 0.0000E+00 0.0000E+00
       23  1    3    3    0    0 -.96339156E+02 0.29706297E+02 -.20937597E+03 0.24963422E+03 0.91188000E+02 0.0000E+00 0.9000E+01
      -11  1    4    4    0    0 -.14658174E+01 0.11528560E+01 -.12947628E+02 0.13081237E+02 0.51099893E-03 0.0000E+00 0.9000E+01
       11  1    4    4    0    0 0.26483369E+03 0.23810565E+03 -.53412556E+02 0.36011677E+03 0.51099893E-03 0.0000E+00 0.9000E+01
       23  1    3    3    0    0 -.16702872E+03 -.26896481E+03 -.40507859E+03 0.52215379E+03 0.91188000E+02 0.0000E+00 0.9000E+01
#aMCatNLO 1  0  0  1  1 0.89708189D+02 0.00000000D+00  -5  7  0 0.00000000D+00 0.00000000D+00 0.00000000D+00 0.00000000D+00 0.00000000D+00
  <mgrwgt>
 0.3228124186D-03    3    2    0
 0.460294539916369D+03 0.000000000000000D+00 0.000000000000000D+00 0.460294539916369D+03
 0.460294539916369D+03 0.000000000000000D+00 0.000000000000000D+00 -.460294539916369D+03
 0.155641043766196D+03 -.963391558358431D+02 0.297062972969222D+02 -.757970059723673D+02
 0.669451523270172D+01 -.146581745179067D+01 0.115285596221477D+01 -.642952848421147D+01
 0.408395683921627D+03 0.264833689586774D+03 0.238105653817993D+03 0.199889592339310D+03
 0.349857836912212D+03 -.167028716299141D+03 -.268964807077130D+03 -.117663057882731D+03
 0.000000000000000D+00 0.000000000000000D+00 -.000000000000000D+00 -.000000000000000D+00
 0.465921232650023D+03 0.000000000000000D+00 0.000000000000000D+00 0.465921232650023D+03
 0.104623721575679D+04 0.000000000000000D+00 0.000000000000000D+00 -.104623721575679D+04
 0.164749298903533D+03 -.106618314997246D+03 0.414056631148256D+02 -.757970059723673D+02
 0.690489891119715D+01 -.190213067310107D+01 0.164945183228022D+01 -.642952848421147D+01
 0.410726942812493D+03 0.238553584566299D+03 0.268016715368819D+03 0.199889592339310D+03
 0.342568486739356D+03 -.189243993854172D+03 -.243680184591813D+03 -.117663057882731D+03
 0.587208821040230D+03 0.592108549582199D+02 -.673916457241127D+02 -.580315983106763D+03
0.201746343551D-04 0.000000000000D+00 0.000000000000D+00 0.891026727432D-07 0.000000000000D+00  7 -1 1 23 -11 11 23 21 0 0.35705482D-01 0.14044621D+00 0.16950268D+06 0.16950268D+06 0.16950268D+06 0.11033869D+01  1  2  2  1  7  1       -1 0.318680155803D-03 0.100000000000D+01
-.110385443753D-05 0.000000000000D+00 -.774759080268D-07 0.891026727432D-07 0.000000000000D+00  7 -1 1 23 -11 11 23 21 2 0.35705482D-01 0.14044621D+00 0.16950268D+06 0.16950268D+06 0.16950268D+06 0.11033869D+01  1  2  3  1  7  1       -1 -.212283785237D-04 0.100000000000D+01
0.131872796650D-05 0.000000000000D+00 0.000000000000D+00 0.891026727432D-07 0.000000000000D+00  7 -1 1 23 -11 11 23 21 2 0.35705482D-01 0.14044621D+00 0.16950268D+06 0.16950268D+06 0.16950268D+06 0.11033869D+01  1  2 15  1  7  1       -1 0.253606413047D-04 0.100000000000D+01
  </mgrwgt>
  </event>
  <event>
  8     66 0.58687835E-06 0.35215270E+03 0.75467711E-02 0.90896975E-01
       -1 -1    0    0    0  501 0.00000000E+00 0.00000000E+00 0.13988281E+03 0.13988318E+03 0.32000000E+00 0.0000E+00 0.9000E+01
        1 -1    0    0  501    0 0.00000000E+00 0.00000000E+00 -.22175914E+04 0.22175915E+04 0.32000000E+00 0.0000E+00 0.9000E+01
       25  2    1    2    0    0 0.13328080E+03 -.46045622E+03 -.14890967E+04 0.15928255E+04 0.29983390E+03 0.0000E+00 0.0000E+00
       23  2    1    2    0    0 -.13328080E+03 0.46045622E+03 -.58861189E+03 0.76464911E+03 0.91872719E+02 0.0000E+00 0.0000E+00
       23  1    3    3    0    0 -.25442892E+02 -.96420148E+02 -.20414685E+03 0.24481702E+03 0.91188000E+02 0.0000E+00 0.9000E+01
      -13  1    4    4    0    0 -.13003776E+03 0.35625557E+03 -.41537432E+03 0.56246217E+03 0.10565837E+00 0.0000E+00 0.9000E+01
       13  1    4    4    0    0 -.32430404E+01 0.10420065E+03 -.17323756E+03 0.20218694E+03 0.10565837E+00 0.0000E+00 0.9000E+01
       23  1    3    3    0    0 0.15872369E+03 -.36403608E+03 -.12849499E+04 0.13480085E+04 0.91188000E+02 0.0000E+00 0.9000E+01
#aMCatNLO 1  0  0  2  1 0.33763933D+03 0.00000000D+00  -5  7  0 0.00000000D+00 0.00000000D+00 0.00000000D+00 0.00000000D+00 0.00000000D+00
  <mgrwgt>
 0.1977543343D-03    9    2    0
 0.556959048582362D+03 0.000000000000000D+00 0.000000000000000D+00 0.556959048582362D+03
 0.556959048582362D+03 0.000000000000000D+00 0.000000000000000D+00 -.556959048582362D+03
 0.137346044389643D+03 -.254428924521558D+02 -.964201483689899D+02 0.245865568482383D+02
 0.415617574711631D+03 -.130037929532499D+03 0.356255903726877D+03 0.170028927985283D+03
 0.104776950573428D+03 -.324287270139683D+01 0.104200320348487D+03 0.104874395055113D+02
 0.456177527490024D+03 0.158723694686052D+03 -.364036075706374D+03 -.205102924339033D+03
 0.000000000000000D+00 0.000000000000000D+00 -.000000000000000D+00 -.000000000000000D+00
 0.679065073014553D+03 0.000000000000000D+00 0.000000000000000D+00 0.679065073014553D+03
 0.875547257942140D+03 0.000000000000000D+00 0.000000000000000D+00 -.875547257942140D+03
 0.129729178316520D+03 -.548985612766398D+02 -.699718340104268D+02 0.245865568482383D+02
 0.535763420751642D+03 -.234965534737965D+03 0.450470647377804D+03 0.170028927985283D+03
 0.131317211310510D+03 -.292816469964521D+02 0.127580597067746D+03 0.104874395055113D+02
 0.367154898280448D+03 0.679185386696288D+02 -.282501912418103D+03 -.205102924339033D+03
 0.390647622297573D+03 0.251227204341428D+03 -.225577498017021D+03 -.196482184927587D+03
0.362399744804D-04 0.000000000000D+00 0.000000000000D+00 0.206066421798D-05 0.000000000000D+00  7 -1 1 23 -13 13 23 21 0 0.21520462D-01 0.34116794D+00 0.26321709D+06 0.26321709D+06 0.26321709D+06 0.10887799D+01  1  2  2  2  7  2        1 0.166476351983D-03 0.100000000000D+01
-.199682208780D-05 0.000000000000D+00 -.139171044209D-06 0.206066421798D-05 0.000000000000D+00  7 -1 1 23 -13 13 23 21 2 0.21520462D-01 0.34116794D+00 0.26321709D+06 0.26321709D+06 0.26321709D+06 0.10887799D+01  1  2  3  2  7  2        1 -.108738722451D-04 0.100000000000D+01
0.228812499306D-05 0.000000000000D+00 0.000000000000D+00 0.206066421798D-05 0.000000000000D+00  7 -1 1 23 -13 13 23 21 2 0.21520462D-01 0.34116794D+00 0.26321709D+06 0.26321709D+06 0.26321709D+06 0.10887799D+01  1  2 15  2  7  2        1 0.124601881196D-04 0.100000000000D+01
0.448216593644D-05 0.000000000000D+00 0.000000000000D+00 0.206066421798D-05 0.000000000000D+00  7 -1 1 23 -13 13 23 21 2 0.21520462D-01 0.55638071D+00 0.49597348D+06 0.49597348D+06 0.49597348D+06 0.10687587D+01  1  2 12  2  7  2        1 0.206018957177D-05 0.100000000000D+01
-.154305979253D-04 0.000000000000D+00 0.000000000000D+00 0.206066421798D-05 0.000000000000D+00  7 -1 1 23 -13 13 23 21 2 0.21520462D-01 0.34116794D+00 0.26321709D+06 0.26321709D+06 0.26321709D+06 0.10887799D+01  1  2  4  2  7  2        1 -.840286931572D-04 0.100000000000D+01
-.192196791616D-04 0.000000000000D+00 -.933112188529D-05 0.206066421798D-05 0.000000000000D+00  7 -1 1 23 -13 13 23 21 2 0.21520462D-01 0.56347285D+00 0.26321709D+06 0.26321709D+06 0.26321709D+06 0.10887799D+01  1  2  5  2  7  2        1 -.878067706971D-05 0.100000000000D+01
0.221209484974D-04 0.000000000000D+00 0.826833764745D-05 0.206066421798D-05 0.000000000000D+00  7 -1 1 23 -13 13 23 21 2 0.21520462D-01 0.34116794D+00 0.26321709D+06 0.26321709D+06 0.26321709D+06 0.10887799D+01  1  2  6  2  7  2        1 0.120461592133D-03 0.100000000000D+01
0.248354047124D-06 0.000000000000D+00 0.000000000000D+00 0.206066421798D-05 0.000000000000D+00  7 -1 21 23 -13 13 23 -1 2 0.21520462D-01 0.55638071D+00 0.49597348D+06 0.49597348D+06 0.49597348D+06 0.10687587D+01  1  2 12  4  7  2        1 0.130436644677D-07 0.100000000000D+01
-.664124438362D-06 0.000000000000D+00 -.527567744496D-06 0.206066421798D-05 0.000000000000D+00  7 -1 21 23 -13 13 23 -1 2 0.21520462D-01 0.56347285D+00 0.26321709D+06 0.26321709D+06 0.26321709D+06 0.10887799D+01  1  2  5  4  7  2        1 -.337886927357D-07 0.100000000000D+01
  </mgrwgt>
  </event>
  <event>
  8     66 0.58687835E-06 0.26710313E+03 0.75467711E-02 0.91928441E-01
       -1 -1    0    0    0  501 0.00000000E+00 0.00000000E+00 0.45988376E+03 0.45988387E+03 0.32000000E+00 0.0000E+00 0.9000E+01
        1 -1    0    0  501    0 0.00000000E+00 0.00000000E+00 -.74952766E+03 0.74952773E+03 0.32000000E+00 0.0000E+00 0.9000E+01
       25  2    1    2    0    0 0.49661013E+03 0.22311973E+03 -.17397611E+03 0.64560836E+03 0.30023062E+03 0.0000E+00 0.0000E+00
       23  2    1    2    0    0 -.49661013E+03 -.22311973E+03 -.11566779E+03 0.56380324E+03 0.89950095E+02 0.0000E+00 0.0000E+00
       23  1    3    3    0    0 0.26162430E+03 0.21671507E+03 -.17629787E+03 0.39345760E+03 0.91188000E+02 0.0000E+00 0.9000E+01
      -13  1    4    4    0    0 0.36990758E+01 -.43556999E+01 -.19667709E+01 0.60443887E+01 0.10565837E+00 0.0000E+00 0.9000E+01
       13  1    4    4    0    0 -.50030921E+03 -.21876403E+03 -.11370102E+03 0.55775885E+03 0.10565837E+00 0.0000E+00 0.9000E+01
       23  1    3    3    0    0 0.23498583E+03 0.64046661E+01 0.23217559E+01 0.25215076E+03 0.91188000E+02 0.0000E+00 0.9000E+01
#aMCatNLO 1  0  0  1  2 0.11515370D+03 0.00000000D+00  -5  7  0 0.00000000D+00 0.00000000D+00 0.00000000D+00 0.00000000D+00 0.00000000D+00
  <mgrwgt>
 0.3959095789D-03    9    2    0
 0.587107914602306D+03 0.000000000000000D+00 0.000000000000000D+00 0.587107914602306D+03
 0.587107914602306D+03 0.000000000000000D+00 0.000000000000000D+00 -.587107914602306D+03
 0.361763628536956D+03 0.261624296151256D+03 0.216715065327672D+03 -.845279818261802D+02
 0.573967276453335D+01 0.369977120237991D+01 -.435540411103837D+01 -.534781753163122D+00
 0.546431136395676D+03 -.500309900975901D+03 -.218764327301351D+03 0.204733707176229D+02
 0.260281391507447D+03 0.234985833622264D+03 0.640466608471739D+01 0.645893928617205D+02
 0.000000000000000D+00 -.000000000000000D+00 -.000000000000000D+00 0.000000000000000D+00
 0.730353743451240D+03 0.000000000000000D+00 0.000000000000000D+00 0.730353743451240D+03
 0.613531241927242D+03 0.000000000000000D+00 0.000000000000000D+00 -.613531241927242D+03
 0.392913935089894D+03 0.275666663165050D+03 0.250856572869169D+03 -.845279818261802D+02
 0.551020058107962D+01 0.390909881193358D+01 -.384646141261724D+01 -.534781753163122D+00
 0.510547973359349D+03 -.480642576411801D+03 -.170946740047957D+03 0.204733707176229D+02
 0.270876689460781D+03 0.244869149457776D+03 0.304341834589355D+02 0.645893928617205D+02
 0.164036186887379D+03 -.438023350229593D+02 -.106497554867531D+03 0.116822501523998D+03
0.454893957286D-04 0.000000000000D+00 0.000000000000D+00 0.139932563482D-05 0.000000000000D+00  7 -1 1 23 -13 13 23 21 0 0.70751361D-01 0.11531196D+00 0.33388292D+06 0.33388292D+06 0.33388292D+06 0.10811302D+01  1  2  2  1  7  1       -1 0.277307835979D-03 0.100000000000D+01
-.252640834152D-05 0.000000000000D+00 -.174691257231D-06 0.139932563482D-05 0.000000000000D+00  7 -1 1 23 -13 13 23 21 2 0.70751361D-01 0.11531196D+00 0.33388292D+06 0.33388292D+06 0.33388292D+06 0.10811302D+01  1  2  3  1  7  1       -1 -.180016186610D-04 0.100000000000D+01
0.294896056923D-05 0.000000000000D+00 0.000000000000D+00 0.139932563482D-05 0.000000000000D+00  7 -1 1 23 -13 13 23 21 2 0.70751361D-01 0.11531196D+00 0.33388292D+06 0.33388292D+06 0.33388292D+06 0.10811302D+01  1  2 15  1  7  1       -1 0.210124637182D-04 0.100000000000D+01
0.833521088432D-04 0.000000000000D+00 0.000000000000D+00 0.139932563482D-05 0.000000000000D+00  7 -1 1 23 -13 13 23 21 2 0.89328551D-01 0.11531196D+00 0.40803516D+06 0.40803516D+06 0.40803516D+06 0.10748055D+01  1  2 12  1  7  1       -1 0.360884119875D-03 0.100000000000D+01
-.850253965049D-04 0.000000000000D+00 0.000000000000D+00 0.139932563482D-05 0.000000000000D+00  7 -1 1 23 -13 13 23 21 2 0.70751361D-01 0.11531196D+00 0.33388292D+06 0.33388292D+06 0.33388292D+06 0.10811302D+01  1  2  4  1  7  1       -1 -.605838232572D-03 0.100000000000D+01
-.133471705729D-03 0.000000000000D+00 -.265357251676D-04 0.139932563482D-05 0.000000000000D+00  7 -1 1 23 -13 13 23 21 2 0.90634863D-01 0.11531196D+00 0.33388292D+06 0.33388292D+06 0.33388292D+06 0.10811302D+01  1  2  5  1  7  1       -1 -.571678349190D-03 0.100000000000D+01
0.136625575181D-03 0.000000000000D+00 0.257421811610D-04 0.139932563482D-05 0.000000000000D+00  7 -1 1 23 -13 13 23 21 2 0.70751361D-01 0.11531196D+00 0.33388292D+06 0.33388292D+06 0.33388292D+06 0.10811302D+01  1  2  6  1  7  1       -1 0.973509097215D-03 0.100000000000D+01
0.267860248785D-05 0.000000000000D+00 0.000000000000D+00 0.139932563482D-05 0.000000000000D+00  7 21 1 23 -13 13 23 1 2 0.89328551D-01 0.11531196D+00 0.40803516D+06 0.40803516D+06 0.40803516D+06 0.10748055D+01  1  2 12  3  7  1       -1 0.833093262836D-04 0.100000000000D+01
-.404803776076D-05 0.000000000000D+00 -.891860740540D-06 0.139932563482D-05 0.000000000000D+00  7 21 1 23 -13 13 23 1 2 0.90634863D-01 0.11531196D+00 0.33388292D+06 0.33388292D+06 0.33388292D+06 0.10811302D+01  1  2  5  3  7  1       -1 -.124595063735D-03 0.100000000000D+01
  </mgrwgt>
  </event>
  <event>
  9     66 0.58687835E-06 0.19910039E+03 0.75467711E-02 0.10245337E+00
       -1 -1    0    0    0  501 0.00000000E+00 0.00000000E+00 0.43678473E+03 0.43678485E+03 0.32000000E+00 0.0000E+00 0.9000E+01
        1 -1    0    0  502    0 0.00000000E+00 0.00000000E+00 -.27880421E+03 0.27880439E+03 0.32000000E+00 0.0000E+00 0.9000E+01
       25  2    1    2    0    0 0.12386550E+03 0.70884493E+02 0.26112216E+03 0.42427644E+03 0.30242096E+03 0.0000E+00 0.0000E+00
       23  2    1    2    0    0 -.12917048E+03 0.38711260E+02 -.55819131E+02 0.17181655E+03 0.90672899E+02 0.0000E+00 0.0000E+00
       23  1    3    3    0    0 0.35903865E+02 0.11385139E+03 0.24786725E+03 0.28983556E+03 0.91188000E+02 0.0000E+00 0.9000E+01
      -11  1    4    4    0    0 -.51409360E+02 0.21533693E+02 0.22513469E+02 0.60112216E+02 0.51099893E-03 0.0000E+00 0.9000E+01
       11  1    4    4    0    0 -.77761125E+02 0.17177567E+02 -.78332600E+02 0.11170433E+03 0.51099893E-03 0.0000E+00 0.9000E+01
       23  1    3    3    0    0 0.87961638E+02 -.42966901E+02 0.13254911E+02 0.13444087E+03 0.91188000E+02 0.0000E+00 0.9000E+01
       21  1    1    2  502  501 0.53049813E+01 -.10959575E+03 -.47322512E+02 0.11949625E+03 0.75000000E+00 0.0000E+00 0.9000E+01
#aMCatNLO 2  0  0  2  1 0.10972407D+03 0.00000000D+00  -5  7  0 0.00000000D+00 0.00000000D+00 0.00000000D+00 0.00000000D+00 0.00000000D+00
  <mgrwgt>
 0.4377506102D-04    2    2    0
 0.274380273504114D+03 0.000000000000000D+00 0.000000000000000D+00 0.274380273504114D+03
 0.274380273504114D+03 0.000000000000000D+00 0.000000000000000D+00 -.274380273504114D+03
 0.199711673390576D+03 0.379021329944779D+02 0.725691253854815D+02 0.157691634209679D+03
 0.520767386373197D+02 -.508931779381951D+02 0.108698812514451D+02 0.192790768202408D+01
 0.146462749719457D+03 -.763530920069672D+02 -.119110219195174D+02 -.124417321757032D+03
 0.150509385260875D+03 0.893441369506843D+02 -.715279847174092D+02 -.352022201346708D+02
 0.000000000000000D+00 0.000000000000000D+00 -.000000000000000D+00 -.000000000000000D+00
 0.305010215882204D+03 0.000000000000000D+00 0.000000000000000D+00 0.305010215882204D+03
 0.399254794970536D+03 0.000000000000000D+00 0.000000000000000D+00 -.399254794970536D+03
 0.217791483611613D+03 0.359038652212752D+02 0.113851394160111D+03 0.157691634209679D+03
 0.557704135346747D+02 -.514093596364711D+02 0.215336931241763D+02 0.192790768202408D+01
 0.147721126833332D+03 -.777611248566642D+02 0.171775673697634D+02 -.124417321757032D+03
 0.138339625612341D+03 0.879616380160800D+02 -.429669012808795D+02 -.352022201346708D+02
 0.144642361260780D+03 0.530498125578004D+01 -.109595753373172D+03 -.942445790883315D+02
-.132348287345D-05 0.000000000000D+00 0.000000000000D+00 0.314503163555D-06 0.000000000000D+00  7 -1 1 23 -11 11 23 21 2 0.60449321D-01 0.43945445D-01 0.69987826D+05 0.69987826D+05 0.69987826D+05 0.11346660D+01  1  2 13  2  7  2        1 -.559511642619D-04 0.100000000000D+01
0.278923311508D-05 0.000000000000D+00 0.000000000000D+00 0.314503163555D-06 0.194129526162D-09  7 -1 1 23 -11 11 23 21 2 0.67197470D-01 0.42892848D-01 0.69987826D+05 0.69987826D+05 0.69987826D+05 0.11346660D+01  1  2  1  2  7  2        1 0.997262252842D-04 0.100000000000D+01
  </mgrwgt>
  </event>
  <event>
  9     66 0.58687835E-06 0.60072454E+03 0.75467711E-02 0.91607073E-01
       -1 -1    0    0    0  502 0.00000000E+00 0.00000000E+00 0.10981659E+04 0.10981659E+04 0.32000000E+00 0.0000E+00 0.9000E+01
        1 -1    0    0  501    0 0.00000000E+00 0.00000000E+00 -.42288336E+03 0.42288348E+03 0.32000000E+00 0.0000E+00 0.9000E+01
       25  2    1    2    0    0 0.75100959E+02 0.61820778E+03 0.52708968E+03 0.86912494E+03 0.29955572E+03 0.0000E+00 0.0000E+00
       23  2    1    2    0    0 -.88485572E+02 -.50764722E+03 0.11686309E+03 0.53623132E+03 0.91387372E+02 0.0000E+00 0.0000E+00
       23  1    3    3    0    0 0.11544240E+02 0.55279021E+03 0.40386683E+03 0.69074883E+03 0.91188000E+02 0.0000E+00 0.9000E+01
      -11  1    4    4    0    0 -.44696353E+02 -.18359752E+03 -.63317583E-01 0.18895983E+03 0.51099893E-03 0.0000E+00 0.9000E+01
       11  1    4    4    0    0 -.43789220E+02 -.32404970E+03 0.11692641E+03 0.34727149E+03 0.51099893E-03 0.0000E+00 0.9000E+01
       23  1    3    3    0    0 0.63556719E+02 0.65417569E+02 0.12322285E+03 0.17837611E+03 0.91188000E+02 0.0000E+00 0.9000E+01
       21  1    1    2  501  502 0.13384614E+02 -.11056055E+03 0.31329737E+02 0.11569312E+03 0.75000000E+00 0.0000E+00 0.9000E+01
#aMCatNLO 2  0  0  1  1 0.11136779D+03 0.00000000D+00  -5  7  0 0.00000000D+00 0.00000000D+00 0.00000000D+00 0.00000000D+00 0.00000000D+00
  <mgrwgt>
 0.7989574268D-04    1    2    0
 0.622082847887055D+03 0.000000000000000D+00 0.000000000000000D+00 0.622082847887055D+03
 0.622082847887055D+03 0.000000000000000D+00 0.000000000000000D+00 -.622082847887055D+03
 0.522209189173604D+03 0.174017307039584D+02 0.504405734926311D+03 0.982813321811826D+02
 0.229307926488830D+03 -.423239672544177D+02 -.203194071217013D+03 -.974832107016856D+02
 0.360069479972608D+03 -.400825024354014D+02 -.354668195474672D+03 -.474751990517150D+02
 0.132579100139068D+03 0.650047389858607D+02 0.534565317653736D+02 0.466770775722179D+02
 0.000000000000000D+00 0.000000000000000D+00 -.000000000000000D+00 -.000000000000000D+00
 0.669377159786501D+03 0.000000000000000D+00 0.000000000000000D+00 0.669377159786501D+03
 0.693771068376377D+03 0.000000000000000D+00 0.000000000000000D+00 -.693771068376377D+03
 0.568932995181492D+03 0.115442397065007D+02 0.552790206078648D+03 0.982813321811826D+02
 0.212623587677420D+03 -.446963527261165D+02 -.183597521010201D+03 -.974832107016856D+02
 0.330423363193329D+03 -.437892197364504D+02 -.324049700900747D+03 -.474751990517150D+02
 0.137160183153672D+03 0.635567192445272D+02 0.654175692527505D+02 0.466770775722179D+02
 0.114008098956965D+03 0.133846135115389D+02 -.110560553420452D+03 -.243939085898765D+02
0.414118511912D-04 0.000000000000D+00 0.000000000000D+00 0.208575993770D-05 0.104227578590D-08  7 -1 1 23 -11 11 23 21 2 0.16894830D+00 0.65058873D-01 0.43340885D+06 0.43340885D+06 0.43340885D+06 0.10729252D+01  1  2  1  1  7  1       -1 0.798957426758D-04 0.100000000000D+01
  </mgrwgt>
  </event>
  <event>
  8     66 0.58687835E-06 0.18363037E+03 0.75467711E-02 0.10573823E+00
       -1 -1    0    0    0  501 0.00000000E+00 0.00000000E+00 0.10717406E+03 0.10717454E+03 0.32000000E+00 0.0000E+00 0.9000E+01
        1 -1    0    0  501    0 0.00000000E+00 0.00000000E+00 -.49843604E+03 0.49843614E+03 0.32000000E+00 0.0000E+00 0.9000E+01
       25  2    1    2    0    0 -.10207688E+03 -.44444834E+02 -.29151607E+03 0.43305911E+03 0.30027245E+03 0.0000E+00 0.0000E+00
       23  2    1    2    0    0 0.10207688E+03 0.44444834E+02 -.99745909E+02 0.17255156E+03 0.86196078E+02 0.0000E+00 0.0000E+00
       23  1    3    3    0    0 -.34642359E+02 0.36884415E+02 -.27304327E+03 0.29228143E+03 0.91188000E+02 0.0000E+00 0.9000E+01
      -13  1    4    4    0    0 0.47028754E+02 0.49321738E+02 -.95230787E+02 0.11710359E+03 0.10565837E+00 0.0000E+00 0.9000E+01
       13  1    4    4    0    0 0.55048123E+02 -.48769041E+01 -.45151218E+01 0.55447971E+02 0.10565837E+00 0.0000E+00 0.9000E+01
       23  1    3    3    0    0 -.67434518E+02 -.81329249E+02 -.18472800E+02 0.14077769E+03 0.91188000E+02 0.0000E+00 0.9000E+01
#aMCatNLO 1  0  0  2  2 0.47245737D+02 0.00000000D+00  -5  7  0 0.00000000D+00 0.00000000D+00 0.00000000D+00 0.00000000D+00 0.00000000D+00
  <mgrwgt>
 0.1786189782D-03    4    2    0
 0.231126780034156D+03 0.000000000000000D+00 0.000000000000000D+00 0.231126780034156D+03
 0.231126780034156D+03 0.000000000000000D+00 0.000000000000000D+00 -.231126780034156D+03
 0.151815597022625D+03 -.346423638597498D+02 0.368844101447544D+02 -.110327562602545D+03
 0.728150230704595D+02 0.470287477260909D+02 0.493218193043093D+02 -.256453234056486D+02
 0.688221543552576D+02 0.550481391714659D+02 -.487698107952604D+01 0.410171471388219D+02
 0.168800785619969D+03 -.674345230378070D+02 -.813292483695376D+02 0.949557388693715D+02
 0.000000000000000D+00 -.000000000000000D+00 0.000000000000000D+00 0.000000000000000D+00
 0.327548624320078D+03 0.000000000000000D+00 0.000000000000000D+00 0.327548624320078D+03
 0.238191529747502D+03 0.000000000000000D+00 0.000000000000000D+00 -.238191529747502D+03
 0.148011678250332D+03 -.304606714001619D+02 0.221851748362006D+02 -.110327562602545D+03
 0.696609298540734D+02 0.490158605312042D+02 0.423368391821988D+02 -.256453234056486D+02
 0.711996439583901D+02 0.570010238703415D+02 -.117416446091045D+02 0.410171471388219D+02
 0.175789467270442D+03 -.626285211127069D+02 -.982230189834983D+02 0.949557388693715D+02
 0.101078434734342D+03 -.129276918886769D+02 0.454426495742034D+02 0.893570945725755D+02
0.139242579357D-05 0.000000000000D+00 0.000000000000D+00 0.740971147866D-08 0.000000000000D+00  7 -1 1 23 -13 13 23 21 0 0.16488361D-01 0.76682512D-01 0.33720112D+05 0.33720112D+05 0.33720112D+05 0.11626547D+01  1  2  2  2  7  2        1 0.194124233977D-03 0.100000000000D+01
-.723796921188D-07 0.000000000000D+00 -.534728168143D-08 0.740971147866D-08 0.000000000000D+00  7 -1 1 23 -13 13 23 21 2 0.16488361D-01 0.76682512D-01 0.33720112D+05 0.33720112D+05 0.33720112D+05 0.11626547D+01  1  2  3  2  7  2        1 -.136403632236D-04 0.100000000000D+01
0.905645063171D-07 0.000000000000D+00 0.000000000000D+00 0.740971147866D-08 0.000000000000D+00  7 -1 1 23 -13 13 23 21 2 0.16488361D-01 0.76682512D-01 0.33720112D+05 0.33720112D+05 0.33720112D+05 0.11626547D+01  1  2 15  2  7  2        1 0.170673945297D-04 0.100000000000D+01
-.100460162936D-06 0.000000000000D+00 0.000000000000D+00 0.740971147866D-08 0.000000000000D+00  7 -1 1 23 -13 13 23 21 2 0.16488361D-01 0.76682512D-01 0.33720112D+05 0.33720112D+05 0.33720112D+05 0.11626547D+01  1  2  4  2  7  2        1 -.189322871076D-04 0.100000000000D+01
  </mgrwgt>
  </event>
  <event>
  9     66 0.58687835E-06 0.57021984E+03 0.75467711E-02 0.92230018E-01
       -1 -1    0    0    0  501 0.00000000E+00 0.00000000E+00 0.11257588E+04 0.11257589E+04 0.32000000E+00 0.0000E+00 0.9000E+01
        1 -1    0    0  502    0 0.00000000E+00 0.00000000E+00 -.60876113E+03 0.60876121E+03 0.32000000E+00 0.0000E+00 0.9000E+01
       25  2    1    2    0    0 0.11459497E+03 -.50621013E+03 -.31561300E+03 0.67345052E+03 0.29076337E+03 0.0000E+00 0.0000E+00
       23  2    1    2    0    0 -.27799406E+02 0.54957933E+03 0.67136320E+03 0.87287903E+03 0.91536951E+02 0.0000E+00 0.0000E+00
       23  1    3    3    0    0 -.50774883E+02 -.28742606E+03 -.16879230E+03 0.34928201E+03 0.91188000E+02 0.0000E+00 0.9000E+01
      -13  1    4    4    0    0 -.21604055E+02 0.46522599E+03 0.50973474E+03 0.69045744E+03 0.10565837E+00 0.0000E+00 0.9000E+01
       13  1    4    4    0    0 -.61953506E+01 0.84353338E+02 0.16162846E+03 0.18242159E+03 0.10565837E+00 0.0000E+00 0.9000E+01
       23  1    3    3    0    0 0.16536985E+03 -.21878407E+03 -.14682070E+03 0.32416852E+03 0.91188000E+02 0.0000E+00 0.9000E+01
       21  1    1    2  502  501 -.86795560E+02 -.43369193E+02 0.16124748E+03 0.18819051E+03 0.75000000E+00 0.0000E+00 0.9000E+01
#aMCatNLO 2  0  0  2  1 0.97027606D+02 0.00000000D+00  -5  7  0 0.00000000D+00 0.00000000D+00 0.00000000D+00 0.00000000D+00 0.00000000D+00
  <mgrwgt>
 0.9662396041D-04    1    2    0
 0.750859928330340D+03 0.000000000000000D+00 0.000000000000000D+00 0.750859928330340D+03
 0.750859928330340D+03 0.000000000000000D+00 0.000000000000000D+00 -.750859928330340D+03
 0.410879201144491D+03 -.741495580701355D+02 -.299105701126067D+03 -.256015798694187D+03
 0.578027934136130D+03 -.552941817032056D+02 0.448392537644860D+03 0.360559257675986D+03
 0.147472962137724D+03 -.147610182418291D+02 0.800728079194703D+02 0.122958254436335D+03
 0.365339759242335D+03 0.144204758015170D+03 -.229359644438263D+03 -.227501713418134D+03
 0.000000000000000D+00 -.000000000000000D+00 -.000000000000000D+00 0.000000000000000D+00
 0.890655365069254D+03 0.000000000000000D+00 0.000000000000000D+00 0.890655365069254D+03
 0.769452197768708D+03 0.000000000000000D+00 0.000000000000000D+00 -.769452197768708D+03
 0.398812199710832D+03 -.507748832132174D+02 -.287426062401888D+03 -.256015798694187D+03
 0.588986761722869D+03 -.216040757688542D+02 0.465226494407947D+03 0.360559257675986D+03
 0.149239788645341D+03 -.619533004490690D+01 0.843528308150363D+02 0.122958254436335D+03
 0.367812366849691D+03 0.165369849493178D+03 -.218784069653137D+03 -.227501713418134D+03
 0.155256445909230D+03 -.867955604661996D+02 -.433691931679580D+02 0.121203167300547D+03
0.896253986671D-04 0.000000000000D+00 0.000000000000D+00 0.211648399263D-07 0.140615653716D-10  7 -1 1 23 -13 13 23 21 2 0.17319347D+00 0.93655460D-01 0.38572698D+06 0.38572698D+06 0.38572698D+06 0.10765670D+01  1  2  1  2  7  2        1 0.966239604056D-04 0.100000000000D+01
  </mgrwgt>
  </event>
  <event>
  8     66 0.58687835E-06 0.31151658E+03 0.75467711E-02 0.88578711E-01
       -1 -1    0    0    0  501 0.00000000E+00 0.00000000E+00 0.25984531E+03 0.25984551E+03 0.32000000E+00 0.0000E+00 0.9000E+01
        1 -1    0    0  501    0 0.00000000E+00 0.00000000E+00 -.52815529E+03 0.52815539E+03 0.32000000E+00 0.0000E+00 0.9000E+01
       25  2    1    2    0    0 0.21464487E+03 -.15472237E+03 -.31151459E+03 0.50668666E+03 0.29946386E+03 0.0000E+00 0.0000E+00
       23  2    1    2    0    0 -.21464487E+03 0.15472237E+03 0.43204610E+02 0.28131423E+03 0.85203450E+02 0.0000E+00 0.0000E+00
       23  1    3    3    0    0 0.48434438E+02 -.13173852E+03 -.25943367E+03 0.30874263E+03 0.91188000E+02 0.0000E+00 0.9000E+01
      -11  1    4    4    0    0 -.18015164E+03 0.12674451E+03 0.67898906E+02 0.23049739E+03 0.51099893E-03 0.0000E+00 0.9000E+01
       11  1    4    4    0    0 -.34493227E+02 0.27977864E+02 -.24694296E+02 0.50816846E+02 0.51099893E-03 0.0000E+00 0.9000E+01
       23  1    3    3    0    0 0.16621043E+03 -.22983851E+02 -.52080920E+02 0.19794403E+03 0.91188000E+02 0.0000E+00 0.9000E+01
#aMCatNLO 1  0  0  1  1 0.78906646D+03 0.00000000D+00  -5  7  0 0.00000000D+00 0.00000000D+00 0.00000000D+00 0.00000000D+00 0.00000000D+00
  <mgrwgt>
 0.5765394982D-03    3    2    0
 0.370457543428361D+03 0.000000000000000D+00 0.000000000000000D+00 0.370457543428361D+03
 0.370457543428361D+03 0.000000000000000D+00 0.000000000000000D+00 -.370457543428361D+03
 0.234413944934558D+03 0.484344377066393D+02 -.131738519823730D+03 -.164114941045830D+03
 0.269734151487988D+03 -.180151642144319D+03 0.126744506887611D+03 0.155684707937120D+03
 0.451036760938231D+02 -.344932267518629D+02 0.279778642755433D+02 -.786117141400426D+01
 0.191663314340354D+03 0.166210431189543D+03 -.229838513394244D+02 0.162914045227148D+02
 0.000000000000000D+00 -.000000000000000D+00 0.000000000000000D+00 -.000000000000000D+00
 0.762964565588693D+03 0.000000000000000D+00 0.000000000000000D+00 0.762964565588693D+03
 0.124309125784215D+04 0.000000000000000D+00 0.000000000000000D+00 -.124309125784215D+04
 0.491924811990057D+03 0.153445669350006D+03 -.428013413330360D+03 -.164114941045830D+03
 0.202730323789562D+03 -.111844566439447D+03 -.659746076633010D+02 0.155684707937120D+03
 0.255351044950199D+02 -.242805466756574D+02 -.835822171550394D+00 -.786117141400426D+01
 0.362205733285906D+03 0.246286663258773D+03 -.248908038280642D+03 0.162914045227148D+02
 0.923659849870297D+03 -.263607219493674D+03 0.743731881445853D+03 -.480126692253455D+03
0.188735367109D-04 0.000000000000D+00 0.000000000000D+00 0.306262063772D-07 0.000000000000D+00  7 -1 1 23 -11 11 23 21 0 0.39976224D-01 0.81254683D-01 0.97042578D+05 0.97042578D+05 0.97042578D+05 0.11227935D+01  1  2  2  1  7  1       -1 0.568343894017D-03 0.100000000000D+01
-.101024816324D-05 0.000000000000D+00 -.724793504860D-07 0.306262063772D-07 0.000000000000D+00  7 -1 1 23 -11 11 23 21 2 0.39976224D-01 0.81254683D-01 0.97042578D+05 0.97042578D+05 0.97042578D+05 0.11227935D+01  1  2  3  1  7  1       -1 -.383518010473D-04 0.100000000000D+01
0.122613356836D-05 0.000000000000D+00 0.000000000000D+00 0.306262063772D-07 0.000000000000D+00  7 -1 1 23 -11 11 23 21 2 0.39976224D-01 0.81254683D-01 0.97042578D+05 0.97042578D+05 0.97042578D+05 0.11227935D+01  1  2 15  1  7  1       -1 0.465474052638D-04 0.100000000000D+01
  </mgrwgt>
  </event>
  <event>
  8     66 0.58687835E-06 0.23591335E+03 0.75467711E-02 0.95785435E-01
       -1 -1    0    0    0  501 0.00000000E+00 0.00000000E+00 0.34478182E+02 0.34479667E+02 0.32000000E+00 0.0000E+00 0.9000E+01
        1 -1    0    0  501    0 0.00000000E+00 0.00000000E+00 -.19490777E+04 0.19490777E+04 0.32000000E+00 0.0000E+00 0.9000E+01
       25  2    1    2    0    0 0.11681656E+03 0.36402784E+02 -.88415279E+03 0.94200917E+03 0.30113762E+03 0.0000E+00 0.0000E+00
       23  2    1    2    0    0 -.11681656E+03 -.36402784E+02 -.10304467E+04 0.10415482E+04 0.89615579E+02 0.0000E+00 0.0000E+00
       23  1    3    3    0    0 0.18118855E+03 0.56269513E+02 -.53557939E+03 0.57546163E+03 0.91188000E+02 0.0000E+00 0.9000E+01
      -13  1    4    4    0    0 0.10463177E+02 -.15894985E+02 -.22998841E+03 0.23077437E+03 0.10565837E+00 0.0000E+00 0.9000E+01
       13  1    4    4    0    0 -.12727974E+03 -.20507799E+02 -.80045831E+03 0.81077384E+03 0.10565837E+00 0.0000E+00 0.9000E+01
       23  1    3    3    0    0 -.64371995E+02 -.19866729E+02 -.34857340E+03 0.36654755E+03 0.91188000E+02 0.0000E+00 0.9000E+01
#aMCatNLO 1  0  0  2  1 0.33478114D+03 0.00000000D+00  -5  7  0 0.00000000D+00 0.00000000D+00 0.00000000D+00 0.00000000D+00 0.00000000D+00
  <mgrwgt>
 0.3440688770D-03    3    2    0
 0.259233781264662D+03 0.000000000000000D+00 0.000000000000000D+00 0.259233781264662D+03
 0.259233781264662D+03 0.000000000000000D+00 0.000000000000000D+00 -.259233781264662D+03
 0.223815585355675D+03 0.181188549381613D+03 0.562695118670060D+02 0.760435172209925D+02
 0.335959727862577D+02 0.104633662722660D+02 -.158949789675411D+02 -.276867657433800D+02
 0.145928962048499D+03 -.127279933879970D+03 -.205078076636297D+02 -.683703899425353D+02
 0.115127042338893D+03 -.643719817739085D+02 -.198667252358352D+02 0.200136384649228D+02
 0.000000000000000D+00 0.000000000000000D+00 -.000000000000000D+00 0.000000000000000D+00
 0.543783600606456D+03 0.000000000000000D+00 0.000000000000000D+00 0.543783600606456D+03
 0.427709481426208D+03 0.000000000000000D+00 0.000000000000000D+00 -.427709481426208D+03
 0.182093643847846D+03 0.767834970098069D+02 0.114736750265082D+03 0.760435172209925D+02
 0.290813537452970D+02 -.565804484196777D+01 -.686692557820297D+01 -.276867657433800D+02
 0.238944979036906D+03 -.226274440741546D+03 0.349295040496370D+02 -.683703899425353D+02
 0.167040476113471D+03 -.136949081337394D+03 0.207767348843487D+02 0.200136384649228D+02
 0.354332629289144D+03 0.292098069911100D+03 -.163576063620865D+03 0.116074119180248D+03
0.535769613301D-05 0.000000000000D+00 0.000000000000D+00 0.270963191552D-07 0.000000000000D+00  7 -1 1 23 -13 13 23 21 0 0.53044519D-02 0.29985822D+00 0.55655107D+05 0.55655107D+05 0.55655107D+05 0.11432245D+01  1  2  2  2  7  2        1 0.339898692116D-03 0.100000000000D+01
-.294433943265D-06 0.000000000000D+00 -.205749638645D-07 0.270963191552D-07 0.000000000000D+00  7 -1 1 23 -13 13 23 21 2 0.53044519D-02 0.29985822D+00 0.55655107D+05 0.55655107D+05 0.55655107D+05 0.11432245D+01  1  2  3  2  7  2        1 -.244130686868D-04 0.100000000000D+01
0.344728480479D-06 0.000000000000D+00 0.000000000000D+00 0.270963191552D-07 0.000000000000D+00  7 -1 1 23 -13 13 23 21 2 0.53044519D-02 0.29985822D+00 0.55655107D+05 0.55655107D+05 0.55655107D+05 0.11432245D+01  1  2 15  2  7  2        1 0.285832536117D-04 0.100000000000D+01
  </mgrwgt>
  </event>
  <event>
  8     66 0.58687835E-06 0.29684327E+03 0.75467711E-02 0.90938864E-01
       -1 -1    0    0    0  501 0.00000000E+00 0.00000000E+00 0.10383645E+04 0.10383646E+04 0.32000000E+00 0.0000E+00 0.9000E+01
        1 -1    0    0  501    0 0.00000000E+00 0.00000000E+00 -.33835729E+03 0.33835745E+03 0.32000000E+00 0.0000E+00 0.9000E+01
       25  2    1    2    0    0 -.43247725E+03 0.88483553E+02 -.13326306E+02 0.53292011E+03 0.29826221E+03 0.0000E+00 0.0000E+00
       23  2    1    2    0    0 0.43247725E+03 -.88483553E+02 0.71333356E+03 0.84380193E+03 0.91055035E+02 0.0000E+00 0.0000E+00
       23  1    3    3    0    0 -.12753938E+03 0.19668123E+02 0.10130343E+03 0.18769860E+03 0.91188000E+02 0.0000E+00 0.9000E+01
      -11  1    4    4    0    0 0.24239610E+03 -.32789826E+02 0.31385725E+03 0.39791634E+03 0.51099893E-03 0.0000E+00 0.9000E+01
       11  1    4    4    0    0 0.19008114E+03 -.55693727E+02 0.39947631E+03 0.44588558E+03 0.51099893E-03 0.0000E+00 0.9000E+01
       23  1    3    3    0    0 -.30493787E+03 0.68815430E+02 -.11462973E+03 0.34522152E+03 0.91188000E+02 0.0000E+00 0.9000E+01
#aMCatNLO 1  0  0  1  2 0.39429988D+03 0.00000000D+00  -5  7  0 0.00000000D+00 0.00000000D+00 0.00000000D+00 0.00000000D+00 0.00000000D+00
  <mgrwgt>
 0.2577696055D-03    8    2    0
 0.592738015828064D+03 0.000000000000000D+00 0.000000000000000D+00 0.592738015828064D+03
 0.592738015828064D+03 0.000000000000000D+00 0.000000000000000D+00 -.592738015828064D+03
 0.158160650825331D+03 -.127539375590173D+03 0.196681227391539D+02 0.681269017926323D+01
 0.276781513539606D+03 0.242396104661757D+03 -.327898263607201D+02 0.129525912346974D+03
 0.281932479209819D+03 0.190081143218745D+03 -.556937265967952D+02 0.200632227331033D+03
 0.468601388081371D+03 -.304937872290329D+03 0.688154302183613D+02 -.336970829857270D+03
 0.000000000000000D+00 0.000000000000000D+00 0.000000000000000D+00 0.000000000000000D+00
 0.980479994812533D+03 0.000000000000000D+00 0.000000000000000D+00 0.980479994812533D+03
 0.733901918536982D+03 0.000000000000000D+00 0.000000000000000D+00 -.733901918536982D+03
 0.180458294206148D+03 -.152852439973929D+03 -.289769468773068D+02 0.681269017926323D+01
 0.264148617283147D+03 0.201959503492389D+03 -.110498366469331D+03 0.129525912346974D+03
 0.284367019374143D+03 0.147748084544748D+03 -.137046760550116D+03 0.200632227331033D+03
 0.520356217044520D+03 -.378866244871579D+03 -.732555089743794D+02 -.336970829857270D+03
 0.465051765441558D+03 0.182011096808371D+03 0.349777582871133D+03 0.246578076275551D+03
0.578917782486D-04 0.000000000000D+00 0.000000000000D+00 0.258490354433D-06 0.000000000000D+00  7 -1 1 23 -11 11 23 21 0 0.15974841D+00 0.52054984D-01 0.21451934D+06 0.21451934D+06 0.21451934D+06 0.10954954D+01  1  2  2  1  7  1       -1 0.161578596396D-03 0.100000000000D+01
-.297826527051D-05 0.000000000000D+00 -.222319671730D-06 0.258490354433D-06 0.000000000000D+00  7 -1 1 23 -11 11 23 21 2 0.15974841D+00 0.52054984D-01 0.21451934D+06 0.21451934D+06 0.21451934D+06 0.10954954D+01  1  2  3  1  7  1       -1 -.997588517584D-05 0.100000000000D+01
0.368159483043D-05 0.000000000000D+00 0.000000000000D+00 0.258490354433D-06 0.000000000000D+00  7 -1 1 23 -11 11 23 21 2 0.15974841D+00 0.52054984D-01 0.21451934D+06 0.21451934D+06 0.21451934D+06 0.10954954D+01  1  2 15  1  7  1       -1 0.123317313793D-04 0.100000000000D+01
0.110952246679D-05 0.000000000000D+00 0.000000000000D+00 0.258490354433D-06 0.000000000000D+00  7 -1 1 23 -11 11 23 21 2 0.27309872D+00 0.52054984D-01 0.49201477D+06 0.49201477D+06 0.49201477D+06 0.10690049D+01  1  2 12  1  7  1       -1 0.395162195368D-06 0.100000000000D+01
-.227153810761D-04 0.000000000000D+00 -.169854024172D-04 0.258490354433D-06 0.000000000000D+00  7 -1 1 23 -11 11 23 21 2 0.29338641D+00 0.52054984D-01 0.21451934D+06 0.21451934D+06 0.21451934D+06 0.10954954D+01  1  2  5  1  7  1       -1 -.601043750827D-05 0.100000000000D+01
0.300362296242D-04 0.000000000000D+00 0.142671455010D-04 0.258490354433D-06 0.000000000000D+00  7 -1 1 23 -11 11 23 21 2 0.15974841D+00 0.52054984D-01 0.21451934D+06 0.21451934D+06 0.21451934D+06 0.10954954D+01  1  2  6  1  7  1       -1 0.100608223456D-03 0.100000000000D+01
0.661901069116D-07 0.000000000000D+00 0.000000000000D+00 0.258490354433D-06 0.000000000000D+00  7 21 1 23 -11 11 23 1 2 0.27309872D+00 0.52054984D-01 0.49201477D+06 0.49201477D+06 0.49201477D+06 0.10690049D+01  1  2 12  3  7  1       -1 0.183719832134D-06 0.100000000000D+01
-.578667031137D-06 0.000000000000D+00 -.112778946378D-05 0.258490354433D-06 0.000000000000D+00  7 21 1 23 -11 11 23 1 2 0.29338641D+00 0.52054984D-01 0.21451934D+06 0.21451934D+06 0.21451934D+06 0.10954954D+01  1  2  5  3  7  1       -1 -.134150505683D-05 0.100000000000D+01
  </mgrwgt>
  </event>
  <event>
  8     66 0.58687835E-06 0.37160100E+03 0.75467711E-02 0.94574428E-01
       -1 -1    0    0    0  501 0.00000000E+00 0.00000000E+00 0.24149335E+03 0.24149356E+03 0.32000000E+00 0.0000E+00 0.9000E+01
        1 -1    0    0  501    0 0.00000000E+00 0.00000000E+00 -.74060185E+03 0.74060192E+03 0.32000000E+00 0.0000E+00 0.9000E+01
       25  2    1    2    0    0 -.11360987E+03 0.31082719E+03 -.11600645E+03 0.46176639E+03 0.30041630E+03 0.0000E+00 0.0000E+00
       23  2    1    2    0    0 0.11360987E+03 -.31082719E+03 -.38310205E+03 0.52032909E+03 0.12022662E+03 0.0000E+00 0.0000E+00
       23  1    3    3    0    0 -.39918345E+02 0.59655289E+02 0.62759483E+02 0.13193268E+03 0.91188000E+02 0.0000E+00 0.9000E+01
      -13  1    4    4    0    0 -.21357176E+02 -.19621586E+02 -.17687159E+02 0.33970316E+02 0.10565837E+00 0.0000E+00 0.9000E+01
       13  1    4    4    0    0 0.13496704E+03 -.29120561E+03 -.36541489E+03 0.48635878E+03 0.10565837E+00 0.0000E+00 0.9000E+01
       23  1    3    3    0    0 -.73691522E+02 0.25117190E+03 -.17876593E+03 0.32983371E+03 0.91188000E+02 0.0000E+00 0.9000E+01
#aMCatNLO 1  0  0  1  2 0.22651966D+03 0.00000000D+00  -5  7  0 0.00000000D+00 0.00000000D+00 0.00000000D+00 0.00000000D+00 0.00000000D+00
  <mgrwgt>
 0.1990038284D-03    4    2    0
 0.422907271350731D+03 0.000000000000000D+00 0.000000000000000D+00 0.422907271350731D+03
 0.422907271350731D+03 0.000000000000000D+00 0.000000000000000D+00 -.422907271350731D+03
 0.190224074786515D+03 -.399183507174758D+02 0.596553040851457D+02 0.150723977040453D+03
 0.290064093473426D+02 -.213572372056899D+02 -.196213874138570D+02 -.491282119387602D+00
 0.349094603470390D+03 0.134967118546758D+03 -.291205841426761D+03 -.137295582602886D+03
 0.277489455097215D+03 -.736915306235928D+02 0.251171924755472D+03 -.129371123181790D+02
 0.000000000000000D+00 0.000000000000000D+00 -.000000000000000D+00 -.000000000000000D+00
 0.504028632857462D+03 0.000000000000000D+00 0.000000000000000D+00 0.504028632857462D+03
 0.631532100409074D+03 0.000000000000000D+00 0.000000000000000D+00 -.631532100409074D+03
 0.215941885155729D+03 -.758526510479148D+02 0.992184685163112D+02 0.150723977040453D+03
 0.299843884306410D+02 -.265762689640079D+02 -.138753061008196D+02 -.491282119387602D+00
 0.279364317145556D+03 0.793661233231109D+02 -.229989919693445D+03 -.137295582602886D+03
 0.350331129483748D+03 -.129236051004307D+03 0.312325668472890D+03 -.129371123181790D+02
 0.259939013050862D+03 0.152298847693118D+03 -.167678911194937D+03 -.127503467551612D+03
0.116715675094D-04 0.000000000000D+00 0.000000000000D+00 0.266758012783D-08 0.000000000000D+00  7 -1 1 23 -13 13 23 21 0 0.37152845D-01 0.11393877D+00 0.13808730D+06 0.13808730D+06 0.13808730D+06 0.11103991D+01  1  2  2  1  7  1       -1 0.241897720017D-03 0.100000000000D+01
-.635233242095D-06 0.000000000000D+00 -.448218924305D-07 0.266758012783D-08 0.000000000000D+00  7 -1 1 23 -13 13 23 21 2 0.37152845D-01 0.11393877D+00 0.13808730D+06 0.13808730D+06 0.13808730D+06 0.11103991D+01  1  2  3  1  7  1       -1 -.162328210072D-04 0.100000000000D+01
0.758970453429D-06 0.000000000000D+00 0.000000000000D+00 0.266758012783D-08 0.000000000000D+00  7 -1 1 23 -13 13 23 21 2 0.37152845D-01 0.11393877D+00 0.13808730D+06 0.13808730D+06 0.13808730D+06 0.11103991D+01  1  2 15  1  7  1       -1 0.193948154849D-04 0.100000000000D+01
-.180228870013D-05 0.000000000000D+00 0.000000000000D+00 0.266758012783D-08 0.000000000000D+00  7 -1 1 23 -13 13 23 21 2 0.37152845D-01 0.11393877D+00 0.13808730D+06 0.13808730D+06 0.13808730D+06 0.11103991D+01  1  2  4  1  7  1       -1 -.460558861435D-04 0.100000000000D+01
  </mgrwgt>
  </event>
  <event>
  9     66 0.58687835E-06 0.21265404E+03 0.75467711E-02 0.10508726E+00
       21 -1    0    0  502  501 0.00000000E+00 0.00000000E+00 0.14730631E+03 0.14730821E+03 0.75000000E+00 0.0000E+00 0.9000E+01
        1 -1    0    0  501    0 0.00000000E+00 0.00000000E+00 -.38436265E+03 0.38436279E+03 0.32000000E+00 0.0000E+00 0.9000E+01
       25  2    1    2    0    0 -.70080552E+02 0.56999537E+02 -.94641226E+02 0.32598505E+03 0.29857840E+03 0.0000E+00 0.0000E+00
       23  2    1    2    0    0 0.79390990E+02 -.63119649E+02 -.12329964E+03 0.18355805E+03 0.90574477E+02 0.0000E+00 0.0000E+00
       23  1    3    3    0    0 -.41654484E+02 -.75926877E+02 -.10231245E+03 0.16212056E+03 0.91188000E+02 0.0000E+00 0.9000E+01
      -11  1    4    4    0    0 0.42029186E+01 0.21948319E+02 -.17724147E+02 0.28522599E+02 0.51099893E-03 0.0000E+00 0.9000E+01
       11  1    4    4    0    0 0.75188072E+02 -.85067969E+02 -.10557550E+03 0.15503545E+03 0.51099893E-03 0.0000E+00 0.9000E+01
       23  1    3    3    0    0 -.28426068E+02 0.13292641E+03 0.76712273E+01 0.16386449E+03 0.91188000E+02 0.0000E+00 0.9000E+01
        1  1    1    2  502    0 -.93104385E+01 0.61201120E+01 -.19115481E+02 0.22127902E+02 0.32000000E+00 0.0000E+00 0.9000E+01
#aMCatNLO 2  0  0  1  2 0.11141815D+02 0.00000000D+00  -5  7  0 0.00000000D+00 0.00000000D+00 0.00000000D+00 0.00000000D+00 0.00000000D+00
  <mgrwgt>
 0.2895344722D-04    1    2    0
 0.230223700803202D+03 0.000000000000000D+00 0.000000000000000D+00 0.230223700803202D+03
 0.230223700803202D+03 0.000000000000000D+00 0.000000000000000D+00 -.230223700803202D+03
 0.130812962334167D+03 -.443004890659072D+02 -.741875546474119D+02 -.364753776484761D+02
 0.233813297713032D+02 0.373236604130884D+01 0.222576317665144D+02 -.611177991704242D+01
 0.118943811976644D+03 0.727568913919421D+02 -.834698595262685D+02 -.434378603660594D+02
 0.187309297524289D+03 -.321887683673438D+02 0.135399782407166D+03 0.860250179315779D+02
 0.000000000000000D+00 -.000000000000000D+00 0.000000000000000D+00 -.000000000000000D+00
 0.232668486976009D+03 0.000000000000000D+00 0.000000000000000D+00 0.232668486976009D+03
 0.243345305319566D+03 0.000000000000000D+00 0.000000000000000D+00 -.243345305319566D+03
 0.130941556076808D+03 -.416544835746272D+02 -.759268765810101D+02 -.364753776484761D+02
 0.231678030902215D+02 0.420291861061551D+01 0.219483193303145D+02 -.611177991704242D+01
 0.121559257662486D+03 0.751880717467189D+02 -.850679685738619D+02 -.434378603660594D+02
 0.184913568759226D+03 -.284260682842843D+02 0.132926413850077D+03 0.860250179315779D+02
 0.154316067068345D+02 -.931043849842290D+01 0.612011197448059D+01 -.106768183435574D+02
0.153405306593D-07 0.000000000000D+00 0.000000000000D+00 0.235084570120D-07 0.263681911500D-11  7 21 1 23 -11 11 23 1 2 0.22662505D-01 0.59132455D-01 0.47625573D+05 0.47625573D+05 0.47625573D+05 0.11491586D+01  1  2  1  3  7  1       -1 0.289534472190D-04 0.100000000000D+01
  </mgrwgt>
  </event>
  <event>
  8     66 0.58687835E-06 0.17672298E+03 0.75467711E-02 0.10698468E+00
       -1 -1    0    0    0  501 0.00000000E+00 0.00000000E+00 0.21690326E+03 0.21690350E+03 0.32000000E+00 0.0000E+00 0.9000E+01
        1 -1    0    0  501    0 0.00000000E+00 0.00000000E+00 -.21998619E+03 0.21998642E+03 0.32000000E+00 0.0000E+00 0.9000E+01
       25  2    1    2    0    0 0.44566241E+02 0.89433590E+01 -.71735022E+02 0.31667607E+03 0.30507652E+03 0.0000E+00 0.0000E+00
       23  2    1    2    0    0 -.44566241E+02 -.89433590E+01 0.68652097E+02 0.12021385E+03 0.87590678E+02 0.0000E+00 0.0000E+00
       23  1    3    3    0    0 -.95896440E+02 0.27314001E+02 -.59863522E+02 0.14778726E+03 0.91188000E+02 0.0000E+00 0.9000E+01
      -13  1    4    4    0    0 -.49470866E+02 0.16790319E+02 0.76705876E+02 0.92806702E+02 0.10565837E+00 0.0000E+00 0.9000E+01
       13  1    4    4    0    0 0.49046244E+01 -.25733678E+02 -.80537782E+01 0.27407153E+02 0.10565837E+00 0.0000E+00 0.9000E+01
       23  1    3    3    0    0 0.14046268E+03 -.18370642E+02 -.11871500E+02 0.16888881E+03 0.91188000E+02 0.0000E+00 0.9000E+01
#aMCatNLO 1  0  0  1  2 0.18675099D+00 0.00000000D+00  -5  7  0 0.00000000D+00 0.00000000D+00 0.00000000D+00 0.00000000D+00 0.00000000D+00
  <mgrwgt>
 0.4751963650D-04    6    2    0
 0.218439522327021D+03 0.000000000000000D+00 0.000000000000000D+00 0.218439522327021D+03
 0.218439522327021D+03 0.000000000000000D+00 0.000000000000000D+00 -.218439522327021D+03
 0.147367499480740D+03 -.958945859257613D+02 0.273138561147358D+02 -.588227015146046D+02
 0.933520370436042D+02 -.494718620925109D+02 0.167901942232324D+02 0.773642492320333D+02
 0.273507849991825D+02 0.490443286275740D+01 -.257337916197972D+02 -.786027653680623D+01
 0.168808723130514D+03 0.140462015155515D+03 -.183702587181710D+02 -.106812711806225D+02
 0.000000000000000D+00 0.000000000000000D+00 -.000000000000000D+00 -.000000000000000D+00
 0.218510426827936D+03 0.000000000000000D+00 0.000000000000000D+00 0.218510426827936D+03
 0.218562544877206D+03 0.000000000000000D+00 0.000000000000000D+00 -.218562544877206D+03
 0.147409942520194D+03 -.959532674330974D+02 0.273367895928381D+02 -.588227015146046D+02
 0.933743548857931D+02 -.495090338179437D+02 0.168047214054733D+02 0.773642492320333D+02
 0.273448306996341D+02 0.489354457648932D+01 -.257295363392832D+02 -.786027653680623D+01
 0.168749956463277D+03 0.140394817163706D+03 -.183439968898094D+02 -.106812711806225D+02
 0.193887136244003D+00 0.173939510845513D+00 -.679777692188552D-01 -.521180492704046D-01
0.324052185971D-06 0.000000000000D+00 0.000000000000D+00 0.309606923231D-09 0.000000000000D+00  7 -1 1 23 -13 13 23 21 0 0.33369769D-01 0.33844065D-01 0.36486651D+05 0.36486651D+05 0.36486651D+05 0.11595295D+01  1  2  2  1  7  1       -1 0.423265474703D-04 0.100000000000D+01
-.176089328569D-07 0.000000000000D+00 -.124444571903D-08 0.309606923231D-09 0.000000000000D+00  7 -1 1 23 -13 13 23 21 2 0.33369769D-01 0.33844065D-01 0.36486651D+05 0.36486651D+05 0.36486651D+05 0.11595295D+01  1  2  3  1  7  1       -1 -.309239203644D-05 0.100000000000D+01
0.203031344356D-07 0.000000000000D+00 0.000000000000D+00 0.309606923231D-09 0.000000000000D+00  7 -1 1 23 -13 13 23 21 2 0.33369769D-01 0.33844065D-01 0.36486651D+05 0.36486651D+05 0.36486651D+05 0.11595295D+01  1  2 15  1  7  1       -1 0.356553413846D-05 0.100000000000D+01
-.319580309807D-04 0.000000000000D+00 0.000000000000D+00 0.309606923231D-09 0.000000000000D+00  7 -1 1 23 -13 13 23 21 2 0.33369769D-01 0.33844065D-01 0.36486651D+05 0.36486651D+05 0.36486651D+05 0.11595295D+01  1  2  4  1  7  1       -1 -.561230832713D-02 0.100000000000D+01
0.319580381496D-04 0.000000000000D+00 0.000000000000D+00 0.309606923231D-09 0.636524535395D-07  7 -1 1 23 -13 13 23 21 2 0.33380601D-01 0.33863126D-01 0.36526356D+05 0.36526356D+05 0.36526356D+05 0.11594866D+01  1  2 11  1  7  1       -1 0.560485658132D-02 0.100000000000D+01
0.638882196267D-08 0.000000000000D+00 0.000000000000D+00 0.309606923231D-09 0.387363504113D-11  7 21 1 23 -13 13 23 1 2 0.33380601D-01 0.33863126D-01 0.36526356D+05 0.36526356D+05 0.36526356D+05 0.11594866D+01  1  2 11  3  7  1       -1 0.121716927302D-04 0.100000000000D+01
  </mgrwgt>
  </event>
  <event>
  8     66 0.58687835E-06 0.48153813E+03 0.75467711E-02 0.91033014E-01
       -3 -1    0    0    0  501 0.00000000E+00 0.00000000E+00 0.22927763E+03 0.22927818E+03 0.50000000E+00 0.0000E+00 0.9000E+01
        3 -1    0    0  501    0 0.00000000E+00 0.00000000E+00 -.12779883E+04 0.12779884E+04 0.50000000E+00 0.0000E+00 0.9000E+01
       25  2    1    2    0    0 -.35223594E+03 0.24848607E+03 -.22150108E+03 0.57039525E+03 0.30078653E+03 0.0000E+00 0.0000E+00
       23  2    1    2    0    0 0.35223594E+03 -.24848607E+03 -.82720961E+03 0.93687134E+03 0.87388163E+02 0.0000E+00 0.0000E+00
       23  1    3    3    0    0 -.12549868E+03 0.23397887E+03 -.11334272E+03 0.30275048E+03 0.91188000E+02 0.0000E+00 0.9000E+01
      -11  1    4    4    0    0 0.28589411E+02 -.50765964E+02 -.14608163E+03 0.15727168E+03 0.51099893E-03 0.0000E+00 0.9000E+01
       11  1    4    4    0    0 0.32364653E+03 -.19772011E+03 -.68112798E+03 0.77959966E+03 0.51099893E-03 0.0000E+00 0.9000E+01
       23  1    3    3    0    0 -.22673725E+03 0.14507201E+02 -.10815836E+03 0.26764477E+03 0.91188000E+02 0.0000E+00 0.9000E+01
#aMCatNLO 1  0  0  2  1 0.36985685D+03 0.00000000D+00  -5  7  0 0.00000000D+00 0.00000000D+00 0.00000000D+00 0.00000000D+00 0.00000000D+00
  <mgrwgt>
 0.1413237494D-04    3    2    0
 0.541308247805626D+03 0.000000000000000D+00 0.000000000000000D+00 0.541308247805626D+03
 0.541308247805626D+03 0.000000000000000D+00 0.000000000000000D+00 -.541308247805626D+03
 0.311709607182155D+03 -.125498681522360D+03 0.233978869217374D+03 0.135468068420426D+03
 0.774539995525155D+02 0.285894106055944D+02 -.507659641405490D+02 -.510351303788507D+02
 0.425597006221485D+03 0.323646525446735D+03 -.197720106327603D+03 -.193112655786067D+03
 0.267855882655097D+03 -.226737254529969D+03 0.145072012507778D+02 0.108679717744491D+03
 0.000000000000000D+00 0.000000000000000D+00 -.000000000000000D+00 0.000000000000000D+00
 0.888236915517644D+03 0.000000000000000D+00 0.000000000000000D+00 0.888236915517644D+03
 0.680176279364562D+03 0.000000000000000D+00 0.000000000000000D+00 -.680176279364562D+03
 0.413853965696757D+03 -.139794012068801D+03 0.353646561141316D+03 0.135468068420426D+03
 0.634698436800058D+02 0.258128752388997D+02 -.275232991459797D+02 -.510351303788507D+02
 0.369562261621345D+03 0.307979993945194D+03 -.665739492553489D+02 -.193112655786067D+03
 0.297164874838043D+03 -.237869509229466D+03 0.107696457803499D+03 0.108679717744491D+03
 0.424362249046056D+03 0.438706521141730D+02 -.367245770543487D+03 0.208060636153081D+03
0.328336967597D-04 0.000000000000D+00 0.000000000000D+00 0.793853241194D-07 0.000000000000D+00  7 -3 3 23 -11 11 23 21 0 0.35273531D-01 0.19661364D+00 0.23187897D+06 0.23187897D+06 0.23187897D+06 0.10929261D+01  1  2  2  2  7  2        3 0.139664176499D-04 0.100000000000D+01
-.179373254560D-05 0.000000000000D+00 -.126090040868D-06 0.793853241194D-07 0.000000000000D+00  7 -3 3 23 -11 11 23 21 2 0.35273531D-01 0.19661364D+00 0.23187897D+06 0.23187897D+06 0.23187897D+06 0.10929261D+01  1  2  3  2  7  2        3 -.911390490016D-06 0.100000000000D+01
0.212035763521D-05 0.000000000000D+00 0.000000000000D+00 0.793853241194D-07 0.000000000000D+00  7 -3 3 23 -11 11 23 21 2 0.35273531D-01 0.19661364D+00 0.23187897D+06 0.23187897D+06 0.23187897D+06 0.10929261D+01  1  2 15  2  7  2        3 0.107734778459D-05 0.100000000000D+01
  </mgrwgt>
  </event>
  <event>
  8     66 0.58687835E-06 0.53935981E+03 0.75467711E-02 0.77514917E-01
       -1 -1    0    0    0  501 0.00000000E+00 0.00000000E+00 0.15455889E+04 0.15455890E+04 0.32000000E+00 0.0000E+00 0.9000E+01
        1 -1    0    0  501    0 0.00000000E+00 0.00000000E+00 -.68633875E+03 0.68633883E+03 0.32000000E+00 0.0000E+00 0.9000E+01
       25  2    1    2    0    0 0.71019374E+02 -.50282202E+03 -.50328076E+03 0.77511905E+03 0.29940656E+03 0.0000E+00 0.0000E+00
       23  2    1    2    0    0 -.71019374E+02 0.50282202E+03 0.13625310E+04 0.14568088E+04 0.89036068E+02 0.0000E+00 0.0000E+00
       23  1    3    3    0    0 0.90450442E+02 -.13367861E+03 -.27353606E+03 0.33043680E+03 0.91188000E+02 0.0000E+00 0.9000E+01
      -11  1    4    4    0    0 -.84957040E+02 0.45135696E+03 0.12626552E+04 0.13435918E+04 0.51099893E-03 0.0000E+00 0.9000E+01
       11  1    4    4    0    0 0.13937667E+02 0.51465059E+02 0.99875784E+02 0.11321697E+03 0.51099893E-03 0.0000E+00 0.9000E+01
       23  1    3    3    0    0 -.19431068E+02 -.36914341E+03 -.22974470E+03 0.44468225E+03 0.91188000E+02 0.0000E+00 0.9000E+01
#aMCatNLO 1  0  0  2  1 0.30939742D+04 0.00000000D+00  -5  7  0 0.00000000D+00 0.00000000D+00 0.00000000D+00 0.00000000D+00 0.00000000D+00
  <mgrwgt>
 0.2170596430D-03    3    2    0
 0.102995034354679D+04 0.000000000000000D+00 0.000000000000000D+00 0.102995034354679D+04
 0.102995034354679D+04 0.000000000000000D+00 0.000000000000000D+00 -.102995034354679D+04
 0.472132954085657D+03 0.904504421391080D+02 -.133678606015268D+03 -.434215410597440D+03
 0.929104580289072D+03 -.849570402345482D+02 0.451356958319396D+03 0.807647521264927D+03
 0.810106163467766D+02 0.139376665395968D+02 0.514650592426087D+02 0.609902376571072D+02
 0.577652536372082D+03 -.194310684441566D+02 -.369143411546737D+03 -.434422348324594D+03
 0.000000000000000D+00 0.000000000000000D+00 0.000000000000000D+00 0.000000000000000D+00
 0.375637148676658D+04 0.000000000000000D+00 0.000000000000000D+00 0.375637148676658D+04
 0.311945051923506D+04 0.000000000000000D+00 0.000000000000000D+00 -.311945051923506D+04
 0.826422593527846D+03 -.523381123605422D+03 -.460638934961552D+03 -.434215410597440D+03
 0.147042578899775D+04 -.121922309942455D+04 -.152815300850012D+03 0.807647521264927D+03
 0.913614752003128D+02 -.675431996732219D+02 0.806388487084460D+01 0.609902376571072D+02
 0.132876032674134D+04 -.920598827398371D+03 -.849154742580312D+03 -.434422348324594D+03
 0.315885182153439D+04 0.273074625010157D+04 0.145454509352103D+04 0.636920967531520D+03
0.882210664410D-03 0.000000000000D+00 0.000000000000D+00 0.219241633224D-05 0.000000000000D+00  7 -1 1 23 -11 11 23 21 0 0.23778292D+00 0.10559059D+00 0.29090901D+06 0.29090901D+06 0.29090901D+06 0.10855420D+01  1  2  2  2  7  2        1 0.208441321424D-03 0.100000000000D+01
-.240753626745D-04 0.000000000000D+00 -.338792124274D-05 0.219241633224D-05 0.000000000000D+00  7 -1 1 23 -11 11 23 21 2 0.23778292D+00 0.10559059D+00 0.29090901D+06 0.29090901D+06 0.29090901D+06 0.10855420D+01  1  2  3  2  7  2        1 -.670312940409D-05 0.100000000000D+01
0.550294447983D-04 0.000000000000D+00 0.000000000000D+00 0.219241633224D-05 0.000000000000D+00  7 -1 1 23 -11 11 23 21 2 0.23778292D+00 0.10559059D+00 0.29090901D+06 0.29090901D+06 0.29090901D+06 0.10855420D+01  1  2 15  2  7  2        1 0.153214509997D-04 0.100000000000D+01
  </mgrwgt>
  </event>
  <event>
  8     66 0.58687835E-06 0.34060664E+03 0.75467711E-02 0.94660292E-01
       -1 -1    0    0    0  501 0.00000000E+00 0.00000000E+00 0.81553279E+03 0.81553285E+03 0.32000000E+00 0.0000E+00 0.9000E+01
        1 -1    0    0  501    0 0.00000000E+00 0.00000000E+00 -.16363950E+03 0.16363981E+03 0.32000000E+00 0.0000E+00 0.9000E+01
       25  2    1    2    0    0 -.95468196E+02 -.27775316E+03 0.35071094E+03 0.54738464E+03 0.30061735E+03 0.0000E+00 0.0000E+00
       23  2    1    2    0    0 0.95468196E+02 0.27775316E+03 0.30118234E+03 0.43178802E+03 0.97309278E+02 0.0000E+00 0.0000E+00
       23  1    3    3    0    0 -.34480768E+02 -.25779892E+03 0.33651909E+03 0.43498225E+03 0.91188000E+02 0.0000E+00 0.9000E+01
      -13  1    4    4    0    0 0.66669048E+02 0.17137214E+03 0.11953456E+03 0.21932099E+03 0.10565837E+00 0.0000E+00 0.9000E+01
       13  1    4    4    0    0 0.28799148E+02 0.10638101E+03 0.18164778E+03 0.21246703E+03 0.10565837E+00 0.0000E+00 0.9000E+01
       23  1    3    3    0    0 -.60987428E+02 -.19954232E+02 0.14191848E+02 0.11240239E+03 0.91188000E+02 0.0000E+00 0.9000E+01
#aMCatNLO 1  0  0  2  2 0.26671482D+03 0.00000000D+00  -5  7  0 0.00000000D+00 0.00000000D+00 0.00000000D+00 0.00000000D+00 0.00000000D+00
  <mgrwgt>
 0.1745139260D-03    3    2    0
 0.365312963009603D+03 0.000000000000000D+00 0.000000000000000D+00 0.365312963009603D+03
 0.365312963009603D+03 0.000000000000000D+00 0.000000000000000D+00 -.365312963009603D+03
 0.282700333927930D+03 -.344807688742278D+02 -.257798925131231D+03 0.628889357358431D+02
 0.187276947195530D+03 0.666690914935380D+02 0.171372221870130D+03 -.354887131578259D+02
 0.122671364439549D+03 0.287991054938073D+02 0.106380937225021D+03 0.538699486851749D+02
 0.137977280456197D+03 -.609874281131175D+02 -.199542339639198D+02 -.812701712631921D+02
 0.000000000000000D+00 0.000000000000000D+00 0.000000000000000D+00 0.000000000000000D+00
 0.552151532277649D+03 0.000000000000000D+00 0.000000000000000D+00 0.552151532277649D+03
 0.497825720984061D+03 0.000000000000000D+00 0.000000000000000D+00 -.497825720984061D+03
 0.376531588306358D+03 -.116706641879625D+03 -.340419340155201D+03 0.628889357358431D+02
 0.137855287350671D+03 0.261154093582006D+02 0.130623952179496D+03 -.354887131578259D+02
 0.956477501883951D+02 0.156820360846424D+01 0.790193740939565D+02 0.538699486851749D+02
 0.167751358227991D+03 -.991209034056332D+02 -.582706840035219D+02 -.812701712631921D+02
 0.272191269188295D+03 0.188143932318593D+03 0.189046697885270D+03 0.543258112935891D+02
0.120206848228D-04 0.000000000000D+00 0.000000000000D+00 0.185844738222D-07 0.000000000000D+00  7 -1 1 23 -13 13 23 21 0 0.12546661D+00 0.25175337D-01 0.11601288D+06 0.11601288D+06 0.11601288D+06 0.11164667D+01  1  2  2  2  7  2        1 0.172359340727D-03 0.100000000000D+01
-.663834211338D-06 0.000000000000D+00 -.461625948385D-07 0.185844738222D-07 0.000000000000D+00  7 -1 1 23 -13 13 23 21 2 0.12546661D+00 0.25175337D-01 0.11601288D+06 0.11601288D+06 0.11601288D+06 0.11164667D+01  1  2  3  2  7  2        1 -.118647006494D-04 0.100000000000D+01
0.784384021908D-06 0.000000000000D+00 0.000000000000D+00 0.185844738222D-07 0.000000000000D+00  7 -1 1 23 -13 13 23 21 2 0.12546661D+00 0.25175337D-01 0.11601288D+06 0.11601288D+06 0.11601288D+06 0.11164667D+01  1  2 15  2  7  2        1 0.140192859228D-04 0.100000000000D+01
  </mgrwgt>
  </event>
  <event>
  8     66 0.58687835E-06 0.15416781E+04 0.75467711E-02 0.79258098E-01
       -1 -1    0    0    0  501 0.00000000E+00 0.00000000E+00 0.17030791E+04 0.17030791E+04 0.32000000E+00 0.0000E+00 0.9000E+01
        1 -1    0    0  501    0 0.00000000E+00 0.00000000E+00 -.14577721E+04 0.14577721E+04 0.32000000E+00 0.0000E+00 0.9000E+01
       25  2    1    2    0    0 0.15147554E+04 0.24041330E+03 0.40973480E+03 0.16158143E+04 0.30114931E+03 0.0000E+00 0.0000E+00
       23  2    1    2    0    0 -.15147554E+04 -.24041330E+03 -.16442782E+03 0.15450369E+04 0.88431608E+02 0.0000E+00 0.0000E+00
       23  1    3    3    0    0 0.11142767E+04 0.20043143E+03 0.39612435E+03 0.12029194E+04 0.91188000E+02 0.0000E+00 0.9000E+01
      -13  1    4    4    0    0 -.91422314E+03 -.17441470E+03 -.13192496E+03 0.94001524E+03 0.10565837E+00 0.0000E+00 0.9000E+01
       13  1    4    4    0    0 -.60053225E+03 -.65998594E+02 -.32502862E+02 0.60502169E+03 0.10565837E+00 0.0000E+00 0.9000E+01
       23  1    3    3    0    0 0.40047871E+03 0.39981872E+02 0.13610444E+02 0.41289495E+03 0.91188000E+02 0.0000E+00 0.9000E+01
#aMCatNLO 1  0  0  2  2 0.16111448D+04 0.00000000D+00  -5  7  0 0.00000000D+00 0.00000000D+00 0.00000000D+00 0.00000000D+00 0.00000000D+00
  <mgrwgt>
 0.9706474116D-04    5    2    0
 0.157565900637476D+04 0.000000000000000D+00 0.000000000000000D+00 0.157565900637476D+04
 0.157565900637476D+04 0.000000000000000D+00 0.000000000000000D+00 -.157565900637476D+04
 0.117572303838862D+04 0.111427668514989D+04 0.200431425960240D+03 0.303684250616791D+03
 0.953128818224488D+03 -.914223588697150D+03 -.174414859272813D+03 -.205497520336759D+03
 0.609381601427657D+03 -.600531805652981D+03 -.659984387982959D+02 -.796975070745252D+02
 0.413084554708745D+03 0.400478709200238D+03 0.399818721108687D+02 -.184892232055072D+02
 0.000000000000000D+00 0.000000000000000D+00 0.000000000000000D+00 -.000000000000000D+00
 0.230562585381151D+04 0.000000000000000D+00 0.000000000000000D+00 0.230562585381151D+04
 0.298041448643578D+04 0.000000000000000D+00 0.000000000000000D+00 -.298041448643578D+04
 0.744282533765218D+03 0.669110803621276D+03 0.755502953573369D+02 0.303684250616791D+03
 0.154459259462393D+04 -.149333667601817D+04 -.336871822154273D+03 -.205497520336759D+03
 0.989136166965486D+03 -.971158631859334D+03 -.169969338206587D+03 -.796975070745252D+02
 0.261281406650339D+03 0.244122539189469D+03 -.388028376827501D+01 -.184892232055072D+02
 0.174674763824231D+04 0.155126196506676D+04 0.435171148771798D+03 -.674788632624271D+03
0.313253336368D-02 0.000000000000D+00 0.000000000000D+00 0.448664176232D-06 0.000000000000D+00  7 -1 1 23 -13 13 23 21 0 0.26201217D+00 0.22427264D+00 0.23767715D+07 0.23767715D+07 0.23767715D+07 0.10237165D+01  1  2  2  2  7  2        1 0.975768964788D-04 0.100000000000D+01
-.173929053944D-03 0.000000000000D+00 -.120297529315D-04 0.448664176232D-06 0.000000000000D+00  7 -1 1 23 -13 13 23 21 2 0.26201217D+00 0.22427264D+00 0.23767715D+07 0.23767715D+07 0.23767715D+07 0.10237165D+01  1  2  3  2  7  2        1 -.567783561729D-05 0.100000000000D+01
0.201272169513D-03 0.000000000000D+00 0.000000000000D+00 0.448664176232D-06 0.000000000000D+00  7 -1 1 23 -13 13 23 21 2 0.26201217D+00 0.22427264D+00 0.23767715D+07 0.23767715D+07 0.23767715D+07 0.10237165D+01  1  2 15  2  7  2        1 0.657043930799D-05 0.100000000000D+01
-.696541814716D-03 0.000000000000D+00 -.810076291541D-03 0.448664176232D-06 0.000000000000D+00  7 -1 1 23 -13 13 23 21 2 0.26201217D+00 0.48638363D+00 0.23767715D+07 0.23767715D+07 0.23767715D+07 0.10237165D+01  1  2  5  2  7  2        1 -.140212846328D-05 0.100000000000D+01
-.756306986391D-05 0.000000000000D+00 -.679095547039D-04 0.448664176232D-06 0.000000000000D+00  7 -1 21 23 -13 13 23 -1 2 0.26201217D+00 0.48638363D+00 0.23767715D+07 0.23767715D+07 0.23767715D+07 0.10237165D+01  1  2  5  4  7  2        1 -.263054579326D-08 0.100000000000D+01
  </mgrwgt>
  </event>
  <event>
  8     66 0.58687835E-06 0.21496663E+03 0.75467711E-02 0.10040638E+00
       -1 -1    0    0    0  501 0.00000000E+00 0.00000000E+00 0.26185178E+03 0.26185197E+03 0.32000000E+00 0.0000E+00 0.9000E+01
        1 -1    0    0  501    0 0.00000000E+00 0.00000000E+00 -.40722037E+03 0.40722049E+03 0.32000000E+00 0.0000E+00 0.9000E+01
       25  2    1    2    0    0 0.34181156E+02 -.71289734E+02 0.15131332E+03 0.34910218E+03 0.30450950E+03 0.0000E+00 0.0000E+00
       23  2    1    2    0    0 -.34181156E+02 0.71289734E+02 -.29668191E+03 0.31997028E+03 0.90056913E+02 0.0000E+00 0.0000E+00
       23  1    3    3    0    0 0.13913192E+03 -.41805869E+02 0.96250335E+02 0.19668452E+03 0.91188000E+02 0.0000E+00 0.9000E+01
      -13  1    4    4    0    0 -.88683343E+00 0.81465207E+02 -.23999373E+03 0.25344500E+03 0.10565837E+00 0.0000E+00 0.9000E+01
       13  1    4    4    0    0 -.33294323E+02 -.10175473E+02 -.56688185E+02 0.66525286E+02 0.10565837E+00 0.0000E+00 0.9000E+01
       23  1    3    3    0    0 -.10495076E+03 -.29483865E+02 0.55062987E+02 0.15241766E+03 0.91188000E+02 0.0000E+00 0.9000E+01
#aMCatNLO 1  0  0  1  1 0.17333268D+03 0.00000000D+00  -5  7  0 0.00000000D+00 0.00000000D+00 0.00000000D+00 0.00000000D+00 0.00000000D+00
  <mgrwgt>
 0.2158491241D-03    3    2    0
 0.326544765431082D+03 0.000000000000000D+00 0.000000000000000D+00 0.326544765431082D+03
 0.326544765431082D+03 0.000000000000000D+00 0.000000000000000D+00 -.326544765431082D+03
 0.222921916832437D+03 0.139131917738161D+03 -.418058687636454D+02 0.142385071070201D+03
 0.206228469143072D+03 -.886789282742416D+00 0.814653327559786D+02 -.189453938066277D+03
 0.555351418890950D+02 -.332943669976804D+02 -.101755988385050D+02 -.432677050367072D+02
 0.168404002997561D+03 -.104950761457739D+03 -.294838651538282D+02 0.903365720327828D+02
 0.000000000000000D+00 -.000000000000000D+00 0.000000000000000D+00 -.000000000000000D+00
 0.352906747434023D+03 0.000000000000000D+00 0.000000000000000D+00 0.352906747434023D+03
 0.836695524045902D+03 0.000000000000000D+00 0.000000000000000D+00 -.836695524045902D+03
 0.265951869086855D+03 0.187696844361884D+03 -.831356210039736D+02 0.142385071070201D+03
 0.199176228641336D+03 0.393862831704868D+02 0.471921190982088D+02 -.189453938066277D+03
 0.524786194830878D+02 -.225642347089790D+02 -.193071622903348D+02 -.432677050367072D+02
 0.158093034629464D+03 -.725164090094834D+02 -.570861667314255D+02 0.903365720327828D+02
 0.513902519639181D+03 -.132002483813908D+03 0.112336830927525D+03 -.483788776611879D+03
0.492488401861D-05 0.000000000000D+00 0.000000000000D+00 0.655318219140D-08 0.000000000000D+00  7 -1 1 23 -13 13 23 21 0 0.40284914D-01 0.62649312D-01 0.46210653D+05 0.46210653D+05 0.46210653D+05 0.11503183D+01  1  2  2  1  7  1       -1 0.210354373564D-03 0.100000000000D+01
-.215456962716D-06 0.000000000000D+00 -.189128513832D-07 0.655318219140D-08 0.000000000000D+00  7 -1 1 23 -13 13 23 21 2 0.40284914D-01 0.62649312D-01 0.46210653D+05 0.46210653D+05 0.46210653D+05 0.11503183D+01  1  2  3  1  7  1       -1 -.121773311309D-04 0.100000000000D+01
0.312677137862D-06 0.000000000000D+00 0.000000000000D+00 0.655318219140D-08 0.000000000000D+00  7 -1 1 23 -13 13 23 21 2 0.40284914D-01 0.62649312D-01 0.46210653D+05 0.46210653D+05 0.46210653D+05 0.11503183D+01  1  2 15  1  7  1       -1 0.176720816855D-04 0.100000000000D+01
  </mgrwgt>
  </event>
  <event>
  9     66 0.58687835E-06 0.22350673E+03 0.75467711E-02 0.99950966E-01
       -1 -1    0    0    0  501 0.00000000E+00 0.00000000E+00 0.17507154E+03 0.17507183E+03 0.32000000E+00 0.0000E+00 0.9000E+01
        1 -1    0    0  502    0 0.00000000E+00 0.00000000E+00 -.10414752E+04 0.10414753E+04 0.32000000E+00 0.0000E+00 0.9000E+01
       25  2    1    2    0    0 0.10896209E+02 0.25851669E+02 -.42094644E+03 0.51793976E+03 0.30046407E+03 0.0000E+00 0.0000E+00
       23  2    1    2    0    0 0.12010339E+03 -.12557852E+03 0.26666772E+02 0.19859935E+03 0.92389373E+02 0.0000E+00 0.0000E+00
       23  1    3    3    0    0 0.48882658E+02 -.85163761E+02 -.11023317E+03 0.17351941E+03 0.91188000E+02 0.0000E+00 0.9000E+01
      -11  1    4    4    0    0 0.18287141E+02 -.80924834E+02 -.46485058E+01 0.83095468E+02 0.51099893E-03 0.0000E+00 0.9000E+01
       11  1    4    4    0    0 0.10181625E+03 -.44653684E+02 0.31315278E+02 0.11550388E+03 0.51099893E-03 0.0000E+00 0.9000E+01
       23  1    3    3    0    0 -.37986449E+02 0.11101543E+03 -.31071327E+03 0.34442036E+03 0.91188000E+02 0.0000E+00 0.9000E+01
       21  1    1    2  502  501 -.13099960E+03 0.99726849E+02 -.47212401E+03 0.50000798E+03 0.75000000E+00 0.0000E+00 0.9000E+01
#aMCatNLO 2  0  0  2  1 0.16464003D+03 0.00000000D+00  -5  7  0 0.00000000D+00 0.00000000D+00 0.00000000D+00 0.00000000D+00 0.00000000D+00
  <mgrwgt>
 0.4114156682D-04    2    2    0
 0.287604545799520D+03 0.000000000000000D+00 0.000000000000000D+00 0.287604545799520D+03
 0.287604545799520D+03 0.000000000000000D+00 0.000000000000000D+00 -.287604545799520D+03
 0.114695717752300D+03 0.209906230704708D+02 -.639302241405663D+02 -.176685175146517D+02
 0.821307509947863D+02 -.164811518783153D+01 -.657486015811001D+02 0.491921270674992D+02
 0.134418886295426D+03 0.690658029263676D+02 -.197215578587496D+02 0.113619593445245D+03
 0.243963736556528D+03 -.884083108090068D+02 0.149400383580416D+03 -.145143202998093D+03
 0.000000000000000D+00 -.000000000000000D+00 0.000000000000000D+00 -.000000000000000D+00
 0.325037996816399D+03 0.000000000000000D+00 0.000000000000000D+00 0.325037996816399D+03
 0.560957052783631D+03 0.000000000000000D+00 0.000000000000000D+00 -.560957052783631D+03
 0.135165854628841D+03 0.488826577664683D+02 -.851637609084157D+02 -.176685175146517D+02
 0.964526494120856D+02 0.182871407733354D+02 -.809248336144222D+02 0.491921270674992D+02
 0.158965126140781D+03 0.101816245405930D+03 -.446536838987664D+02 0.113619593445245D+03
 0.207723847091496D+03 -.379864486763051D+02 0.111015429769506D+03 -.145143202998093D+03
 0.287687572326826D+03 -.130999595269429D+03 0.997268486520979D+02 -.235919055967232D+03
-.234115014831D-06 0.000000000000D+00 0.000000000000D+00 0.121478372300D-06 0.000000000000D+00  7 -1 1 23 -11 11 23 21 2 0.23832171D-01 0.16094201D+00 0.10284578D+06 0.10284578D+06 0.10284578D+06 0.11207234D+01  1  2 13  2  7  2        1 -.729943284746D-05 0.100000000000D+01
0.188358930157D-05 0.000000000000D+00 0.000000000000D+00 0.121478372300D-06 0.408217598105D-10  7 -1 1 23 -11 11 23 21 2 0.26934071D-01 0.16022676D+00 0.10284578D+06 0.10284578D+06 0.10284578D+06 0.11207234D+01  1  2  1  2  7  2        1 0.484409996694D-04 0.100000000000D+01
  </mgrwgt>
  </event>
  <event>
  8     66 0.58687835E-06 0.17483178E+03 0.75467711E-02 0.96596375E-01
       -1 -1    0    0    0  501 0.00000000E+00 0.00000000E+00 0.80490904E+02 0.80491541E+02 0.32000000E+00 0.0000E+00 0.9000E+01
        1 -1    0    0  501    0 0.00000000E+00 0.00000000E+00 -.21363937E+04 0.21363938E+04 0.32000000E+00 0.0000E+00 0.9000E+01
       25  2    1    2    0    0 -.15211844E+03 -.31930880E+03 -.10864243E+04 0.11808011E+04 0.29811974E+03 0.0000E+00 0.0000E+00
       23  2    1    2    0    0 0.15211844E+03 0.31930880E+03 -.96947857E+03 0.10360842E+04 0.92106921E+02 0.0000E+00 0.0000E+00
       23  1    3    3    0    0 0.16998809E+02 -.23484390E+03 -.61017696E+03 0.66035732E+03 0.91188000E+02 0.0000E+00 0.9000E+01
      -13  1    4    4    0    0 0.12005671E+03 0.17583538E+03 -.48223936E+03 0.52714941E+03 0.10565837E+00 0.0000E+00 0.9000E+01
       13  1    4    4    0    0 0.32061726E+02 0.14347343E+03 -.48723922E+03 0.50893481E+03 0.10565837E+00 0.0000E+00 0.9000E+01
       23  1    3    3    0    0 -.16911725E+03 -.84464905E+02 -.47624730E+03 0.52044376E+03 0.91188000E+02 0.0000E+00 0.9000E+01
#aMCatNLO 1  0  0  1  2 0.20832865D+02 0.00000000D+00  -5  7  0 0.00000000D+00 0.00000000D+00 0.00000000D+00 0.00000000D+00 0.00000000D+00
  <mgrwgt>
 0.5314895706D-04    9    2    0
 0.414681800581419D+03 0.000000000000000D+00 0.000000000000000D+00 0.414681800581419D+03
 0.414681800581419D+03 0.000000000000000D+00 0.000000000000000D+00 -.414681800581419D+03
 0.252569434584513D+03 0.169988086780882D+02 -.234843898343935D+03 0.595414615961991D+01
 0.213648861584200D+03 0.120056827183175D+03 0.175835419489368D+03 0.177228540571683D+02
 0.152567044844573D+03 0.320616103619887D+02 0.143473383681179D+03 -.407939271053329D+02
 0.210578260149552D+03 -.169117246223252D+03 -.844649048266125D+02 0.171169268885447D+02
 0.000000000000000D+00 -.000000000000000D+00 -.000000000000000D+00 0.000000000000000D+00
 0.436548835353142D+03 0.000000000000000D+00 0.000000000000000D+00 0.436548835353142D+03
 0.419804366588942D+03 0.000000000000000D+00 0.000000000000000D+00 -.419804366588942D+03
 0.248485554013702D+03 0.211362483633634D+02 -.230103512268128D+03 0.595414615961991D+01
 0.219026910338295D+03 0.123629628473144D+03 0.179928882784282D+03 0.177228540571683D+02
 0.155859925025620D+03 0.346084325954529D+02 0.146391352659926D+03 -.407939271053329D+02
 0.206252821898322D+03 -.165675281767922D+03 -.805213451330324D+02 0.171169268885447D+02
 0.267279906661453D+02 -.136990276640391D+02 -.156953780430475D+02 0.167444687641999D+02
0.473157380781D-05 0.000000000000D+00 0.000000000000D+00 0.441574456363D-07 0.000000000000D+00  7 -1 1 23 -13 13 23 21 0 0.12383267D-01 0.32867601D+00 0.16904650D+06 0.16904650D+06 0.16904650D+06 0.11034782D+01  1  2  2  1  7  1       -1 0.605465291464D-04 0.100000000000D+01
-.262841864272D-06 0.000000000000D+00 -.181704892740D-07 0.441574456363D-07 0.000000000000D+00  7 -1 1 23 -13 13 23 21 2 0.12383267D-01 0.32867601D+00 0.16904650D+06 0.16904650D+06 0.16904650D+06 0.11034782D+01  1  2  3  1  7  1       -1 -.409548852529D-05 0.100000000000D+01
0.306698629182D-06 0.000000000000D+00 0.000000000000D+00 0.441574456363D-07 0.000000000000D+00  7 -1 1 23 -13 13 23 21 2 0.12383267D-01 0.32867601D+00 0.16904650D+06 0.16904650D+06 0.16904650D+06 0.11034782D+01  1  2 15  1  7  1       -1 0.477884571400D-05 0.100000000000D+01
0.205127334590D-04 0.000000000000D+00 0.000000000000D+00 0.441574456363D-07 0.000000000000D+00  7 -1 1 23 -13 13 23 21 2 0.13110147D-01 0.32867601D+00 0.17788307D+06 0.17788307D+06 0.17788307D+06 0.11017558D+01  1  2 12  1  7  1       -1 0.290893117465D-03 0.100000000000D+01
-.206657459040D-04 0.000000000000D+00 0.000000000000D+00 0.441574456363D-07 0.000000000000D+00  7 -1 1 23 -13 13 23 21 2 0.12383267D-01 0.32867601D+00 0.16904650D+06 0.16904650D+06 0.16904650D+06 0.11034782D+01  1  2  4  1  7  1       -1 -.322004736387D-03 0.100000000000D+01
-.733641272491D-04 0.000000000000D+00 -.997499204309D-05 0.441574456363D-07 0.000000000000D+00  7 -1 1 23 -13 13 23 21 2 0.13211891D-01 0.32867601D+00 0.16904650D+06 0.16904650D+06 0.16904650D+06 0.11034782D+01  1  2  5  1  7  1       -1 -.103300165274D-02 0.100000000000D+01
0.738760861122D-04 0.000000000000D+00 0.995410450045D-05 0.441574456363D-07 0.000000000000D+00  7 -1 1 23 -13 13 23 21 2 0.12383267D-01 0.32867601D+00 0.16904650D+06 0.16904650D+06 0.16904650D+06 0.11034782D+01  1  2  6  1  7  1       -1 0.115110529977D-02 0.100000000000D+01
0.279662276147D-06 0.000000000000D+00 0.000000000000D+00 0.441574456363D-07 0.000000000000D+00  7 21 1 23 -13 13 23 1 2 0.13110147D-01 0.32867601D+00 0.17788307D+06 0.17788307D+06 0.17788307D+06 0.11017558D+01  1  2 12  3  7  1       -1 0.521002443537D-04 0.100000000000D+01
-.796093994296D-06 0.000000000000D+00 -.110206361042D-06 0.441574456363D-07 0.000000000000D+00  7 21 1 23 -13 13 23 1 2 0.13211891D-01 0.32867601D+00 0.16904650D+06 0.16904650D+06 0.16904650D+06 0.11034782D+01  1  2  5  3  7  1       -1 -.147173201744D-03 0.100000000000D+01
  </mgrwgt>
  </event>
  <event>
  8     66 0.58687835E-06 0.46378067E+03 0.75467711E-02 0.89939289E-01
       -1 -1    0    0    0  501 0.00000000E+00 0.00000000E+00 0.88886234E+03 0.88886239E+03 0.32000000E+00 0.0000E+00 0.9000E+01
        1 -1    0    0  501    0 0.00000000E+00 0.00000000E+00 -.67950340E+03 0.67950347E+03 0.32000000E+00 0.0000E+00 0.9000E+01
       25  2    1    2    0    0 -.39214970E+03 0.54627324E+03 0.43224856E+03 0.85401348E+03 0.30050687E+03 0.0000E+00 0.0000E+00
       23  2    1    2    0    0 0.39214970E+03 -.54627324E+03 -.22288962E+03 0.71435238E+03 0.91780753E+02 0.0000E+00 0.0000E+00
       23  1    3    3    0    0 -.30262079E+03 0.26273530E+03 0.32852219E+03 0.52616657E+03 0.91188000E+02 0.0000E+00 0.9000E+01
      -13  1    4    4    0    0 0.33335164E+03 -.40285886E+03 -.15725693E+03 0.54602961E+03 0.10565837E+00 0.0000E+00 0.9000E+01
       13  1    4    4    0    0 0.58798053E+02 -.14341438E+03 -.65632690E+02 0.16832277E+03 0.10565837E+00 0.0000E+00 0.9000E+01
       23  1    3    3    0    0 -.89528910E+02 0.28353794E+03 0.10372637E+03 0.32784692E+03 0.91188000E+02 0.0000E+00 0.9000E+01
#aMCatNLO 1  0  0  1  2 0.13905236D+03 0.00000000D+00  -5  7  0 0.00000000D+00 0.00000000D+00 0.00000000D+00 0.00000000D+00 0.00000000D+00
  <mgrwgt>
 0.1138292616D-03    9    2    0
 0.777164770657330D+03 0.000000000000000D+00 0.000000000000000D+00 0.777164770657330D+03
 0.777164770657330D+03 0.000000000000000D+00 0.000000000000000D+00 -.777164770657330D+03
 0.486668113914482D+03 -.302620786620592D+03 0.262735296274864D+03 0.260617392653622D+03
 0.572142605167053D+03 0.333352007195443D+03 -.402859203012632D+03 -.232224164320034D+03
 0.178682618312414D+03 0.587976891027209D+02 -.143414034407524D+03 -.888972698012558D+02
 0.316836203920712D+03 -.895289096775722D+02 0.283537941145292D+03 0.605040414676674D+02
 0.000000000000000D+00 0.000000000000000D+00 -.000000000000000D+00 0.000000000000000D+00
 0.136676755652888D+04 0.000000000000000D+00 0.000000000000000D+00 0.136676755652888D+04
 0.788510464042712D+03 0.000000000000000D+00 0.000000000000000D+00 -.788510464042712D+03
 0.524203478558551D+03 -.332886830674187D+03 0.296207643721442D+03 0.260617392653622D+03
 0.527693709541355D+03 0.300422311079172D+03 -.366441023360141D+03 -.232224164320034D+03
 0.166351800559875D+03 0.484671713600594D+02 -.131989129369618D+03 -.888972698012558D+02
 0.342288060330285D+03 -.109263447839645D+03 0.305363103260595D+03 0.605040414676674D+02
 0.594740971581529D+03 0.932607960745997D+02 -.103140594252278D+03 0.578257092486171D+03
0.667048814639D-04 0.000000000000D+00 0.000000000000D+00 0.130430040832D-05 0.000000000000D+00  7 -1 1 23 -13 13 23 21 0 0.13674806D+00 0.10453899D+00 0.48993268D+06 0.48993268D+06 0.48993268D+06 0.10691353D+01  1  2  2  1  7  1       -1 0.104460696903D-03 0.100000000000D+01
-.365649025253D-05 0.000000000000D+00 -.256164308620D-06 0.130430040832D-05 0.000000000000D+00  7 -1 1 23 -13 13 23 21 2 0.13674806D+00 0.10453899D+00 0.48993268D+06 0.48993268D+06 0.48993268D+06 0.10691353D+01  1  2  3  1  7  1       -1 -.654523182441D-05 0.100000000000D+01
0.431631049194D-05 0.000000000000D+00 0.000000000000D+00 0.130430040832D-05 0.000000000000D+00  7 -1 1 23 -13 13 23 21 2 0.13674806D+00 0.10453899D+00 0.48993268D+06 0.48993268D+06 0.48993268D+06 0.10691353D+01  1  2 15  1  7  1       -1 0.772633067361D-05 0.100000000000D+01
0.430498786880D-03 0.000000000000D+00 0.000000000000D+00 0.130430040832D-05 0.000000000000D+00  7 -1 1 23 -13 13 23 21 2 0.24080504D+00 0.10453899D+00 0.59693629D+06 0.59693629D+06 0.59693629D+06 0.10631136D+01  1  2 12  1  7  1       -1 0.104395962215D-03 0.100000000000D+01
-.380505360608D-03 0.000000000000D+00 0.000000000000D+00 0.130430040832D-05 0.000000000000D+00  7 -1 1 23 -13 13 23 21 2 0.13674806D+00 0.10453899D+00 0.48993268D+06 0.48993268D+06 0.48993268D+06 0.10691353D+01  1  2  4  1  7  1       -1 -.681116487015D-03 0.100000000000D+01
-.436009081829D-03 0.000000000000D+00 -.206803833769D-04 0.130430040832D-05 0.000000000000D+00  7 -1 1 23 -13 13 23 21 2 0.24152853D+00 0.10453899D+00 0.48993268D+06 0.48993268D+06 0.48993268D+06 0.10691353D+01  1  2  5  1  7  1       -1 -.107040880295D-03 0.100000000000D+01
0.386485067102D-03 0.000000000000D+00 0.177330778024D-04 0.130430040832D-05 0.000000000000D+00  7 -1 1 23 -13 13 23 21 2 0.13674806D+00 0.10453899D+00 0.48993268D+06 0.48993268D+06 0.48993268D+06 0.10691353D+01  1  2  6  1  7  1       -1 0.691820348517D-03 0.100000000000D+01
0.268607976239D-04 0.000000000000D+00 0.000000000000D+00 0.130430040832D-05 0.000000000000D+00  7 21 1 23 -13 13 23 1 2 0.24080504D+00 0.10453899D+00 0.59693629D+06 0.59693629D+06 0.59693629D+06 0.10631136D+01  1  2 12  3  7  1       -1 0.449456221041D-04 0.100000000000D+01
-.262603014900D-04 0.000000000000D+00 -.129615404698D-05 0.130430040832D-05 0.000000000000D+00  7 21 1 23 -13 13 23 1 2 0.24152853D+00 0.10453899D+00 0.48993268D+06 0.48993268D+06 0.48993268D+06 0.10691353D+01  1  2  5  3  7  1       -1 -.448170996549D-04 0.100000000000D+01
  </mgrwgt>
  </event>
  <event>
  9     66 0.58687835E-06 0.24024969E+03 0.75467711E-02 0.99251169E-01
       -1 -1    0    0    0  501 0.00000000E+00 0.00000000E+00 0.18515763E+03 0.18515791E+03 0.32000000E+00 0.0000E+00 0.9000E+01
        1 -1    0    0  502    0 0.00000000E+00 0.00000000E+00 -.90947400E+03 0.90947406E+03 0.32000000E+00 0.0000E+00 0.9000E+01
       25  2    1    2    0    0 0.14172360E+03 0.14724422E+03 -.98484006E+02 0.37580654E+03 0.29960811E+03 0.0000E+00 0.0000E+00
       23  2    1    2    0    0 0.31228859E+02 -.13573671E+03 -.42158935E+03 0.45094346E+03 0.78820853E+02 0.0000E+00 0.0000E+00
       23  1    3    3    0    0 -.56293181E+02 0.66169662E+02 -.61966668E+02 0.14036547E+03 0.91188000E+02 0.0000E+00 0.9000E+01
      -13  1    4    4    0    0 -.11347166E+02 -.22337664E+02 -.16860158E+03 0.17045302E+03 0.10565837E+00 0.0000E+00 0.9000E+01
       13  1    4    4    0    0 0.42576025E+02 -.11339904E+03 -.25298777E+03 0.28049044E+03 0.10565837E+00 0.0000E+00 0.9000E+01
       23  1    3    3    0    0 0.19801678E+03 0.81074556E+02 -.36517338E+02 0.23544107E+03 0.91188000E+02 0.0000E+00 0.9000E+01
       21  1    1    2  502  501 -.17295246E+03 -.11507512E+02 -.20424302E+03 0.26788197E+03 0.75000000E+00 0.0000E+00 0.9000E+01
#aMCatNLO 2  0  0  2  1 0.17333487D+03 0.00000000D+00  -5  7  0 0.00000000D+00 0.00000000D+00 0.00000000D+00 0.00000000D+00 0.00000000D+00
  <mgrwgt>
 0.5416483685D-04    2    2    0
 0.309432660993865D+03 0.000000000000000D+00 0.000000000000000D+00 0.309432660993865D+03
 0.309432660993865D+03 0.000000000000000D+00 0.000000000000000D+00 -.309432660993865D+03
 0.149943021772115D+03 -.947300183103927D+02 0.636122405892245D+02 0.338727753850243D+02
 0.896097192162946D+02 -.349887231606350D+02 -.239105055846968D+02 -.789555492178718D+02
 0.152318519574747D+03 0.293134901770564D+00 -.116212530467582D+03 -.984656957508207D+02
 0.226994061424573D+03 0.129425606569257D+03 0.765107954630547D+02 0.143548469583668D+03
 0.000000000000000D+00 -.000000000000000D+00 -.000000000000000D+00 -.000000000000000D+00
 0.388021803907031D+03 0.000000000000000D+00 0.000000000000000D+00 0.388021803907031D+03
 0.433984839612170D+03 0.000000000000000D+00 0.000000000000000D+00 -.433984839612170D+03
 0.130422247715732D+03 -.562931809810619D+02 0.661696623685870D+02 0.338727753850243D+02
 0.828353981488355D+02 -.113472609477550D+02 -.223375044076968D+02 -.789555492178718D+02
 0.156101243802457D+03 0.425761191520511D+02 -.113399202620351D+03 -.984656957508207D+02
 0.273322417368402D+03 0.198016781017071D+03 0.810745570936464D+02 0.143548469583668D+03
 0.179325336483775D+03 -.172952458240305D+03 -.115075124341858D+02 -.459630357051388D+02
-.407344160914D-06 0.000000000000D+00 0.000000000000D+00 0.309812237102D-08 0.000000000000D+00  7 -1 1 23 -13 13 23 21 2 0.22716312D-01 0.14841958D+00 0.11494013D+06 0.11494013D+06 0.11494013D+06 0.11167932D+01  1  2 13  2  7  2        1 -.156660956545D-04 0.100000000000D+01
0.238378529286D-05 0.000000000000D+00 0.000000000000D+00 0.309812237102D-08 0.734141578958D-12  7 -1 1 23 -13 13 23 21 2 0.28485760D-01 0.13991883D+00 0.11494013D+06 0.11494013D+06 0.11494013D+06 0.11167932D+01  1  2  1  2  7  2        1 0.698309325036D-04 0.100000000000D+01
  </mgrwgt>
  </event>
  <event>
  8     66 0.58687835E-06 0.36179821E+03 0.75467711E-02 0.96115626E-01
       -1 -1    0    0    0  501 0.00000000E+00 0.00000000E+00 0.24104495E+03 0.24104516E+03 0.32000000E+00 0.0000E+00 0.9000E+01
        1 -1    0    0  501    0 0.00000000E+00 0.00000000E+00 -.56646541E+03 0.56646550E+03 0.32000000E+00 0.0000E+00 0.9000E+01
       25  2    1    2    0    0 0.29884382E+03 -.33993041E+02 -.19191411E+03 0.46594144E+03 0.29967857E+03 0.0000E+00 0.0000E+00
       23  2    1    2    0    0 -.29884382E+03 0.33993041E+02 -.13350635E+03 0.34156922E+03 0.91555589E+02 0.0000E+00 0.0000E+00
       23  1    3    3    0    0 0.21755287E+03 0.75156822E+02 -.57816600E+02 0.25423574E+03 0.91188000E+02 0.0000E+00 0.9000E+01
      -11  1    4    4    0    0 0.46523179E+01 0.57466791E+01 -.10579453E+02 0.12907099E+02 0.51099893E-03 0.0000E+00 0.9000E+01
       11  1    4    4    0    0 -.30349614E+03 0.28246362E+02 -.12292690E+03 0.32866212E+03 0.51099893E-03 0.0000E+00 0.9000E+01
       23  1    3    3    0    0 0.81290952E+02 -.10914986E+03 -.13409751E+03 0.21170571E+03 0.91188000E+02 0.0000E+00 0.9000E+01
#aMCatNLO 1  0  0  2  1 0.14012810D+03 0.00000000D+00  -5  7  0 0.00000000D+00 0.00000000D+00 0.00000000D+00 0.00000000D+00 0.00000000D+00
  <mgrwgt>
 0.3026511921D-03    4    2    0
 0.369518262238981D+03 0.000000000000000D+00 0.000000000000000D+00 0.369518262238981D+03
 0.369518262238981D+03 0.000000000000000D+00 0.000000000000000D+00 -.369518262238981D+03
 0.252333080101478D+03 0.217552870463997D+03 0.751568218249154D+02 0.487743032297975D+02
 0.944452590612013D+01 0.465231795780463D+01 0.574667912765672D+01 -.587628166569788D+01
 0.304985242300307D+03 -.303496140624988D+03 0.282463617872700D+02 0.104035423052492D+02
 0.172273676170056D+03 0.812909522031863D+02 -.109149862739842D+03 -.533015638693488D+02
 0.000000000000000D+00 -.000000000000000D+00 0.000000000000000D+00 0.000000000000000D+00
 0.567363487897726D+03 0.000000000000000D+00 0.000000000000000D+00 0.567363487897726D+03
 0.401768284444083D+03 0.000000000000000D+00 0.000000000000000D+00 -.401768284444083D+03
 0.285097382516938D+03 0.261034237762722D+03 0.494718125207892D+02 0.487743032297975D+02
 0.981812063951655D+01 0.621078229478254D+01 0.482607397004015D+01 -.587628166569788D+01
 0.258148395319337D+03 -.257935231374870D+03 0.133294000009326D+01 0.104035423052492D+02
 0.199140108697015D+03 0.111340568521793D+03 -.126900562008940D+03 -.533015638693488D+02
 0.216927765169002D+03 -.120650357204427D+03 0.712697355180169D+02 0.165595203453643D+03
0.109572199377D-04 0.000000000000D+00 0.000000000000D+00 0.747953992504D-06 0.000000000000D+00  7 -1 1 23 -11 11 23 21 0 0.37083861D-01 0.87148548D-01 0.13089794D+06 0.13089794D+06 0.13089794D+06 0.11122508D+01  1  2  2  2  7  2        1 0.338655435649D-03 0.100000000000D+01
-.608404503289D-06 0.000000000000D+00 -.420786096631D-07 0.747953992504D-06 0.000000000000D+00  7 -1 1 23 -11 11 23 21 2 0.37083861D-01 0.87148548D-01 0.13089794D+06 0.13089794D+06 0.13089794D+06 0.11122508D+01  1  2  3  2  7  2        1 -.232624555554D-04 0.100000000000D+01
0.721461195964D-06 0.000000000000D+00 0.000000000000D+00 0.747953992504D-06 0.000000000000D+00  7 -1 1 23 -11 11 23 21 2 0.37083861D-01 0.87148548D-01 0.13089794D+06 0.13089794D+06 0.13089794D+06 0.11122508D+01  1  2 15  2  7  2        1 0.275851985239D-04 0.100000000000D+01
-.105470895510D-05 0.000000000000D+00 0.000000000000D+00 0.747953992504D-06 0.000000000000D+00  7 -1 1 23 -11 11 23 21 2 0.37083861D-01 0.87148548D-01 0.13089794D+06 0.13089794D+06 0.13089794D+06 0.11122508D+01  1  2  4  2  7  2        1 -.403269865020D-04 0.100000000000D+01
  </mgrwgt>
  </event>
  <event>
  8     66 0.58687835E-06 0.28546641E+03 0.75467711E-02 0.88044342E-01
       -1 -1    0    0    0  501 0.00000000E+00 0.00000000E+00 0.27928336E+03 0.27928354E+03 0.32000000E+00 0.0000E+00 0.9000E+01
        1 -1    0    0  501    0 0.00000000E+00 0.00000000E+00 -.12561895E+04 0.12561895E+04 0.32000000E+00 0.0000E+00 0.9000E+01
       25  2    1    2    0    0 -.18704221E+03 0.91793603E+02 -.11781685E+04 0.12319666E+04 0.29368330E+03 0.0000E+00 0.0000E+00
       23  2    1    2    0    0 0.18704221E+03 -.91793603E+02 0.20126236E+03 0.30350646E+03 0.90547116E+02 0.0000E+00 0.0000E+00
       23  1    3    3    0    0 -.20989519E+03 0.12262023E+02 -.63717696E+03 0.67713815E+03 0.91188000E+02 0.0000E+00 0.9000E+01
      -13  1    4    4    0    0 0.16261767E+03 -.49857150E+02 0.18730453E+03 0.25300837E+03 0.10565837E+00 0.0000E+00 0.9000E+01
       13  1    4    4    0    0 0.24424546E+02 -.41936453E+02 0.13957832E+02 0.50498087E+02 0.10565837E+00 0.0000E+00 0.9000E+01
       23  1    3    3    0    0 0.22852977E+02 0.79531580E+02 -.54099151E+03 0.55482843E+03 0.91188000E+02 0.0000E+00 0.9000E+01
#aMCatNLO 1  0  0  2  2 0.84561255D+03 0.00000000D+00  -5  7  0 0.00000000D+00 0.00000000D+00 0.00000000D+00 0.00000000D+00 0.00000000D+00
  <mgrwgt>
 0.8226551383D-03    3    2    0
 0.592311560030647D+03 0.000000000000000D+00 0.000000000000000D+00 0.592311560030647D+03
 0.592311560030647D+03 0.000000000000000D+00 0.000000000000000D+00 -.592311560030647D+03
 0.352234657079823D+03 -.209895188331304D+03 0.122620230546985D+02 -.267483934115888D+03
 0.482404166491002D+03 0.162617854236337D+03 -.498571612756899D+02 0.451423832779105D+03
 0.769639620732468D+02 0.244243576563555D+02 -.419364420288621D+02 0.597347222396363D+02
 0.273020334417222D+03 0.228529764386113D+02 0.795315802498535D+02 -.243674620902853D+03
 0.000000000000000D+00 -.000000000000000D+00 -.000000000000000D+00 0.000000000000000D+00
 0.152272051513140D+04 0.000000000000000D+00 0.000000000000000D+00 0.152272051513140D+04
 0.952600824629118D+03 0.000000000000000D+00 0.000000000000000D+00 -.952600824629118D+03
 0.316716269125945D+03 -.365756620720376D+02 0.138233533265041D+03 -.267483934115888D+03
 0.665673717181885D+03 0.460075122194015D+03 0.166339721305322D+03 0.451423832779105D+03
 0.910639340208850D+02 0.679589641701047D+02 -.102947669832797D+02 0.597347222396363D+02
 0.382015940173571D+03 0.192567334169823D+03 0.202882794098651D+03 -.243674620902853D+03
 0.101985147925823D+04 -.684025758461905D+03 -.497161281685733D+03 0.570119690502278D+03
0.118564607902D-03 0.000000000000D+00 0.000000000000D+00 0.311801943308D-07 0.000000000000D+00  7 -1 1 23 -13 13 23 21 0 0.42966688D-01 0.19325993D+00 0.81491070D+05 0.81491070D+05 0.81491070D+05 0.11290903D+01  1  2  2  2  7  2        1 0.780471002729D-03 0.100000000000D+01
-.232013716100D-05 0.000000000000D+00 -.455319313122D-06 0.311801943308D-07 0.000000000000D+00  7 -1 1 23 -13 13 23 21 2 0.42966688D-01 0.19325993D+00 0.81491070D+05 0.81491070D+05 0.81491070D+05 0.11290903D+01  1  2  3  2  7  2        1 -.194703035656D-04 0.100000000000D+01
0.734691963072D-05 0.000000000000D+00 0.000000000000D+00 0.311801943308D-07 0.000000000000D+00  7 -1 1 23 -13 13 23 21 2 0.42966688D-01 0.19325993D+00 0.81491070D+05 0.81491070D+05 0.81491070D+05 0.11290903D+01  1  2 15  2  7  2        1 0.616544391798D-04 0.100000000000D+01
  </mgrwgt>
  </event>
  <event>
  9     66 0.58687835E-06 0.22999183E+03 0.75467711E-02 0.10347365E+00
       -1 -1    0    0    0  501 0.00000000E+00 0.00000000E+00 0.16964720E+03 0.16964751E+03 0.32000000E+00 0.0000E+00 0.9000E+01
        1 -1    0    0  502    0 0.00000000E+00 0.00000000E+00 -.14679008E+04 0.14679008E+04 0.32000000E+00 0.0000E+00 0.9000E+01
       25  2    1    2    0    0 -.52207786E+02 -.11425022E+03 0.28861214E+01 0.32440702E+03 0.29908664E+03 0.0000E+00 0.0000E+00
       23  2    1    2    0    0 0.67892884E+02 0.86996865E+02 -.11394765E+04 0.11484466E+04 0.91351939E+02 0.0000E+00 0.0000E+00
       23  1    3    3    0    0 -.13877613E+03 -.96625458E+02 -.26900607E+02 0.19399533E+03 0.91188000E+02 0.0000E+00 0.9000E+01
      -11  1    4    4    0    0 0.83657499E+02 0.91103279E+02 -.10679408E+04 0.10750795E+04 0.51099893E-03 0.0000E+00 0.9000E+01
       11  1    4    4    0    0 -.15764614E+02 -.41064146E+01 -.71535648E+02 0.73367123E+02 0.51099893E-03 0.0000E+00 0.9000E+01
       23  1    3    3    0    0 0.86568341E+02 -.17624758E+02 0.29786728E+02 0.13041170E+03 0.91188000E+02 0.0000E+00 0.9000E+01
       21  1    1    2  502  501 -.15685098E+02 0.27253351E+02 -.16166326E+03 0.16469469E+03 0.75000000E+00 0.0000E+00 0.9000E+01
#aMCatNLO 2  0  0  2  1 0.31444672D+02 0.00000000D+00  -5  7  0 0.00000000D+00 0.00000000D+00 0.00000000D+00 0.00000000D+00 0.00000000D+00
  <mgrwgt>
 0.1598613280D-04    2    2    0
 0.468100291430516D+03 0.000000000000000D+00 0.000000000000000D+00 0.468100291430516D+03
 0.468100291430516D+03 0.000000000000000D+00 0.000000000000000D+00 -.468100291430516D+03
 0.272051854591741D+03 -.143335595621287D+03 -.887032376610051D+02 0.193089624006967D+03
 0.396062858850403D+03 0.770360703879683D+02 0.102608218960987D+03 -.374703596755606D+03
 0.287199823329089D+02 -.162443075824139D+02 -.327293285549102D+01 -.234573606122679D+02
 0.239365887085980D+03 0.825438328157327D+02 -.106320484444910D+02 0.205071333360907D+03
 0.000000000000000D+00 -.000000000000000D+00 0.000000000000000D+00 -.000000000000000D+00
 0.472584352581111D+03 0.000000000000000D+00 0.000000000000000D+00 0.472584352581111D+03
 0.526939159349942D+03 0.000000000000000D+00 0.000000000000000D+00 -.526939159349942D+03
 0.272386025150576D+03 -.138776126833534D+03 -.966254576975519D+02 0.193089624006967D+03
 0.394589875743079D+03 0.836574988364026D+02 0.911032793360814D+02 -.374703596755606D+03
 0.285592975794253D+02 -.157646144922327D+02 -.410641464631579D+01 -.234573606122679D+02
 0.241193310101820D+03 0.865683409217498D+02 -.176247575162954D+02 0.205071333360907D+03
 0.627950033561520D+02 -.156850984323862D+02 0.272533505240816D+02 -.543548067688317D+02
-.678390804602D-04 0.000000000000D+00 0.000000000000D+00 0.687361703153D-06 0.000000000000D+00  7 -1 1 23 -11 11 23 21 2 0.25851831D-01 0.22671600D+00 0.60149415D+05 0.60149415D+05 0.60149415D+05 0.11403018D+01  1  2 13  2  7  2        1 -.986962302342D-03 0.100000000000D+01
0.694092076368D-04 0.000000000000D+00 0.000000000000D+00 0.687361703153D-06 0.485473676175D-08  7 -1 1 23 -11 11 23 21 2 0.26099473D-01 0.22582986D+00 0.60149415D+05 0.60149415D+05 0.60149415D+05 0.11403018D+01  1  2  1  2  7  2        1 0.100294843514D-02 0.100000000000D+01
  </mgrwgt>
  </event>
  <event>
  8     66 0.58687835E-06 0.11788436E+03 0.75467711E-02 0.10119941E+00
       -1 -1    0    0    0  501 0.00000000E+00 0.00000000E+00 0.17878287E+03 0.17878316E+03 0.32000000E+00 0.0000E+00 0.9000E+01
        1 -1    0    0  501    0 0.00000000E+00 0.00000000E+00 -.55797307E+03 0.55797316E+03 0.32000000E+00 0.0000E+00 0.9000E+01
       25  2    1    2    0    0 0.94760046E+02 0.98786813E+02 -.45165073E+03 0.55732064E+03 0.29644496E+03 0.0000E+00 0.0000E+00
       23  2    1    2    0    0 -.94760046E+02 -.98786813E+02 0.72460532E+02 0.17943568E+03 0.90599855E+02 0.0000E+00 0.0000E+00
       23  1    3    3    0    0 -.54835286E+02 0.31374511E+02 -.28674490E+03 0.30745595E+03 0.91188000E+02 0.0000E+00 0.9000E+01
      -11  1    4    4    0    0 -.76277621E+01 -.14283295E+02 0.54352608E+02 0.56713325E+02 0.51099893E-03 0.0000E+00 0.9000E+01
       11  1    4    4    0    0 -.87132284E+02 -.84503518E+02 0.18107924E+02 0.12272235E+03 0.51099893E-03 0.0000E+00 0.9000E+01
       23  1    3    3    0    0 0.14959533E+03 0.67412302E+02 -.16490583E+03 0.24986469E+03 0.91188000E+02 0.0000E+00 0.9000E+01
#aMCatNLO 1  0  0  2  1 0.14000374D+03 0.00000000D+00  -5  7  0 0.00000000D+00 0.00000000D+00 0.00000000D+00 0.00000000D+00 0.00000000D+00
  <mgrwgt>
 0.2965730517D-03    9    2    0
 0.315841996549515D+03 0.000000000000000D+00 0.000000000000000D+00 0.315841996549515D+03
 0.315841996549515D+03 0.000000000000000D+00 0.000000000000000D+00 -.315841996549515D+03
 0.186468639732386D+03 -.548352863663643D+02 0.313745113159489D+02 -.149880064279579D+03
 0.987738762917188D+02 -.762776211173100D+01 -.142832952406199D+02 0.974375869976669D+02
 0.154005512649108D+03 -.871322836643689D+02 -.845035177328058D+02 0.947882828229723D+02
 0.192435964425817D+03 0.149595332142464D+03 0.674123016574768D+02 -.423458055410604D+02
 0.000000000000000D+00 -.000000000000000D+00 -.000000000000000D+00 -.000000000000000D+00
 0.347655935710575D+03 0.000000000000000D+00 0.000000000000000D+00 0.347655935710575D+03
 0.526420225189931D+03 0.000000000000000D+00 0.000000000000000D+00 -.526420225189931D+03
 0.180744671384963D+03 -.156872940507834D+02 0.405371437939565D+02 -.149880064279579D+03
 0.988032626904230D+02 0.134356037424975D+02 -.935339031685462D+01 0.974375869976669D+02
 0.134671064482764D+03 -.563569602185496D+02 -.773005180016134D+02 0.947882828229723D+02
 0.232793917246443D+03 0.194928373282526D+03 0.780225519029655D+02 -.423458055410604D+02
 0.227063245095912D+03 -.136319722755690D+03 -.319057873784540D+02 -.178764289479356D+03
0.877068243062D-05 0.000000000000D+00 0.000000000000D+00 0.118288293981D-07 0.000000000000D+00  7 -1 1 23 -11 11 23 21 0 0.27505086D-01 0.85842039D-01 0.47573128D+05 0.47573128D+05 0.47573128D+05 0.11492009D+01  1  2  2  2  7  2        1 0.462613909054D-03 0.100000000000D+01
-.406054429586D-06 0.000000000000D+00 -.336817299073D-07 0.118288293981D-07 0.000000000000D+00  7 -1 1 23 -11 11 23 21 2 0.27505086D-01 0.85842039D-01 0.47573128D+05 0.47573128D+05 0.47573128D+05 0.11492009D+01  1  2  3  2  7  2        1 -.282853444666D-04 0.100000000000D+01
0.550294949360D-06 0.000000000000D+00 0.000000000000D+00 0.118288293981D-07 0.000000000000D+00  7 -1 1 23 -11 11 23 21 2 0.27505086D-01 0.85842039D-01 0.47573128D+05 0.47573128D+05 0.47573128D+05 0.11492009D+01  1  2 15  2  7  2        1 0.383329944627D-04 0.100000000000D+01
0.299440276433D-05 0.000000000000D+00 0.000000000000D+00 0.118288293981D-07 0.000000000000D+00  7 -1 1 23 -11 11 23 21 2 0.27505086D-01 0.14495585D+00 0.84671043D+05 0.84671043D+05 0.84671043D+05 0.11277009D+01  1  2 12  2  7  2        1 0.899284360413D-04 0.100000000000D+01
-.912979434576D-05 0.000000000000D+00 0.000000000000D+00 0.118288293981D-07 0.000000000000D+00  7 -1 1 23 -11 11 23 21 2 0.27505086D-01 0.85842039D-01 0.47573128D+05 0.47573128D+05 0.47573128D+05 0.11492009D+01  1  2  4  2  7  2        1 -.635972320860D-03 0.100000000000D+01
-.834580119417D-05 0.000000000000D+00 -.295756285202D-05 0.118288293981D-07 0.000000000000D+00  7 -1 1 23 -11 11 23 21 2 0.27505086D-01 0.15079717D+00 0.47573128D+05 0.47573128D+05 0.47573128D+05 0.11492009D+01  1  2  5  2  7  2        1 -.246549616147D-03 0.100000000000D+01
0.896552147105D-05 0.000000000000D+00 0.254311518245D-05 0.118288293981D-07 0.000000000000D+00  7 -1 1 23 -11 11 23 21 2 0.27505086D-01 0.85842039D-01 0.47573128D+05 0.47573128D+05 0.47573128D+05 0.11492009D+01  1  2  6  2  7  2        1 0.624529237103D-03 0.100000000000D+01
0.175278194638D-06 0.000000000000D+00 0.000000000000D+00 0.118288293981D-07 0.000000000000D+00  7 -1 21 23 -11 11 23 -1 2 0.27505086D-01 0.14495585D+00 0.84671043D+05 0.84671043D+05 0.84671043D+05 0.11277009D+01  1  2 12  4  7  2        1 0.790853552688D-05 0.100000000000D+01
-.367665945646D-06 0.000000000000D+00 -.183866981749D-06 0.118288293981D-07 0.000000000000D+00  7 -1 21 23 -11 11 23 -1 2 0.27505086D-01 0.15079717D+00 0.47573128D+05 0.47573128D+05 0.47573128D+05 0.11492009D+01  1  2  5  4  7  2        1 -.159327790271D-04 0.100000000000D+01
  </mgrwgt>
  </event>
  <event>
  8     66 0.58687835E-06 0.13868067E+03 0.75467711E-02 0.10737401E+00
       -1 -1    0    0    0  501 0.00000000E+00 0.00000000E+00 0.32899056E+02 0.32900612E+02 0.32000000E+00 0.0000E+00 0.9000E+01
        1 -1    0    0  501    0 0.00000000E+00 0.00000000E+00 -.13369162E+04 0.13369163E+04 0.32000000E+00 0.0000E+00 0.9000E+01
       25  2    1    2    0    0 0.59772744E+02 -.67383447E+01 -.11270081E+04 0.11678459E+04 0.30016404E+03 0.0000E+00 0.0000E+00
       23  2    1    2    0    0 -.59772744E+02 0.67383447E+01 -.17700905E+03 0.20197102E+03 0.76432347E+02 0.0000E+00 0.0000E+00
       23  1    3    3    0    0 -.46180088E+02 -.64342627E+02 -.24705518E+03 0.27499834E+03 0.91188000E+02 0.0000E+00 0.9000E+01
      -13  1    4    4    0    0 -.71709459E+02 -.13371991E+02 -.12117566E+03 0.14143765E+03 0.10565837E+00 0.0000E+00 0.9000E+01
       13  1    4    4    0    0 0.11936714E+02 0.20110336E+02 -.55833389E+02 0.60533373E+02 0.10565837E+00 0.0000E+00 0.9000E+01
       23  1    3    3    0    0 0.10595283E+03 0.57604282E+02 -.87995294E+03 0.89284752E+03 0.91188000E+02 0.0000E+00 0.9000E+01
#aMCatNLO 1  0  0  2  1 0.38437754D+01 0.00000000D+00  -5  7  0 0.00000000D+00 0.00000000D+00 0.00000000D+00 0.00000000D+00 0.00000000D+00
  <mgrwgt>
 0.1175631762D-02   11    2    0
 0.209724519634081D+03 0.000000000000000D+00 0.000000000000000D+00 0.209724519634081D+03
 0.209724519634081D+03 0.000000000000000D+00 0.000000000000000D+00 -.209724519634081D+03
 0.130011305421479D+03 -.461798745282361D+02 -.643426506030017D+02 0.481158050471312D+02
 0.851799751260588D+02 -.717097128012519D+02 -.133717871187561D+02 0.439834123470273D+02
 0.241072080310062D+02 0.119364602708048D+02 0.201101890997997D+02 0.585309231295755D+01
 0.180150550689618D+03 0.105953127058683D+03 0.576042486219581D+02 -.979523097071160D+02
 0.000000000000000D+00 -.000000000000000D+00 0.000000000000000D+00 -.000000000000000D+00
 0.210812916646181D+03 0.000000000000000D+00 0.000000000000000D+00 0.210812916646181D+03
 0.213154668859142D+03 0.000000000000000D+00 0.000000000000000D+00 -.213154668859142D+03
 0.129888393545569D+03 -.451048800350660D+02 -.648549345504052D+02 0.481158050471312D+02
 0.846430441019372D+02 -.710072925552525D+02 -.137065224300930D+02 0.439834123470273D+02
 0.241276858543795D+02 0.121359689486198D+02 0.200151141076377D+02 0.585309231295755D+01
 0.180807527321005D+03 0.107446118192066D+03 0.568927701947596D+02 -.979523097071160D+02
 0.450093468243236D+01 -.346991455036729D+01 0.165357267810082D+01 -.234175221296155D+01
0.229543456476D-05 0.000000000000D+00 0.000000000000D+00 0.834930420995D-09 0.000000000000D+00  7 -1 1 23 -13 13 23 21 0 0.50615159D-02 0.20567954D+00 0.33912227D+05 0.33912227D+05 0.33912227D+05 0.11624287D+01  1  2  2  2  7  2        1 0.391793558381D-03 0.100000000000D+01
-.124902599277D-06 0.000000000000D+00 -.881507313047D-08 0.834930420995D-09 0.000000000000D+00  7 -1 1 23 -13 13 23 21 2 0.50615159D-02 0.20567954D+00 0.33912227D+05 0.33912227D+05 0.33912227D+05 0.11624287D+01  1  2  3  2  7  2        1 -.288068969272D-04 0.100000000000D+01
0.149178287061D-06 0.000000000000D+00 0.000000000000D+00 0.834930420995D-09 0.000000000000D+00  7 -1 1 23 -13 13 23 21 2 0.50615159D-02 0.20567954D+00 0.33912227D+05 0.33912227D+05 0.33912227D+05 0.11624287D+01  1  2 15  2  7  2        1 0.344057174473D-04 0.100000000000D+01
0.167778877563D-06 0.000000000000D+00 0.000000000000D+00 0.834930420995D-09 0.000000000000D+00  7 -1 1 23 -13 13 23 21 2 0.50615159D-02 0.20957142D+00 0.34631819D+05 0.34631819D+05 0.34631819D+05 0.11615944D+01  1  2 12  2  7  2        1 0.371747571517D-04 0.100000000000D+01
-.283908961466D-04 0.000000000000D+00 0.000000000000D+00 0.834930420995D-09 0.000000000000D+00  7 -1 1 23 -13 13 23 21 2 0.50615159D-02 0.20567954D+00 0.33912227D+05 0.33912227D+05 0.33912227D+05 0.11624287D+01  1  2  4  2  7  2        1 -.654793113754D-02 0.100000000000D+01
-.120172087363D-03 0.000000000000D+00 -.132828866855D-04 0.834930420995D-09 0.000000000000D+00  7 -1 1 23 -13 13 23 21 2 0.50615159D-02 0.20961135D+00 0.33912227D+05 0.33912227D+05 0.33912227D+05 0.11624287D+01  1  2  5  2  7  2        1 -.266541617485D-01 0.100000000000D+01
0.120404403172D-03 0.000000000000D+00 0.132805056617D-04 0.834930420995D-09 0.000000000000D+00  7 -1 1 23 -13 13 23 21 2 0.50615159D-02 0.20567954D+00 0.33912227D+05 0.33912227D+05 0.33912227D+05 0.11624287D+01  1  2  6  2  7  2        1 0.277694559747D-01 0.100000000000D+01
0.282278925894D-04 0.000000000000D+00 0.000000000000D+00 0.834930420995D-09 0.406702879553D-09  7 -1 1 23 -13 13 23 21 2 0.50877834D-02 0.20904354D+00 0.34631819D+05 0.34631819D+05 0.34631819D+05 0.11615944D+01  1  2 11  2  7  2        1 0.623971956891D-02 0.100000000000D+01
0.852291680444D-08 0.000000000000D+00 0.000000000000D+00 0.834930420995D-09 0.000000000000D+00  7 -1 21 23 -13 13 23 -1 2 0.50615159D-02 0.20957142D+00 0.34631819D+05 0.34631819D+05 0.34631819D+05 0.11615944D+01  1  2 12  4  7  2        1 0.184284005500D-05 0.100000000000D+01
-.413056857708D-06 0.000000000000D+00 -.458488623070D-07 0.834930420995D-09 0.000000000000D+00  7 -1 21 23 -13 13 23 -1 2 0.50615159D-02 0.20961135D+00 0.33912227D+05 0.33912227D+05 0.33912227D+05 0.11624287D+01  1  2  5  4  7  2        1 -.894697526759D-04 0.100000000000D+01
0.998388154212D-07 0.000000000000D+00 0.000000000000D+00 0.834930420995D-09 0.121881320959D-11  7 -1 21 23 -13 13 23 -1 2 0.50877834D-02 0.20904354D+00 0.34631819D+05 0.34631819D+05 0.34631819D+05 0.11615944D+01  1  2 11  4  7  2        1 0.216088806613D-04 0.100000000000D+01
  </mgrwgt>
  </event>
  <event>
  8     66 0.58687835E-06 0.32571652E+03 0.75467711E-02 0.90780912E-01
       -1 -1    0    0    0  501 0.00000000E+00 0.00000000E+00 0.53087531E+03 0.53087540E+03 0.32000000E+00 0.0000E+00 0.9000E+01
        1 -1    0    0  501    0 0.00000000E+00 0.00000000E+00 -.76682410E+03 0.76682417E+03 0.32000000E+00 0.0000E+00 0.9000E+01
       25  2    1    2    0    0 0.20772615E+03 0.15237594E+03 0.42615742E+03 0.58119733E+03 0.29968586E+03 0.0000E+00 0.0000E+00
       23  2    1    2    0    0 -.20772615E+03 -.15237594E+03 -.66210622E+03 0.71650224E+03 0.92855985E+02 0.0000E+00 0.0000E+00
       23  1    3    3    0    0 0.24444646E+03 0.97429263E+02 0.33939408E+03 0.43903317E+03 0.91188000E+02 0.0000E+00 0.9000E+01
      -11  1    4    4    0    0 -.72442702E+02 -.75857435E+02 -.38228201E+03 0.39641119E+03 0.51099893E-03 0.0000E+00 0.9000E+01
       11  1    4    4    0    0 -.13528344E+03 -.76518507E+02 -.27982420E+03 0.32009104E+03 0.51099893E-03 0.0000E+00 0.9000E+01
       23  1    3    3    0    0 -.36720319E+02 0.54946680E+02 0.86763348E+02 0.14216416E+03 0.91188000E+02 0.0000E+00 0.9000E+01
#aMCatNLO 1  0  0  2  1 0.58801752D+03 0.00000000D+00  -5  7  0 0.00000000D+00 0.00000000D+00 0.00000000D+00 0.00000000D+00 0.00000000D+00
  <mgrwgt>
 0.1953483034D-03    5    2    0
 0.638034548435040D+03 0.000000000000000D+00 0.000000000000000D+00 0.638034548435040D+03
 0.638034548435040D+03 0.000000000000000D+00 0.000000000000000D+00 -.638034548435040D+03
 0.509230087622559D+03 0.244446463776488D+03 0.974292627222105D+02 0.426325575011230D+03
 0.332445676421912D+03 -.724427015926612D+02 -.758574348590979D+02 -.315464470795329D+03
 0.273776575110387D+03 -.135283443428994D+03 -.765185073647921D+02 -.225381722958700D+03
 0.160616757715221D+03 -.367203187548335D+02 0.549466795016794D+02 0.114520618742798D+03
 0.000000000000000D+00 0.000000000000000D+00 0.000000000000000D+00 -.000000000000000D+00
 0.799669450516567D+03 0.000000000000000D+00 0.000000000000000D+00 0.799669450516567D+03
 0.159225803386046D+04 0.000000000000000D+00 0.000000000000000D+00 -.159225803386046D+04
 0.452049850080989D+03 0.103642405214280D+03 -.594858936806682D+02 0.426325575011230D+03
 0.414354971817296D+03 -.181830776891697D+03 -.197761924825022D+03 -.315464470795329D+03
 0.369322831463958D+03 -.229481816819514D+03 -.181495257640353D+03 -.225381722958700D+03
 0.169305068565895D+03 -.850458172143290D+02 0.109167541691709D+01 0.114520618742798D+03
 0.986894762448894D+03 0.392716005711259D+03 0.437651400729126D+03 -.792588583343898D+03
0.409304581603D-04 0.000000000000D+00 0.000000000000D+00 0.104539116656D-05 0.000000000000D+00  7 -1 1 23 -11 11 23 21 0 0.81673137D-01 0.11797295D+00 0.10609125D+06 0.10609125D+06 0.10609125D+06 0.11196208D+01  1  2  2  2  7  2        1 0.188985664461D-03 0.100000000000D+01
-.102404156933D-05 0.000000000000D+00 -.157183736573D-06 0.104539116656D-05 0.000000000000D+00  7 -1 1 23 -11 11 23 21 2 0.81673137D-01 0.11797295D+00 0.10609125D+06 0.10609125D+06 0.10609125D+06 0.11196208D+01  1  2  3  2  7  2        1 -.592709335120D-05 0.100000000000D+01
0.256744937422D-05 0.000000000000D+00 0.000000000000D+00 0.104539116656D-05 0.000000000000D+00  7 -1 1 23 -11 11 23 21 2 0.81673137D-01 0.11797295D+00 0.10609125D+06 0.10609125D+06 0.10609125D+06 0.11196208D+01  1  2 15  2  7  2        1 0.148602484227D-04 0.100000000000D+01
-.385869422215D-05 0.000000000000D+00 -.120463158576D-04 0.104539116656D-05 0.000000000000D+00  7 -1 1 23 -11 11 23 21 2 0.81673137D-01 0.32152099D+00 0.10609125D+06 0.10609125D+06 0.10609125D+06 0.11196208D+01  1  2  5  2  7  2        1 -.265983878674D-05 0.100000000000D+01
0.261997266931D-06 0.000000000000D+00 -.134953064012D-05 0.104539116656D-05 0.000000000000D+00  7 -1 21 23 -11 11 23 -1 2 0.81673137D-01 0.32152099D+00 0.10609125D+06 0.10609125D+06 0.10609125D+06 0.11196208D+01  1  2  5  4  7  2        1 0.893227024094D-07 0.100000000000D+01
  </mgrwgt>
  </event>
  <event>
  9     66 0.58687835E-06 0.22281294E+03 0.75467711E-02 0.10384259E+00
       -3 -1    0    0    0  501 0.00000000E+00 0.00000000E+00 0.17560429E+03 0.17560500E+03 0.50000000E+00 0.0000E+00 0.9000E+01
        3 -1    0    0  502    0 0.00000000E+00 0.00000000E+00 -.63306700E+03 0.63306719E+03 0.50000000E+00 0.0000E+00 0.9000E+01
       25  2    1    2    0    0 0.22494439E+02 -.16480083E+03 -.71659150E+02 0.34864736E+03 0.29791716E+03 0.0000E+00 0.0000E+00
       23  2    1    2    0    0 -.47631357E+02 0.14477627E+03 -.38943177E+03 0.42767404E+03 0.89549237E+02 0.0000E+00 0.0000E+00
       23  1    3    3    0    0 -.42069951E+02 -.76751129E+02 -.14187102E+03 0.19000856E+03 0.91188000E+02 0.0000E+00 0.9000E+01
      -13  1    4    4    0    0 -.71440497E+02 0.78105550E+02 -.22537897E+03 0.24899781E+03 0.10565837E+00 0.0000E+00 0.9000E+01
       13  1    4    4    0    0 0.23809140E+02 0.66670722E+02 -.16405280E+03 0.17867623E+03 0.10565837E+00 0.0000E+00 0.9000E+01
       23  1    3    3    0    0 0.64564391E+02 -.88049702E+02 0.70211869E+02 0.15863880E+03 0.91188000E+02 0.0000E+00 0.9000E+01
       21  1    1    2  502  501 0.25136918E+02 0.20024559E+02 0.36282149E+01 0.32350796E+02 0.75000000E+00 0.0000E+00 0.9000E+01
#aMCatNLO 2  0  0  2  1 0.32137946D+02 0.00000000D+00  -5  7  0 0.00000000D+00 0.00000000D+00 0.00000000D+00 0.00000000D+00 0.00000000D+00
  <mgrwgt>
 0.4507583037D-05    1    2    0
 0.311864246871809D+03 0.000000000000000D+00 0.000000000000000D+00 0.311864246871809D+03
 0.311864246871809D+03 0.000000000000000D+00 0.000000000000000D+00 -.311864246871809D+03
 0.127455871280210D+03 -.368564995792306D+02 -.725979923354859D+02 -.360676825901029D+02
 0.142931430622083D+03 -.656805000803204D+02 0.826941972047437D+02 -.963178878378119D+02
 0.104212694286694D+03 0.279412478313280D+02 0.699623191402438D+02 -.720058762924170D+02
 0.249128497554631D+03 0.745957518282230D+02 -.800585240095015D+02 0.204391446720332D+03
 0.000000000000000D+00 0.000000000000000D+00 0.000000000000000D+00 0.000000000000000D+00
 0.347916458949567D+03 0.000000000000000D+00 0.000000000000000D+00 0.347916458949567D+03
 0.319523260227487D+03 0.000000000000000D+00 0.000000000000000D+00 -.319523260227487D+03
 0.131441035196396D+03 -.420699510797642D+02 -.767511294915322D+02 -.360676825901029D+02
 0.143113166616654D+03 -.714406292954161D+02 0.781055659180820D+02 -.963178878378119D+02
 0.100978764094033D+03 0.238092721690838D+02 0.666707067316524D+02 -.720058762924170D+02
 0.249022941506629D+03 0.645643906860166D+02 -.880497019616034D+02 0.204391446720332D+03
 0.428838117633413D+02 0.251369175200799D+02 0.200245588034013D+02 0.283931987220798D+02
0.654139336762D-06 0.000000000000D+00 0.000000000000D+00 0.109471196430D-07 0.741290018696D-10  7 -3 3 23 -13 13 23 21 2 0.27015842D-01 0.97394008D-01 0.56985691D+05 0.56985691D+05 0.56985691D+05 0.11423329D+01  1  2  1  2  7  2        3 0.450758303669D-05 0.100000000000D+01
  </mgrwgt>
  </event>
  <event>
  8     66 0.58687835E-06 0.31682952E+03 0.75467711E-02 0.98392421E-01
       -1 -1    0    0    0  501 0.00000000E+00 0.00000000E+00 0.48588087E+02 0.48589140E+02 0.32000000E+00 0.0000E+00 0.9000E+01
        1 -1    0    0  501    0 0.00000000E+00 0.00000000E+00 -.25353343E+04 0.25353344E+04 0.32000000E+00 0.0000E+00 0.9000E+01
       25  2    1    2    0    0 -.19570430E+03 0.13873214E+03 -.92646078E+03 0.10030573E+04 0.30041223E+03 0.0000E+00 0.0000E+00
       23  2    1    2    0    0 0.19570430E+03 -.13873214E+03 -.15602855E+04 0.15808662E+04 0.84264681E+02 0.0000E+00 0.0000E+00
       23  1    3    3    0    0 -.27193748E+02 -.55770753E+02 -.30238042E+03 0.32186806E+03 0.91188000E+02 0.0000E+00 0.9000E+01
      -11  1    4    4    0    0 0.32258758E+01 -.28193973E+02 -.10569289E+03 0.10943626E+03 0.51099893E-03 0.0000E+00 0.9000E+01
       11  1    4    4    0    0 0.19247842E+03 -.11053817E+03 -.14545926E+04 0.14714300E+04 0.51099893E-03 0.0000E+00 0.9000E+01
       23  1    3    3    0    0 -.16851055E+03 0.19450289E+03 -.62408036E+03 0.68118920E+03 0.91188000E+02 0.0000E+00 0.9000E+01
#aMCatNLO 1  0  0  1  1 0.88174939D+02 0.00000000D+00  -5  7  0 0.00000000D+00 0.00000000D+00 0.00000000D+00 0.00000000D+00 0.00000000D+00
  <mgrwgt>
 0.6264871407D-03    4    2    0
 0.350982096589303D+03 0.000000000000000D+00 0.000000000000000D+00 0.350982096589303D+03
 0.350982096589303D+03 0.000000000000000D+00 0.000000000000000D+00 -.350982096589303D+03
 0.113594201608625D+03 -.271937475614524D+02 -.557707533702000D+02 0.271756224801795D+02
 0.284110026622794D+02 0.322587581159139D+01 -.281939727155956D+02 -.137065679018929D+01
 0.263346582334869D+03 0.192478419786466D+03 -.110538168472524D+03 -.141720829995808D+03
 0.296612406572832D+03 -.168510548036605D+03 0.194502894558320D+03 0.115915864305818D+03
 0.000000000000000D+00 0.000000000000000D+00 0.000000000000000D+00 -.000000000000000D+00
 0.375957958672563D+03 0.000000000000000D+00 0.000000000000000D+00 0.375957958672563D+03
 0.441224551948361D+03 0.000000000000000D+00 0.000000000000000D+00 -.441224551948361D+03
 0.121982492259749D+03 -.370351745731266D+02 -.667409803722750D+02 0.271756224801795D+02
 0.309998427005573D+02 0.743934628280152D+00 -.309605896050390D+02 -.137065679018929D+01
 0.259606360100176D+03 0.170631593052450D+03 -.134890800287287D+03 -.141720829995808D+03
 0.294891727576803D+03 -.193221162095013D+03 0.166958002414138D+03 0.115915864305818D+03
 0.109702087983639D+03 0.588808089874101D+02 0.656343678504628D+02 -.652665932757977D+02
0.496344545403D-04 0.000000000000D+00 0.000000000000D+00 0.215088150954D-07 0.000000000000D+00  7 -1 1 23 -11 11 23 21 0 0.74751729D-02 0.39005152D+00 0.10038094D+06 0.10038094D+06 0.10038094D+06 0.11215866D+01  1  2  2  1  7  1       -1 0.756303583951D-03 0.100000000000D+01
-.272233392893D-05 0.000000000000D+00 -.190609374487D-06 0.215088150954D-07 0.000000000000D+00  7 -1 1 23 -11 11 23 21 2 0.74751729D-02 0.39005152D+00 0.10038094D+06 0.10038094D+06 0.10038094D+06 0.11215866D+01  1  2  3  1  7  1       -1 -.521819010160D-04 0.100000000000D+01
0.325057218879D-05 0.000000000000D+00 0.000000000000D+00 0.215088150954D-07 0.000000000000D+00  7 -1 1 23 -11 11 23 21 2 0.74751729D-02 0.39005152D+00 0.10038094D+06 0.10038094D+06 0.10038094D+06 0.11215866D+01  1  2 15  1  7  1       -1 0.623072116165D-04 0.100000000000D+01
-.730077243700D-05 0.000000000000D+00 0.000000000000D+00 0.215088150954D-07 0.000000000000D+00  7 -1 1 23 -11 11 23 21 2 0.74751729D-02 0.39005152D+00 0.10038094D+06 0.10038094D+06 0.10038094D+06 0.11215866D+01  1  2  4  1  7  1       -1 -.139941753875D-03 0.100000000000D+01
  </mgrwgt>
  </event>
  <event>
  8     66 0.58687835E-06 0.15912878E+03 0.75467711E-02 0.99337667E-01
       -1 -1    0    0    0  501 0.00000000E+00 0.00000000E+00 0.21269448E+03 0.21269472E+03 0.32000000E+00 0.0000E+00 0.9000E+01
        1 -1    0    0  501    0 0.00000000E+00 0.00000000E+00 -.72116711E+03 0.72116718E+03 0.32000000E+00 0.0000E+00 0.9000E+01
       25  2    1    2    0    0 -.17748028E+02 0.26650474E+03 -.63392643E+02 0.40681412E+03 0.30023214E+03 0.0000E+00 0.0000E+00
       23  2    1    2    0    0 0.17748028E+02 -.26650474E+03 -.44507998E+03 0.52704777E+03 0.91342187E+02 0.0000E+00 0.0000E+00
       23  1    3    3    0    0 0.59537731E+02 0.12090061E+03 0.68811256E+02 0.17666901E+03 0.91188000E+02 0.0000E+00 0.9000E+01
      -13  1    4    4    0    0 -.15035605E+02 -.23890623E+03 -.37391171E+03 0.44397324E+03 0.10565837E+00 0.0000E+00 0.9000E+01
       13  1    4    4    0    0 0.32783632E+02 -.27598503E+02 -.71168277E+02 0.83074537E+02 0.10565837E+00 0.0000E+00 0.9000E+01
       23  1    3    3    0    0 -.77285759E+02 0.14560412E+03 -.13220390E+03 0.23014511E+03 0.91188000E+02 0.0000E+00 0.9000E+01
#aMCatNLO 1  0  0  2  1 0.37312805D+02 0.00000000D+00  -5  7  0 0.00000000D+00 0.00000000D+00 0.00000000D+00 0.00000000D+00 0.00000000D+00
  <mgrwgt>
 0.1878059727D-03    9    2    0
 0.391648320225583D+03 0.000000000000000D+00 0.000000000000000D+00 0.391648320225583D+03
 0.391648320225583D+03 0.000000000000000D+00 0.000000000000000D+00 -.391648320225583D+03
 0.255296766395031D+03 0.595377311196005D+02 0.120900613951770D+03 0.196721853658851D+03
 0.286591378788778D+03 -.150356682988614D+02 -.238906517078493D+03 -.157582432943153D+03
 0.528443207605581D+02 0.327836959050970D+02 -.275982201378598D+02 -.309207012318465D+02
 0.188564174506798D+03 -.772857587258360D+02 0.145604123264583D+03 -.821871948385149D+01
 0.000000000000000D+00 -.000000000000000D+00 -.000000000000000D+00 -.000000000000000D+00
 0.398304953815172D+03 0.000000000000000D+00 0.000000000000000D+00 0.398304953815172D+03
 0.448118115673893D+03 0.000000000000000D+00 0.000000000000000D+00 -.448118115673893D+03
 0.261604586304071D+03 0.684754874764730D+02 0.129357366002904D+03 0.196721853658851D+03
 0.278574414157416D+03 -.526337009879801D+01 -.229660135822627D+03 -.157582432943153D+03
 0.531350610920121D+02 0.346161884859427D+02 -.258643470300031D+02 -.309207012318465D+02
 0.190870784218926D+03 -.707249377942169D+02 0.151811859709305D+03 -.821871948385149D+01
 0.622382237166393D+02 -.271033680694007D+02 -.256447428595793D+02 -.498131618587206D+02
0.467889096369D-05 0.000000000000D+00 0.000000000000D+00 0.781734021198D-06 0.000000000000D+00  7 -1 1 23 -13 13 23 21 0 0.32722251D-01 0.11094881D+00 0.10027836D+06 0.10027836D+06 0.10027836D+06 0.11216230D+01  1  2  2  2  7  2        1 0.126179075830D-03 0.100000000000D+01
-.245665312139D-06 0.000000000000D+00 -.179681732808D-07 0.781734021198D-06 0.000000000000D+00  7 -1 1 23 -13 13 23 21 2 0.32722251D-01 0.11094881D+00 0.10027836D+06 0.10027836D+06 0.10027836D+06 0.11216230D+01  1  2  3  2  7  2        1 -.833454817597D-05 0.100000000000D+01
0.305365991216D-06 0.000000000000D+00 0.000000000000D+00 0.781734021198D-06 0.000000000000D+00  7 -1 1 23 -13 13 23 21 2 0.32722251D-01 0.11094881D+00 0.10027836D+06 0.10027836D+06 0.10027836D+06 0.11216230D+01  1  2 15  2  7  2        1 0.103599793676D-04 0.100000000000D+01
0.203026747071D-04 0.000000000000D+00 0.000000000000D+00 0.781734021198D-06 0.000000000000D+00  7 -1 1 23 -13 13 23 21 2 0.32722251D-01 0.12780114D+00 0.11336157D+06 0.11336157D+06 0.11336157D+06 0.11172797D+01  1  2 12  2  7  2        1 0.547155692713D-03 0.100000000000D+01
-.206345926012D-04 0.000000000000D+00 0.000000000000D+00 0.781734021198D-06 0.000000000000D+00  7 -1 1 23 -13 13 23 21 2 0.32722251D-01 0.11094881D+00 0.10027836D+06 0.10027836D+06 0.10027836D+06 0.11216230D+01  1  2  4  2  7  2        1 -.700058158918D-03 0.100000000000D+01
-.311642657832D-04 0.000000000000D+00 -.429296146677D-05 0.781734021198D-06 0.000000000000D+00  7 -1 1 23 -13 13 23 21 2 0.32722251D-01 0.12807999D+00 0.10027836D+06 0.10027836D+06 0.10027836D+06 0.11216230D+01  1  2  5  2  7  2        1 -.845763794512D-03 0.100000000000D+01
0.314992841600D-04 0.000000000000D+00 0.424908456454D-05 0.781734021198D-06 0.000000000000D+00  7 -1 1 23 -13 13 23 21 2 0.32722251D-01 0.11094881D+00 0.10027836D+06 0.10027836D+06 0.10027836D+06 0.11216230D+01  1  2  6  2  7  2        1 0.106865840787D-02 0.100000000000D+01
0.441414002867D-06 0.000000000000D+00 0.000000000000D+00 0.781734021198D-06 0.000000000000D+00  7 -1 21 23 -13 13 23 -1 2 0.32722251D-01 0.12780114D+00 0.11336157D+06 0.11336157D+06 0.11336157D+06 0.11172797D+01  1  2 12  4  7  2        1 0.205445992404D-04 0.100000000000D+01
-.658542586622D-06 0.000000000000D+00 -.945097498458D-07 0.781734021198D-06 0.000000000000D+00  7 -1 21 23 -13 13 23 -1 2 0.32722251D-01 0.12807999D+00 0.10027836D+06 0.10027836D+06 0.10027836D+06 0.11216230D+01  1  2  5  4  7  2        1 -.309352807539D-04 0.100000000000D+01
  </mgrwgt>
  </event>
  <event>
  9     66 0.58687835E-06 0.48014904E+03 0.75467711E-02 0.92616455E-01
       -1 -1    0    0    0  501 0.00000000E+00 0.00000000E+00 0.38533236E+03 0.38533249E+03 0.32000000E+00 0.0000E+00 0.9000E+01
        1 -1    0    0  502    0 0.00000000E+00 0.00000000E+00 -.10756650E+04 0.10756651E+04 0.32000000E+00 0.0000E+00 0.9000E+01
       25  2    1    2    0    0 0.90163553E+02 0.54925246E+03 -.11332968E+03 0.64787471E+03 0.31159315E+03 0.0000E+00 0.0000E+00
       23  2    1    2    0    0 -.73227872E+02 -.32956997E+03 -.38889065E+03 0.52340916E+03 0.93501476E+02 0.0000E+00 0.0000E+00
       23  1    3    3    0    0 0.17222408E+03 0.27205700E+03 -.65378283E+02 0.34097759E+03 0.91188000E+02 0.0000E+00 0.9000E+01
      -13  1    4    4    0    0 -.16392328E+02 -.20988209E+02 -.41651290E+01 0.26955014E+02 0.10565837E+00 0.0000E+00 0.9000E+01
       13  1    4    4    0    0 -.56835544E+02 -.30858176E+03 -.38472552E+03 0.49645415E+03 0.10565837E+00 0.0000E+00 0.9000E+01
       23  1    3    3    0    0 -.82060530E+02 0.27719546E+03 -.47951399E+02 0.30689712E+03 0.91188000E+02 0.0000E+00 0.9000E+01
       21  1    1    2  502  501 -.16935681E+02 -.21968249E+03 -.18811235E+03 0.28971371E+03 0.75000000E+00 0.0000E+00 0.9000E+01
#aMCatNLO 2  0  0  2  1 0.22033433D+03 0.00000000D+00  -5  7  0 0.00000000D+00 0.00000000D+00 0.00000000D+00 0.00000000D+00 0.00000000D+00
  <mgrwgt>
 0.1010511784D-04    2    2    0
 0.517477879380282D+03 0.000000000000000D+00 0.000000000000000D+00 0.517477879380282D+03
 0.517477879380282D+03 0.000000000000000D+00 0.000000000000000D+00 -.517477879380282D+03
 0.293601288591119D+03 0.167045658747100D+03 0.204885063338861D+03 0.894668879124765D+02
 0.332071965376721D+02 -.168863788405100D+02 -.273971341090278D+02 0.818322394648354D+01
 0.441588793576633D+03 -.633775060291272D+02 -.393440995861768D+03 -.190231798386323D+03
 0.266558480055141D+03 -.867817738774628D+02 0.215953066631935D+03 0.925816865273628D+02
 0.000000000000000D+00 -.000000000000000D+00 -.000000000000000D+00 -.000000000000000D+00
 0.609417454623016D+03 0.000000000000000D+00 0.000000000000000D+00 0.609417454623016D+03
 0.680137858891111D+03 0.000000000000000D+00 0.000000000000000D+00 -.680137858891111D+03
 0.346403974394189D+03 0.172224052946909D+03 0.272057004478632D+03 0.894668879124765D+02
 0.278596736204824D+02 -.163922761439909D+02 -.209878427405164D+02 0.818322394648354D+01
 0.366935083750387D+03 -.568355983310124D+02 -.308582133850884D+03 -.190231798386323D+03
 0.316950897422769D+03 -.820604977401831D+02 0.277195465445381D+03 0.925816865273628D+02
 0.231405684326300D+03 -.169356807317230D+02 -.219682493332613D+03 -.707204042680952D+02
-.854746121256D-05 0.000000000000D+00 0.000000000000D+00 0.178826902063D-08 0.000000000000D+00  7 -1 1 23 -13 13 23 21 2 0.50338319D-01 0.17382191D+00 0.35911053D+06 0.35911053D+06 0.35911053D+06 0.10788200D+01  1  2 13  2  7  2        1 -.571776729032D-04 0.100000000000D+01
0.124331389984D-04 0.000000000000D+00 0.000000000000D+00 0.178826902063D-08 0.248700020293D-12  7 -1 1 23 -13 13 23 21 2 0.59281858D-01 0.16548678D+00 0.35911053D+06 0.35911053D+06 0.35911053D+06 0.10788200D+01  1  2  1  2  7  2        1 0.672827907453D-04 0.100000000000D+01
  </mgrwgt>
  </event>
  <event>
  8     66 0.58687835E-06 0.18842226E+03 0.75467711E-02 0.96365025E-01
       -1 -1    0    0    0  501 0.00000000E+00 0.00000000E+00 0.52116167E+02 0.52117149E+02 0.32000000E+00 0.0000E+00 0.9000E+01
        1 -1    0    0  501    0 0.00000000E+00 0.00000000E+00 -.10209535E+04 0.10209536E+04 0.32000000E+00 0.0000E+00 0.9000E+01
       25  2    1    2    0    0 0.38280858E+02 -.25286234E+02 -.43924059E+03 0.53371505E+03 0.29969091E+03 0.0000E+00 0.0000E+00
       23  2    1    2    0    0 -.38280858E+02 0.25286234E+02 -.52959676E+03 0.53935566E+03 0.91252330E+02 0.0000E+00 0.0000E+00
       23  1    3    3    0    0 -.76977733E+02 -.45597073E+02 -.96057663E+02 0.15983426E+03 0.91188000E+02 0.0000E+00 0.9000E+01
      -13  1    4    4    0    0 0.74199295E+01 0.48781596E+02 -.30416524E+03 0.30814153E+03 0.10565837E+00 0.0000E+00 0.9000E+01
       13  1    4    4    0    0 -.45700787E+02 -.23495362E+02 -.22543152E+03 0.23121413E+03 0.10565837E+00 0.0000E+00 0.9000E+01
       23  1    3    3    0    0 0.11525859E+03 0.20310839E+02 -.34318292E+03 0.37388079E+03 0.91188000E+02 0.0000E+00 0.9000E+01
#aMCatNLO 1  0  0  1  1 0.34051101D+03 0.00000000D+00  -5  7  0 0.00000000D+00 0.00000000D+00 0.00000000D+00 0.00000000D+00 0.00000000D+00
  <mgrwgt>
 0.2276698395D-03    3    2    0
 0.230670191499440D+03 0.000000000000000D+00 0.000000000000000D+00 0.230670191499440D+03
 0.230670191499440D+03 0.000000000000000D+00 0.000000000000000D+00 -.230670191499440D+03
 0.170046268429122D+03 -.769777295142148D+02 -.455970730130295D+02 0.112231092635464D+03
 0.779706698864135D+02 0.741999838876373D+01 0.487816925611048D+02 -.603714788399345D+02
 0.643833310210550D+02 -.457008582720370D+02 -.234954566828939D+02 -.387892817905693D+02
 0.148940113662290D+03 0.115258589397488D+03 0.203108371348186D+02 -.130703320049598D+02
 0.000000000000000D+00 0.000000000000000D+00 -.000000000000000D+00 -.000000000000000D+00
 0.347926807252989D+03 0.000000000000000D+00 0.000000000000000D+00 0.347926807252989D+03
 0.760116846314382D+03 0.000000000000000D+00 0.000000000000000D+00 -.760116846314382D+03
 0.250289862473728D+03 -.204092738600330D+03 0.894984969623546D+01 0.112231092635464D+03
 0.106074578901103D+03 -.482376330920963D+02 0.726652020254396D+02 -.603714788399345D+02
 0.104180805244911D+03 -.966768038016723D+02 -.162092761801376D+01 -.387892817905693D+02
 0.112850510309157D+03 0.360897645017732D+02 0.542833459960213D+02 -.130703320049598D+02
 0.534647896638473D+03 0.312917410992325D+03 -.134277470099683D+03 -.412190039061392D+03
0.157171984012D-05 0.000000000000D+00 0.000000000000D+00 0.151569610199D-06 0.000000000000D+00  7 -1 1 23 -13 13 23 21 0 0.80179512D-02 0.15706985D+00 0.35502950D+05 0.35502950D+05 0.35502950D+05 0.11606098D+01  1  2  2  1  7  1       -1 0.224459291054D-03 0.100000000000D+01
-.829727609291D-07 0.000000000000D+00 -.603581802941D-08 0.151569610199D-06 0.000000000000D+00  7 -1 1 23 -13 13 23 21 2 0.80179512D-02 0.15706985D+00 0.35502950D+05 0.35502950D+05 0.35502950D+05 0.11606098D+01  1  2  3  1  7  1       -1 -.159613808009D-04 0.100000000000D+01
0.996622986066D-07 0.000000000000D+00 0.000000000000D+00 0.151569610199D-06 0.000000000000D+00  7 -1 1 23 -13 13 23 21 2 0.80179512D-02 0.15706985D+00 0.35502950D+05 0.35502950D+05 0.35502950D+05 0.11606098D+01  1  2 15  1  7  1       -1 0.191719292179D-04 0.100000000000D+01
  </mgrwgt>
  </event>
  <event>
  8     66 0.58687835E-06 0.25734190E+03 0.75467711E-02 0.99516019E-01
       -1 -1    0    0    0  501 0.00000000E+00 0.00000000E+00 0.11901027E+04 0.11901027E+04 0.32000000E+00 0.0000E+00 0.9000E+01
        1 -1    0    0  501    0 0.00000000E+00 0.00000000E+00 -.70615492E+02 0.70616217E+02 0.32000000E+00 0.0000E+00 0.9000E+01
       25  2    1    2    0    0 -.82556621E+02 0.14238368E+03 0.92520342E+03 0.98639883E+03 0.29982092E+03 0.0000E+00 0.0000E+00
       23  2    1    2    0    0 0.82556621E+02 -.14238368E+03 0.19428375E+03 0.27432009E+03 0.10206188E+03 0.0000E+00 0.0000E+00
       23  1    3    3    0    0 -.15251896E+03 0.28402280E+02 0.50390181E+03 0.53507103E+03 0.91188000E+02 0.0000E+00 0.9000E+01
      -11  1    4    4    0    0 0.40435172E+02 -.11674218E+03 0.18749915E+03 0.22454325E+03 0.51099893E-03 0.0000E+00 0.9000E+01
       11  1    4    4    0    0 0.42121449E+02 -.25641506E+02 0.67846031E+01 0.49776844E+02 0.51099893E-03 0.0000E+00 0.9000E+01
       23  1    3    3    0    0 0.69962335E+02 0.11398140E+03 0.42130161E+03 0.45132781E+03 0.91188000E+02 0.0000E+00 0.9000E+01
#aMCatNLO 1  0  0  2  2 0.13634957D+03 0.00000000D+00  -5  7  0 0.00000000D+00 0.00000000D+00 0.00000000D+00 0.00000000D+00 0.00000000D+00
  <mgrwgt>
 0.1245572856D-03    4    2    0
 0.289896824745122D+03 0.000000000000000D+00 0.000000000000000D+00 0.289896824745122D+03
 0.289896824745122D+03 0.000000000000000D+00 0.000000000000000D+00 -.289896824745122D+03
 0.190520472526840D+03 -.152518955868465D+03 0.284022799439320D+02 0.625625902806956D+02
 0.126222541786661D+03 0.404351716379097D+02 -.116742175988642D+03 -.258532646900789D+02
 0.951361447368512D+02 0.421214490654080D+02 -.256415066628469D+02 -.813583597430560D+02
 0.167914490439891D+03 0.699623351651469D+02 0.113981402707557D+03 0.446490341524392D+02
 0.000000000000000D+00 0.000000000000000D+00 -.000000000000000D+00 0.000000000000000D+00
 0.413764424195217D+03 0.000000000000000D+00 0.000000000000000D+00 0.413764424195217D+03
 0.337886616536137D+03 0.000000000000000D+00 0.000000000000000D+00 -.337886616536137D+03
 0.203715609079096D+03 -.154205703722314D+03 0.741034498207946D+02 0.625625902806956D+02
 0.101879711319120D+03 0.394592310687030D+02 -.902997971581257D+02 -.258532646900789D+02
 0.913401342897524D+02 0.413236061532104D+02 -.402455046978463D+01 -.813583597430560D+02
 0.198675056577598D+03 0.683938736251569D+02 0.156477693496269D+03 0.446490341524392D+02
 0.156040529465787D+03 0.502899287524336D+01 -.136256795689153D+03 0.758778076590798D+02
0.105256898993D-04 0.000000000000D+00 0.000000000000D+00 0.738074800793D-08 0.000000000000D+00  7 -1 1 23 -11 11 23 21 0 0.18309278D+00 0.10863981D-01 0.66224853D+05 0.66224853D+05 0.66224853D+05 0.11367121D+01  1  2  2  2  7  2        1 0.155479632732D-03 0.100000000000D+01
-.574672074200D-06 0.000000000000D+00 -.404214206911D-07 0.738074800793D-08 0.000000000000D+00  7 -1 1 23 -11 11 23 21 2 0.18309278D+00 0.10863981D-01 0.66224853D+05 0.66224853D+05 0.66224853D+05 0.11367121D+01  1  2  3  2  7  2        1 -.109684182290D-04 0.100000000000D+01
0.686965726345D-06 0.000000000000D+00 0.000000000000D+00 0.738074800793D-08 0.000000000000D+00  7 -1 1 23 -11 11 23 21 2 0.18309278D+00 0.10863981D-01 0.66224853D+05 0.66224853D+05 0.66224853D+05 0.11367121D+01  1  2 15  2  7  2        1 0.131116992347D-04 0.100000000000D+01
-.173241872232D-05 0.000000000000D+00 0.000000000000D+00 0.738074800793D-08 0.000000000000D+00  7 -1 1 23 -11 11 23 21 2 0.18309278D+00 0.10863981D-01 0.66224853D+05 0.66224853D+05 0.66224853D+05 0.11367121D+01  1  2  4  2  7  2        1 -.330656281158D-04 0.100000000000D+01
  </mgrwgt>
  </event>
  <event>
  7     66 0.58687835E-06 0.25741910E+03 0.75467711E-02 0.97378479E-01
       -1 -1    0    0    0  501 0.00000000E+00 0.00000000E+00 0.94872899E+02 0.94873439E+02 0.32000000E+00 0.0000E+00 0.9000E+01
        1 -1    0    0  501    0 0.00000000E+00 0.00000000E+00 -.18801424E+04 0.18801424E+04 0.32000000E+00 0.0000E+00 0.9000E+01
       23  2    1    2    0    0 -.11666267E+03 0.20670159E+03 -.92047088E+03 0.95470935E+03 0.88699396E+02 0.0000E+00 0.0000E+00
       23  1    1    2    0    0 -.72501069E+02 0.89186798E+02 -.11182888E+03 0.18447667E+03 0.91188000E+02 0.0000E+00 0.9000E+01
      -11  1    3    3    0    0 -.11007106E+03 0.21564467E+03 -.88655943E+03 0.91902442E+03 0.51099893E-03 0.0000E+00 0.9000E+01
       11  1    3    3    0    0 -.65916045E+01 -.89430814E+01 -.33911450E+02 0.35684932E+02 0.51099893E-03 0.0000E+00 0.9000E+01
       23  1    1    2    0    0 0.18916374E+03 -.29588839E+03 -.75296975E+03 0.83582986E+03 0.91188000E+02 0.0000E+00 0.9000E+01
#aMCatNLO 1  0  0  2  1 0.28316150D+02 0.00000000D+00  -5  7  0 0.00000000D+00 0.00000000D+00 0.00000000D+00 0.00000000D+00 0.00000000D+00
  <mgrwgt>
 0.1124892812D-02    6    2    0
 0.422344790540719D+03 0.000000000000000D+00 0.000000000000000D+00 0.422344790540719D+03
 0.422344790540719D+03 0.000000000000000D+00 0.000000000000000D+00 -.422344790540719D+03
 0.194982457736292D+03 -.725010694681907D+02 0.891867984101745D+02 0.128422028469403D+03
 0.275059983548966D+03 -.110071064657566D+03 0.215644670679006D+03 -.130536321699558D+03
 0.117643574853650D+02 -.659160445252187D+01 -.894308145358346D+01 -.386938650169872D+01
 0.362882782310814D+03 0.189163738578279D+03 -.295888387635597D+03 0.598367973185391D+01
 0.000000000000000D+00 0.000000000000000D+00 0.000000000000000D+00 0.000000000000000D+00
 0.437243994087363D+03 0.000000000000000D+00 0.000000000000000D+00 0.437243994087363D+03
 0.436253535567596D+03 0.000000000000000D+00 0.000000000000000D+00 -.436253535567596D+03
 0.192712827115433D+03 -.739358712699022D+02 0.828507811320276D+02 0.128422028469403D+03
 0.268978987881454D+03 -.112084470873502D+03 0.206753563519199D+03 -.130536321699558D+03
 0.121121602229081D+02 -.667996784502360D+01 -.933329003917267D+01 -.386938650169872D+01
 0.371360087394099D+03 0.186446416409273D+03 -.307887954539243D+03 0.598367973185391D+01
 0.283334670410653D+02 0.625389357915473D+01 0.276168999271888D+02 0.990458519766662D+00
0.589769246765D-04 0.000000000000D+00 0.000000000000D+00 0.162706153598D-09 0.000000000000D+00  7 -1 1 23 -11 11 23 21 0 0.14595874D-01 0.28925272D+00 0.14545550D+06 0.14545550D+06 0.14545550D+06 0.11086078D+01  1  2  2  2  7  2        1 0.865762129781D-03 0.100000000000D+01
-.323504141703D-05 0.000000000000D+00 -.226486919739D-06 0.162706153598D-09 0.000000000000D+00  7 -1 1 23 -11 11 23 21 2 0.14595874D-01 0.28925272D+00 0.14545550D+06 0.14545550D+06 0.14545550D+06 0.11086078D+01  1  2  3  2  7  2        1 -.583649592370D-04 0.100000000000D+01
0.385134791171D-05 0.000000000000D+00 0.000000000000D+00 0.162706153598D-09 0.000000000000D+00  7 -1 1 23 -11 11 23 21 2 0.14595874D-01 0.28925272D+00 0.14545550D+06 0.14545550D+06 0.14545550D+06 0.11086078D+01  1  2 15  2  7  2        1 0.694840451475D-04 0.100000000000D+01
0.112894052970D-03 0.000000000000D+00 0.000000000000D+00 0.162706153598D-09 0.000000000000D+00  7 -1 1 23 -11 11 23 21 2 0.14595874D-01 0.30370978D+00 0.15601450D+06 0.15601450D+06 0.15601450D+06 0.11062071D+01  1  2 12  2  7  2        1 0.175452532565D-02 0.100000000000D+01
-.840718594396D-04 0.000000000000D+00 0.000000000000D+00 0.162706153598D-09 0.000000000000D+00  7 -1 1 23 -11 11 23 21 2 0.14595874D-01 0.28925272D+00 0.14545550D+06 0.14545550D+06 0.14545550D+06 0.11086078D+01  1  2  4  2  7  2        1 -.151678139988D-02 0.100000000000D+01
0.124267978448D-05 0.000000000000D+00 0.000000000000D+00 0.162706153598D-09 0.000000000000D+00  7 -1 21 23 -11 11 23 -1 2 0.14595874D-01 0.30370978D+00 0.15601450D+06 0.15601450D+06 0.15601450D+06 0.11062071D+01  1  2 12  4  7  2        1 0.102676706034D-04 0.100000000000D+01
  </mgrwgt>
  </event>
  <event>
  8     66 0.58687835E-06 0.20839968E+03 0.75467711E-02 0.95675030E-01
       -1 -1    0    0    0  501 0.00000000E+00 0.00000000E+00 0.76012139E+02 0.76012813E+02 0.32000000E+00 0.0000E+00 0.9000E+01
        1 -1    0    0  501    0 0.00000000E+00 0.00000000E+00 -.27691313E+04 0.27691313E+04 0.32000000E+00 0.0000E+00 0.9000E+01
       25  2    1    2    0    0 -.32747997E+03 0.65012525E+01 -.22119360E+04 0.22558535E+04 0.29820923E+03 0.0000E+00 0.0000E+00
       23  2    1    2    0    0 0.32747997E+03 -.65012525E+01 -.48118321E+03 0.58929068E+03 0.91874002E+02 0.0000E+00 0.0000E+00
       23  1    3    3    0    0 -.31016989E+03 -.46927971E+02 -.14444719E+04 0.14809531E+04 0.91188000E+02 0.0000E+00 0.9000E+01
      -11  1    4    4    0    0 0.73596300E+02 -.37431276E+01 -.18523455E+03 0.19935462E+03 0.51099893E-03 0.0000E+00 0.9000E+01
       11  1    4    4    0    0 0.25388367E+03 -.27581249E+01 -.29594867E+03 0.38993607E+03 0.51099893E-03 0.0000E+00 0.9000E+01
       23  1    3    3    0    0 -.17310074E+02 0.53429223E+02 -.76746404E+03 0.77490040E+03 0.91188000E+02 0.0000E+00 0.9000E+01
#aMCatNLO 1  0  0  2  1 0.14775934D+03 0.00000000D+00  -5  7  0 0.00000000D+00 0.00000000D+00 0.00000000D+00 0.00000000D+00 0.00000000D+00
  <mgrwgt>
 0.2202067873D-03    9    2    0
 0.458790343916118D+03 0.000000000000000D+00 0.000000000000000D+00 0.458790343916118D+03
 0.458790343916118D+03 0.000000000000000D+00 0.000000000000000D+00 -.458790343916118D+03
 0.352437574277497D+03 -.310169891370599D+03 -.469279707545751D+02 -.132247481891393D+03
 0.744718313993600D+02 0.735962999694842D+02 -.374312763935799D+01 0.107530134498143D+02
 0.340459746115118D+03 0.253883665076144D+03 -.275812486746473D+01 0.226822212491393D+03
 0.150211536040261D+03 -.173100736750282D+02 0.534292232613978D+02 -.105327744049815D+03
 0.000000000000000D+00 0.000000000000000D+00 -.000000000000000D+00 -.000000000000000D+00
 0.520709679970194D+03 0.000000000000000D+00 0.000000000000000D+00 0.520709679970194D+03
 0.562153161349279D+03 0.000000000000000D+00 0.000000000000000D+00 -.562153161349279D+03
 0.402824705451384D+03 -.368185108189823D+03 -.300469901758734D+02 -.132247481891393D+03
 0.638834380420879D+02 0.629685866966738D+02 -.650728245017087D+00 0.107530134498143D+02
 0.305466446101752D+03 0.204267062875212D+03 0.116790684079653D+02 0.226822212491393D+03
 0.157226906531332D+03 -.409258537597398D+02 0.603008260376682D+02 -.105327744049815D+03
 0.153461345192918D+03 0.141875312377677D+03 -.412821760247430D+02 -.414434813790855D+02
0.259878389470D-04 0.000000000000D+00 0.000000000000D+00 0.125454680394D-06 0.000000000000D+00  7 -1 1 23 -11 11 23 21 0 0.11694229D-01 0.42602025D+00 0.14492137D+06 0.14492137D+06 0.14492137D+06 0.11087343D+01  1  2  2  2  7  2        1 0.134784065200D-03 0.100000000000D+01
-.138263301399D-05 0.000000000000D+00 -.998001443117D-07 0.125454680394D-06 0.000000000000D+00  7 -1 1 23 -11 11 23 21 2 0.11694229D-01 0.42602025D+00 0.14492137D+06 0.14492137D+06 0.14492137D+06 0.11087343D+01  1  2  3  2  7  2        1 -.881516147024D-05 0.100000000000D+01
0.166228913239D-05 0.000000000000D+00 0.000000000000D+00 0.125454680394D-06 0.000000000000D+00  7 -1 1 23 -11 11 23 21 2 0.11694229D-01 0.42602025D+00 0.14492137D+06 0.14492137D+06 0.14492137D+06 0.11087343D+01  1  2 15  2  7  2        1 0.105981464090D-04 0.100000000000D+01
0.121226795893D-04 0.000000000000D+00 0.000000000000D+00 0.125454680394D-06 0.000000000000D+00  7 -1 1 23 -11 11 23 21 2 0.11694229D-01 0.54546525D+00 0.20819212D+06 0.20819212D+06 0.20819212D+06 0.10964889D+01  1  2 12  2  7  2        1 0.189091985506D-04 0.100000000000D+01
-.136171045575D-04 0.000000000000D+00 0.000000000000D+00 0.125454680394D-06 0.000000000000D+00  7 -1 1 23 -11 11 23 21 2 0.11694229D-01 0.42602025D+00 0.14492137D+06 0.14492137D+06 0.14492137D+06 0.11087343D+01  1  2  4  2  7  2        1 -.868176690539D-04 0.100000000000D+01
-.302350966514D-04 0.000000000000D+00 -.985556084224D-05 0.125454680394D-06 0.000000000000D+00  7 -1 1 23 -11 11 23 21 2 0.11694229D-01 0.54113414D+00 0.14492137D+06 0.14492137D+06 0.14492137D+06 0.11087343D+01  1  2  5  2  7  2        1 -.520375173002D-04 0.100000000000D+01
0.319494557692D-04 0.000000000000D+00 0.958022303677D-05 0.125454680394D-06 0.000000000000D+00  7 -1 1 23 -11 11 23 21 2 0.11694229D-01 0.42602025D+00 0.14492137D+06 0.14492137D+06 0.14492137D+06 0.11087343D+01  1  2  6  2  7  2        1 0.203698023005D-03 0.100000000000D+01
0.406814861204D-06 0.000000000000D+00 0.000000000000D+00 0.125454680394D-06 0.000000000000D+00  7 -1 21 23 -11 11 23 -1 2 0.11694229D-01 0.54546525D+00 0.20819212D+06 0.20819212D+06 0.20819212D+06 0.10964889D+01  1  2 12  4  7  2        1 0.812304800671D-07 0.100000000000D+01
-.836727253634D-06 0.000000000000D+00 -.322797082495D-06 0.125454680394D-06 0.000000000000D+00  7 -1 21 23 -11 11 23 -1 2 0.11694229D-01 0.54113414D+00 0.14492137D+06 0.14492137D+06 0.14492137D+06 0.11087343D+01  1  2  5  4  7  2        1 -.193528528725D-06 0.100000000000D+01
  </mgrwgt>
  </event>
  <event>
  8     66 0.58687835E-06 0.14602828E+03 0.75467711E-02 0.98831860E-01
       -1 -1    0    0    0  501 0.00000000E+00 0.00000000E+00 0.14181863E+03 0.14181899E+03 0.32000000E+00 0.0000E+00 0.9000E+01
        1 -1    0    0  501    0 0.00000000E+00 0.00000000E+00 -.57134017E+03 0.57134026E+03 0.32000000E+00 0.0000E+00 0.9000E+01
       25  2    1    2    0    0 -.10375681E+03 0.11112029E+03 -.12262217E+03 0.35878742E+03 0.30096349E+03 0.0000E+00 0.0000E+00
       23  2    1    2    0    0 0.10375681E+03 -.11112029E+03 -.30689937E+03 0.35437184E+03 0.90988912E+02 0.0000E+00 0.0000E+00
       23  1    3    3    0    0 -.64229144E+02 0.17924775E+03 -.10879689E+03 0.23750190E+03 0.91188000E+02 0.0000E+00 0.9000E+01
      -11  1    4    4    0    0 0.47336406E+02 -.48085522E+02 -.50225864E+02 0.84116528E+02 0.51099893E-03 0.0000E+00 0.9000E+01
       11  1    4    4    0    0 0.56420399E+02 -.63034765E+02 -.25667351E+03 0.27025531E+03 0.51099893E-03 0.0000E+00 0.9000E+01
       23  1    3    3    0    0 -.39527662E+02 -.68127459E+02 -.13825281E+02 0.12128552E+03 0.91188000E+02 0.0000E+00 0.9000E+01
#aMCatNLO 1  0  0  2  1 0.17505500D+03 0.00000000D+00  -5  7  0 0.00000000D+00 0.00000000D+00 0.00000000D+00 0.00000000D+00 0.00000000D+00
  <mgrwgt>
 0.1077648628D-03    7    2    0
 0.284652139872284D+03 0.000000000000000D+00 0.000000000000000D+00 0.284652139872284D+03
 0.284652139872284D+03 0.000000000000000D+00 0.000000000000000D+00 -.284652139872284D+03
 0.215431487720976D+03 -.642291435304779D+02 0.179247745621764D+03 0.428991534710156D+02
 0.674777806559898D+02 0.473364064912249D+02 -.480855219677727D+02 0.545966887500278D+00
 0.144893120033829D+03 0.564203992319699D+02 -.630347649623307D+02 -.117632364550690D+03
 0.141501891333773D+03 -.395276621927169D+02 -.681274586916610D+02 0.741872441921744D+02
 0.000000000000000D+00 -.000000000000000D+00 0.000000000000000D+00 -.000000000000000D+00
 0.330798852226567D+03 0.000000000000000D+00 0.000000000000000D+00 0.330798852226567D+03
 0.530002850247017D+03 0.000000000000000D+00 0.000000000000000D+00 -.530002850247017D+03
 0.169510274203507D+03 -.618721545968352D+02 0.121449499107916D+03 0.428991534710156D+02
 0.859623249461164D+02 0.482759164811856D+02 -.711242512663652D+02 0.545966887500278D+00
 0.171661545301535D+03 0.583586556564178D+02 -.110564823770944D+03 -.117632364550690D+03
 0.168476144273287D+03 -.376296743102240D+02 -.114670049514555D+03 0.741872441921744D+02
 0.265191413749138D+03 -.713274323054430D+01 0.174909625443948D+03 -.199203998020450D+03
0.185253029856D-05 0.000000000000D+00 0.000000000000D+00 0.177072342095D-06 0.000000000000D+00  7 -1 1 23 -11 11 23 21 0 0.21818285D-01 0.87898523D-01 0.58487671D+05 0.58487671D+05 0.58487671D+05 0.11413536D+01  1  2  2  2  7  2        1 0.137387093283D-03 0.100000000000D+01
-.995943968628D-07 0.000000000000D+00 -.711420412890D-08 0.177072342095D-06 0.000000000000D+00  7 -1 1 23 -11 11 23 21 2 0.21818285D-01 0.87898523D-01 0.58487671D+05 0.58487671D+05 0.58487671D+05 0.11413536D+01  1  2  3  2  7  2        1 -.962179127606D-05 0.100000000000D+01
0.119017683362D-06 0.000000000000D+00 0.000000000000D+00 0.177072342095D-06 0.000000000000D+00  7 -1 1 23 -11 11 23 21 2 0.21818285D-01 0.87898523D-01 0.58487671D+05 0.58487671D+05 0.58487671D+05 0.11413536D+01  1  2 15  2  7  2        1 0.114982704203D-04 0.100000000000D+01
0.250514077848D-06 0.000000000000D+00 0.000000000000D+00 0.177072342095D-06 0.000000000000D+00  7 -1 1 23 -11 11 23 21 2 0.21818285D-01 0.16540320D+00 0.12295255D+06 0.12295255D+06 0.12295255D+06 0.11144316D+01  1  2 12  2  7  2        1 0.845497777150D-05 0.100000000000D+01
-.122360776234D-05 0.000000000000D+00 -.574539828895D-06 0.177072342095D-06 0.000000000000D+00  7 -1 1 23 -11 11 23 21 2 0.21818285D-01 0.17787172D+00 0.58487671D+05 0.58487671D+05 0.58487671D+05 0.11413536D+01  1  2  5  2  7  2        1 -.385090944482D-04 0.100000000000D+01
0.172307074434D-07 0.000000000000D+00 0.000000000000D+00 0.177072342095D-06 0.000000000000D+00  7 -1 21 23 -11 11 23 -1 2 0.21818285D-01 0.16540320D+00 0.12295255D+06 0.12295255D+06 0.12295255D+06 0.11144316D+01  1  2 12  4  7  2        1 0.729838143838D-06 0.100000000000D+01
-.585038048821D-07 0.000000000000D+00 -.438021884545D-07 0.177072342095D-06 0.000000000000D+00  7 -1 21 23 -11 11 23 -1 2 0.21818285D-01 0.17787172D+00 0.58487671D+05 0.58487671D+05 0.58487671D+05 0.11413536D+01  1  2  5  4  7  2        1 -.217443106336D-05 0.100000000000D+01
  </mgrwgt>
  </event>
  <event>
  8     66 0.58687835E-06 0.44772505E+03 0.75467711E-02 0.93300235E-01
       -1 -1    0    0    0  501 0.00000000E+00 0.00000000E+00 0.63052191E+03 0.63052199E+03 0.32000000E+00 0.0000E+00 0.9000E+01
        1 -1    0    0  501    0 0.00000000E+00 0.00000000E+00 -.38786724E+03 0.38786737E+03 0.32000000E+00 0.0000E+00 0.9000E+01
       25  2    1    2    0    0 0.13358380E+03 -.39370456E+03 -.25693264E+02 0.51422854E+03 0.30153430E+03 0.0000E+00 0.0000E+00
       23  2    1    2    0    0 -.13358380E+03 0.39370456E+03 0.26834793E+03 0.50416082E+03 0.96538131E+02 0.0000E+00 0.0000E+00
       23  1    3    3    0    0 0.45614281E+01 -.87209893E+02 -.10051461E+03 0.16138404E+03 0.91188000E+02 0.0000E+00 0.9000E+01
      -11  1    4    4    0    0 -.14189063E+03 0.31811021E+03 0.19854367E+03 0.40093222E+03 0.51099893E-03 0.0000E+00 0.9000E+01
       11  1    4    4    0    0 0.83068295E+01 0.75594346E+02 0.69804268E+02 0.10322860E+03 0.51099893E-03 0.0000E+00 0.9000E+01
       23  1    3    3    0    0 0.12902237E+03 -.30649466E+03 0.74821345E+02 0.35284449E+03 0.91188000E+02 0.0000E+00 0.9000E+01
#aMCatNLO 1  0  0  2  1 0.21139068D+03 0.00000000D+00  -5  7  0 0.00000000D+00 0.00000000D+00 0.00000000D+00 0.00000000D+00 0.00000000D+00
  <mgrwgt>
 0.1686125349D-03    4    2    0
 0.494528967040121D+03 0.000000000000000D+00 0.000000000000000D+00 0.494528967040121D+03
 0.494528967040121D+03 0.000000000000000D+00 0.000000000000000D+00 -.494528967040121D+03
 0.190830209846540D+03 0.456142811691587D+01 -.872098934480574D+02 -.143089292067531D+03
 0.364111691187709D+03 -.141890631266694D+03 0.318110209367912D+03 0.106067276359000D+03
 0.891642197939066D+02 0.830682947415674D+01 0.755943464320931D+02 0.465483561798702D+02
 0.344951813252085D+03 0.129022373675621D+03 -.306494662351947D+03 -.952634047133975D+01
 0.000000000000000D+00 0.000000000000000D+00 -.000000000000000D+00 0.000000000000000D+00
 0.661683780420767D+03 0.000000000000000D+00 0.000000000000000D+00 0.661683780420767D+03
 0.577316649571427D+03 0.000000000000000D+00 0.000000000000000D+00 -.577316649571427D+03
 0.176482383071014D+03 0.360005267409642D+01 -.484073786398407D+02 -.143089292067531D+03
 0.441054934516985D+03 -.143998011836420D+03 0.403167162272330D+03 0.106067276359000D+03
 0.107285797261809D+03 0.779265646244837D+01 0.963471189829374D+02 0.465483561798702D+02
 0.286572760830379D+03 0.127369470320913D+03 -.239781072591937D+03 -.952634047133975D+01
 0.227604554312007D+03 0.523583237896220D+01 -.211325830023490D+03 0.843671308493403D+02
0.276697544089D-04 0.000000000000D+00 0.000000000000D+00 0.967565048179D-08 0.000000000000D+00  7 -1 1 23 -11 11 23 21 0 0.97003387D-01 0.59671899D-01 0.20045772D+06 0.20045772D+06 0.20045772D+06 0.10977491D+01  1  2  2  2  7  2        1 0.229062397997D-03 0.100000000000D+01
-.151873216117D-05 0.000000000000D+00 -.106259142544D-06 0.967565048179D-08 0.000000000000D+00  7 -1 1 23 -11 11 23 21 2 0.97003387D-01 0.59671899D-01 0.20045772D+06 0.20045772D+06 0.20045772D+06 0.10977491D+01  1  2  3  2  7  2        1 -.151508117037D-04 0.100000000000D+01
0.177170926812D-05 0.000000000000D+00 0.000000000000D+00 0.967565048179D-08 0.000000000000D+00  7 -1 1 23 -11 11 23 21 2 0.97003387D-01 0.59671899D-01 0.20045772D+06 0.20045772D+06 0.20045772D+06 0.10977491D+01  1  2 15  2  7  2        1 0.176745012723D-04 0.100000000000D+01
-.631253042146D-05 0.000000000000D+00 0.000000000000D+00 0.967565048179D-08 0.000000000000D+00  7 -1 1 23 -11 11 23 21 2 0.97003387D-01 0.59671899D-01 0.20045772D+06 0.20045772D+06 0.20045772D+06 0.10977491D+01  1  2  4  2  7  2        1 -.629735527003D-04 0.100000000000D+01
  </mgrwgt>
  </event>
  <event>
  8     66 -.58687835E-06 0.16804704E+03 0.75467711E-02 0.10771009E+00
       -1 -1    0    0    0  501 0.00000000E+00 0.00000000E+00 0.22957108E+02 0.22959339E+02 0.32000000E+00 0.0000E+00 0.9000E+01
        1 -1    0    0  501    0 0.00000000E+00 0.00000000E+00 -.25132597E+04 0.25132597E+04 0.32000000E+00 0.0000E+00 0.9000E+01
       25  2    1    2    0    0 -.10177898E+02 -.51406161E+02 -.22757180E+04 0.22960374E+04 0.30024910E+03 0.0000E+00 0.0000E+00
       23  2    1    2    0    0 0.10177898E+02 0.51406161E+02 -.21458461E+03 0.24018160E+03 0.94310449E+02 0.0000E+00 0.0000E+00
       23  1    3    3    0    0 -.13100092E+02 0.65100265E+02 -.43525731E+03 0.44963745E+03 0.91188000E+02 0.0000E+00 0.9000E+01
      -13  1    4    4    0    0 0.19814892E+02 -.30152313E+01 -.15596390E+01 0.20103861E+02 0.10565837E+00 0.0000E+00 0.9000E+01
       13  1    4    4    0    0 -.96369945E+01 0.54421392E+02 -.21302497E+03 0.22007774E+03 0.10565837E+00 0.0000E+00 0.9000E+01
       23  1    3    3    0    0 0.29221943E+01 -.11650643E+03 -.18404606E+04 0.18464000E+04 0.91188000E+02 0.0000E+00 0.9000E+01
#aMCatNLO 1  0  0  2  2 0.22823723D+02 0.00000000D+00  -5  7  0 0.00000000D+00 0.00000000D+00 0.00000000D+00 0.00000000D+00 0.00000000D+00
  <mgrwgt>
 -.2305354807D-04    4    2    0
 0.240208303370287D+03 0.000000000000000D+00 0.000000000000000D+00 0.240208303370287D+03
 0.240208303370287D+03 0.000000000000000D+00 0.000000000000000D+00 -.240208303370287D+03
 0.117516032306550D+03 -.131000926454859D+02 0.651002584158985D+02 0.329410144339395D+02
 0.980479159377053D+02 0.198149256713090D+02 -.301528425739787D+01 0.959774483991677D+02
 0.575930949713112D+02 -.963702584807381D+01 0.544214549411182D+02 0.161986901714266D+02
 0.207259563525007D+03 0.292219282225067D+01 -.116506429099619D+03 -.145117153004534D+03
 0.000000000000000D+00 -.000000000000000D+00 0.000000000000000D+00 0.000000000000000D+00
 0.255670878839132D+03 0.000000000000000D+00 0.000000000000000D+00 0.255670878839132D+03
 0.249051739860186D+03 0.000000000000000D+00 0.000000000000000D+00 -.249051739860186D+03
 0.116006134653414D+03 -.789032380959165D+01 0.632044641735756D+02 0.329410144339395D+02
 0.990921091554229D+02 0.242130261703236D+02 -.461571872307759D+01 0.959774483991677D+02
 0.563437018922408D+02 -.709514992559187D+01 0.534964861199799D+02 0.161986901714266D+02
 0.209516512341826D+03 0.122202694882212D+02 -.119889926671829D+03 -.145117153004534D+03
 0.237641606564141D+02 -.214478219233612D+02 0.780469510135099D+01 0.661913897894538D+01
0.291810344144D-05 0.000000000000D+00 0.000000000000D+00 0.462990222224D-07 0.000000000000D+00  7 -1 1 23 -13 13 23 21 0 0.35320360D-02 0.38665551D+00 0.28239806D+05 0.28239806D+05 0.28239806D+05 0.11697802D+01  1  2  2  2  7  2        1 0.144202763823D-03 0.100000000000D+01
-.136958360939D-06 0.000000000000D+00 -.112062855694D-07 0.462990222224D-07 0.000000000000D+00  7 -1 1 23 -13 13 23 21 2 0.35320360D-02 0.38665551D+00 0.28239806D+05 0.28239806D+05 0.28239806D+05 0.11697802D+01  1  2  3  2  7  2        1 -.926125779098D-05 0.100000000000D+01
0.183773281352D-06 0.000000000000D+00 0.000000000000D+00 0.462990222224D-07 0.000000000000D+00  7 -1 1 23 -13 13 23 21 2 0.35320360D-02 0.38665551D+00 0.28239806D+05 0.28239806D+05 0.28239806D+05 0.11697802D+01  1  2 15  2  7  2        1 0.124269283162D-04 0.100000000000D+01
-.252025328604D-05 0.000000000000D+00 0.000000000000D+00 0.462990222224D-07 0.000000000000D+00  7 -1 1 23 -13 13 23 21 2 0.35320360D-02 0.38665551D+00 0.28239806D+05 0.28239806D+05 0.28239806D+05 0.11697802D+01  1  2  4  2  7  2        1 -.170421982423D-03 0.100000000000D+01
  </mgrwgt>
  </event>
  <event>
  8     66 0.58687835E-06 0.50023734E+03 0.75467711E-02 0.93436522E-01
       -1 -1    0    0    0  501 0.00000000E+00 0.00000000E+00 0.48949579E+03 0.48949589E+03 0.32000000E+00 0.0000E+00 0.9000E+01
        1 -1    0    0  501    0 0.00000000E+00 0.00000000E+00 -.26141521E+04 0.26141521E+04 0.32000000E+00 0.0000E+00 0.9000E+01
       25  2    1    2    0    0 -.57413106E+02 0.46876501E+03 -.24562722E+04 0.25191962E+04 0.30006564E+03 0.0000E+00 0.0000E+00
       23  2    1    2    0    0 0.57413106E+02 -.46876501E+03 0.33161586E+03 0.58445185E+03 0.92617383E+02 0.0000E+00 0.0000E+00
       23  1    3    3    0    0 -.92780341E+02 0.30724210E+03 -.19603664E+04 0.19885567E+04 0.91188000E+02 0.0000E+00 0.9000E+01
      -11  1    4    4    0    0 0.24580213E+02 -.40958134E+03 0.30691638E+03 0.51240485E+03 0.51099893E-03 0.0000E+00 0.9000E+01
       11  1    4    4    0    0 0.32832893E+02 -.59183673E+02 0.24699480E+02 0.72047001E+02 0.51099893E-03 0.0000E+00 0.9000E+01
       23  1    3    3    0    0 0.35367235E+02 0.16152291E+03 -.49590575E+03 0.53063948E+03 0.91188000E+02 0.0000E+00 0.9000E+01
#aMCatNLO 1  0  0  1  1 0.11120280D+03 0.00000000D+00  -5  7  0 0.00000000D+00 0.00000000D+00 0.00000000D+00 0.00000000D+00 0.00000000D+00
  <mgrwgt>
 0.2773025144D-03    4    2    0
 0.113120140798075D+04 0.000000000000000D+00 0.000000000000000D+00 0.113120140798075D+04
 0.113120140798075D+04 0.000000000000000D+00 0.000000000000000D+00 -.113120140798075D+04
 0.886966311495726D+03 -.927803408655664D+02 0.307242104533092D+03 -.821819982681900D+03
 0.991165717384162D+03 0.245802127070267D+02 -.409581338176191D+03 0.902246318850201D+03
 0.122032396317332D+03 0.328328931072721D+02 -.591836730897947D+02 0.101544077723702D+03
 0.262238390764285D+03 0.353672350512675D+02 0.161522906732894D+03 -.181970413892003D+03
 0.000000000000000D+00 -.000000000000000D+00 -.000000000000000D+00 -.000000000000000D+00
 0.114175158326249D+04 0.000000000000000D+00 0.000000000000000D+00 0.114175158326249D+04
 0.146916756376471D+04 0.000000000000000D+00 0.000000000000000D+00 -.146916756376471D+04
 0.894410921181205D+03 -.595767256402916D+02 0.335735274302409D+03 -.821819982681900D+03
 0.980168742454538D+03 0.613244966712083D+02 -.378049798193567D+03 0.902246318850201D+03
 0.121509992208647D+03 0.373723514608008D+02 -.552882069891823D+02 0.101544077723702D+03
 0.269044460461573D+03 0.452699726883604D+02 0.170020788146118D+03 -.181970413892003D+03
 0.345785030721232D+03 -.843900951800779D+02 -.724180572657776D+02 -.327415980502222D+03
0.101863670594D-02 0.000000000000D+00 0.000000000000D+00 0.106831813512D-04 0.000000000000D+00  7 -1 1 23 -11 11 23 21 0 0.75307054D-01 0.40217725D+00 0.25023740D+06 0.25023740D+06 0.25023740D+06 0.10904281D+01  1  2  2  1  7  1       -1 0.272191405378D-03 0.100000000000D+01
-.107811207733D-04 0.000000000000D+00 -.391183316401D-05 0.106831813512D-04 0.000000000000D+00  7 -1 1 23 -11 11 23 21 2 0.75307054D-01 0.40217725D+00 0.25023740D+06 0.25023740D+06 0.25023740D+06 0.10904281D+01  1  2  3  1  7  1       -1 -.342541397762D-05 0.100000000000D+01
0.619065806795D-04 0.000000000000D+00 0.000000000000D+00 0.106831813512D-04 0.000000000000D+00  7 -1 1 23 -11 11 23 21 2 0.75307054D-01 0.40217725D+00 0.25023740D+06 0.25023740D+06 0.25023740D+06 0.10904281D+01  1  2 15  1  7  1       -1 0.196691671696D-04 0.100000000000D+01
-.350387959364D-04 0.000000000000D+00 0.000000000000D+00 0.106831813512D-04 0.000000000000D+00  7 -1 1 23 -11 11 23 21 2 0.75307054D-01 0.40217725D+00 0.25023740D+06 0.25023740D+06 0.25023740D+06 0.10904281D+01  1  2  4  1  7  1       -1 -.111326441734D-04 0.100000000000D+01
  </mgrwgt>
  </event>
  <event>
  8     66 0.58687835E-06 0.21861884E+03 0.75467711E-02 0.89611173E-01
       -1 -1    0    0    0  501 0.00000000E+00 0.00000000E+00 0.59521148E+03 0.59521157E+03 0.32000000E+00 0.0000E+00 0.9000E+01
        1 -1    0    0  501    0 0.00000000E+00 0.00000000E+00 -.25194805E+03 0.25194825E+03 0.32000000E+00 0.0000E+00 0.9000E+01
       25  2    1    2    0    0 -.51966129E+02 0.92145760E+02 -.13723618E+03 0.34689427E+03 0.30051713E+03 0.0000E+00 0.0000E+00
       23  2    1    2    0    0 0.51966129E+02 -.92145760E+02 0.48049961E+03 0.50026555E+03 0.90523026E+02 0.0000E+00 0.0000E+00
       23  1    3    3    0    0 0.11472852E+02 -.64301881E+02 -.10240827E+03 0.15188503E+03 0.91188000E+02 0.0000E+00 0.9000E+01
      -11  1    4    4    0    0 -.73475361E+01 -.69215208E+02 0.17738770E+03 0.19055478E+03 0.51099893E-03 0.0000E+00 0.9000E+01
       11  1    4    4    0    0 0.59313665E+02 -.22930553E+02 0.30311192E+03 0.30971076E+03 0.51099893E-03 0.0000E+00 0.9000E+01
       23  1    3    3    0    0 -.63438981E+02 0.15644764E+03 -.34827909E+02 0.19500924E+03 0.91188000E+02 0.0000E+00 0.9000E+01
#aMCatNLO 1  0  0  1  1 0.72571345D+03 0.00000000D+00  -5  7  0 0.00000000D+00 0.00000000D+00 0.00000000D+00 0.00000000D+00 0.00000000D+00
  <mgrwgt>
 0.2094743391D-03    3    2    0
 0.387249909953975D+03 0.000000000000000D+00 0.000000000000000D+00 0.387249909953975D+03
 0.387249909953975D+03 0.000000000000000D+00 0.000000000000000D+00 -.387249909953975D+03
 0.211522206515014D+03 0.114728523805183D+02 -.643018812821716D+02 -.179332189600218D+03
 0.129812356277108D+03 -.734753613719439D+01 -.692152078407538D+02 0.109574251348064D+03
 0.204425191634263D+03 0.593136651927017D+02 -.229305525011497D+02 0.194282623664869D+03
 0.228740065481566D+03 -.634389814360256D+02 0.156447641624075D+03 -.124524685412715D+03
 0.000000000000000D+00 -.000000000000000D+00 0.000000000000000D+00 -.000000000000000D+00
 0.754234819045705D+03 0.000000000000000D+00 0.000000000000000D+00 0.754234819045705D+03
 0.111966205788622D+04 0.000000000000000D+00 0.000000000000000D+00 -.111966205788622D+04
 0.318691641375303D+03 0.210830760351783D+03 -.128994058782431D+03 -.179332189600218D+03
 0.191363949749834D+03 0.113413241262787D+03 -.108402405008548D+03 0.109574251348064D+03
 0.339639185993128D+03 0.263879307069189D+03 -.893126536648299D+02 0.194282623664869D+03
 0.211676971373788D+03 0.102155748787901D+03 0.102711706141155D+03 -.124524685412715D+03
 0.812525128439873D+03 -.690279057471660D+03 0.223997411314653D+03 -.365427238840516D+03
0.117098964535D-04 0.000000000000D+00 0.000000000000D+00 0.447857141896D-06 0.000000000000D+00  7 -1 1 23 -11 11 23 21 0 0.91571019D-01 0.38761260D-01 0.47794197D+05 0.47794197D+05 0.47794197D+05 0.11490229D+01  1  2  2  1  7  1       -1 0.201476460575D-03 0.100000000000D+01
-.391990631016D-06 0.000000000000D+00 -.449690856680D-07 0.447857141896D-06 0.000000000000D+00  7 -1 1 23 -11 11 23 21 2 0.91571019D-01 0.38761260D-01 0.47794197D+05 0.47794197D+05 0.47794197D+05 0.11490229D+01  1  2  3  1  7  1       -1 -.890439346622D-05 0.100000000000D+01
0.744074515772D-06 0.000000000000D+00 0.000000000000D+00 0.447857141896D-06 0.000000000000D+00  7 -1 1 23 -11 11 23 21 2 0.91571019D-01 0.38761260D-01 0.47794197D+05 0.47794197D+05 0.47794197D+05 0.11490229D+01  1  2 15  1  7  1       -1 0.169022719738D-04 0.100000000000D+01
  </mgrwgt>
  </event>
  <event>
  8     66 0.58687835E-06 0.20844854E+03 0.75467711E-02 0.85734227E-01
       -1 -1    0    0    0  501 0.00000000E+00 0.00000000E+00 0.70855610E+02 0.70856332E+02 0.32000000E+00 0.0000E+00 0.9000E+01
        1 -1    0    0  501    0 0.00000000E+00 0.00000000E+00 -.10089870E+04 0.10089870E+04 0.32000000E+00 0.0000E+00 0.9000E+01
       25  2    1    2    0    0 0.99275588E+01 -.95459688E+02 -.88262839E+03 0.93642939E+03 0.29775162E+03 0.0000E+00 0.0000E+00
       23  2    1    2    0    0 -.99275588E+01 0.95459688E+02 -.55502958E+02 0.14341395E+03 0.90971826E+02 0.0000E+00 0.0000E+00
       23  1    3    3    0    0 0.11184397E+03 -.43555816E+02 -.30026704E+03 0.33597876E+03 0.91188000E+02 0.0000E+00 0.9000E+01
      -11  1    4    4    0    0 0.10124421E+02 0.99006707E+02 -.67052258E+02 0.12000349E+03 0.51099893E-03 0.0000E+00 0.9000E+01
       11  1    4    4    0    0 -.20051979E+02 -.35470191E+01 0.11549299E+02 0.23410458E+02 0.51099893E-03 0.0000E+00 0.9000E+01
       23  1    3    3    0    0 -.10191641E+03 -.51903873E+02 -.58236135E+03 0.60045063E+03 0.91188000E+02 0.0000E+00 0.9000E+01
#aMCatNLO 1  0  0  1  1 0.11685180D+04 0.00000000D+00  -5  7  0 0.00000000D+00 0.00000000D+00 0.00000000D+00 0.00000000D+00 0.00000000D+00
  <mgrwgt>
 0.3270099785D-03    5    2    0
 0.267381381606666D+03 0.000000000000000D+00 0.000000000000000D+00 0.267381381606666D+03
 0.267381381606666D+03 0.000000000000000D+00 0.000000000000000D+00 -.267381381606666D+03
 0.151683161812005D+03 0.111843969722016D+03 -.435558156789409D+02 -.169218081377218D+02
 0.124692943142281D+03 0.101244206288706D+02 0.990067073429129D+02 0.751232192968901D+02
 0.675334731616554D+02 -.200519793812278D+02 -.354701912404530D+01 0.643902692610032D+02
 0.190853185097390D+03 -.101916410969659D+03 -.519038725399267D+02 -.122591680420171D+03
 0.000000000000000D+00 0.000000000000000D+00 0.000000000000000D+00 0.000000000000000D+00
 0.165701470569443D+04 0.000000000000000D+00 0.000000000000000D+00 0.165701470569443D+04
 0.979021515505306D+03 0.000000000000000D+00 0.000000000000000D+00 -.979021515505306D+03
 0.429146037915064D+03 0.663346915986844D+02 -.413720233508170D+03 -.169218081377218D+02
 0.822215099366720D+02 -.608779355962385D+01 -.328605749845160D+02 0.751232192968901D+02
 0.175326738105776D+03 -.390806248158134D+02 -.158322654990726D+03 0.643902692610032D+02
 0.598375955484434D+03 -.163754294599912D+03 -.554882279091478D+03 -.122591680420171D+03
 0.135096597975779D+04 0.142588021376665D+03 0.115978574257489D+04 0.677993190189124D+03
0.342985724288D-05 0.000000000000D+00 0.000000000000D+00 0.331075705018D-06 0.000000000000D+00  7 -1 1 23 -11 11 23 21 0 0.10900923D-01 0.15522882D+00 0.43450792D+05 0.43450792D+05 0.43450792D+05 0.11526974D+01  1  2  2  1  7  1       -1 0.313899085984D-03 0.100000000000D+01
-.176185211532D-06 0.000000000000D+00 -.131715549148D-07 0.331075705018D-06 0.000000000000D+00  7 -1 1 23 -11 11 23 21 2 0.10900923D-01 0.15522882D+00 0.43450792D+05 0.43450792D+05 0.43450792D+05 0.11526974D+01  1  2  3  1  7  1       -1 -.214246677576D-04 0.100000000000D+01
0.216384822512D-06 0.000000000000D+00 0.000000000000D+00 0.331075705018D-06 0.000000000000D+00  7 -1 1 23 -11 11 23 21 2 0.10900923D-01 0.15522882D+00 0.43450792D+05 0.43450792D+05 0.43450792D+05 0.11526974D+01  1  2 15  1  7  1       -1 0.263130650399D-04 0.100000000000D+01
0.218994678424D-04 0.000000000000D+00 -.573231388594D-05 0.331075705018D-06 0.000000000000D+00  7 -1 1 23 -11 11 23 21 2 0.26390402D+00 0.15522882D+00 0.43450792D+05 0.43450792D+05 0.43450792D+05 0.11526974D+01  1  2  5  1  7  1       -1 0.266322615238D-05 0.100000000000D+01
0.566197957707D-05 0.000000000000D+00 -.189437450692D-05 0.331075705018D-06 0.000000000000D+00  7 21 1 23 -11 11 23 1 2 0.26390402D+00 0.15522882D+00 0.43450792D+05 0.43450792D+05 0.43450792D+05 0.11526974D+01  1  2  5  3  7  1       -1 0.555926904721D-05 0.100000000000D+01
  </mgrwgt>
  </event>
  <event>
  8     66 0.58687835E-06 0.34520947E+03 0.75467711E-02 0.94092376E-01
       -1 -1    0    0    0  501 0.00000000E+00 0.00000000E+00 0.40792211E+02 0.40793466E+02 0.32000000E+00 0.0000E+00 0.9000E+01
        1 -1    0    0  501    0 0.00000000E+00 0.00000000E+00 -.29983612E+04 0.29983613E+04 0.32000000E+00 0.0000E+00 0.9000E+01
       25  2    1    2    0    0 -.20214710E+03 -.18189352E+03 -.19204128E+04 0.19625004E+04 0.29912160E+03 0.0000E+00 0.0000E+00
       23  2    1    2    0    0 0.20214710E+03 0.18189352E+03 -.10371562E+04 0.10766544E+04 0.97687346E+02 0.0000E+00 0.0000E+00
       23  1    3    3    0    0 0.34714847E+02 -.13916783E+02 -.54159039E+03 0.55048542E+03 0.91188000E+02 0.0000E+00 0.9000E+01
      -13  1    4    4    0    0 0.14538999E+03 0.17908519E+03 -.78599187E+03 0.81914162E+03 0.10565837E+00 0.0000E+00 0.9000E+01
       13  1    4    4    0    0 0.56757112E+02 0.28083327E+01 -.25116437E+03 0.25751274E+03 0.10565837E+00 0.0000E+00 0.9000E+01
       23  1    3    3    0    0 -.23686195E+03 -.16797674E+03 -.13788224E+04 0.14120150E+04 0.91188000E+02 0.0000E+00 0.9000E+01
#aMCatNLO 1  0  0  2  1 0.29853553D+03 0.00000000D+00  -5  7  0 0.00000000D+00 0.00000000D+00 0.00000000D+00 0.00000000D+00 0.00000000D+00
  <mgrwgt>
 0.2082376905D-03    3    2    0
 0.349730921549104D+03 0.000000000000000D+00 0.000000000000000D+00 0.349730921549104D+03
 0.349730921549104D+03 0.000000000000000D+00 0.000000000000000D+00 -.349730921549104D+03
 0.101820285717088D+03 0.347148450534196D+02 -.139167851292768D+02 -.255601616601301D+02
 0.235714132466305D+03 0.145390108292626D+03 0.179085384015121D+03 0.484901421647521D+02
 0.568793422949771D+02 0.567569998200070D+02 0.280814627062287D+01 -.245293005682527D+01
 0.305048082619838D+03 -.236861953166053D+03 -.167976745156467D+03 -.204770504477967D+02
 0.000000000000000D+00 0.000000000000000D+00 0.000000000000000D+00 0.000000000000000D+00
 0.821728256764722D+03 0.000000000000000D+00 0.000000000000000D+00 0.821728256764722D+03
 0.430722468014952D+03 0.000000000000000D+00 0.000000000000000D+00 -.430722468014952D+03
 0.973690074640476D+02 -.520030104875494D+01 -.220251509743770D+02 -.255601616601301D+02
 0.180258061039526D+03 0.620342681615578D+02 0.162152472248287D+03 0.484901421647521D+02
 0.378653806420685D+02 0.377712933191901D+02 -.104861160625571D+01 -.245293005682527D+01
 0.445014181345055D+03 -.387165437724639D+03 -.198509406554592D+03 -.204770504477967D+02
 0.491944094288977D+03 0.292560177292646D+03 0.594306968869373D+02 0.391005788749770D+03
0.222371442315D-04 0.000000000000D+00 0.000000000000D+00 0.607850433141D-08 0.000000000000D+00  7 -1 1 23 -13 13 23 21 0 0.62758226D-02 0.46128644D+00 0.11916958D+06 0.11916958D+06 0.11916958D+06 0.11155249D+01  1  2  2  2  7  2        1 0.205643727670D-03 0.100000000000D+01
-.123514255831D-05 0.000000000000D+00 -.853964890235D-07 0.607850433141D-08 0.000000000000D+00  7 -1 1 23 -13 13 23 21 2 0.62758226D-02 0.46128644D+00 0.11916958D+06 0.11916958D+06 0.11916958D+06 0.11155249D+01  1  2  3  2  7  2        1 -.142138606435D-04 0.100000000000D+01
0.146055027486D-05 0.000000000000D+00 0.000000000000D+00 0.607850433141D-08 0.000000000000D+00  7 -1 1 23 -13 13 23 21 2 0.62758226D-02 0.46128644D+00 0.11916958D+06 0.11916958D+06 0.11916958D+06 0.11155249D+01  1  2 15  2  7  2        1 0.168078234615D-04 0.100000000000D+01
  </mgrwgt>
  </event>
  <event>
  8     66 0.58687835E-06 0.19046184E+03 0.75467711E-02 0.97417824E-01
       -1 -1    0    0    0  501 0.00000000E+00 0.00000000E+00 0.13063034E+03 0.13063073E+03 0.32000000E+00 0.0000E+00 0.9000E+01
        1 -1    0    0  501    0 0.00000000E+00 0.00000000E+00 -.15705215E+04 0.15705215E+04 0.32000000E+00 0.0000E+00 0.9000E+01
       25  2    1    2    0    0 0.23383801E+03 -.22266170E+03 -.35566848E+03 0.56633389E+03 0.29995927E+03 0.0000E+00 0.0000E+00
       23  2    1    2    0    0 -.23383801E+03 0.22266170E+03 -.10842227E+04 0.11348184E+04 0.89529101E+02 0.0000E+00 0.0000E+00
       23  1    3    3    0    0 0.15373340E+03 -.25610975E+03 -.22531546E+03 0.38510839E+03 0.91188000E+02 0.0000E+00 0.9000E+01
      -13  1    4    4    0    0 -.21753619E+02 0.45512941E+02 -.93030393E+02 0.10582681E+03 0.10565837E+00 0.0000E+00 0.9000E+01
       13  1    4    4    0    0 -.21208439E+03 0.17714875E+03 -.99119230E+03 0.10289916E+04 0.10565837E+00 0.0000E+00 0.9000E+01
       23  1    3    3    0    0 0.80104609E+02 0.33448057E+02 -.13035302E+03 0.18122550E+03 0.91188000E+02 0.0000E+00 0.9000E+01
#aMCatNLO 1  0  0  2  1 0.22382128D+02 0.00000000D+00  -5  7  0 0.00000000D+00 0.00000000D+00 0.00000000D+00 0.00000000D+00 0.00000000D+00
  <mgrwgt>
 0.2845894668D-03    9    2    0
 0.452943830481621D+03 0.000000000000000D+00 0.000000000000000D+00 0.452943830481621D+03
 0.452943830481621D+03 0.000000000000000D+00 0.000000000000000D+00 -.452943830481621D+03
 0.365054393271493D+03 0.153733402874021D+03 -.256109752284387D+03 0.189006069554452D+03
 0.508600415223522D+02 -.217533540895940D+02 0.455127577995847D+02 -.649032256397656D+01
 0.356846335232974D+03 -.212084657448296D+03 0.177148937548232D+03 -.225782326522196D+03
 0.133126890936423D+03 0.801046086638691D+02 0.334480569365701D+02 0.432665795317206D+02
 0.000000000000000D+00 -.000000000000000D+00 0.000000000000000D+00 -.000000000000000D+00
 0.457832909424654D+03 0.000000000000000D+00 0.000000000000000D+00 0.457832909424654D+03
 0.479443645600716D+03 0.000000000000000D+00 0.000000000000000D+00 -.479443645600716D+03
 0.371513299369561D+03 0.153780776671192D+03 -.265207576555497D+03 0.189006069554452D+03
 0.497482777911767D+02 -.217468832680246D+02 0.442700793350377D+02 -.649032256397656D+01
 0.352551122469848D+03 -.212039031158126D+03 0.168386710433151D+03 -.225782326522196D+03
 0.132351421225735D+03 0.801216834226987D+02 0.301689624881266D+02 0.432665795317206D+02
 0.311124341690498D+02 -.116545667740081D+00 0.223818242991814D+02 -.216107361760622D+02
0.820424195033D-05 0.000000000000D+00 0.000000000000D+00 0.917159521073D-06 0.000000000000D+00  7 -1 1 23 -13 13 23 21 0 0.20097007D-01 0.24161873D+00 0.14630487D+06 0.14630487D+06 0.14630487D+06 0.11084077D+01  1  2  2  2  7  2        1 0.115708863806D-03 0.100000000000D+01
-.439955131716D-06 0.000000000000D+00 -.315064493158D-07 0.917159521073D-06 0.000000000000D+00  7 -1 1 23 -13 13 23 21 2 0.20097007D-01 0.24161873D+00 0.14630487D+06 0.14630487D+06 0.14630487D+06 0.11084077D+01  1  2  3  2  7  2        1 -.762317102503D-05 0.100000000000D+01
0.529685977240D-06 0.000000000000D+00 0.000000000000D+00 0.917159521073D-06 0.000000000000D+00  7 -1 1 23 -13 13 23 21 2 0.20097007D-01 0.24161873D+00 0.14630487D+06 0.14630487D+06 0.14630487D+06 0.11084077D+01  1  2 15  2  7  2        1 0.917795134768D-05 0.100000000000D+01
0.379373813656D-04 0.000000000000D+00 0.000000000000D+00 0.917159521073D-06 0.000000000000D+00  7 -1 1 23 -13 13 23 21 2 0.20097007D-01 0.25701110D+00 0.15499711D+06 0.15499711D+06 0.15499711D+06 0.11064305D+01  1  2 12  2  7  2        1 0.561442217332D-03 0.100000000000D+01
-.385165053882D-04 0.000000000000D+00 0.000000000000D+00 0.917159521073D-06 0.000000000000D+00  7 -1 1 23 -13 13 23 21 2 0.20097007D-01 0.24161873D+00 0.14630487D+06 0.14630487D+06 0.14630487D+06 0.11084077D+01  1  2  4  2  7  2        1 -.667381482096D-03 0.100000000000D+01
-.109916499599D-03 0.000000000000D+00 -.142854070512D-04 0.917159521073D-06 0.000000000000D+00  7 -1 1 23 -13 13 23 21 2 0.20097007D-01 0.25693707D+00 0.14630487D+06 0.14630487D+06 0.14630487D+06 0.11084077D+01  1  2  5  2  7  2        1 -.163689583945D-02 0.100000000000D+01
0.110612528268D-03 0.000000000000D+00 0.142584601403D-04 0.917159521073D-06 0.000000000000D+00  7 -1 1 23 -13 13 23 21 2 0.20097007D-01 0.24161873D+00 0.14630487D+06 0.14630487D+06 0.14630487D+06 0.11084077D+01  1  2  6  2  7  2        1 0.191660048880D-02 0.100000000000D+01
0.514089614821D-06 0.000000000000D+00 0.000000000000D+00 0.917159521073D-06 0.000000000000D+00  7 -1 21 23 -13 13 23 -1 2 0.20097007D-01 0.25701110D+00 0.15499711D+06 0.15499711D+06 0.15499711D+06 0.11064305D+01  1  2 12  4  7  2        1 0.520692106277D-05 0.100000000000D+01
-.113918961806D-05 0.000000000000D+00 -.150489055628D-06 0.917159521073D-06 0.000000000000D+00  7 -1 21 23 -13 13 23 -1 2 0.20097007D-01 0.25693707D+00 0.14630487D+06 0.14630487D+06 0.14630487D+06 0.11084077D+01  1  2  5  4  7  2        1 -.116464829684D-04 0.100000000000D+01
  </mgrwgt>
  </event>
  <event>
  8     66 0.58687835E-06 0.23108128E+03 0.75467711E-02 0.10143682E+00
       -1 -1    0    0    0  501 0.00000000E+00 0.00000000E+00 0.62602577E+02 0.62603395E+02 0.32000000E+00 0.0000E+00 0.9000E+01
        1 -1    0    0  501    0 0.00000000E+00 0.00000000E+00 -.10190251E+04 0.10190251E+04 0.32000000E+00 0.0000E+00 0.9000E+01
       25  2    1    2    0    0 0.93032624E+02 0.11185324E+03 -.67280922E+03 0.75095601E+03 0.30016072E+03 0.0000E+00 0.0000E+00
       23  2    1    2    0    0 -.93032624E+02 -.11185324E+03 -.28361329E+03 0.33067253E+03 0.87986410E+02 0.0000E+00 0.0000E+00
       23  1    3    3    0    0 0.10096438E+03 0.16256359E+03 -.32731453E+03 0.38996253E+03 0.91188000E+02 0.0000E+00 0.9000E+01
      -13  1    4    4    0    0 -.36034404E+01 -.32194241E+01 -.96176883E+02 0.96298253E+02 0.10565837E+00 0.0000E+00 0.9000E+01
       13  1    4    4    0    0 -.89429183E+02 -.10863381E+03 -.18743641E+03 0.23437428E+03 0.10565837E+00 0.0000E+00 0.9000E+01
       23  1    3    3    0    0 -.79317517E+01 -.50710349E+02 -.34549470E+03 0.36099348E+03 0.91188000E+02 0.0000E+00 0.9000E+01
#aMCatNLO 1  0  0  2  1 0.98275822D+02 0.00000000D+00  -5  7  0 0.00000000D+00 0.00000000D+00 0.00000000D+00 0.00000000D+00 0.00000000D+00
  <mgrwgt>
 0.2719772020D-03    3    2    0
 0.252574873296658D+03 0.000000000000000D+00 0.000000000000000D+00 0.252574873296658D+03
 0.252574873296658D+03 0.000000000000000D+00 0.000000000000000D+00 -.252574873296658D+03
 0.215270069800370D+03 0.100964378182209D+03 0.162563590000936D+03 0.374863328713768D+02
 0.240980229671629D+02 -.360331918065073D+01 -.321927532957434D+01 -.236086227501872D+02
 0.146961565855409D+03 -.894293088199382D+02 -.108633967856565D+03 0.424118095629098D+02
 0.118820087970373D+03 -.793175018162022D+01 -.507103468147965D+02 -.562895196840993D+02
 0.000000000000000D+00 0.000000000000000D+00 -.000000000000000D+00 0.000000000000000D+00
 0.571059487939164D+03 0.000000000000000D+00 0.000000000000000D+00 0.571059487939164D+03
 0.265006067425545D+03 0.000000000000000D+00 0.000000000000000D+00 -.265006067425545D+03
 0.225244918409062D+03 0.689358147291918D+02 0.190427545855592D+03 0.374863328713768D+02
 0.246676385279070D+02 -.714892858175616D+01 -.134694156423139D+00 -.236086227501872D+02
 0.148971389150000D+03 -.110945733188962D+03 -.899152794693081D+02 0.424118095629098D+02
 0.115736694376524D+03 -.249856915634320D+02 -.358738940182871D+02 -.562895196840993D+02
 0.321444914901217D+03 0.741445386049583D+02 -.645036782115741D+02 0.306053420513619D+03
0.247099454937D-05 0.000000000000D+00 0.000000000000D+00 0.376998859557D-07 0.000000000000D+00  7 -1 1 23 -13 13 23 21 0 0.96312325D-02 0.15677316D+00 0.53398557D+05 0.53398557D+05 0.53398557D+05 0.11447917D+01  1  2  2  2  7  2        1 0.268277125873D-03 0.100000000000D+01
-.135957220133D-06 0.000000000000D+00 -.948926969737D-08 0.376998859557D-07 0.000000000000D+00  7 -1 1 23 -13 13 23 21 2 0.96312325D-02 0.15677316D+00 0.53398557D+05 0.53398557D+05 0.53398557D+05 0.11447917D+01  1  2  3  2  7  2        1 -.193449278612D-04 0.100000000000D+01
0.161961559101D-06 0.000000000000D+00 0.000000000000D+00 0.376998859557D-07 0.000000000000D+00  7 -1 1 23 -13 13 23 21 2 0.96312325D-02 0.15677316D+00 0.53398557D+05 0.53398557D+05 0.53398557D+05 0.11447917D+01  1  2 15  2  7  2        1 0.230450039655D-04 0.100000000000D+01
  </mgrwgt>
  </event>
  <event>
  9     66 0.58687835E-06 0.23546632E+03 0.75467711E-02 0.97376037E-01
       -1 -1    0    0    0  501 0.00000000E+00 0.00000000E+00 0.10438014E+04 0.10438014E+04 0.32000000E+00 0.0000E+00 0.9000E+01
        1 -1    0    0  502    0 0.00000000E+00 0.00000000E+00 -.49463699E+03 0.49463709E+03 0.32000000E+00 0.0000E+00 0.9000E+01
       25  2    1    2    0    0 -.21210116E+02 -.14910299E+03 0.50668158E+03 0.60763615E+03 0.29968968E+03 0.0000E+00 0.0000E+00
       23  2    1    2    0    0 -.23099342E+03 0.84379167E+02 0.40630602E+03 0.48340581E+03 0.90104334E+02 0.0000E+00 0.0000E+00
       23  1    3    3    0    0 0.25277871E+02 0.46542012E+01 0.35857684E+03 0.37088170E+03 0.91188000E+02 0.0000E+00 0.9000E+01
      -13  1    4    4    0    0 -.14435703E+03 0.28301360E+02 0.30583548E+03 0.33937482E+03 0.10565837E+00 0.0000E+00 0.9000E+01
       13  1    4    4    0    0 -.86636388E+02 0.56077807E+02 0.10047054E+03 0.14403099E+03 0.10565837E+00 0.0000E+00 0.9000E+01
       23  1    3    3    0    0 -.46487987E+02 -.15375719E+03 0.14810474E+03 0.23675445E+03 0.91188000E+02 0.0000E+00 0.9000E+01
       21  1    1    2  502  501 0.25220354E+03 0.64723824E+02 -.36382320E+03 0.44739656E+03 0.75000000E+00 0.0000E+00 0.9000E+01
#aMCatNLO 2  0  0  2  1 0.26037626D+03 0.00000000D+00  -5  7  0 0.00000000D+00 0.00000000D+00 0.00000000D+00 0.00000000D+00 0.00000000D+00
  <mgrwgt>
 0.8513721159D-04    1    2    0
 0.268807743878592D+03 0.000000000000000D+00 0.000000000000000D+00 0.268807743878592D+03
 0.268807743878592D+03 0.000000000000000D+00 0.000000000000000D+00 -.268807743878592D+03
 0.156148205726294D+03 0.887207290192649D+02 0.209357501067311D+02 0.880757481790508D+02
 0.105042742423495D+03 -.871455483213598D+02 0.429837152169907D+02 0.399002677906171D+02
 0.877858734538256D+02 -.427947715169658D+02 0.673290432781200D+02 -.366301384124443D+02
 0.188638666153569D+03 0.412195908190607D+02 -.131248508601842D+03 -.913458775572235D+02
 0.000000000000000D+00 0.000000000000000D+00 0.000000000000000D+00 -.000000000000000D+00
 0.311130088268421D+03 0.000000000000000D+00 0.000000000000000D+00 0.311130088268421D+03
 0.165944272140504D+04 0.000000000000000D+00 0.000000000000000D+00 -.165944272140504D+04
 0.129356952418296D+03 0.252778716352110D+02 0.465420060199144D+01 0.880757481790508D+02
 0.152420377720284D+03 -.144357110168740D+03 0.283013236150052D+02 0.399002677906171D+02
 0.109509552175383D+03 -.866363106053105D+02 0.560778446647001D+02 -.366301384124443D+02
 0.206062437302161D+03 -.464879867904092D+02 -.153757193198830D+03 -.913458775572235D+02
 0.137322349005734D+04 0.252203535929249D+03 0.647238243171334D+02 -.134831263313662D+04
0.416911594041D-04 0.000000000000D+00 0.000000000000D+00 0.182262218810D-06 0.743802427565D-10  7 -1 1 23 -13 13 23 21 2 0.16058479D+00 0.76097985D-01 0.15607789D+06 0.15607789D+06 0.15607789D+06 0.11061932D+01  1  2  1  2  7  2        1 0.851372115905D-04 0.100000000000D+01
  </mgrwgt>
  </event>
  <event>
  8     66 0.58687835E-06 0.19085280E+03 0.75467711E-02 0.10136028E+00
       -1 -1    0    0    0  501 0.00000000E+00 0.00000000E+00 0.64629496E+03 0.64629504E+03 0.32000000E+00 0.0000E+00 0.9000E+01
        1 -1    0    0  501    0 0.00000000E+00 0.00000000E+00 -.78616474E+02 0.78617125E+02 0.32000000E+00 0.0000E+00 0.9000E+01
       25  2    1    2    0    0 -.85886719E+02 -.34960760E+02 0.45856984E+03 0.55567486E+03 0.29981572E+03 0.0000E+00 0.0000E+00
       23  2    1    2    0    0 0.85886719E+02 0.34960760E+02 0.10910865E+03 0.16923731E+03 0.90209683E+02 0.0000E+00 0.0000E+00
       23  1    3    3    0    0 -.95956964E+02 0.52877409E+02 0.96928899E+02 0.17237814E+03 0.91188000E+02 0.0000E+00 0.9000E+01
      -11  1    4    4    0    0 0.97214139E+00 0.26827392E+02 -.44469848E+01 0.27210837E+02 0.51099893E-03 0.0000E+00 0.9000E+01
       11  1    4    4    0    0 0.84914577E+02 0.81333680E+01 0.11355564E+03 0.14202647E+03 0.51099893E-03 0.0000E+00 0.9000E+01
       23  1    3    3    0    0 0.10070245E+02 -.87838168E+02 0.36164094E+03 0.38329672E+03 0.91188000E+02 0.0000E+00 0.9000E+01
#aMCatNLO 1  0  0  1  2 0.16082593D+03 0.00000000D+00  -5  7  0 0.00000000D+00 0.00000000D+00 0.00000000D+00 0.00000000D+00 0.00000000D+00
  <mgrwgt>
 0.1704785491D-03    3    2    0
 0.225410061503376D+03 0.000000000000000D+00 0.000000000000000D+00 0.225410061503376D+03
 0.225410061503376D+03 0.000000000000000D+00 0.000000000000000D+00 -.225410061503376D+03
 0.155127409820671D+03 -.959569640018114D+02 0.528774087994391D+02 -.612005116962479D+02
 0.493543292277634D+02 0.972141481951184D+00 0.268273916114096D+02 -.414149225978946D+02
 0.853857801305034D+02 0.849145773828916D+02 0.813336803272447D+01 0.375424037907165D+01
 0.160952603827815D+03 0.100702451369686D+02 -.878381684435732D+02 0.988611939150709D+02
 0.000000000000000D+00 0.000000000000000D+00 -.000000000000000D+00 -.000000000000000D+00
 0.277760578452844D+03 0.000000000000000D+00 0.000000000000000D+00 0.277760578452844D+03
 0.407555137127071D+03 0.000000000000000D+00 0.000000000000000D+00 -.407555137127071D+03
 0.203098591156824D+03 -.143692287507131D+03 0.924165042888554D+02 -.612005116962479D+02
 0.582386466265047D+02 -.133651358102860D+02 0.387029364760595D+02 -.414149225978946D+02
 0.691782272757150D+02 0.643181860665672D+02 0.251933274756049D+02 0.375424037907165D+01
 0.148132383627782D+03 -.311168038951242D+02 -.537229986903882D+02 0.988611939150709D+02
 0.206667866893089D+03 0.123856041145974D+03 -.102589769550132D+03 -.129794558674227D+03
0.257818844635D-05 0.000000000000D+00 0.000000000000D+00 0.930369514710D-07 0.000000000000D+00  7 -1 1 23 -11 11 23 21 0 0.99430051D-01 0.12094898D-01 0.36424790D+05 0.36424790D+05 0.36424790D+05 0.11595965D+01  1  2  2  1  7  1       -1 0.167980754788D-03 0.100000000000D+01
-.138409566810D-06 0.000000000000D+00 -.990092248660D-08 0.930369514710D-07 0.000000000000D+00  7 -1 1 23 -11 11 23 21 2 0.99430051D-01 0.12094898D-01 0.36424790D+05 0.36424790D+05 0.36424790D+05 0.11595965D+01  1  2  3  1  7  1       -1 -.121262012795D-04 0.100000000000D+01
0.166919618726D-06 0.000000000000D+00 0.000000000000D+00 0.930369514710D-07 0.000000000000D+00  7 -1 1 23 -11 11 23 21 2 0.99430051D-01 0.12094898D-01 0.36424790D+05 0.36424790D+05 0.36424790D+05 0.11595965D+01  1  2 15  1  7  1       -1 0.146239955866D-04 0.100000000000D+01
  </mgrwgt>
  </event>
  <event>
  8     66 0.58687835E-06 0.32499502E+03 0.75467711E-02 0.98264367E-01
       -1 -1    0    0    0  501 0.00000000E+00 0.00000000E+00 0.17088312E+03 0.17088342E+03 0.32000000E+00 0.0000E+00 0.9000E+01
        1 -1    0    0  501    0 0.00000000E+00 0.00000000E+00 -.75772349E+03 0.75772356E+03 0.32000000E+00 0.0000E+00 0.9000E+01
       25  2    1    2    0    0 0.23420762E+03 -.16710257E+03 -.38397633E+03 0.56464448E+03 0.29767277E+03 0.0000E+00 0.0000E+00
       23  2    1    2    0    0 -.23420762E+03 0.16710257E+03 -.20286404E+03 0.36396249E+03 0.92403454E+02 0.0000E+00 0.0000E+00
       23  1    3    3    0    0 0.88294200E+02 -.10593600E+03 -.32403244E+02 0.16847410E+03 0.91188000E+02 0.0000E+00 0.9000E+01
      -11  1    4    4    0    0 0.37129339E+01 0.24258576E+02 -.19528966E+02 0.31363114E+02 0.51099893E-03 0.0000E+00 0.9000E+01
       11  1    4    4    0    0 -.23792056E+03 0.14284400E+03 -.18333507E+03 0.33259938E+03 0.51099893E-03 0.0000E+00 0.9000E+01
       23  1    3    3    0    0 0.14591342E+03 -.61166576E+02 -.35157309E+03 0.39617038E+03 0.91188000E+02 0.0000E+00 0.9000E+01
#aMCatNLO 1  0  0  2  2 0.83381913D+02 0.00000000D+00  -5  7  0 0.00000000D+00 0.00000000D+00 0.00000000D+00 0.00000000D+00 0.00000000D+00
  <mgrwgt>
 0.4098255616D-03    4    2    0
 0.359836519760522D+03 0.000000000000000D+00 0.000000000000000D+00 0.359836519760522D+03
 0.359836519760522D+03 0.000000000000000D+00 0.000000000000000D+00 -.359836519760522D+03
 0.190962680918737D+03 0.882941999621662D+02 -.105935997128728D+03 0.955677399808877D+02
 0.245439515926159D+02 0.371293395389180D+01 0.242585758754833D+02 0.375736248089981D+00
 0.279662666712442D+03 -.237920557960048D+03 0.142843996761754D+03 0.346497884816311D+02
 0.224503740297249D+03 0.145913424043990D+03 -.611665755085087D+02 -.130593264710609D+03
 0.000000000000000D+00 0.000000000000000D+00 -.000000000000000D+00 0.000000000000000D+00
 0.576415102770571D+03 0.000000000000000D+00 0.000000000000000D+00 0.576415102770571D+03
 0.370359270749701D+03 0.000000000000000D+00 0.000000000000000D+00 -.370359270749701D+03
 0.178630849372215D+03 0.852459115431328D+02 -.848155094517781D+02 0.955677399808877D+02
 0.274284817124228D+02 0.328428206047793D+01 0.272285497716607D+02 0.375736248089981D+00
 0.301851474825930D+03 -.242716699336657D+03 0.176074725261425D+03 0.346497884816311D+02
 0.216576479881486D+03 0.142275536427351D+03 -.359609682904986D+02 -.130593264710609D+03
 0.222287087728218D+03 0.119109693056960D+02 -.825267972908086D+02 0.206055832020870D+03
0.119617882208D-04 0.000000000000D+00 0.000000000000D+00 0.196387644508D-07 0.000000000000D+00  7 -1 1 23 -11 11 23 21 0 0.26289738D-01 0.11657287D+00 0.10562176D+06 0.10562176D+06 0.10562176D+06 0.11197780D+01  1  2  2  2  7  2        1 0.430163708046D-03 0.100000000000D+01
-.656163838546D-06 0.000000000000D+00 -.459364163791D-07 0.196387644508D-07 0.000000000000D+00  7 -1 1 23 -11 11 23 21 2 0.26289738D-01 0.11657287D+00 0.10562176D+06 0.10562176D+06 0.10562176D+06 0.11197780D+01  1  2  3  2  7  2        1 -.295878774551D-04 0.100000000000D+01
0.757134341557D-06 0.000000000000D+00 0.000000000000D+00 0.196387644508D-07 0.000000000000D+00  7 -1 1 23 -11 11 23 21 2 0.26289738D-01 0.11657287D+00 0.10562176D+06 0.10562176D+06 0.10562176D+06 0.11197780D+01  1  2 15  2  7  2        1 0.341408605581D-04 0.100000000000D+01
-.552005095277D-06 0.000000000000D+00 0.000000000000D+00 0.196387644508D-07 0.000000000000D+00  7 -1 1 23 -11 11 23 21 2 0.26289738D-01 0.11657287D+00 0.10562176D+06 0.10562176D+06 0.10562176D+06 0.11197780D+01  1  2  4  2  7  2        1 -.248911295536D-04 0.100000000000D+01
  </mgrwgt>
  </event>
  <event>
  8     66 0.58687835E-06 0.32432614E+03 0.75467711E-02 0.92236231E-01
       -1 -1    0    0    0  501 0.00000000E+00 0.00000000E+00 0.49698281E+03 0.49698292E+03 0.32000000E+00 0.0000E+00 0.9000E+01
        1 -1    0    0  501    0 0.00000000E+00 0.00000000E+00 -.45991494E+03 0.45991505E+03 0.32000000E+00 0.0000E+00 0.9000E+01
       25  2    1    2    0    0 0.98317721E+01 -.24947539E+03 0.36339465E+03 0.53600795E+03 0.30481833E+03 0.0000E+00 0.0000E+00
       23  2    1    2    0    0 -.98317721E+01 0.24947539E+03 -.32632678E+03 0.42089003E+03 0.91239310E+02 0.0000E+00 0.0000E+00
       23  1    3    3    0    0 -.65379097E+02 -.23936716E+03 0.30550024E+03 0.40400088E+03 0.91188000E+02 0.0000E+00 0.9000E+01
      -11  1    4    4    0    0 0.39249097E+02 0.14516266E+03 -.17744714E+03 0.23259444E+03 0.51099893E-03 0.0000E+00 0.9000E+01
       11  1    4    4    0    0 -.49080869E+02 0.10431274E+03 -.14887964E+03 0.18829558E+03 0.51099893E-03 0.0000E+00 0.9000E+01
       23  1    3    3    0    0 0.75210869E+02 -.10108236E+02 0.57894404E+02 0.13200706E+03 0.91188000E+02 0.0000E+00 0.9000E+01
#aMCatNLO 1  0  0  1  2 0.45744999D+03 0.00000000D+00  -5  7  0 0.00000000D+00 0.00000000D+00 0.00000000D+00 0.00000000D+00 0.00000000D+00
  <mgrwgt>
 0.1662535716D-03    5    2    0
 0.478089871120238D+03 0.000000000000000D+00 0.000000000000000D+00 0.478089871120238D+03
 0.478089871120238D+03 0.000000000000000D+00 0.000000000000000D+00 -.478089871120238D+03
 0.392461129130455D+03 -.653790969913046D+02 -.239367157155623D+03 0.290067964943025D+03
 0.239648183198766D+03 0.392490970080827D+02 0.145162656146481D+03 -.186597329442352D+03
 0.194208581957410D+03 -.490808690771699D+02 0.104312736529641D+03 -.156291057307305D+03
 0.129861847953846D+03 0.752108690603919D+02 -.101082355204995D+02 0.528204218066317D+02
 0.000000000000000D+00 0.000000000000000D+00 0.000000000000000D+00 0.000000000000000D+00
 0.112032874549369D+04 0.000000000000000D+00 0.000000000000000D+00 0.112032874549369D+04
 0.618604098210160D+03 0.000000000000000D+00 0.000000000000000D+00 -.618604098210160D+03
 0.514428540447335D+03 -.249237939746904D+03 -.331756683410156D+03 0.290067964943025D+03
 0.217701348656958D+03 -.534719455647764D+02 0.985701013977274D+02 -.186597329442352D+03
 0.213863369100809D+03 -.131811590574431D+03 0.627403429951727D+02 -.156291057307305D+03
 0.113978530250882D+03 0.257757379107771D+02 -.349495120062590D+02 0.528204218066317D+02
 0.678961055247870D+03 0.408745737975334D+03 0.205395751023514D+03 0.501724647283534D+03
0.149261406889D-04 0.000000000000D+00 0.000000000000D+00 0.192699760831D-07 0.000000000000D+00  7 -1 1 23 -11 11 23 21 0 0.76458911D-01 0.70756162D-01 0.10518745D+06 0.10518745D+06 0.10518745D+06 0.11199241D+01  1  2  2  1  7  1       -1 0.164486425230D-03 0.100000000000D+01
-.677409714092D-06 0.000000000000D+00 -.573203103884D-07 0.192699760831D-07 0.000000000000D+00  7 -1 1 23 -11 11 23 21 2 0.76458911D-01 0.70756162D-01 0.10518745D+06 0.10518745D+06 0.10518745D+06 0.11199241D+01  1  2  3  1  7  1       -1 -.936291604964D-05 0.100000000000D+01
0.927385556380D-06 0.000000000000D+00 0.000000000000D+00 0.192699760831D-07 0.000000000000D+00  7 -1 1 23 -11 11 23 21 2 0.76458911D-01 0.70756162D-01 0.10518745D+06 0.10518745D+06 0.10518745D+06 0.11199241D+01  1  2 15  1  7  1       -1 0.128179932018D-04 0.100000000000D+01
-.197136138004D-05 0.000000000000D+00 -.449466539517D-05 0.192699760831D-07 0.000000000000D+00  7 -1 1 23 -11 11 23 21 2 0.20758026D+00 0.70756162D-01 0.10518745D+06 0.10518745D+06 0.10518745D+06 0.11199241D+01  1  2  5  1  7  1       -1 -.195490610399D-05 0.100000000000D+01
0.402852572966D-07 0.000000000000D+00 -.501246156457D-06 0.192699760831D-07 0.000000000000D+00  7 21 1 23 -11 11 23 1 2 0.20758026D+00 0.70756162D-01 0.10518745D+06 0.10518745D+06 0.10518745D+06 0.11199241D+01  1  2  5  3  7  1       -1 0.266975338971D-06 0.100000000000D+01
  </mgrwgt>
  </event>
  <event>
  8     66 0.58687835E-06 0.10011217E+03 0.75467711E-02 0.10894073E+00
       -1 -1    0    0    0  501 0.00000000E+00 0.00000000E+00 0.17841849E+02 0.17844719E+02 0.32000000E+00 0.0000E+00 0.9000E+01
        1 -1    0    0  501    0 0.00000000E+00 0.00000000E+00 -.27718769E+04 0.27718770E+04 0.32000000E+00 0.0000E+00 0.9000E+01
       25  2    1    2    0    0 -.16592641E+02 -.90613721E+01 -.13622375E+04 0.13947972E+04 0.29901646E+03 0.0000E+00 0.0000E+00
       23  2    1    2    0    0 0.16592641E+02 0.90613721E+01 -.13917976E+04 0.13949245E+04 0.91412762E+02 0.0000E+00 0.0000E+00
       23  1    3    3    0    0 -.71554272E+02 -.46677528E+02 -.11265113E+04 0.11334204E+04 0.91188000E+02 0.0000E+00 0.9000E+01
      -11  1    4    4    0    0 -.23968612E+02 -.95330033E+01 -.10385032E+04 0.10388235E+04 0.51099893E-03 0.0000E+00 0.9000E+01
       11  1    4    4    0    0 0.40561254E+02 0.18594375E+02 -.35329442E+03 0.35610099E+03 0.51099893E-03 0.0000E+00 0.9000E+01
       23  1    3    3    0    0 0.54961631E+02 0.37616156E+02 -.23572620E+03 0.26137683E+03 0.91188000E+02 0.0000E+00 0.9000E+01
#aMCatNLO 1  0  0  2  1 0.24699510D+02 0.00000000D+00  -5  7  0 0.00000000D+00 0.00000000D+00 0.00000000D+00 0.00000000D+00 0.00000000D+00
  <mgrwgt>
 0.3196427680D-03    7    2    0
 0.222394782066465D+03 0.000000000000000D+00 0.000000000000000D+00 0.222394782066465D+03
 0.222394782066465D+03 0.000000000000000D+00 0.000000000000000D+00 -.222394782066465D+03
 0.133716632692073D+03 -.715542724920651D+02 -.466775282186974D+02 -.476033713305137D+02
 0.853306641271178D+02 -.239686123318267D+02 -.953300325355335D+01 -.813384885047008D+02
 0.459485019870422D+02 0.405612538069925D+02 0.185943753821285D+02 -.109680777078961D+02
 0.179793765326697D+03 0.549616310168992D+02 0.376161560901223D+02 0.139909937543111D+03
 0.000000000000000D+00 0.000000000000000D+00 0.000000000000000D+00 -.000000000000000D+00
 0.223248627649199D+03 0.000000000000000D+00 0.000000000000000D+00 0.223248627649199D+03
 0.521079252055720D+03 0.000000000000000D+00 0.000000000000000D+00 -.521079252055720D+03
 0.138654690537716D+03 -.781620673150227D+02 -.503436404635264D+02 -.476033713305137D+02
 0.868828189161794D+02 -.281465534902538D+02 -.118509930897191D+02 -.813384885047008D+02
 0.435487791268681D+02 0.383900279091973D+02 0.173897438729082D+02 -.109680777078961D+02
 0.176388539190102D+03 0.463205613187152D+02 0.328219498113696D+02 0.139909937543111D+03
 0.298853051934054D+03 0.215980315773639D+02 0.119829398689676D+02 -.297830624406521D+03
0.660245782778D-05 0.000000000000D+00 0.000000000000D+00 0.581889333802D-07 0.000000000000D+00  7 -1 1 23 -11 11 23 21 0 0.27451220D-02 0.42644283D+00 0.23760933D+05 0.23760933D+05 0.23760933D+05 0.11768490D+01  1  2  2  2  7  2        1 0.312286931700D-03 0.100000000000D+01
-.306880275524D-06 0.000000000000D+00 -.253551765257D-07 0.581889333802D-07 0.000000000000D+00  7 -1 1 23 -11 11 23 21 2 0.27451220D-02 0.42644283D+00 0.23760933D+05 0.23760933D+05 0.23760933D+05 0.11768490D+01  1  2  3  2  7  2        1 -.201028961432D-04 0.100000000000D+01
0.419162324125D-06 0.000000000000D+00 0.000000000000D+00 0.581889333802D-07 0.000000000000D+00  7 -1 1 23 -11 11 23 21 2 0.27451220D-02 0.42644283D+00 0.23760933D+05 0.23760933D+05 0.23760933D+05 0.11768490D+01  1  2 15  2  7  2        1 0.274581892062D-04 0.100000000000D+01
0.156187563373D-03 0.000000000000D+00 0.000000000000D+00 0.581889333802D-07 0.000000000000D+00  7 -1 1 23 -11 11 23 21 2 0.27451220D-02 0.99878148D+00 0.28060730D+05 0.28060730D+05 0.28060730D+05 0.11700383D+01  1  2 12  2  7  2        1 0.186831743197D-08 0.100000000000D+01
-.155098824085D-03 0.000000000000D+00 -.125005412922D-05 0.581889333802D-07 0.000000000000D+00  7 -1 1 23 -11 11 23 21 2 0.27451220D-02 0.99917237D+00 0.23760933D+05 0.23760933D+05 0.23760933D+05 0.11768490D+01  1  2  5  2  7  2        1 -.132513275035D-08 0.100000000000D+01
0.144968237375D-04 0.000000000000D+00 0.000000000000D+00 0.581889333802D-07 0.000000000000D+00  7 -1 21 23 -11 11 23 -1 2 0.27451220D-02 0.99878148D+00 0.28060730D+05 0.28060730D+05 0.28060730D+05 0.11700383D+01  1  2 12  4  7  2        1 -.476247622479D-12 0.100000000000D+01
-.143241329342D-04 0.000000000000D+00 -.116084900431D-06 0.581889333802D-07 0.000000000000D+00  7 -1 21 23 -11 11 23 -1 2 0.27451220D-02 0.99917237D+00 0.23760933D+05 0.23760933D+05 0.23760933D+05 0.11768490D+01  1  2  5  4  7  2        1 0.543878678137D-12 0.100000000000D+01
  </mgrwgt>
  </event>
  <event>
  8     66 0.58687835E-06 0.24499689E+03 0.75467711E-02 0.94881450E-01
       -1 -1    0    0    0  501 0.00000000E+00 0.00000000E+00 0.56670581E+02 0.56671484E+02 0.32000000E+00 0.0000E+00 0.9000E+01
        1 -1    0    0  501    0 0.00000000E+00 0.00000000E+00 -.22731468E+04 0.22731468E+04 0.32000000E+00 0.0000E+00 0.9000E+01
       25  2    1    2    0    0 0.16637679E+03 0.73153634E+02 -.55381852E+03 0.65481244E+03 0.29838178E+03 0.0000E+00 0.0000E+00
       23  2    1    2    0    0 -.16637679E+03 -.73153634E+02 -.16626577E+04 0.16750059E+04 0.90450775E+02 0.0000E+00 0.0000E+00
       23  1    3    3    0    0 0.17201433E+03 0.57424940E+02 -.18540008E+03 0.27490907E+03 0.91188000E+02 0.0000E+00 0.9000E+01
      -11  1    4    4    0    0 -.51666921E+02 0.10001054E+02 -.26424663E+03 0.26943603E+03 0.51099893E-03 0.0000E+00 0.9000E+01
       11  1    4    4    0    0 -.11470987E+03 -.83154688E+02 -.13984111E+04 0.14055698E+04 0.51099893E-03 0.0000E+00 0.9000E+01
       23  1    3    3    0    0 -.56375448E+01 0.15728694E+02 -.36841844E+03 0.37990337E+03 0.91188000E+02 0.0000E+00 0.9000E+01
#aMCatNLO 1  0  0  1  1 0.37438368D+03 0.00000000D+00  -5  7  0 0.00000000D+00 0.00000000D+00 0.00000000D+00 0.00000000D+00 0.00000000D+00
  <mgrwgt>
 0.2608936238D-03    3    2    0
 0.358917297658271D+03 0.000000000000000D+00 0.000000000000000D+00 0.358917297658271D+03
 0.358917297658271D+03 0.000000000000000D+00 0.000000000000000D+00 -.358917297658271D+03
 0.319785793586665D+03 0.172014331760030D+03 0.574249396144628D+02 0.247105541045277D+03
 0.585658864420583D+02 -.516669209424744D+02 0.100010542506706D+02 -.256996351908605D+02
 0.244035970194217D+03 -.114709865999202D+03 -.831546882587278D+02 -.198697003529676D+03
 0.954469450935998D+02 -.563754481835351D+01 0.157286943935944D+02 -.227089023247410D+02
 0.000000000000000D+00 0.000000000000000D+00 0.000000000000000D+00 -.000000000000000D+00
 0.517889427826049D+03 0.000000000000000D+00 0.000000000000000D+00 0.517889427826049D+03
 0.714647318276771D+03 0.000000000000000D+00 0.000000000000000D+00 -.714647318276771D+03
 0.293504055884791D+03 0.104280439013755D+03 -.767712257336173D+02 0.247105541045277D+03
 0.735381425299000D+02 -.662569555524536D+02 -.189051050968983D+02 -.256996351908605D+02
 0.340906325340275D+03 -.179312954967067D+03 -.211148023022514D+03 -.198697003529676D+03
 0.101649922531797D+03 -.274056176209130D+02 -.273987825412368D+02 -.227089023247410D+02
 0.422938299816057D+03 0.168695089126680D+03 0.334223136394267D+03 -.196757890450722D+03
0.138334678385D-04 0.000000000000D+00 0.000000000000D+00 0.103991391881D-06 0.000000000000D+00  7 -1 1 23 -11 11 23 21 0 0.87186221D-02 0.34971496D+00 0.60023474D+05 0.60023474D+05 0.60023474D+05 0.11403804D+01  1  2  2  1  7  1       -1 0.255182658570D-03 0.100000000000D+01
-.632281902429D-06 0.000000000000D+00 -.531241589356D-07 0.103991391881D-06 0.000000000000D+00  7 -1 1 23 -11 11 23 21 2 0.87186221D-02 0.34971496D+00 0.60023474D+05 0.60023474D+05 0.60023474D+05 0.11403804D+01  1  2  3  1  7  1       -1 -.151680710225D-04 0.100000000000D+01
0.870343813083D-06 0.000000000000D+00 0.000000000000D+00 0.103991391881D-06 0.000000000000D+00  7 -1 1 23 -11 11 23 21 2 0.87186221D-02 0.34971496D+00 0.60023474D+05 0.60023474D+05 0.60023474D+05 0.11403804D+01  1  2 15  1  7  1       -1 0.208790362656D-04 0.100000000000D+01
  </mgrwgt>
  </event>
  <event>
  7     66 0.58687835E-06 0.25830287E+03 0.75467711E-02 0.90983921E-01
       -1 -1    0    0    0  501 0.00000000E+00 0.00000000E+00 0.30707996E+03 0.30708013E+03 0.32000000E+00 0.0000E+00 0.9000E+01
        1 -1    0    0  501    0 0.00000000E+00 0.00000000E+00 -.16379192E+04 0.16379193E+04 0.32000000E+00 0.0000E+00 0.9000E+01
       25  2    1    2    0    0 0.11425935E+02 -.62931200E+03 -.96756952E+03 0.11926289E+04 0.30001444E+03 0.0000E+00 0.0000E+00
       23  1    3    3    0    0 0.37653991E+02 -.34533865E+03 -.32775772E+03 0.48622729E+03 0.91188000E+02 0.0000E+00 0.9000E+01
      -11  1    1    2    0    0 -.15496794E+02 0.42067575E+02 -.98424185E+02 0.10815337E+03 0.51099893E-03 0.0000E+00 0.9000E+01
       11  1    1    2    0    0 0.40708584E+01 0.58724442E+03 -.26484556E+03 0.64421717E+03 0.51099893E-03 0.0000E+00 0.9000E+01
       23  1    3    3    0    0 -.26228056E+02 -.28397335E+03 -.63981180E+03 0.70640156E+03 0.91188000E+02 0.0000E+00 0.9000E+01
#aMCatNLO 1  0  0  2  1 0.10206680D+03 0.00000000D+00  -5  7  0 0.00000000D+00 0.00000000D+00 0.00000000D+00 0.00000000D+00 0.00000000D+00
  <mgrwgt>
 0.4328399604D-03    9    2    0
 0.709205448965237D+03 0.000000000000000D+00 0.000000000000000D+00 0.709205448965237D+03
 0.709205448965237D+03 0.000000000000000D+00 0.000000000000000D+00 -.709205448965237D+03
 0.359218154485939D+03 0.376539909677616D+02 -.345338649974442D+03 0.676941403026356D+01
 0.559580234822344D+02 -.154967935209454D+02 0.420675755123762D+02 -.334883393604104D+02
 0.634890159370114D+03 0.407085820008031D+01 0.587244423847652D+03 0.241273556856865D+03
 0.368344560592186D+03 -.262280556468966D+02 -.283973349385586D+03 -.214554631526718D+03
 0.000000000000000D+00 0.000000000000000D+00 0.000000000000000D+00 -.000000000000000D+00
 0.720973066893038D+03 0.000000000000000D+00 0.000000000000000D+00 0.720973066893038D+03
 0.973214437353215D+03 0.000000000000000D+00 0.000000000000000D+00 -.973214437353215D+03
 0.383240074497797D+03 0.301724635583585D+02 -.370946762802404D+03 0.676941403026356D+01
 0.535097738641861D+02 -.165998674641290D+02 0.382919237705770D+02 -.334883393604104D+02
 0.595887985870286D+03 -.833132157118344D+01 0.544793677961722D+03 0.241273556856865D+03
 0.389440611590121D+03 -.338640280353788D+02 -.310110103523476D+03 -.214554631526718D+03
 0.272109058423863D+03 0.286227535123327D+02 0.979712645935809D+02 -.252241370460177D+03
0.114159813047D-03 0.000000000000D+00 0.000000000000D+00 0.138434088632D-08 0.000000000000D+00  7 -1 1 23 -11 11 23 21 0 0.47243086D-01 0.25198759D+00 0.41644446D+06 0.41644446D+06 0.41644446D+06 0.10741685D+01  1  2  2  2  7  2        1 0.326149280103D-03 0.100000000000D+01
-.627350752098D-05 0.000000000000D+00 -.438403741071D-06 0.138434088632D-08 0.000000000000D+00  7 -1 1 23 -11 11 23 21 2 0.47243086D-01 0.25198759D+00 0.41644446D+06 0.41644446D+06 0.41644446D+06 0.10741685D+01  1  2  3  2  7  2        1 -.206803772612D-04 0.100000000000D+01
0.734813840100D-05 0.000000000000D+00 0.000000000000D+00 0.138434088632D-08 0.000000000000D+00  7 -1 1 23 -11 11 23 21 2 0.47243086D-01 0.25198759D+00 0.41644446D+06 0.41644446D+06 0.41644446D+06 0.10741685D+01  1  2 15  2  7  2        1 0.242228567977D-04 0.100000000000D+01
0.464783069654D-03 0.000000000000D+00 0.000000000000D+00 0.138434088632D-08 0.000000000000D+00  7 -1 1 23 -11 11 23 21 2 0.47243086D-01 0.34730574D+00 0.48779595D+06 0.48779595D+06 0.48779595D+06 0.10692697D+01  1  2 12  2  7  2        1 0.577948713734D-03 0.100000000000D+01
-.453358373834D-03 0.000000000000D+00 0.000000000000D+00 0.138434088632D-08 0.000000000000D+00  7 -1 1 23 -11 11 23 21 2 0.47243086D-01 0.25198759D+00 0.41644446D+06 0.41644446D+06 0.41644446D+06 0.10741685D+01  1  2  4  2  7  2        1 -.149447851525D-02 0.100000000000D+01
-.518445019671D-03 0.000000000000D+00 -.446678986018D-04 0.138434088632D-08 0.000000000000D+00  7 -1 1 23 -11 11 23 21 2 0.47243086D-01 0.34746774D+00 0.41644446D+06 0.41644446D+06 0.41644446D+06 0.10741685D+01  1  2  5  2  7  2        1 -.655896742549D-03 0.100000000000D+01
0.508532676370D-03 0.000000000000D+00 0.424575657976D-04 0.138434088632D-08 0.000000000000D+00  7 -1 1 23 -11 11 23 21 2 0.47243086D-01 0.25198759D+00 0.41644446D+06 0.41644446D+06 0.41644446D+06 0.10741685D+01  1  2  6  2  7  2        1 0.167635849033D-02 0.100000000000D+01
0.188574613449D-04 0.000000000000D+00 0.000000000000D+00 0.138434088632D-08 0.000000000000D+00  7 -1 21 23 -11 11 23 -1 2 0.47243086D-01 0.34730574D+00 0.48779595D+06 0.48779595D+06 0.48779595D+06 0.10692697D+01  1  2 12  4  7  2        1 0.941464241352D-05 0.100000000000D+01
-.199442439798D-04 0.000000000000D+00 -.181419063522D-05 0.138434088632D-08 0.000000000000D+00  7 -1 21 23 -11 11 23 -1 2 0.47243086D-01 0.34746774D+00 0.41644446D+06 0.41644446D+06 0.41644446D+06 0.10741685D+01  1  2  5  4  7  2        1 -.101983879076D-04 0.100000000000D+01
  </mgrwgt>
  </event>
  <event>
  8     66 0.58687835E-06 0.25018103E+03 0.75467711E-02 0.92896980E-01
       -1 -1    0    0    0  501 0.00000000E+00 0.00000000E+00 0.16490447E+03 0.16490478E+03 0.32000000E+00 0.0000E+00 0.9000E+01
        1 -1    0    0  501    0 0.00000000E+00 0.00000000E+00 -.46455062E+03 0.46455073E+03 0.32000000E+00 0.0000E+00 0.9000E+01
       25  2    1    2    0    0 0.68698507E+02 0.14910067E+03 -.10188055E+03 0.35666701E+03 0.29980196E+03 0.0000E+00 0.0000E+00
       23  2    1    2    0    0 -.68698507E+02 -.14910067E+03 -.19776560E+03 0.27278850E+03 0.91388399E+02 0.0000E+00 0.0000E+00
       23  1    3    3    0    0 -.72345799E+02 0.11483932E+03 -.85372149E+02 0.18446040E+03 0.91188000E+02 0.0000E+00 0.9000E+01
      -11  1    4    4    0    0 -.17444504E+02 -.61641197E+02 -.18220648E+02 0.66602852E+02 0.51099893E-03 0.0000E+00 0.9000E+01
       11  1    4    4    0    0 -.51254003E+02 -.87459474E+02 -.17954496E+03 0.20618565E+03 0.51099893E-03 0.0000E+00 0.9000E+01
       23  1    3    3    0    0 0.14104431E+03 0.34261346E+02 -.16508404E+02 0.17220660E+03 0.91188000E+02 0.0000E+00 0.9000E+01
#aMCatNLO 1  0  0  2  1 0.47824136D+03 0.00000000D+00  -5  7  0 0.00000000D+00 0.00000000D+00 0.00000000D+00 0.00000000D+00 0.00000000D+00
  <mgrwgt>
 0.2145558509D-03    3    2    0
 0.276778983734612D+03 0.000000000000000D+00 0.000000000000000D+00 0.276778983734612D+03
 0.276778983734612D+03 0.000000000000000D+00 0.000000000000000D+00 -.276778983734612D+03
 0.163538756017121D+03 -.723457990582219D+02 0.114839324973583D+03 0.277275564495045D+01
 0.658716653399750D+02 -.174445040527554D+02 -.616411969136828D+02 0.153338976148808D+02
 0.137266093805669D+03 -.512540025545711D+02 -.874594740802527D+02 -.925518672118950D+02
 0.186881452306460D+03 0.141044305665548D+03 0.342613460203527D+02 0.744452139520638D+02
 0.000000000000000D+00 0.000000000000000D+00 0.000000000000000D+00 0.000000000000000D+00
 0.761423900660511D+03 0.000000000000000D+00 0.000000000000000D+00 0.761423900660511D+03
 0.510282510444440D+03 0.000000000000000D+00 0.000000000000000D+00 -.510282510444440D+03
 0.214742789162599D+03 -.190567988730129D+03 0.384105148470987D+02 0.277275564495045D+01
 0.128619073054206D+03 -.782275934126718D+02 -.100936520477581D+03 0.153338976148808D+02
 0.259607323633493D+03 -.175286604805732D+03 -.167644625727806D+03 -.925518672118950D+02
 0.128564289670131D+03 0.424598338234592D+02 -.294719844208208D+02 0.744452139520638D+02
 0.540172935584522D+03 0.401622353125074D+03 0.259642615779109D+03 0.251141390216071D+03
0.273736961762D-05 0.000000000000D+00 0.000000000000D+00 0.587826705099D-06 0.000000000000D+00  7 -1 1 23 -11 11 23 21 0 0.25369950D-01 0.71469359D-01 0.62590550D+05 0.62590550D+05 0.62590550D+05 0.11388135D+01  1  2  2  2  7  2        1 0.211589345476D-03 0.100000000000D+01
-.150188612160D-06 0.000000000000D+00 -.105122200976D-07 0.587826705099D-06 0.000000000000D+00  7 -1 1 23 -11 11 23 21 2 0.25369950D-01 0.71469359D-01 0.62590550D+05 0.62590550D+05 0.62590550D+05 0.11388135D+01  1  2  3  2  7  2        1 -.150557557550D-04 0.100000000000D+01
0.179780971695D-06 0.000000000000D+00 0.000000000000D+00 0.587826705099D-06 0.000000000000D+00  7 -1 1 23 -11 11 23 21 2 0.25369950D-01 0.71469359D-01 0.62590550D+05 0.62590550D+05 0.62590550D+05 0.11388135D+01  1  2 15  2  7  2        1 0.180222612108D-04 0.100000000000D+01
  </mgrwgt>
  </event>
  <event>
  8     66 0.58687835E-06 0.24949228E+03 0.75467711E-02 0.10054118E+00
       -1 -1    0    0    0  501 0.00000000E+00 0.00000000E+00 0.57570297E+02 0.57571187E+02 0.32000000E+00 0.0000E+00 0.9000E+01
        1 -1    0    0  501    0 0.00000000E+00 0.00000000E+00 -.12197712E+04 0.12197712E+04 0.32000000E+00 0.0000E+00 0.9000E+01
       25  2    1    2    0    0 -.15098073E+03 0.19301462E+02 -.90017799E+03 0.96069128E+03 0.29906455E+03 0.0000E+00 0.0000E+00
       23  2    1    2    0    0 0.15098073E+03 -.19301462E+02 -.26202290E+03 0.31665113E+03 0.91892387E+02 0.0000E+00 0.0000E+00
       23  1    3    3    0    0 0.28998147E+02 -.65519572E+02 -.34261740E+03 0.36171210E+03 0.91188000E+02 0.0000E+00 0.9000E+01
      -11  1    4    4    0    0 -.38828406E+01 -.79772317E+01 -.65930583E+02 0.66524841E+02 0.51099893E-03 0.0000E+00 0.9000E+01
       11  1    4    4    0    0 0.15486357E+03 -.11324230E+02 -.19609232E+03 0.25012629E+03 0.51099893E-03 0.0000E+00 0.9000E+01
       23  1    3    3    0    0 -.17997888E+03 0.84821034E+02 -.55756059E+03 0.59897918E+03 0.91188000E+02 0.0000E+00 0.9000E+01
#aMCatNLO 1  0  0  2  2 0.10110654D+03 0.00000000D+00  -5  7  0 0.00000000D+00 0.00000000D+00 0.00000000D+00 0.00000000D+00 0.00000000D+00
  <mgrwgt>
 0.1677497387D-03    4    2    0
 0.264996574108441D+03 0.000000000000000D+00 0.000000000000000D+00 0.264996574108441D+03
 0.264996574108441D+03 0.000000000000000D+00 0.000000000000000D+00 -.264996574108441D+03
 0.120454304734491D+03 0.289981469459759D+02 -.655195718628775D+02 -.325619618830704D+02
 0.157557106044160D+02 -.388284059813824D+01 -.797723174511122D+01 -.130203586442289D+02
 0.172829128531428D+03 0.154863571918467D+03 -.113242304841487D+02 0.758877036517026D+02
 0.220954004346546D+03 -.179978878266304D+03 0.848210340921375D+02 -.303053831244033D+02
 0.000000000000000D+00 -.000000000000000D+00 0.000000000000000D+00 0.000000000000000D+00
 0.338262086932054D+03 0.000000000000000D+00 0.000000000000000D+00 0.338262086932054D+03
 0.307091307446596D+03 0.000000000000000D+00 0.000000000000000D+00 -.307091307446596D+03
 0.136232402586426D+03 0.366494640590595D+02 -.885468892337789D+02 -.325619618830704D+02
 0.172504584480025D+02 -.289899274429373D+01 -.109382091089193D+02 -.130203586442289D+02
 0.187311614389772D+03 0.165598646820443D+03 -.436323903884730D+02 0.758877036517026D+02
 0.198756512736060D+03 -.167468147596171D+03 0.471688806883265D+02 -.303053831244033D+02
 0.105802406218391D+03 -.318809705390373D+02 0.959486080428448D+02 0.311707794854574D+02
0.291304816024D-05 0.000000000000D+00 0.000000000000D+00 0.764510300533D-07 0.000000000000D+00  7 -1 1 23 -11 11 23 21 0 0.88570405D-02 0.18765718D+00 0.62246397D+05 0.62246397D+05 0.62246397D+05 0.11390194D+01  1  2  2  2  7  2        1 0.258269678978D-03 0.100000000000D+01
-.161120801710D-06 0.000000000000D+00 -.111868719585D-07 0.764510300533D-07 0.000000000000D+00  7 -1 1 23 -11 11 23 21 2 0.88570405D-02 0.18765718D+00 0.62246397D+05 0.62246397D+05 0.62246397D+05 0.11390194D+01  1  2  3  2  7  2        1 -.185327395056D-04 0.100000000000D+01
0.187892800565D-06 0.000000000000D+00 0.000000000000D+00 0.764510300533D-07 0.000000000000D+00  7 -1 1 23 -11 11 23 21 2 0.88570405D-02 0.18765718D+00 0.62246397D+05 0.62246397D+05 0.62246397D+05 0.11390194D+01  1  2 15  2  7  2        1 0.216121586468D-04 0.100000000000D+01
-.813738509940D-06 0.000000000000D+00 0.000000000000D+00 0.764510300533D-07 0.000000000000D+00  7 -1 1 23 -11 11 23 21 2 0.88570405D-02 0.18765718D+00 0.62246397D+05 0.62246397D+05 0.62246397D+05 0.11390194D+01  1  2  4  2  7  2        1 -.935993594269D-04 0.100000000000D+01
  </mgrwgt>
  </event>
  <event>
  9     66 0.58687835E-06 0.21717427E+03 0.75467711E-02 0.10405451E+00
       -3 -1    0    0    0  501 0.00000000E+00 0.00000000E+00 0.70101905E+03 0.70101923E+03 0.50000000E+00 0.0000E+00 0.9000E+01
       21 -1    0    0  501  502 0.00000000E+00 0.00000000E+00 -.21834594E+03 0.21834722E+03 0.75000000E+00 0.0000E+00 0.9000E+01
       25  2    1    2    0    0 -.10579819E+03 -.60807084E+02 0.60394605E+03 0.68617935E+03 0.30199422E+03 0.0000E+00 0.0000E+00
       23  2    1    2    0    0 0.91718409E+02 0.30028001E+02 -.31211123E+02 0.13697394E+03 0.92053134E+02 0.0000E+00 0.0000E+00
       23  1    3    3    0    0 -.23559126E+02 0.74581788E+02 0.12420993E+03 0.17280288E+03 0.91188000E+02 0.0000E+00 0.9000E+01
      -11  1    4    4    0    0 0.34936964E+02 -.33327321E+02 -.12125721E+02 0.49782877E+02 0.51099893E-03 0.0000E+00 0.9000E+01
       11  1    4    4    0    0 0.56781445E+02 0.63355322E+02 -.19085402E+02 0.87191065E+02 0.51099893E-03 0.0000E+00 0.9000E+01
       23  1    3    3    0    0 -.82239066E+02 -.13538887E+03 0.47973612E+03 0.51337648E+03 0.91188000E+02 0.0000E+00 0.9000E+01
       -3  1    1    2    0  502 0.14079783E+02 0.30779083E+02 -.90061812E+02 0.96213161E+02 0.50000000E+00 0.0000E+00 0.9000E+01
#aMCatNLO 2  0  0  2  1 0.33846598D+02 0.00000000D+00  -5  7  0 0.00000000D+00 0.00000000D+00 0.00000000D+00 0.00000000D+00 0.00000000D+00
  <mgrwgt>
 0.7332376075D-05    2    2    0
 0.295131520271693D+03 0.000000000000000D+00 0.000000000000000D+00 0.295131520271693D+03
 0.295131520271693D+03 0.000000000000000D+00 0.000000000000000D+00 -.295131520271693D+03
 0.123788441916290D+03 -.206507761771710D+02 0.809395802195611D+02 0.553685878674540D+01
 0.802860436784060D+02 0.368596795773108D+02 -.291241720215565D+02 -.651075681856394D+02
 0.144769318479287D+03 0.601736039833927D+02 0.707707448075188D+02 -.111035105421647D+03
 0.241419236469403D+03 -.763825073835324D+02 -.122586153005523D+03 0.170605814820541D+03
 0.000000000000000D+00 0.000000000000000D+00 0.000000000000000D+00 -.000000000000000D+00
 0.296918755874385D+03 0.000000000000000D+00 0.000000000000000D+00 0.296918755874385D+03
 0.515511542115666D+03 0.000000000000000D+00 0.000000000000000D+00 -.515511542115666D+03
 0.120263808467115D+03 -.235591259120526D+02 0.745817877504322D+02 0.553685878674540D+01
 0.810573698260445D+02 0.349369639573836D+02 -.333273208870582D+02 -.651075681856394D+02
 0.139881464005715D+03 0.567814450236883D+02 0.633553220922121D+02 -.111035105421647D+03
 0.250030010092165D+03 -.822390659020449D+02 -.135388871742350D+03 0.170605814820541D+03
 0.221197645599011D+03 0.140797828330256D+02 0.307790827867637D+02 -.218592786241281D+03
-.384008146805D-05 0.000000000000D+00 0.000000000000D+00 0.248118239458D-07 0.000000000000D+00  7 -3 21 23 -11 11 23 -3 2 0.10719992D+00 0.33610632D-01 0.55254006D+05 0.55254006D+05 0.55254006D+05 0.11434979D+01  1  2 13  4  7  2        3 -.204464394752D-03 0.100000000000D+01
0.403729790638D-05 0.000000000000D+00 0.000000000000D+00 0.248118239458D-07 0.112308719470D-10  7 -3 21 23 -11 11 23 -3 2 0.10784910D+00 0.33591764D-01 0.55254006D+05 0.55254006D+05 0.55254006D+05 0.11434979D+01  1  2  1  4  7  2        3 0.211796770827D-03 0.100000000000D+01
  </mgrwgt>
  </event>
  <event>
  8     66 0.58687835E-06 0.22866057E+03 0.75467711E-02 0.90484902E-01
       -1 -1    0    0    0  501 0.00000000E+00 0.00000000E+00 0.89325692E+03 0.89325698E+03 0.32000000E+00 0.0000E+00 0.9000E+01
        1 -1    0    0  501    0 0.00000000E+00 0.00000000E+00 -.11575895E+03 0.11575939E+03 0.32000000E+00 0.0000E+00 0.9000E+01
       25  2    1    2    0    0 -.14045890E+03 0.60780525E+02 0.17425370E+03 0.37998069E+03 0.30099502E+03 0.0000E+00 0.0000E+00
       23  2    1    2    0    0 0.14045890E+03 -.60780525E+02 0.60324427E+03 0.62903567E+03 0.91428944E+02 0.0000E+00 0.0000E+00
       23  1    3    3    0    0 -.91225151E+02 -.43546179E+02 0.18819435E+03 0.23227282E+03 0.91188000E+02 0.0000E+00 0.9000E+01
      -13  1    4    4    0    0 0.13191571E+03 -.21158385E+02 0.39794376E+03 0.41977217E+03 0.10565837E+00 0.0000E+00 0.9000E+01
       13  1    4    4    0    0 0.85431874E+01 -.39622140E+02 0.20530052E+03 0.20926350E+03 0.10565837E+00 0.0000E+00 0.9000E+01
       23  1    3    3    0    0 -.49233744E+02 0.10432670E+03 -.13940649E+02 0.14770787E+03 0.91188000E+02 0.0000E+00 0.9000E+01
#aMCatNLO 1  0  0  2  2 0.66862577D+03 0.00000000D+00  -5  7  0 0.00000000D+00 0.00000000D+00 0.00000000D+00 0.00000000D+00 0.00000000D+00
  <mgrwgt>
 0.3743315981D-03    3    2    0
 0.321562951967453D+03 0.000000000000000D+00 0.000000000000000D+00 0.321562951967453D+03
 0.321562951967453D+03 0.000000000000000D+00 0.000000000000000D+00 -.321562951967453D+03
 0.136903753740594D+03 -.912251511281914D+02 -.435461794483173D+02 0.144598928543339D+02
 0.177502740342595D+03 0.131915872249508D+03 -.211583608083288D+02 0.116866373459976D+03
 0.801234704599055D+02 0.854302346574783D+01 -.396221641741036D+02 0.691149142715479D+02
 0.248595939391813D+03 -.492337445870647D+02 0.104326704430750D+03 -.200441180585858D+03
 0.000000000000000D+00 -.000000000000000D+00 0.000000000000000D+00 0.000000000000000D+00
 0.209359464573177D+04 0.000000000000000D+00 0.000000000000000D+00 0.209359464573177D+04
 0.532440665220809D+03 0.000000000000000D+00 0.000000000000000D+00 -.532440665220809D+03
 0.137918417828487D+03 0.101264055481586D+02 -.101953940785182D+03 0.144598928543339D+02
 0.385861986771642D+03 0.339678920418359D+03 -.140889866963848D+03 0.116866373459976D+03
 0.143843455218226D+03 0.911396947310032D+02 -.872216961466230D+02 0.691149142715479D+02
 0.260099886220921D+03 0.138367981671953D+03 -.378605883653130D+01 -.200441180585858D+03
 0.169831156491330D+04 -.579313002369474D+03 0.333851562732185D+03 0.156115398051096D+04
0.202290413071D-04 0.000000000000D+00 0.000000000000D+00 0.163062098900D-06 0.000000000000D+00  7 -1 1 23 -13 13 23 21 0 0.13742418D+00 0.17809107D-01 0.52285656D+05 0.52285656D+05 0.52285656D+05 0.11455918D+01  1  2  2  2  7  2        1 0.367386425674D-03 0.100000000000D+01
-.964989160622D-06 0.000000000000D+00 -.776848450483D-07 0.163062098900D-06 0.000000000000D+00  7 -1 1 23 -13 13 23 21 2 0.13742418D+00 0.17809107D-01 0.52285656D+05 0.52285656D+05 0.52285656D+05 0.11455918D+01  1  2  3  2  7  2        1 -.230001152962D-04 0.100000000000D+01
0.125637970433D-05 0.000000000000D+00 0.000000000000D+00 0.163062098900D-06 0.000000000000D+00  7 -1 1 23 -13 13 23 21 2 0.13742418D+00 0.17809107D-01 0.52285656D+05 0.52285656D+05 0.52285656D+05 0.11455918D+01  1  2 15  2  7  2        1 0.299452877136D-04 0.100000000000D+01
  </mgrwgt>
  </event>
  <event>
  9     66 0.58687835E-06 0.52014114E+03 0.75467711E-02 0.92694766E-01
       -1 -1    0    0    0  501 0.00000000E+00 0.00000000E+00 0.48158064E+03 0.48158075E+03 0.32000000E+00 0.0000E+00 0.9000E+01
        1 -1    0    0  502    0 0.00000000E+00 0.00000000E+00 -.99155611E+03 0.99155617E+03 0.32000000E+00 0.0000E+00 0.9000E+01
       25  2    1    2    0    0 -.44009426E+03 -.33218960E+03 -.61454125E+03 0.87841526E+03 0.29986584E+03 0.0000E+00 0.0000E+00
       23  2    1    2    0    0 0.29709263E+03 0.31282752E+03 0.71153981E+02 0.44659581E+03 0.90883659E+02 0.0000E+00 0.0000E+00
       23  1    3    3    0    0 -.39970037E+03 -.28602809E+03 -.41122288E+03 0.64729589E+03 0.91188000E+02 0.0000E+00 0.9000E+01
      -13  1    4    4    0    0 0.17397154E+03 0.13837547E+03 0.70053181E+02 0.23306936E+03 0.10565837E+00 0.0000E+00 0.9000E+01
       13  1    4    4    0    0 0.12312109E+03 0.17445206E+03 0.11008004E+01 0.21352645E+03 0.10565837E+00 0.0000E+00 0.9000E+01
       23  1    3    3    0    0 -.40393885E+02 -.46161505E+02 -.20331837E+03 0.23111936E+03 0.91188000E+02 0.0000E+00 0.9000E+01
       21  1    1    2  502  501 0.14300163E+03 0.19362076E+02 0.33411800E+02 0.14812585E+03 0.75000000E+00 0.0000E+00 0.9000E+01
#aMCatNLO 2  0  0  2  1 0.14430647D+03 0.00000000D+00  -5  7  0 0.00000000D+00 0.00000000D+00 0.00000000D+00 0.00000000D+00 0.00000000D+00
  <mgrwgt>
 0.3030802130D-04    1    2    0
 0.599908376823042D+03 0.000000000000000D+00 0.000000000000000D+00 0.599908376823042D+03
 0.599908376823042D+03 0.000000000000000D+00 0.000000000000000D+00 -.599908376823042D+03
 0.476343603305019D+03 -.340252383474973D+03 -.277978979244713D+03 -.159824840695294D+03
 0.312083517339200D+03 0.209547452588268D+03 0.143192299898600D+03 0.181609339402807D+03
 0.253794794011193D+03 0.152122335757007D+03 0.178378814592766D+03 0.972192930209636D+02
 0.157594838990671D+03 -.214174048703018D+02 -.435921352466530D+02 -.119003791728477D+03
 0.000000000000000D+00 0.000000000000000D+00 0.000000000000000D+00 0.000000000000000D+00
 0.744568099422567D+03 0.000000000000000D+00 0.000000000000000D+00 0.744568099422567D+03
 0.641329124025435D+03 0.000000000000000D+00 0.000000000000000D+00 -.641329124025435D+03
 0.524815864029473D+03 -.399700374864600D+03 -.286028093764973D+03 -.159824840695294D+03
 0.287046737858144D+03 0.173971611361831D+03 0.138375416880478D+03 0.181609339402807D+03
 0.234614392124702D+03 0.123121016747035D+03 0.174452106011144D+03 0.972192930209636D+02
 0.161986741096440D+03 -.403938852824420D+02 -.461615048831759D+02 -.119003791728477D+03
 0.177433488339244D+03 0.143001632038176D+03 0.193620757565271D+02 0.103238975397131D+03
0.744684831731D-05 0.000000000000D+00 0.000000000000D+00 0.229905933512D-05 0.717253604941D-09  7 -1 1 23 -13 13 23 21 2 0.74089253D-01 0.15254692D+00 0.35397094D+06 0.35397094D+06 0.35397094D+06 0.10792760D+01  1  2  1  2  7  2        1 0.303080213006D-04 0.100000000000D+01
  </mgrwgt>
  </event>
  <event>
  8     66 0.58687835E-06 0.36000959E+03 0.75467711E-02 0.89104541E-01
       -1 -1    0    0    0  501 0.00000000E+00 0.00000000E+00 0.89472219E+03 0.89472225E+03 0.32000000E+00 0.0000E+00 0.9000E+01
        1 -1    0    0  501    0 0.00000000E+00 0.00000000E+00 -.67308005E+03 0.67308012E+03 0.32000000E+00 0.0000E+00 0.9000E+01
       25  2    1    2    0    0 -.33639650E+03 -.63579541E+03 -.77263089E+02 0.78344567E+03 0.30069772E+03 0.0000E+00 0.0000E+00
       23  2    1    2    0    0 0.33639650E+03 0.63579541E+03 0.29890523E+03 0.78435671E+03 0.92047248E+02 0.0000E+00 0.0000E+00
       23  1    3    3    0    0 -.26528207E+02 -.72872374E+02 -.60716564E+02 0.13422325E+03 0.91188000E+02 0.0000E+00 0.9000E+01
      -13  1    4    4    0    0 0.18715870E+03 0.40998089E+03 0.22527786E+03 0.50384803E+03 0.10565837E+00 0.0000E+00 0.9000E+01
       13  1    4    4    0    0 0.14923780E+03 0.22581452E+03 0.73627376E+02 0.28050868E+03 0.10565837E+00 0.0000E+00 0.9000E+01
       23  1    3    3    0    0 -.30986830E+03 -.56292303E+03 -.16546524E+02 0.64922241E+03 0.91188000E+02 0.0000E+00 0.9000E+01
#aMCatNLO 1  0  0  2  1 0.17797293D+03 0.00000000D+00  -5  7  0 0.00000000D+00 0.00000000D+00 0.00000000D+00 0.00000000D+00 0.00000000D+00
  <mgrwgt>
 0.1532856810D-03    9    2    0
 0.776028194948643D+03 0.000000000000000D+00 0.000000000000000D+00 0.776028194948643D+03
 0.776028194948643D+03 0.000000000000000D+00 0.000000000000000D+00 -.776028194948643D+03
 0.144255635971918D+03 -.265282069536525D+02 -.728723743436014D+02 -.805003630986391D+02
 0.476789045663221D+03 0.187158754707153D+03 0.409981134660292D+03 0.155611258665860D+03
 0.272839844143598D+03 0.149237749172427D+03 0.225814273813419D+03 0.343160096218752D+02
 0.658171864118549D+03 -.309868296925927D+03 -.562923034130109D+03 -.109426905189096D+03
 0.000000000000000D+00 0.000000000000000D+00 0.000000000000000D+00 -.000000000000000D+00
 0.864606140527477D+03 0.000000000000000D+00 0.000000000000000D+00 0.864606140527477D+03
 0.875955350892312D+03 0.000000000000000D+00 0.000000000000000D+00 -.875955350892312D+03
 0.151191451605476D+03 -.421443509461330D+02 -.792915438044148D+02 -.805003630986391D+02
 0.442190050461760D+03 0.138585218210849D+03 0.390014505111351D+03 0.155611258665860D+03
 0.248955197698445D+03 0.121657763277886D+03 0.214477249560239D+03 0.343160096218752D+02
 0.719890364623325D+03 -.382707120185590D+03 -.592864148278080D+03 -.109426905189096D+03
 0.178334427030783D+03 0.164608489642988D+03 0.676639374109045D+02 -.113492103648345D+02
0.581996376403D-04 0.000000000000D+00 0.000000000000D+00 0.128359681446D-05 0.000000000000D+00  7 -1 1 23 -13 13 23 21 0 0.13764958D+00 0.10355079D+00 0.55507763D+06 0.55507763D+06 0.55507763D+06 0.10653176D+01  1  2  2  2  7  2        1 0.902354514153D-04 0.100000000000D+01
-.322678282316D-05 0.000000000000D+00 -.223501932855D-06 0.128359681446D-05 0.000000000000D+00  7 -1 1 23 -13 13 23 21 2 0.13764958D+00 0.10355079D+00 0.55507763D+06 0.55507763D+06 0.55507763D+06 0.10653176D+01  1  2  3  2  7  2        1 -.567786256474D-05 0.100000000000D+01
0.377726576933D-05 0.000000000000D+00 0.000000000000D+00 0.128359681446D-05 0.000000000000D+00  7 -1 1 23 -13 13 23 21 2 0.13764958D+00 0.10355079D+00 0.55507763D+06 0.55507763D+06 0.55507763D+06 0.10653176D+01  1  2 15  2  7  2        1 0.664649500264D-05 0.100000000000D+01
0.485254114282D-04 0.000000000000D+00 0.000000000000D+00 0.128359681446D-05 0.000000000000D+00  7 -1 1 23 -13 13 23 21 2 0.13764958D+00 0.12210365D+00 0.70388766D+06 0.70388766D+06 0.70388766D+06 0.10581686D+01  1  2 12  2  7  2        1 0.642723243724D-04 0.100000000000D+01
-.415620633584D-04 0.000000000000D+00 0.000000000000D+00 0.128359681446D-05 0.000000000000D+00  7 -1 1 23 -13 13 23 21 2 0.13764958D+00 0.10355079D+00 0.55507763D+06 0.55507763D+06 0.55507763D+06 0.10653176D+01  1  2  4  2  7  2        1 -.731328064479D-04 0.100000000000D+01
-.133058578365D-03 0.000000000000D+00 -.389786063749D-04 0.128359681446D-05 0.000000000000D+00  7 -1 1 23 -13 13 23 21 2 0.13764958D+00 0.12733697D+00 0.55507763D+06 0.55507763D+06 0.55507763D+06 0.10653176D+01  1  2  5  2  7  2        1 -.169133719775D-03 0.100000000000D+01
0.138955874249D-03 0.000000000000D+00 0.381599174270D-04 0.128359681446D-05 0.000000000000D+00  7 -1 1 23 -13 13 23 21 2 0.13764958D+00 0.10355079D+00 0.55507763D+06 0.55507763D+06 0.55507763D+06 0.10653176D+01  1  2  6  2  7  2        1 0.244507424202D-03 0.100000000000D+01
0.119379042779D-05 0.000000000000D+00 0.000000000000D+00 0.128359681446D-05 0.000000000000D+00  7 -1 21 23 -13 13 23 -1 2 0.13764958D+00 0.12210365D+00 0.70388766D+06 0.70388766D+06 0.70388766D+06 0.10581686D+01  1  2 12  4  7  2        1 0.269262100375D-05 0.100000000000D+01
-.343065317273D-05 0.000000000000D+00 -.114421877844D-05 0.128359681446D-05 0.000000000000D+00  7 -1 21 23 -13 13 23 -1 2 0.13764958D+00 0.12733697D+00 0.55507763D+06 0.55507763D+06 0.55507763D+06 0.10653176D+01  1  2  5  4  7  2        1 -.712424617896D-05 0.100000000000D+01
  </mgrwgt>
  </event>
  <event>
  9     66 -.58687835E-06 0.25898460E+03 0.75467711E-02 0.10203504E+00
       -1 -1    0    0    0  501 0.00000000E+00 0.00000000E+00 0.14535660E+04 0.14535660E+04 0.32000000E+00 0.0000E+00 0.9000E+01
        1 -1    0    0  502    0 0.00000000E+00 0.00000000E+00 -.97721221E+02 0.97721745E+02 0.32000000E+00 0.0000E+00 0.9000E+01
       25  2    1    2    0    0 0.74376477E+02 0.12840879E+03 0.23723362E+03 0.40952869E+03 0.29902053E+03 0.0000E+00 0.0000E+00
       23  2    1    2    0    0 -.92964542E+02 -.14614289E+03 0.10570703E+04 0.10750669E+04 0.91493089E+02 0.0000E+00 0.0000E+00
       23  1    3    3    0    0 -.67964092E+02 -.69191666E+01 0.11000702E+03 0.15837862E+03 0.91188000E+02 0.0000E+00 0.9000E+01
      -11  1    4    4    0    0 -.45727021E+02 -.11460581E+02 0.16314526E+03 0.16981956E+03 0.51099893E-03 0.0000E+00 0.9000E+01
       11  1    4    4    0    0 -.47237521E+02 -.13468230E+03 0.89392504E+03 0.90524731E+03 0.51099893E-03 0.0000E+00 0.9000E+01
       23  1    3    3    0    0 0.14234057E+03 0.13532796E+03 0.12722660E+03 0.25115006E+03 0.91188000E+02 0.0000E+00 0.9000E+01
       21  1    1    2  502  501 0.18588065E+02 0.17734096E+02 0.61540828E+02 0.66692206E+02 0.75000000E+00 0.0000E+00 0.9000E+01
#aMCatNLO 2  0  0  2  1 0.25690744D+02 0.00000000D+00  -5  7  0 0.00000000D+00 0.00000000D+00 0.00000000D+00 0.00000000D+00 0.00000000D+00
  <mgrwgt>
 -.1013430667D-03    3    2    0
 0.363366645791138D+03 0.000000000000000D+00 0.000000000000000D+00 0.363366645791138D+03
 0.363366645791138D+03 0.000000000000000D+00 0.000000000000000D+00 -.363366645791138D+03
 0.125712771081481D+03 -.647263056701995D+02 -.383012952770955D+01 -.573086811144143D+02
 0.549040284340339D+02 -.443050695675637D+02 -.101039570594884D+02 0.308127116729209D+02
 0.252704686362542D+03 -.407205575863221D+02 -.128464741739644D+03 0.213771618390319D+03
 0.293411805704219D+03 0.149751932824085D+03 0.142398828326842D+03 -.187275648948826D+03
 0.000000000000000D+00 0.000000000000000D+00 0.000000000000000D+00 0.000000000000000D+00
 0.380366399818803D+03 0.000000000000000D+00 0.000000000000000D+00 0.380366399818803D+03
 0.373431206150474D+03 0.000000000000000D+00 0.000000000000000D+00 -.373431206150474D+03
 0.127540303392652D+03 -.679640923452269D+02 -.691916657594437D+01 -.573086811144143D+02
 0.563181015367728D+02 -.457270208356200D+02 -.114605813799505D+02 0.308127116729209D+02
 0.257038929780071D+03 -.472375212656530D+02 -.134682304620708D+03 0.213771618390319D+03
 0.286289911751782D+03 0.142340569703748D+03 0.135327956291565D+03 -.187275648948826D+03
 0.266103595079984D+02 0.185880647427515D+02 0.177340962850374D+02 0.693519366832819D+01
-.290917027837D-04 0.000000000000D+00 0.000000000000D+00 0.221317534912D-06 0.000000000000D+00  7 -1 1 23 -11 11 23 21 2 0.21362806D+00 0.15363795D-01 0.74539405D+05 0.74539405D+05 0.74539405D+05 0.11323472D+01  1  2 13  2  7  2        1 -.198508722158D-03 0.100000000000D+01
-.306842109620D-05 0.000000000000D+00 0.000000000000D+00 0.221317534912D-06 0.000000000000D+00  7 -1 1 23 -11 11 23 21 2 0.21362806D+00 0.14628679D-01 0.67073024D+05 0.67073024D+05 0.67073024D+05 0.11362399D+01  1  2  8  2  7  2        1 -.225736919196D-04 0.100000000000D+01
0.205063218742D-04 0.000000000000D+00 0.000000000000D+00 0.221317534912D-06 0.229463111842D-08  7 -1 1 23 -11 11 23 21 2 0.22362244D+00 0.15033866D-01 0.74539405D+05 0.74539405D+05 0.74539405D+05 0.11323472D+01  1  2  1  2  7  2        1 0.119739347356D-03 0.100000000000D+01
  </mgrwgt>
  </event>
  <event>
  8     66 0.58687835E-06 0.38333675E+03 0.75467711E-02 0.94205439E-01
       -1 -1    0    0    0  501 0.00000000E+00 0.00000000E+00 0.46394057E+03 0.46394068E+03 0.32000000E+00 0.0000E+00 0.9000E+01
        1 -1    0    0  501    0 0.00000000E+00 0.00000000E+00 -.39311381E+03 0.39311394E+03 0.32000000E+00 0.0000E+00 0.9000E+01
       25  2    1    2    0    0 0.27579063E+03 -.18983909E+03 -.11555870E+03 0.46303731E+03 0.29824551E+03 0.0000E+00 0.0000E+00
       23  2    1    2    0    0 -.27579063E+03 0.18983909E+03 0.18638546E+03 0.39401731E+03 0.91710163E+02 0.0000E+00 0.0000E+00
       23  1    3    3    0    0 0.20203756E+03 -.24646215E+02 -.13303604E+03 0.25969299E+03 0.91188000E+02 0.0000E+00 0.9000E+01
      -13  1    4    4    0    0 -.10292267E+02 -.52793018E+01 -.54145216E+01 0.12772235E+02 0.10565837E+00 0.0000E+00 0.9000E+01
       13  1    4    4    0    0 -.26549836E+03 0.19511839E+03 0.19179998E+03 0.38124508E+03 0.10565837E+00 0.0000E+00 0.9000E+01
       23  1    3    3    0    0 0.73753068E+02 -.16519288E+03 0.17477338E+02 0.20334432E+03 0.91188000E+02 0.0000E+00 0.9000E+01
#aMCatNLO 1  0  0  1  2 0.23970330D+03 0.00000000D+00  -5  7  0 0.00000000D+00 0.00000000D+00 0.00000000D+00 0.00000000D+00 0.00000000D+00
  <mgrwgt>
 0.2910601464D-03    3    2    0
 0.427061527721214D+03 0.000000000000000D+00 0.000000000000000D+00 0.427061527721214D+03
 0.427061527721214D+03 0.000000000000000D+00 0.000000000000000D+00 -.427061527721214D+03
 0.271616119520732D+03 0.202037558131676D+03 -.246462151949843D+02 -.155027269279481D+03
 0.132645942027680D+02 -.102919284287665D+02 -.527956770886703D+01 -.649244433081581D+01
 0.366649377389307D+03 -.265498698153205D+03 0.195118660096727D+03 0.160844383492174D+03
 0.202592964329621D+03 0.737530684502956D+02 -.165192877192876D+03 0.675330118123100D+00
 0.000000000000000D+00 0.000000000000000D+00 0.000000000000000D+00 -.000000000000000D+00
 0.461179701751571D+03 0.000000000000000D+00 0.000000000000000D+00 0.461179701751571D+03
 0.125883379770066D+04 0.000000000000000D+00 0.000000000000000D+00 -.125883379770066D+04
 0.278248878137565D+03 0.187813842030003D+03 -.989934006006967D+02 -.155027269279481D+03
 0.157750761911620D+02 -.110431165006177D+02 -.920601832509623D+01 -.649244433081581D+01
 0.341032256285543D+03 -.283804759987703D+03 0.994331048220530D+02 0.160844383492174D+03
 0.252064901029252D+03 0.619921372620989D+02 -.226667116789788D+03 0.675330118123100D+00
 0.832892387808710D+03 0.450418971962189D+02 0.235433430893528D+03 -.797654095949092D+03
0.185686079121D-04 0.000000000000D+00 0.000000000000D+00 0.113986708213D-06 0.000000000000D+00  7 -1 1 23 -13 13 23 21 0 0.71375490D-01 0.60479067D-01 0.14694707D+06 0.14694707D+06 0.14694707D+06 0.11082573D+01  1  2  2  1  7  1       -1 0.287204568046D-03 0.100000000000D+01
-.101695575446D-05 0.000000000000D+00 -.713083436092D-07 0.113986708213D-06 0.000000000000D+00  7 -1 1 23 -13 13 23 21 2 0.71375490D-01 0.60479067D-01 0.14694707D+06 0.14694707D+06 0.14694707D+06 0.11082573D+01  1  2  3  1  7  1       -1 -.193194727807D-04 0.100000000000D+01
0.121990915100D-05 0.000000000000D+00 0.000000000000D+00 0.113986708213D-06 0.000000000000D+00  7 -1 1 23 -13 13 23 21 2 0.71375490D-01 0.60479067D-01 0.14694707D+06 0.14694707D+06 0.14694707D+06 0.11082573D+01  1  2 15  1  7  1       -1 0.231750511606D-04 0.100000000000D+01
  </mgrwgt>
  </event>
  <event>
  7     66 0.58687835E-06 0.63126044E+02 0.75467711E-02 0.98468364E-01
       -1 -1    0    0    0  501 0.00000000E+00 0.00000000E+00 0.66838181E+02 0.66838947E+02 0.32000000E+00 0.0000E+00 0.9000E+01
        1 -1    0    0  501    0 0.00000000E+00 0.00000000E+00 -.21504640E+04 0.21504640E+04 0.32000000E+00 0.0000E+00 0.9000E+01
       25  2    1    2    0    0 0.67232810E+02 -.11209327E+03 -.18801592E+04 0.19090534E+04 0.30397532E+03 0.0000E+00 0.0000E+00
       23  1    3    3    0    0 0.11546040E+03 -.67594491E+02 -.52880048E+03 0.55303283E+03 0.91188000E+02 0.0000E+00 0.9000E+01
      -11  1    1    2    0    0 -.17190699E+02 0.15016270E+03 -.83179411E+02 0.17252006E+03 0.51099893E-03 0.0000E+00 0.9000E+01
       11  1    1    2    0    0 -.50042112E+02 -.38069431E+02 -.12028718E+03 0.13572951E+03 0.51099893E-03 0.0000E+00 0.9000E+01
       23  1    3    3    0    0 -.48227589E+02 -.44498782E+02 -.13513588E+04 0.13560206E+04 0.91188000E+02 0.0000E+00 0.9000E+01
#aMCatNLO 1  0  0  2  1 0.21287567D+03 0.00000000D+00  -5  7  0 0.00000000D+00 0.00000000D+00 0.00000000D+00 0.00000000D+00 0.00000000D+00
  <mgrwgt>
 0.4838124023D-03    9    2    0
 0.379122642309651D+03 0.000000000000000D+00 0.000000000000000D+00 0.379122642309651D+03
 0.379122642309651D+03 0.000000000000000D+00 0.000000000000000D+00 -.379122642309651D+03
 0.164088087922310D+03 0.115460400572182D+03 -.675944919156573D+02 -.266370008892701D+02
 0.275919264016797D+03 -.171907048025936D+02 0.150162699491236D+03 0.230839952359781D+03
 0.663637094587792D+02 -.500421076426942D+02 -.380694231030200D+02 0.212284813495810D+02
 0.251874223221417D+03 -.482275881268945D+02 -.444987844725591D+02 -.225431432820092D+03
 0.000000000000000D+00 -.000000000000000D+00 0.000000000000000D+00 -.000000000000000D+00
 0.459067745272007D+03 0.000000000000000D+00 0.000000000000000D+00 0.459067745272007D+03
 0.567305750755386D+03 0.000000000000000D+00 0.000000000000000D+00 -.567305750755386D+03
 0.207961386862159D+03 0.160711934379507D+03 -.916233126079518D+02 -.266370008892701D+02
 0.262552881693227D+03 0.483024410216703D+02 0.115385468198122D+03 0.230839952359781D+03
 0.615336347538578D+02 -.344862437381476D+02 -.463296749227180D+02 0.212284813495810D+02
 0.255512865466071D+03 0.134847527128365D+02 -.772683869097614D+02 -.225431432820092D+03
 0.238812727252079D+03 -.188012884375866D+03 0.998359062423091D+02 -.108238005483379D+03
0.268450208981D-04 0.000000000000D+00 0.000000000000D+00 0.108927718392D-10 0.000000000000D+00  7 -1 1 23 -11 11 23 21 0 0.10282858D-01 0.33084068D+00 0.59603474D+05 0.59603474D+05 0.59603474D+05 0.11406438D+01  1  2  2  2  7  2        1 0.464230726626D-03 0.100000000000D+01
-.114013290000D-05 0.000000000000D+00 -.103091948705D-06 0.108927718392D-10 0.000000000000D+00  7 -1 1 23 -11 11 23 21 2 0.10282858D-01 0.33084068D+00 0.59603474D+05 0.59603474D+05 0.59603474D+05 0.11406438D+01  1  2  3  2  7  2        1 -.256522645098D-04 0.100000000000D+01
0.167318921859D-05 0.000000000000D+00 0.000000000000D+00 0.108927718392D-10 0.000000000000D+00  7 -1 1 23 -11 11 23 21 2 0.10282858D-01 0.33084068D+00 0.59603474D+05 0.59603474D+05 0.59603474D+05 0.11406438D+01  1  2 15  2  7  2        1 0.376456923664D-04 0.100000000000D+01
0.332608527917D-06 0.000000000000D+00 0.000000000000D+00 0.108927718392D-10 0.000000000000D+00  7 -1 1 23 -11 11 23 21 2 0.10282858D-01 0.51600424D+00 0.13041074D+06 0.13041074D+06 0.13041074D+06 0.11123803D+01  1  2 12  2  7  2        1 0.957290109996D-06 0.100000000000D+01
-.117146159776D-04 0.000000000000D+00 0.000000000000D+00 0.108927718392D-10 0.000000000000D+00  7 -1 1 23 -11 11 23 21 2 0.10282858D-01 0.33084068D+00 0.59603474D+05 0.59603474D+05 0.59603474D+05 0.11406438D+01  1  2  4  2  7  2        1 -.263571402675D-03 0.100000000000D+01
-.107435966521D-04 0.000000000000D+00 -.739707525158D-05 0.108927718392D-10 0.000000000000D+00  7 -1 1 23 -11 11 23 21 2 0.10282858D-01 0.52275429D+00 0.59603474D+05 0.59603474D+05 0.59603474D+05 0.11406438D+01  1  2  5  2  7  2        1 -.314281760119D-04 0.100000000000D+01
0.134113763990D-04 0.000000000000D+00 0.668523617227D-05 0.108927718392D-10 0.000000000000D+00  7 -1 1 23 -11 11 23 21 2 0.10282858D-01 0.33084068D+00 0.59603474D+05 0.59603474D+05 0.59603474D+05 0.11406438D+01  1  2  6  2  7  2        1 0.301747432100D-03 0.100000000000D+01
0.171233312046D-07 0.000000000000D+00 0.000000000000D+00 0.108927718392D-10 0.000000000000D+00  7 -1 21 23 -11 11 23 -1 2 0.10282858D-01 0.51600424D+00 0.13041074D+06 0.13041074D+06 0.13041074D+06 0.11123803D+01  1  2 12  4  7  2        1 0.798129396920D-08 0.100000000000D+01
-.264907353275D-06 0.000000000000D+00 -.389236554296D-06 0.108927718392D-10 0.000000000000D+00  7 -1 21 23 -11 11 23 -1 2 0.10282858D-01 0.52275429D+00 0.59603474D+05 0.59603474D+05 0.59603474D+05 0.11406438D+01  1  2  5  4  7  2        1 -.124876987658D-06 0.100000000000D+01
  </mgrwgt>
  </event>
  <event>
  8     66 0.58687835E-06 0.33834699E+03 0.75467711E-02 0.91857978E-01
       -1 -1    0    0    0  501 0.00000000E+00 0.00000000E+00 0.81928867E+02 0.81929491E+02 0.32000000E+00 0.0000E+00 0.9000E+01
        1 -1    0    0  501    0 0.00000000E+00 0.00000000E+00 -.27405563E+04 0.27405564E+04 0.32000000E+00 0.0000E+00 0.9000E+01
       25  2    1    2    0    0 -.19980565E+03 -.18525852E+03 -.24104242E+04 0.24442477E+04 0.29993149E+03 0.0000E+00 0.0000E+00
       23  2    1    2    0    0 0.19980565E+03 0.18525852E+03 -.24820329E+03 0.37823818E+03 0.84948408E+02 0.0000E+00 0.0000E+00
       23  1    3    3    0    0 0.30257934E+02 -.88576600E+02 -.10519212E+04 0.10600070E+04 0.91188000E+02 0.0000E+00 0.9000E+01
      -13  1    4    4    0    0 0.46297909E+02 0.10039914E+02 -.71850222E+02 0.86062546E+02 0.10565837E+00 0.0000E+00 0.9000E+01
       13  1    4    4    0    0 0.15350774E+03 0.17521861E+03 -.17635307E+03 0.29217564E+03 0.10565837E+00 0.0000E+00 0.9000E+01
       23  1    3    3    0    0 -.23006358E+03 -.96681922E+02 -.13585030E+04 0.13842407E+04 0.91188000E+02 0.0000E+00 0.9000E+01
#aMCatNLO 1  0  0  2  1 0.50947447D+03 0.00000000D+00  -5  7  0 0.00000000D+00 0.00000000D+00 0.00000000D+00 0.00000000D+00 0.00000000D+00
  <mgrwgt>
 0.5285982859D-03    3    2    0
 0.473847636164757D+03 0.000000000000000D+00 0.000000000000000D+00 0.473847636164757D+03
 0.473847636164757D+03 0.000000000000000D+00 0.000000000000000D+00 -.473847636164757D+03
 0.205960848780587D+03 0.302579337350093D+02 -.885766001250075D+02 -.159195675955103D+03
 0.547505879455969D+02 0.462977426824151D+02 0.100396590177148D+02 0.274472430256564D+02
 0.375442369174681D+03 0.153507907144575D+03 0.175218863268963D+03 0.294432751184922D+03
 0.311541466428650D+03 -.230063583562000D+03 -.966819221616706D+02 -.162684318255476D+03
 0.000000000000000D+00 0.000000000000000D+00 0.000000000000000D+00 0.000000000000000D+00
 0.807725629714261D+03 0.000000000000000D+00 0.000000000000000D+00 0.807725629714261D+03
 0.778544181482519D+03 0.000000000000000D+00 0.000000000000000D+00 -.778544181482519D+03
 0.232827883447140D+03 -.749749187900454D+02 -.122184574624210D+03 -.159195675955103D+03
 0.368091941255229D+02 0.243393459957021D+02 0.302685628375195D+01 0.274472430256564D+02
 0.318985956276395D+03 -.130339117175550D+02 0.122030784954384D+03 0.294432751184922D+03
 0.487337266881151D+03 -.421655303570348D+03 -.157870129891436D+03 -.162684318255476D+03
 0.510309510466571D+03 0.485324788082246D+03 0.154997063277510D+03 0.291814482317416D+02
0.105981508690D-03 0.000000000000D+00 0.000000000000D+00 0.717791098627D-07 0.000000000000D+00  7 -1 1 23 -13 13 23 21 0 0.12604491D-01 0.42162410D+00 0.11447869D+06 0.11447869D+06 0.11447869D+06 0.11169346D+01  1  2  2  2  7  2        1 0.518466588975D-03 0.100000000000D+01
-.507574386606D-05 0.000000000000D+00 -.406996898943D-06 0.717791098627D-07 0.000000000000D+00  7 -1 1 23 -13 13 23 21 2 0.12604491D-01 0.42162410D+00 0.11447869D+06 0.11447869D+06 0.11447869D+06 0.11169346D+01  1  2  3  2  7  2        1 -.309774659390D-04 0.100000000000D+01
0.673585056114D-05 0.000000000000D+00 0.000000000000D+00 0.717791098627D-07 0.000000000000D+00  7 -1 1 23 -13 13 23 21 2 0.12604491D-01 0.42162410D+00 0.11447869D+06 0.11447869D+06 0.11447869D+06 0.11169346D+01  1  2 15  2  7  2        1 0.411091628803D-04 0.100000000000D+01
  </mgrwgt>
  </event>
  <event>
  8     66 0.58687835E-06 0.95819256E+02 0.75467711E-02 0.10518130E+00
       -3 -1    0    0    0  501 0.00000000E+00 0.00000000E+00 0.69940305E+03 0.69940323E+03 0.50000000E+00 0.0000E+00 0.9000E+01
        3 -1    0    0  501    0 0.00000000E+00 0.00000000E+00 -.29055883E+03 0.29055926E+03 0.50000000E+00 0.0000E+00 0.9000E+01
       25  2    1    2    0    0 -.84579637E+02 0.34386272E+01 0.64844538E+03 0.71935282E+03 0.29970240E+03 0.0000E+00 0.0000E+00
       23  2    1    2    0    0 0.84579637E+02 -.34386272E+01 -.23960115E+03 0.27060967E+03 0.93034107E+02 0.0000E+00 0.0000E+00
       23  1    3    3    0    0 0.43977472E+02 0.81846642E+02 0.21252538E+03 0.24922917E+03 0.91188000E+02 0.0000E+00 0.9000E+01
      -13  1    4    4    0    0 -.14063247E+01 -.20311979E+02 -.61722684E+01 0.21275862E+02 0.10565837E+00 0.0000E+00 0.9000E+01
       13  1    4    4    0    0 0.85985962E+02 0.16873352E+02 -.23342888E+03 0.24933381E+03 0.10565837E+00 0.0000E+00 0.9000E+01
       23  1    3    3    0    0 -.12855711E+03 -.78408015E+02 0.43592000E+03 0.47012365E+03 0.91188000E+02 0.0000E+00 0.9000E+01
#aMCatNLO 1  0  0  1  2 0.21223416D+02 0.00000000D+00  -5  7  0 0.00000000D+00 0.00000000D+00 0.00000000D+00 0.00000000D+00 0.00000000D+00
  <mgrwgt>
 0.2601099464D-04    9    2    0
 0.450797106440537D+03 0.000000000000000D+00 0.000000000000000D+00 0.450797106440537D+03
 0.450797106440537D+03 0.000000000000000D+00 0.000000000000000D+00 -.450797106440537D+03
 0.177283472705782D+03 0.439774718223361D+02 0.818466424600538D+02 0.120338221030367D+03
 0.261596513701840D+02 -.140643735468750D+01 -.203120265404792D+02 -.164247030900341D+02
 0.379624863759892D+03 0.859860745203586D+02 0.168733993762563D+02 -.369373416161457D+03
 0.318526225045216D+03 -.128557108988007D+03 -.784080152958309D+02 0.265459898221125D+03
 0.000000000000000D+00 0.000000000000000D+00 0.000000000000000D+00 0.000000000000000D+00
 0.466052225728454D+03 0.000000000000000D+00 0.000000000000000D+00 0.466052225728454D+03
 0.458364590751402D+03 0.000000000000000D+00 0.000000000000000D+00 -.458364590751402D+03
 0.175147960681204D+03 0.421928568392854D+02 0.781027027558641D+02 0.120338221030367D+03
 0.266127598999261D+02 -.167366220162941D+01 -.208726369376314D+02 -.164247030900341D+02
 0.378500541585454D+03 0.821471378386662D+02 0.881970286414447D+01 -.369373416161457D+03
 0.321582714400770D+03 -.131798443034581D+03 -.852080026022045D+02 0.265459898221125D+03
 0.225728399125026D+02 0.913211055825895D+01 0.191582339198273D+02 0.768763497705141D+01
0.100930871745D-04 0.000000000000D+00 0.000000000000D+00 0.952946585232D-06 0.000000000000D+00  7 -3 3 23 -13 13 23 21 0 0.10760052D+00 0.44701405D-01 0.42892783D+05 0.42892783D+05 0.42892783D+05 0.11531987D+01  1  2  2  1  7  1       -3 0.144366098371D-04 0.100000000000D+01
-.148292155917D-06 0.000000000000D+00 -.387601123209D-07 0.952946585232D-06 0.000000000000D+00  7 -3 3 23 -13 13 23 21 2 0.10760052D+00 0.44701405D-01 0.42892783D+05 0.42892783D+05 0.42892783D+05 0.11531987D+01  1  2  3  1  7  1       -3 -.282076993362D-06 0.100000000000D+01
0.633717536968D-06 0.000000000000D+00 0.000000000000D+00 0.952946585232D-06 0.000000000000D+00  7 -3 3 23 -13 13 23 21 2 0.10760052D+00 0.44701405D-01 0.42892783D+05 0.42892783D+05 0.42892783D+05 0.11531987D+01  1  2 15  1  7  1       -3 0.120543892806D-05 0.100000000000D+01
0.228852759626D-04 0.000000000000D+00 0.000000000000D+00 0.952946585232D-06 0.000000000000D+00  7 -3 3 23 -13 13 23 21 2 0.11212178D+00 0.44701405D-01 0.46992610D+05 0.46992610D+05 0.46992610D+05 0.11496726D+01  1  2 12  1  7  1       -3 0.387509508049D-04 0.100000000000D+01
-.213245104755D-04 0.000000000000D+00 0.000000000000D+00 0.952946585232D-06 0.000000000000D+00  7 -3 3 23 -13 13 23 21 2 0.10760052D+00 0.44701405D-01 0.42892783D+05 0.42892783D+05 0.42892783D+05 0.11531987D+01  1  2  4  1  7  1       -3 -.405628589230D-04 0.100000000000D+01
-.147149233072D-03 0.000000000000D+00 -.270948265097D-04 0.952946585232D-06 0.000000000000D+00  7 -3 3 23 -13 13 23 21 2 0.11260675D+00 0.44701405D-01 0.42892783D+05 0.42892783D+05 0.42892783D+05 0.11531987D+01  1  2  5  1  7  1       -3 -.248020717998D-03 0.100000000000D+01
0.148256066787D-03 0.000000000000D+00 0.270668334119D-04 0.952946585232D-06 0.000000000000D+00  7 -3 3 23 -13 13 23 21 2 0.10760052D+00 0.44701405D-01 0.42892783D+05 0.42892783D+05 0.42892783D+05 0.11531987D+01  1  2  6  1  7  1       -3 0.282008345677D-03 0.100000000000D+01
0.350605849052D-06 0.000000000000D+00 0.000000000000D+00 0.952946585232D-06 0.000000000000D+00  7 21 3 23 -13 13 23 3 2 0.11212178D+00 0.44701405D-01 0.46992610D+05 0.46992610D+05 0.46992610D+05 0.11496726D+01  1  2 12  3  7  1       -3 0.940166784998D-05 0.100000000000D+01
-.115356179894D-05 0.000000000000D+00 -.216060045004D-06 0.952946585232D-06 0.000000000000D+00  7 21 3 23 -13 13 23 3 2 0.11260675D+00 0.44701405D-01 0.42892783D+05 0.42892783D+05 0.42892783D+05 0.11531987D+01  1  2  5  3  7  1       -3 -.309263645446D-04 0.100000000000D+01
  </mgrwgt>
  </event>
  <event>
  8     66 0.58687835E-06 0.17092950E+03 0.75467711E-02 0.99621977E-01
       -3 -1    0    0    0  501 0.00000000E+00 0.00000000E+00 0.72909130E+02 0.72910844E+02 0.50000000E+00 0.0000E+00 0.9000E+01
        3 -1    0    0  501    0 0.00000000E+00 0.00000000E+00 -.86251352E+03 0.86251367E+03 0.50000000E+00 0.0000E+00 0.9000E+01
       25  2    1    2    0    0 0.11087601E+02 0.29618936E+02 -.26246783E+03 0.39984878E+03 0.29998246E+03 0.0000E+00 0.0000E+00
       23  2    1    2    0    0 -.11087601E+02 -.29618936E+02 -.52713657E+03 0.53557573E+03 0.89264690E+02 0.0000E+00 0.0000E+00
       23  1    3    3    0    0 -.50595534E+02 0.11987105E+03 -.14873900E+03 0.21764080E+03 0.91188000E+02 0.0000E+00 0.9000E+01
      -11  1    4    4    0    0 0.83479591E+01 -.83876884E+01 -.53350569E+01 0.12980931E+02 0.51099893E-03 0.0000E+00 0.9000E+01
       11  1    4    4    0    0 -.19435560E+02 -.21231248E+02 -.52180151E+03 0.52259480E+03 0.51099893E-03 0.0000E+00 0.9000E+01
       23  1    3    3    0    0 0.61683134E+02 -.90252110E+02 -.11372883E+03 0.18220799E+03 0.91188000E+02 0.0000E+00 0.9000E+01
#aMCatNLO 1  0  0  1  2 0.23308939D+03 0.00000000D+00  -5  7  0 0.00000000D+00 0.00000000D+00 0.00000000D+00 0.00000000D+00 0.00000000D+00
  <mgrwgt>
 0.2316549816D-04    3    2    0
 0.250770771806839D+03 0.000000000000000D+00 0.000000000000000D+00 0.250770771806839D+03
 0.250770771806839D+03 0.000000000000000D+00 0.000000000000000D+00 -.250770771806839D+03
 0.171753609853603D+03 -.505955336309301D+02 0.119871046398566D+03 0.652309387151353D+02
 0.158114453252554D+02 0.834795908529383D+01 -.838768839629330D+01 0.104861845182358D+02
 0.153190139506148D+03 -.194355597313362D+02 -.212312477477871D+02 -.150461662821181D+03
 0.160786348928672D+03 0.616831342769726D+02 -.902521102544860D+02 0.747445395878099D+02
 0.000000000000000D+00 -.000000000000000D+00 0.000000000000000D+00 -.000000000000000D+00
 0.333731150995741D+03 0.000000000000000D+00 0.000000000000000D+00 0.333731150995741D+03
 0.513982591284709D+03 0.000000000000000D+00 0.000000000000000D+00 -.513982591284709D+03
 0.142649633815282D+03 0.109042770406758D+02 0.875196438532308D+02 0.652309387151353D+02
 0.226839702638863D+02 0.158779729071306D+02 -.123487820266946D+02 0.104861845182358D+02
 0.165525334149392D+03 0.429077579113079D+02 -.540263692781383D+02 -.150461662821181D+03
 0.222200355450471D+03 0.136598423108615D+03 -.129660600123407D+03 0.747445395878099D+02
 0.294654448601418D+03 -.206288430967729D+03 0.108516107575009D+03 -.180251440288968D+03
0.204295426164D-05 0.000000000000D+00 0.000000000000D+00 0.216364092113D-06 0.000000000000D+00  7 -3 3 23 -11 11 23 21 0 0.11216932D-01 0.13269453D+00 0.29216894D+05 0.29216894D+05 0.29216894D+05 0.11684032D+01  1  2  2  1  7  1       -3 0.226306295529D-04 0.100000000000D+01
-.932244476408D-07 0.000000000000D+00 -.784548228691D-08 0.216364092113D-06 0.000000000000D+00  7 -3 3 23 -11 11 23 21 2 0.11216932D-01 0.13269453D+00 0.29216894D+05 0.29216894D+05 0.29216894D+05 0.11684032D+01  1  2  3  1  7  1       -3 -.140978635391D-05 0.100000000000D+01
0.128593516404D-06 0.000000000000D+00 0.000000000000D+00 0.216364092113D-06 0.000000000000D+00  7 -3 3 23 -11 11 23 21 2 0.11216932D-01 0.13269453D+00 0.29216894D+05 0.29216894D+05 0.29216894D+05 0.11684032D+01  1  2 15  1  7  1       -3 0.194465496139D-05 0.100000000000D+01
  </mgrwgt>
  </event>
  <event>
  8     66 0.58687835E-06 0.41628974E+03 0.75467711E-02 0.89498259E-01
       -1 -1    0    0    0  501 0.00000000E+00 0.00000000E+00 0.24703343E+03 0.24703363E+03 0.32000000E+00 0.0000E+00 0.9000E+01
        1 -1    0    0  501    0 0.00000000E+00 0.00000000E+00 -.79636555E+03 0.79636562E+03 0.32000000E+00 0.0000E+00 0.9000E+01
       25  2    1    2    0    0 -.22754482E+03 0.29983833E+03 -.40786113E+03 0.63083015E+03 0.29986048E+03 0.0000E+00 0.0000E+00
       23  2    1    2    0    0 0.22754482E+03 -.29983833E+03 -.14147100E+03 0.41256910E+03 0.92301414E+02 0.0000E+00 0.0000E+00
       23  1    3    3    0    0 -.19708192E+02 0.17122334E+03 -.27762083E+03 0.33925569E+03 0.91188000E+02 0.0000E+00 0.9000E+01
      -13  1    4    4    0    0 0.15831347E+03 -.19661531E+03 -.47755228E+02 0.25690720E+03 0.10565837E+00 0.0000E+00 0.9000E+01
       13  1    4    4    0    0 0.69231347E+02 -.10322302E+03 -.93715771E+02 0.15566191E+03 0.10565837E+00 0.0000E+00 0.9000E+01
       23  1    3    3    0    0 -.20783663E+03 0.12861499E+03 -.13024030E+03 0.29157446E+03 0.91188000E+02 0.0000E+00 0.9000E+01
#aMCatNLO 1  0  0  1  2 0.59593281D+03 0.00000000D+00  -5  7  0 0.00000000D+00 0.00000000D+00 0.00000000D+00 0.00000000D+00 0.00000000D+00
  <mgrwgt>
 0.2015232410D-03    5    2    0
 0.443541488543661D+03 0.000000000000000D+00 0.000000000000000D+00 0.443541488543661D+03
 0.443541488543661D+03 0.000000000000000D+00 0.000000000000000D+00 -.443541488543661D+03
 0.227118651109676D+03 -.197081923604287D+02 0.171223342599549D+03 -.116455074774784D+03
 0.272605238677621D+03 0.158313589486956D+03 -.196615429893095D+03 0.102921311039995D+03
 0.125057365744303D+03 0.692312298920680D+02 -.103222901462856D+03 -.138352502010412D+02
 0.262301721555723D+03 -.207836627018595D+03 0.128614988756402D+03 0.273690139358308D+02
 0.000000000000000D+00 0.000000000000000D+00 0.000000000000000D+00 0.000000000000000D+00
 0.183435198427982D+04 0.000000000000000D+00 0.000000000000000D+00 0.183435198427982D+04
 0.602628626947927D+03 0.000000000000000D+00 0.000000000000000D+00 -.602628626947927D+03
 0.247714106223285D+03 -.156103312210307D+03 0.122951203955764D+03 -.116455074774784D+03
 0.272215786110255D+03 0.181442672896753D+01 -.252002670218150D+03 0.102921311039995D+03
 0.129948228467175D+03 -.401881035415386D+01 -.129147114164309D+03 -.138352502010412D+02
 0.418790266371436D+03 -.403479454703660D+03 0.593742584936918D+02 0.273690139358308D+02
 0.136831222405559D+04 0.561787150539153D+03 0.198824321933003D+03 0.123172335733189D+04
0.116556734657D-04 0.000000000000D+00 0.000000000000D+00 0.111071959086D-05 0.000000000000D+00  7 -1 1 23 -13 13 23 21 0 0.38005163D-01 0.12251780D+00 0.17329715D+06 0.17329715D+06 0.17329715D+06 0.11026377D+01  1  2  2  1  7  1       -1 0.206341656290D-03 0.100000000000D+01
-.644371788155D-06 0.000000000000D+00 -.447608551175D-07 0.111071959086D-05 0.000000000000D+00  7 -1 1 23 -13 13 23 21 2 0.38005163D-01 0.12251780D+00 0.17329715D+06 0.17329715D+06 0.17329715D+06 0.11026377D+01  1  2  3  1  7  1       -1 -.138692102863D-04 0.100000000000D+01
0.762070924468D-06 0.000000000000D+00 0.000000000000D+00 0.111071959086D-05 0.000000000000D+00  7 -1 1 23 -13 13 23 21 2 0.38005163D-01 0.12251780D+00 0.17329715D+06 0.17329715D+06 0.17329715D+06 0.11026377D+01  1  2 15  1  7  1       -1 0.164025211824D-04 0.100000000000D+01
-.507249063926D-05 0.000000000000D+00 -.483035472721D-05 0.111071959086D-05 0.000000000000D+00  7 -1 1 23 -13 13 23 21 2 0.18780965D+00 0.12251780D+00 0.17329715D+06 0.17329715D+06 0.17329715D+06 0.11026377D+01  1  2  5  1  7  1       -1 -.305641575351D-05 0.100000000000D+01
-.111344375038D-05 0.000000000000D+00 -.939920404915D-06 0.111071959086D-05 0.000000000000D+00  7 21 1 23 -13 13 23 1 2 0.18780965D+00 0.12251780D+00 0.17329715D+06 0.17329715D+06 0.17329715D+06 0.11026377D+01  1  2  5  3  7  1       -1 -.429531046019D-05 0.100000000000D+01
  </mgrwgt>
  </event>
  <event>
  7     66 0.58687835E-06 0.44382833E+03 0.75467711E-02 0.93190327E-01
       -1 -1    0    0    0  501 0.00000000E+00 0.00000000E+00 0.70444106E+03 0.70444114E+03 0.32000000E+00 0.0000E+00 0.9000E+01
        1 -1    0    0  501    0 0.00000000E+00 0.00000000E+00 -.31679643E+03 0.31679659E+03 0.32000000E+00 0.0000E+00 0.9000E+01
       23  2    1    2    0    0 0.35291353E+03 -.22441702E+03 0.27265395E+03 0.50759969E+03 0.91685960E+02 0.0000E+00 0.0000E+00
       23  1    1    2    0    0 -.78962802E+02 0.68071753E+02 0.12294315E+03 0.18520032E+03 0.91188000E+02 0.0000E+00 0.9000E+01
      -11  1    3    3    0    0 0.14236596E+03 -.63884808E+02 0.57021399E+02 0.16613481E+03 0.51099893E-03 0.0000E+00 0.9000E+01
       11  1    3    3    0    0 0.21054757E+03 -.16053221E+03 0.21563255E+03 0.34146488E+03 0.51099893E-03 0.0000E+00 0.9000E+01
       23  1    1    2    0    0 -.27395073E+03 0.15634526E+03 -.79524717E+01 0.32843772E+03 0.91188000E+02 0.0000E+00 0.9000E+01
#aMCatNLO 1  0  0  2  2 0.22476399D+03 0.00000000D+00  -5  7  0 0.00000000D+00 0.00000000D+00 0.00000000D+00 0.00000000D+00 0.00000000D+00
  <mgrwgt>
 0.2894023481D-03    3    2    0
 0.472402937406094D+03 0.000000000000000D+00 0.000000000000000D+00 0.472402937406094D+03
 0.472402937406094D+03 0.000000000000000D+00 0.000000000000000D+00 -.472402937406094D+03
 0.149740071663659D+03 -.789628015747366D+02 0.680717531465851D+02 0.569029885757932D+02
 0.156179276310131D+03 0.142365960452972D+03 -.638848079770162D+02 -.652923906736589D+01
 0.280616396473479D+03 0.210547568717577D+03 -.160532207869813D+03 0.929768439630061D+02
 0.358270130364918D+03 -.273950727595813D+03 0.156345262700244D+03 -.143350593471433D+03
 0.000000000000000D+00 -.000000000000000D+00 0.000000000000000D+00 0.000000000000000D+00
 0.944930800445265D+03 0.000000000000000D+00 0.000000000000000D+00 0.944930800445265D+03
 0.513081590598451D+03 0.000000000000000D+00 0.000000000000000D+00 -.513081590598451D+03
 0.137247782351995D+03 -.780978518294237D+02 0.344162439454573D+02 0.569029885757932D+02
 0.176600786294298D+03 0.143368922865379D+03 -.102910440254556D+03 -.652923906736589D+01
 0.327911630544825D+03 0.212381605087480D+03 -.231895230122809D+03 0.929768439630061D+02
 0.329412800046584D+03 -.271878127075642D+03 0.756996225866367D+02 -.143350593471433D+03
 0.486839391806014D+03 -.577454904779330D+01 0.224689803845271D+03 0.431849209846814D+03
0.338527257697D-04 0.000000000000D+00 0.000000000000D+00 0.385937926339D-09 0.000000000000D+00  7 -1 1 23 -11 11 23 21 0 0.10837557D+00 0.48737931D-01 0.19698359D+06 0.19698359D+06 0.19698359D+06 0.10983326D+01  1  2  2  2  7  2        1 0.286114785505D-03 0.100000000000D+01
-.187180484482D-05 0.000000000000D+00 -.130003380583D-06 0.385937926339D-09 0.000000000000D+00  7 -1 1 23 -11 11 23 21 2 0.10837557D+00 0.48737931D-01 0.19698359D+06 0.19698359D+06 0.19698359D+06 0.10983326D+01  1  2  3  2  7  2        1 -.190842458276D-04 0.100000000000D+01
0.219425277931D-05 0.000000000000D+00 0.000000000000D+00 0.385937926339D-09 0.000000000000D+00  7 -1 1 23 -11 11 23 21 2 0.10837557D+00 0.48737931D-01 0.19698359D+06 0.19698359D+06 0.19698359D+06 0.10983326D+01  1  2 15  2  7  2        1 0.223718084521D-04 0.100000000000D+01
  </mgrwgt>
  </event>
  <event>
  8     66 0.58687835E-06 0.95613691E+02 0.75467711E-02 0.10110346E+00
       -1 -1    0    0    0  501 0.00000000E+00 0.00000000E+00 0.15262460E+03 0.15262493E+03 0.32000000E+00 0.0000E+00 0.9000E+01
        1 -1    0    0  501    0 0.00000000E+00 0.00000000E+00 -.58129976E+03 0.58129985E+03 0.32000000E+00 0.0000E+00 0.9000E+01
       25  2    1    2    0    0 -.59862775E+02 0.13897811E+03 -.44307826E+03 0.55648322E+03 0.30076030E+03 0.0000E+00 0.0000E+00
       23  2    1    2    0    0 0.59862775E+02 -.13897811E+03 0.14403098E+02 0.17744156E+03 0.91540116E+02 0.0000E+00 0.0000E+00
       23  1    3    3    0    0 -.94198862E+02 -.22727658E+02 -.10594358E+03 0.17008605E+03 0.91188000E+02 0.0000E+00 0.9000E+01
      -13  1    4    4    0    0 0.38072144E+02 -.11350391E+03 0.48917102E+02 0.12932718E+03 0.10565837E+00 0.0000E+00 0.9000E+01
       13  1    4    4    0    0 0.21790631E+02 -.25474202E+02 -.34514003E+02 0.48114386E+02 0.10565837E+00 0.0000E+00 0.9000E+01
       23  1    3    3    0    0 0.34336087E+02 0.16170577E+03 -.33713468E+03 0.38639716E+03 0.91188000E+02 0.0000E+00 0.9000E+01
#aMCatNLO 1  0  0  2  1 0.96182705D+02 0.00000000D+00  -5  7  0 0.00000000D+00 0.00000000D+00 0.00000000D+00 0.00000000D+00 0.00000000D+00
  <mgrwgt>
 0.1868729991D-03    9    2    0
 0.297860365250786D+03 0.000000000000000D+00 0.000000000000000D+00 0.297860365250786D+03
 0.297860365250786D+03 0.000000000000000D+00 0.000000000000000D+00 -.297860365250786D+03
 0.133309088406128D+03 -.941988611973670D+02 -.227276564771694D+02 -.812956873688553D+01
 0.194530910051040D+03 0.380721667398052D+02 -.113504025732931D+03 0.153328474940046D+03
 0.344404958624793D+02 0.217906091105417D+02 -.254740853159649D+02 -.789861298963151D+01
 0.233440236181925D+03 0.343360853470201D+02 0.161705767526065D+03 -.137300293213529D+03
 0.000000000000000D+00 -.000000000000000D+00 0.000000000000000D+00 -.000000000000000D+00
 0.321076620978138D+03 0.000000000000000D+00 0.000000000000000D+00 0.321076620978138D+03
 0.421186099788494D+03 0.000000000000000D+00 0.000000000000000D+00 -.421186099788494D+03
 0.120223682337785D+03 -.739477720641332D+02 -.245788439467760D+02 -.812956873688553D+01
 0.204839825001259D+03 0.699721547729829D+02 -.116420059420754D+03 0.153328474940046D+03
 0.387645340320789D+02 0.276379068032457D+02 -.260085970228947D+02 -.789861298963151D+01
 0.239607374808947D+03 0.721210600717103D+02 0.158251776914027D+03 -.137300293213529D+03
 0.138827304586561D+03 -.957833495838057D+02 0.875572347639820D+01 -.100109478810356D+03
0.269403959758D-05 0.000000000000D+00 0.000000000000D+00 0.327932308288D-06 0.000000000000D+00  7 -1 1 23 -13 13 23 21 0 0.23480740D-01 0.89430765D-01 0.56429059D+05 0.56429059D+05 0.56429059D+05 0.11427031D+01  1  2  2  2  7  2        1 0.173277852590D-03 0.100000000000D+01
-.140353295740D-06 0.000000000000D+00 -.103458214116D-07 0.327932308288D-06 0.000000000000D+00  7 -1 1 23 -13 13 23 21 2 0.23480740D-01 0.89430765D-01 0.56429059D+05 0.56429059D+05 0.56429059D+05 0.11427031D+01  1  2  3  2  7  2        1 -.117876845861D-04 0.100000000000D+01
0.176925169302D-06 0.000000000000D+00 0.000000000000D+00 0.327932308288D-06 0.000000000000D+00  7 -1 1 23 -13 13 23 21 2 0.23480740D-01 0.89430765D-01 0.56429059D+05 0.56429059D+05 0.56429059D+05 0.11427031D+01  1  2 15  2  7  2        1 0.148592028430D-04 0.100000000000D+01
0.263884478070D-05 0.000000000000D+00 0.000000000000D+00 0.327932308288D-06 0.000000000000D+00  7 -1 1 23 -13 13 23 21 2 0.23480740D-01 0.12882428D+00 0.85931097D+05 0.85931097D+05 0.85931097D+05 0.11271662D+01  1  2 12  2  7  2        1 0.124362448638D-03 0.100000000000D+01
-.326018482202D-05 0.000000000000D+00 0.000000000000D+00 0.327932308288D-06 0.000000000000D+00  7 -1 1 23 -13 13 23 21 2 0.23480740D-01 0.89430765D-01 0.56429059D+05 0.56429059D+05 0.56429059D+05 0.11427031D+01  1  2  4  2  7  2        1 -.273809248097D-03 0.100000000000D+01
-.390187136993D-05 0.000000000000D+00 -.111529229035D-05 0.327932308288D-06 0.000000000000D+00  7 -1 1 23 -13 13 23 21 2 0.23480740D-01 0.13225684D+00 0.56429059D+05 0.56429059D+05 0.56429059D+05 0.11427031D+01  1  2  5  2  7  2        1 -.182371058085D-03 0.100000000000D+01
0.410058616448D-05 0.000000000000D+00 0.103504323994D-05 0.327932308288D-06 0.000000000000D+00  7 -1 1 23 -13 13 23 21 2 0.23480740D-01 0.89430765D-01 0.56429059D+05 0.56429059D+05 0.56429059D+05 0.11427031D+01  1  2  6  2  7  2        1 0.344391031720D-03 0.100000000000D+01
0.117500849953D-06 0.000000000000D+00 0.000000000000D+00 0.327932308288D-06 0.000000000000D+00  7 -1 21 23 -13 13 23 -1 2 0.23480740D-01 0.12882428D+00 0.85931097D+05 0.85931097D+05 0.85931097D+05 0.11271662D+01  1  2 12  4  7  2        1 0.957969384813D-05 0.100000000000D+01
-.145815435469D-06 0.000000000000D+00 -.522376653540D-07 0.327932308288D-06 0.000000000000D+00  7 -1 21 23 -13 13 23 -1 2 0.23480740D-01 0.13225684D+00 0.56429059D+05 0.56429059D+05 0.56429059D+05 0.11427031D+01  1  2  5  4  7  2        1 -.116292397662D-04 0.100000000000D+01
  </mgrwgt>
  </event>
  <event>
  9     66 0.58687835E-06 0.57763496E+03 0.75467711E-02 0.88734232E-01
       -1 -1    0    0    0  501 0.00000000E+00 0.00000000E+00 0.54996801E+03 0.54996811E+03 0.32000000E+00 0.0000E+00 0.9000E+01
        1 -1    0    0  502    0 0.00000000E+00 0.00000000E+00 -.21176203E+04 0.21176203E+04 0.32000000E+00 0.0000E+00 0.9000E+01
       25  2    1    2    0    0 0.57283878E+03 -.19485802E+03 -.38249349E+03 0.77623810E+03 0.30021727E+03 0.0000E+00 0.0000E+00
       23  2    1    2    0    0 -.50342056E+03 -.28967387E+03 0.22361843E+02 0.58839341E+03 0.91452439E+02 0.0000E+00 0.0000E+00
       23  1    3    3    0    0 0.13490952E+03 -.13945028E+03 -.62007274E+02 0.22317507E+03 0.91188000E+02 0.0000E+00 0.9000E+01
      -13  1    4    4    0    0 0.23903382E+01 0.17357665E+01 0.31606829E+01 0.43275492E+01 0.10565837E+00 0.0000E+00 0.9000E+01
       13  1    4    4    0    0 -.50581089E+03 -.29140964E+03 0.19201160E+02 0.58406586E+03 0.10565837E+00 0.0000E+00 0.9000E+01
       23  1    3    3    0    0 0.43792926E+03 -.55407739E+02 -.32048621E+03 0.55306303E+03 0.91188000E+02 0.0000E+00 0.9000E+01
       21  1    1    2  502  501 -.69418226E+02 0.48453189E+03 -.12075206E+04 0.13029569E+04 0.75000000E+00 0.0000E+00 0.9000E+01
#aMCatNLO 2  0  0  2  1 0.48947936D+03 0.00000000D+00  -5  7  0 0.00000000D+00 0.00000000D+00 0.00000000D+00 0.00000000D+00 0.00000000D+00
  <mgrwgt>
 0.3502792717D-04    2    2    0
 0.610928460142178D+03 0.000000000000000D+00 0.000000000000000D+00 0.610928460142178D+03
 0.610928460142178D+03 0.000000000000000D+00 0.000000000000000D+00 -.610928460142178D+03
 0.168012854070582D+03 0.124450061792338D+03 -.664443411712698D+02 -.322481552056779D+01
 0.631657580360153D+01 0.207191598865525D+01 0.396344583910361D+01 0.446064917910970D+01
 0.571151804801778D+03 -.538138013893569D+03 -.657748846087070D+02 0.179709562031975D+03
 0.476375685608395D+03 0.411616036112576D+03 0.128255779940873D+03 -.180945395690517D+03
 0.000000000000000D+00 -.000000000000000D+00 0.000000000000000D+00 -.000000000000000D+00
 0.720654644535713D+03 0.000000000000000D+00 0.000000000000000D+00 0.720654644535713D+03
 0.161606277495823D+04 0.000000000000000D+00 0.000000000000000D+00 -.161606277495823D+04
 0.214412242068513D+03 0.134909522897477D+03 -.139450275730384D+03 -.322481552056779D+01
 0.535056958970189D+01 0.239101652541730D+01 0.173615777230432D+01 0.446064917910970D+01
 0.610786934860624D+03 -.505811572974901D+03 -.291410030293002D+03 0.179709562031975D+03
 0.485704170379392D+03 0.437929259107968D+03 -.554077393103308D+02 -.180945395690517D+03
 0.102046350259572D+04 -.694182255559612D+02 0.484531887561412D+03 -.895408130422521D+03
-.278142384016D-05 0.000000000000D+00 0.000000000000D+00 0.306437147372D-05 0.000000000000D+00  7 -1 1 23 -13 13 23 21 2 0.71727750D-01 0.31826545D+00 0.75804360D+06 0.75804360D+06 0.75804360D+06 0.10559674D+01  1  2 13  2  7  2        1 -.199381864427D-05 0.100000000000D+01
0.782534754086D-04 0.000000000000D+00 0.000000000000D+00 0.306437147372D-05 0.117613176400D-09  7 -1 1 23 -13 13 23 21 2 0.84610457D-01 0.32578768D+00 0.75804360D+06 0.75804360D+06 0.75804360D+06 0.10559674D+01  1  2  1  2  7  2        1 0.370217458161D-04 0.100000000000D+01
  </mgrwgt>
  </event>
  <event>
  8     66 0.58687835E-06 0.16437980E+03 0.75467711E-02 0.95604068E-01
       -1 -1    0    0    0  501 0.00000000E+00 0.00000000E+00 0.33669761E+03 0.33669776E+03 0.32000000E+00 0.0000E+00 0.9000E+01
        1 -1    0    0  501    0 0.00000000E+00 0.00000000E+00 -.34720116E+03 0.34720131E+03 0.32000000E+00 0.0000E+00 0.9000E+01
       25  2    1    2    0    0 0.26167565E+03 0.20109703E+02 0.53241251E+02 0.40161512E+03 0.29930174E+03 0.0000E+00 0.0000E+00
       23  2    1    2    0    0 -.26167565E+03 -.20109703E+02 -.63744807E+02 0.28228395E+03 0.82111411E+02 0.0000E+00 0.0000E+00
       23  1    3    3    0    0 -.22869492E+02 -.20079642E+02 0.47466756E+01 0.96249613E+02 0.91188000E+02 0.0000E+00 0.9000E+01
      -13  1    4    4    0    0 -.65080147E+01 0.15931965E+02 -.56754338E+01 0.18121906E+02 0.10565837E+00 0.0000E+00 0.9000E+01
       13  1    4    4    0    0 -.25516763E+03 -.36041668E+02 -.58069373E+02 0.26416204E+03 0.10565837E+00 0.0000E+00 0.9000E+01
       23  1    3    3    0    0 0.28454514E+03 0.40189345E+02 0.48494575E+02 0.30536551E+03 0.91188000E+02 0.0000E+00 0.9000E+01
#aMCatNLO 1  0  0  2  1 0.21262047D+03 0.00000000D+00  -5  7  0 0.00000000D+00 0.00000000D+00 0.00000000D+00 0.00000000D+00 0.00000000D+00
  <mgrwgt>
 0.3509562056D-03    7    2    0
 0.341909203625544D+03 0.000000000000000D+00 0.000000000000000D+00 0.341909203625544D+03
 0.341909203625544D+03 0.000000000000000D+00 0.000000000000000D+00 -.341909203625544D+03
 0.963338758914291D+02 -.228694913591356D+02 -.200796418619538D+02 0.622564437912834D+01
 0.180364619260989D+02 -.650760323678922D+01 0.159320508492108D+02 -.539766752054143D+01
 0.263301655521694D+03 -.255168043061804D+03 -.360417537520097D+02 -.540187336666983D+02
 0.306146413911866D+03 0.284545137657728D+03 0.401893447647527D+02 0.531907568081114D+02
 0.000000000000000D+00 0.000000000000000D+00 -.000000000000000D+00 -.000000000000000D+00
 0.389216514537441D+03 0.000000000000000D+00 0.000000000000000D+00 0.389216514537441D+03
 0.720748487280549D+03 0.000000000000000D+00 0.000000000000000D+00 -.720748487280549D+03
 0.969330036283049D+02 -.312604378672309D+02 0.804874057344306D+01 0.622564437912834D+01
 0.242136884670123D+02 -.834195143337911D+01 0.220812078654760D+02 -.539766752054143D+01
 0.287677065251280D+03 -.279089539515793D+03 0.441486038000996D+02 -.540187336666983D+02
 0.307287321742168D+03 0.257912071118210D+03 0.129469508847336D+03 0.531907568081114D+02
 0.393853922729225D+03 0.607798576981925D+02 -.203748061086355D+03 -.331531972743108D+03
0.135121673557D-04 0.000000000000D+00 0.000000000000D+00 0.516248413893D-08 0.000000000000D+00  7 -1 1 23 -13 13 23 21 0 0.51799655D-01 0.53415587D-01 0.11307532D+06 0.11307532D+06 0.11307532D+06 0.11173687D+01  1  2  2  2  7  2        1 0.452778696137D-03 0.100000000000D+01
-.750423227994D-06 0.000000000000D+00 -.518902804814D-07 0.516248413893D-08 0.000000000000D+00  7 -1 1 23 -13 13 23 21 2 0.51799655D-01 0.53415587D-01 0.11307532D+06 0.11307532D+06 0.11307532D+06 0.11173687D+01  1  2  3  2  7  2        1 -.313949839097D-04 0.100000000000D+01
0.891411942557D-06 0.000000000000D+00 0.000000000000D+00 0.516248413893D-08 0.000000000000D+00  7 -1 1 23 -13 13 23 21 2 0.51799655D-01 0.53415587D-01 0.11307532D+06 0.11307532D+06 0.11307532D+06 0.11173687D+01  1  2 15  2  7  2        1 0.372934399543D-04 0.100000000000D+01
0.481235499293D-05 0.000000000000D+00 0.000000000000D+00 0.516248413893D-08 0.000000000000D+00  7 -1 1 23 -13 13 23 21 2 0.51799655D-01 0.11243015D+00 0.21075734D+06 0.21075734D+06 0.21075734D+06 0.10960822D+01  1  2 12  2  7  2        1 0.671758134045D-04 0.100000000000D+01
-.126231559202D-04 0.000000000000D+00 -.423125186334D-05 0.516248413893D-08 0.000000000000D+00  7 -1 1 23 -13 13 23 21 2 0.51799655D-01 0.12175195D+00 0.11307532D+06 0.11307532D+06 0.11307532D+06 0.11173687D+01  1  2  5  2  7  2        1 -.164863539926D-03 0.100000000000D+01
0.387364394795D-06 0.000000000000D+00 0.000000000000D+00 0.516248413893D-08 0.000000000000D+00  7 -1 21 23 -13 13 23 -1 2 0.51799655D-01 0.11243015D+00 0.21075734D+06 0.21075734D+06 0.21075734D+06 0.10960822D+01  1  2 12  4  7  2        1 0.105781825432D-04 0.100000000000D+01
-.863076150885D-06 0.000000000000D+00 -.379026220546D-06 0.516248413893D-08 0.000000000000D+00  7 -1 21 23 -13 13 23 -1 2 0.51799655D-01 0.12175195D+00 0.11307532D+06 0.11307532D+06 0.11307532D+06 0.11173687D+01  1  2  5  4  7  2        1 -.206114026496D-04 0.100000000000D+01
  </mgrwgt>
  </event>
  <event>
  8     66 0.58687835E-06 0.18650597E+03 0.75467711E-02 0.96635453E-01
       -1 -1    0    0    0  501 0.00000000E+00 0.00000000E+00 0.19913359E+03 0.19913385E+03 0.32000000E+00 0.0000E+00 0.9000E+01
        1 -1    0    0  501    0 0.00000000E+00 0.00000000E+00 -.14200483E+04 0.14200483E+04 0.32000000E+00 0.0000E+00 0.9000E+01
       25  2    1    2    0    0 0.34042862E+03 0.17041226E+03 -.19794934E+03 0.52379053E+03 0.30040072E+03 0.0000E+00 0.0000E+00
       23  2    1    2    0    0 -.34042862E+03 -.17041226E+03 -.10229653E+04 0.10953916E+04 0.92156089E+02 0.0000E+00 0.0000E+00
       23  1    3    3    0    0 0.13134449E+03 0.61266608E+02 -.20959830E+03 0.27065045E+03 0.91188000E+02 0.0000E+00 0.9000E+01
      -13  1    4    4    0    0 -.24474080E+03 -.80905019E+02 -.61278773E+03 0.66479508E+03 0.10565837E+00 0.0000E+00 0.9000E+01
       13  1    4    4    0    0 -.95687815E+02 -.89507236E+02 -.41017761E+03 0.43059655E+03 0.10565837E+00 0.0000E+00 0.9000E+01
       23  1    3    3    0    0 0.20908413E+03 0.10914565E+03 0.11648954E+02 0.25314007E+03 0.91188000E+02 0.0000E+00 0.9000E+01
#aMCatNLO 1  0  0  2  1 0.28450488D+02 0.00000000D+00  -5  7  0 0.00000000D+00 0.00000000D+00 0.00000000D+00 0.00000000D+00 0.00000000D+00
  <mgrwgt>
 0.1048206892D-03    6    2    0
 0.531770200095833D+03 0.000000000000000D+00 0.000000000000000D+00 0.531770200095833D+03
 0.531770200095833D+03 0.000000000000000D+00 0.000000000000000D+00 -.531770200095833D+03
 0.171437538951780D+03 0.131344487337516D+03 0.612666076034519D+02 -.840278862360032D+01
 0.308651145967763D+03 -.244740999182054D+03 -.809050078170298D+02 -.169769705591750D+03
 0.184687111490150D+03 -.956876193874045D+02 -.895072475007079D+02 -.130160137105772D+03
 0.398764603781974D+03 0.209084131231943D+03 0.109145647714286D+03 0.308332631321122D+03
 0.000000000000000D+00 0.000000000000000D+00 0.000000000000000D+00 0.000000000000000D+00
 0.547566464323946D+03 0.000000000000000D+00 0.000000000000000D+00 0.547566464323946D+03
 0.544927060746671D+03 0.000000000000000D+00 0.000000000000000D+00 -.544927060746671D+03
 0.167697694083027D+03 0.126937449815453D+03 0.601958655927531D+02 -.840278862360032D+01
 0.315634451892305D+03 -.252853544816527D+03 -.828760469518353D+02 -.169769705591750D+03
 0.187805831400125D+03 -.100528137906613D+03 -.906833088585100D+02 -.130160137105772D+03
 0.392782890512327D+03 0.198798029500097D+03 0.106646517358469D+03 0.308332631321122D+03
 0.285726571828345D+02 0.276462034075902D+02 0.671697285912322D+01 0.263940357727529D+01
0.811751323517D-05 0.000000000000D+00 0.000000000000D+00 0.654160070541D-06 0.000000000000D+00  7 -1 1 23 -13 13 23 21 0 0.30635959D-01 0.21846899D+00 0.16519987D+06 0.16519987D+06 0.16519987D+06 0.11042591D+01  1  2  2  2  7  2        1 0.718355757934D-04 0.100000000000D+01
-.411368181160D-06 0.000000000000D+00 -.311733882134D-07 0.654160070541D-06 0.000000000000D+00  7 -1 1 23 -13 13 23 21 2 0.30635959D-01 0.21846899D+00 0.16519987D+06 0.16519987D+06 0.16519987D+06 0.11042591D+01  1  2  3  2  7  2        1 -.443904151760D-05 0.100000000000D+01
0.508776474400D-06 0.000000000000D+00 0.000000000000D+00 0.654160070541D-06 0.000000000000D+00  7 -1 1 23 -13 13 23 21 2 0.30635959D-01 0.21846899D+00 0.16519987D+06 0.16519987D+06 0.16519987D+06 0.11042591D+01  1  2 15  2  7  2        1 0.549016670824D-05 0.100000000000D+01
0.137417592553D-04 0.000000000000D+00 0.000000000000D+00 0.654160070541D-06 0.000000000000D+00  7 -1 1 23 -13 13 23 21 2 0.30635959D-01 0.22703241D+00 0.17671191D+06 0.17671191D+06 0.17671191D+06 0.11019786D+01  1  2 12  2  7  2        1 0.135150786002D-03 0.100000000000D+01
-.969195626156D-05 0.000000000000D+00 0.000000000000D+00 0.654160070541D-06 0.000000000000D+00  7 -1 1 23 -13 13 23 21 2 0.30635959D-01 0.21846899D+00 0.16519987D+06 0.16519987D+06 0.16519987D+06 0.11042591D+01  1  2  4  2  7  2        1 -.104585133713D-03 0.100000000000D+01
0.171474954460D-06 0.000000000000D+00 0.000000000000D+00 0.654160070541D-06 0.000000000000D+00  7 -1 21 23 -13 13 23 -1 2 0.30635959D-01 0.22703241D+00 0.17671191D+06 0.17671191D+06 0.17671191D+06 0.11019786D+01  1  2 12  4  7  2        1 0.136833596404D-05 0.100000000000D+01
  </mgrwgt>
  </event>
  <event>
  8     66 0.58687835E-06 0.26743693E+03 0.75467711E-02 0.87091110E-01
       -1 -1    0    0    0  501 0.00000000E+00 0.00000000E+00 0.94058924E+02 0.94059468E+02 0.32000000E+00 0.0000E+00 0.9000E+01
        1 -1    0    0  501    0 0.00000000E+00 0.00000000E+00 -.84728825E+03 0.84728831E+03 0.32000000E+00 0.0000E+00 0.9000E+01
       25  2    1    2    0    0 0.17734372E+03 0.58767290E+02 -.41627093E+03 0.54541588E+03 0.29881868E+03 0.0000E+00 0.0000E+00
       23  2    1    2    0    0 -.17734372E+03 -.58767290E+02 -.33695839E+03 0.39593190E+03 0.91196061E+02 0.0000E+00 0.0000E+00
       23  1    3    3    0    0 -.10368653E+02 0.98620741E+02 -.11721440E+03 0.17857219E+03 0.91188000E+02 0.0000E+00 0.9000E+01
      -11  1    4    4    0    0 -.10039971E+02 -.80646608E+01 -.10337632E+03 0.10417535E+03 0.51099893E-03 0.0000E+00 0.9000E+01
       11  1    4    4    0    0 -.16730375E+03 -.50702629E+02 -.23358208E+03 0.29175655E+03 0.51099893E-03 0.0000E+00 0.9000E+01
       23  1    3    3    0    0 0.18771237E+03 -.39853451E+02 -.29905653E+03 0.36684369E+03 0.91188000E+02 0.0000E+00 0.9000E+01
#aMCatNLO 1  0  0  2  1 0.96141586D+03 0.00000000D+00  -5  7  0 0.00000000D+00 0.00000000D+00 0.00000000D+00 0.00000000D+00 0.00000000D+00
  <mgrwgt>
 0.2682302920D-03    5    2    0
 0.282303568870761D+03 0.000000000000000D+00 0.000000000000000D+00 0.282303568870761D+03
 0.282303568870761D+03 0.000000000000000D+00 0.000000000000000D+00 -.282303568870761D+03
 0.141353525059953D+03 -.103686534042657D+02 0.986207414711314D+02 0.428019635196955D+02
 0.357755957629318D+02 -.100399712140842D+02 -.806466082132941D+01 -.333774396269393D+02
 0.174818039416617D+03 -.167303745651279D+03 -.507026292920799D+02 -.216747299286023D+00
 0.212659977502021D+03 0.187712370269629D+03 -.398534513577221D+02 -.920777659347012D+01
 0.000000000000000D+00 -.000000000000000D+00 0.000000000000000D+00 -.000000000000000D+00
 0.836328716885754D+03 0.000000000000000D+00 0.000000000000000D+00 0.836328716885754D+03
 0.138614307742493D+04 0.000000000000000D+00 0.000000000000000D+00 -.138614307742493D+04
 0.115060083876476D+03 0.390405825476020D+02 -.395903572964952D+02 0.428019635196955D+02
 0.778230874723840D+02 0.118497567417622D+02 -.692961956592526D+02 -.333774396269393D+02
 0.330615470743634D+03 -.699099931703805D+02 -.323139498313902D+03 -.216747299286023D+00
 0.591446051047521D+03 0.342658375903728D+03 -.473279657527060D+03 -.920777659347012D+01
 0.110752710117067D+04 -.323638722022712D+03 0.905305708796709D+03 -.549814360539177D+03
0.336410723020D-05 0.000000000000D+00 0.000000000000D+00 0.882835073699D-07 0.000000000000D+00  7 -1 1 23 -11 11 23 21 0 0.14470650D-01 0.13035208D+00 0.71522509D+05 0.71522509D+05 0.71522509D+05 0.11338661D+01  1  2  2  2  7  2        1 0.264916095240D-03 0.100000000000D+01
-.186229785862D-06 0.000000000000D+00 -.129190575537D-07 0.882835073699D-07 0.000000000000D+00  7 -1 1 23 -11 11 23 21 2 0.14470650D-01 0.13035208D+00 0.71522509D+05 0.71522509D+05 0.71522509D+05 0.11338661D+01  1  2  3  2  7  2        1 -.188543336311D-04 0.100000000000D+01
0.218352254179D-06 0.000000000000D+00 0.000000000000D+00 0.882835073699D-07 0.000000000000D+00  7 -1 1 23 -11 11 23 21 2 0.14470650D-01 0.13035208D+00 0.71522509D+05 0.71522509D+05 0.71522509D+05 0.11338661D+01  1  2 15  2  7  2        1 0.221064865126D-04 0.100000000000D+01
0.225685747022D-05 0.000000000000D+00 -.148607927936D-05 0.882835073699D-07 0.000000000000D+00  7 -1 1 23 -11 11 23 21 2 0.14470650D-01 0.78717987D+00 0.71522509D+05 0.71522509D+05 0.71522509D+05 0.11338661D+01  1  2  5  2  7  2        1 0.616676569979D-07 0.100000000000D+01
0.400516512541D-06 0.000000000000D+00 -.327516977644D-06 0.882835073699D-07 0.000000000000D+00  7 -1 21 23 -11 11 23 -1 2 0.14470650D-01 0.78717987D+00 0.71522509D+05 0.71522509D+05 0.71522509D+05 0.11338661D+01  1  2  5  4  7  2        1 0.376232395665D-09 0.100000000000D+01
  </mgrwgt>
  </event>
  <event>
  9     66 0.58687835E-06 0.27008626E+03 0.75467711E-02 0.10171366E+00
       -1 -1    0    0    0  501 0.00000000E+00 0.00000000E+00 0.13565573E+03 0.13565610E+03 0.32000000E+00 0.0000E+00 0.9000E+01
        1 -1    0    0  502    0 0.00000000E+00 0.00000000E+00 -.92644422E+03 0.92644427E+03 0.32000000E+00 0.0000E+00 0.9000E+01
       25  2    1    2    0    0 -.22560528E+01 0.22471879E+03 -.66809416E+03 0.76587998E+03 0.29953082E+03 0.0000E+00 0.0000E+00
       23  2    1    2    0    0 -.16372354E+02 -.23087766E+03 -.11128219E+03 0.27351030E+03 0.94083000E+02 0.0000E+00 0.0000E+00
       23  1    3    3    0    0 -.17997593E+01 0.17984704E+03 -.62276348E+03 0.65459744E+03 0.91188000E+02 0.0000E+00 0.9000E+01
      -11  1    4    4    0    0 0.17653127E+02 -.72196228E+02 0.40205381E+01 0.74431801E+02 0.51099893E-03 0.0000E+00 0.9000E+01
       11  1    4    4    0    0 -.34025481E+02 -.15868143E+03 -.11530272E+03 0.19907849E+03 0.51099893E-03 0.0000E+00 0.9000E+01
       23  1    3    3    0    0 -.45629351E+00 0.44871754E+02 -.45330675E+02 0.11128254E+03 0.91188000E+02 0.0000E+00 0.9000E+01
       21  1    1    2  502  501 0.18628406E+02 0.61588645E+01 -.11412145E+02 0.22710101E+02 0.75000000E+00 0.0000E+00 0.9000E+01
#aMCatNLO 2  0  0  2  1 0.19620121D+02 0.00000000D+00  -5  7  0 0.00000000D+00 0.00000000D+00 0.00000000D+00 0.00000000D+00 0.00000000D+00
  <mgrwgt>
 0.1255126474D-03    2    2    0
 0.343700343675806D+03 0.000000000000000D+00 0.000000000000000D+00 0.343700343675806D+03
 0.343700343675806D+03 0.000000000000000D+00 0.000000000000000D+00 -.343700343675806D+03
 0.285261873512103D+03 0.590646735373697D+01 0.182394845351083D+03 -.199389867266089D+03
 0.116935299321397D+03 0.208230390967055D+02 -.711482021297540D+02 0.904333931900460D+02
 0.167944111407565D+03 -.294443464496496D+02 -.157166827794096D+03 0.513502021395307D+02
 0.117259403110547D+03 0.271483999920717D+01 0.459201845727675D+02 0.576062719365126D+02
 0.000000000000000D+00 0.000000000000000D+00 0.000000000000000D+00 0.000000000000000D+00
 0.358773955899382D+03 0.000000000000000D+00 0.000000000000000D+00 0.358773955899382D+03
 0.350284646053539D+03 0.000000000000000D+00 0.000000000000000D+00 -.350284646053539D+03
 0.283583790861142D+03 -.179975925264586D+01 0.179847037210569D+03 -.199389867266089D+03
 0.117056084368198D+03 0.176531272215049D+02 -.721962283159627D+02 0.904333931900460D+02
 0.170218601151670D+03 -.340254809401125D+02 -.158681427914721D+03 0.513502021395307D+02
 0.116822157425045D+03 -.456293513519029D+00 0.448717544926440D+02 0.576062719365126D+02
 0.213779681468652D+02 0.186284064847725D+02 0.615886452747061D+01 0.848930984584345D+01
-.120045940177D-05 0.000000000000D+00 0.000000000000D+00 0.100507533989D-06 0.000000000000D+00  7 -1 1 23 -11 11 23 21 2 0.19992929D-01 0.13984817D+00 0.72946589D+05 0.72946589D+05 0.72946589D+05 0.11331405D+01  1  2  8  2  7  2        1 -.649944244715D-04 0.100000000000D+01
0.391127457281D-05 0.000000000000D+00 0.000000000000D+00 0.100507533989D-06 0.178209897034D-08  7 -1 1 23 -11 11 23 21 2 0.20869756D-01 0.14252726D+00 0.78264211D+05 0.78264211D+05 0.78264211D+05 0.11305625D+01  1  2  1  2  7  2        1 0.190507071907D-03 0.100000000000D+01
  </mgrwgt>
  </event>
  <event>
  9     66 0.58687835E-06 0.40208528E+03 0.75467711E-02 0.95156627E-01
       -1 -1    0    0    0  501 0.00000000E+00 0.00000000E+00 0.10856430E+04 0.10856431E+04 0.32000000E+00 0.0000E+00 0.9000E+01
        1 -1    0    0  502    0 0.00000000E+00 0.00000000E+00 -.49269394E+03 0.49269404E+03 0.32000000E+00 0.0000E+00 0.9000E+01
       25  2    1    2    0    0 0.29630476E+03 -.43731188E+02 -.30622470E+03 0.52282164E+03 0.29976653E+03 0.0000E+00 0.0000E+00
       23  2    1    2    0    0 -.39501249E+03 -.43165223E+02 0.77017513E+03 0.87129980E+03 0.89975060E+02 0.0000E+00 0.0000E+00
       23  1    3    3    0    0 0.58301208E+02 -.11372824E+03 -.14169507E+03 0.21148496E+03 0.91188000E+02 0.0000E+00 0.9000E+01
      -11  1    4    4    0    0 -.21889039E+03 -.53285378E+02 0.50289664E+03 0.55105114E+03 0.51099893E-03 0.0000E+00 0.9000E+01
       11  1    4    4    0    0 -.17612210E+03 0.10120156E+02 0.26727849E+03 0.32024866E+03 0.51099893E-03 0.0000E+00 0.9000E+01
       23  1    3    3    0    0 0.23800355E+03 0.69997056E+02 -.16452962E+03 0.31133668E+03 0.91188000E+02 0.0000E+00 0.9000E+01
       21  1    1    2  502  501 0.98707727E+02 0.86896411E+02 0.12899867E+03 0.18421569E+03 0.75000000E+00 0.0000E+00 0.9000E+01
#aMCatNLO 2  0  0  2  2 0.13150742D+03 0.00000000D+00  -5  7  0 0.00000000D+00 0.00000000D+00 0.00000000D+00 0.00000000D+00 0.00000000D+00
  <mgrwgt>
 0.3822844434D-04    1    2    0
 0.654031801434890D+03 0.000000000000000D+00 0.000000000000000D+00 0.654031801434890D+03
 0.654031801434890D+03 0.000000000000000D+00 0.000000000000000D+00 -.654031801434890D+03
 0.272500062029680D+03 0.788793524521521D+02 -.956124699377205D+02 -.224894054637550D+03
 0.388877589179260D+03 -.188941415619223D+03 -.269200812944865D+02 0.338824777802296D+03
 0.233900202967125D+03 -.158087787633744D+03 0.259964882160881D+02 0.170416369370907D+03
 0.412785748693715D+03 0.268149850800815D+03 0.965360630161189D+02 -.284347092535653D+03
 0.000000000000000D+00 0.000000000000000D+00 0.000000000000000D+00 0.000000000000000D+00
 0.768133414589507D+03 0.000000000000000D+00 0.000000000000000D+00 0.768133414589507D+03
 0.696348384078409D+03 0.000000000000000D+00 0.000000000000000D+00 -.696348384078409D+03
 0.274273096588935D+03 0.583012079800424D+02 -.113728244096329D+03 -.224894054637550D+03
 0.406883970236527D+03 -.218890391857158D+03 -.532853782503563D+02 0.338824777802296D+03
 0.245281775409465D+03 -.176122096421646D+03 0.101201556560244D+02 0.170416369370907D+03
 0.388218752239539D+03 0.238003553230798D+03 0.699970560985217D+02 -.284347092535653D+03
 0.149824204193450D+03 0.987077270679630D+02 0.868964105921394D+02 0.717850305110984D+02
0.219497302142D-04 0.000000000000D+00 0.000000000000D+00 0.197893474198D-05 0.731033273495D-09  7 -1 1 23 -11 11 23 21 2 0.16702180D+00 0.75798980D-01 0.22777345D+06 0.22777345D+06 0.22777345D+06 0.10935143D+01  1  2  1  2  7  2        1 0.382284443398D-04 0.100000000000D+01
  </mgrwgt>
  </event>
  <event>
  8     66 0.58687835E-06 0.46824507E+03 0.75467711E-02 0.89586830E-01
       -1 -1    0    0    0  501 0.00000000E+00 0.00000000E+00 0.58360499E+03 0.58360508E+03 0.32000000E+00 0.0000E+00 0.9000E+01
        1 -1    0    0  501    0 0.00000000E+00 0.00000000E+00 -.39351317E+03 0.39351330E+03 0.32000000E+00 0.0000E+00 0.9000E+01
       25  2    1    2    0    0 -.31147204E+03 -.28235934E+03 0.28169548E+02 0.51737461E+03 0.30023547E+03 0.0000E+00 0.0000E+00
       23  2    1    2    0    0 0.31147204E+03 0.28235934E+03 0.16192227E+03 0.45974377E+03 0.91672726E+02 0.0000E+00 0.0000E+00
       23  1    3    3    0    0 -.32449003E+03 -.19829989E+03 0.33967021E+02 0.39253743E+03 0.91188000E+02 0.0000E+00 0.9000E+01
      -13  1    4    4    0    0 0.82708576E+02 0.65441599E+02 0.28811918E+00 0.10546756E+03 0.10565837E+00 0.0000E+00 0.9000E+01
       13  1    4    4    0    0 0.22876346E+03 0.21691774E+03 0.16163415E+03 0.35427621E+03 0.10565837E+00 0.0000E+00 0.9000E+01
       23  1    3    3    0    0 0.13017993E+02 -.84059451E+02 -.57974733E+01 0.12483718E+03 0.91188000E+02 0.0000E+00 0.9000E+01
#aMCatNLO 1  0  0  2  2 0.53190381D+03 0.00000000D+00  -5  7  0 0.00000000D+00 0.00000000D+00 0.00000000D+00 0.00000000D+00 0.00000000D+00
  <mgrwgt>
 0.3033345921D-03    3    2    0
 0.479224747448328D+03 0.000000000000000D+00 0.000000000000000D+00 0.479224747448328D+03
 0.479224747448328D+03 0.000000000000000D+00 0.000000000000000D+00 -.479224747448328D+03
 0.393446591076459D+03 -.324490028813779D+03 -.198299888594603D+03 -.432243457959448D+02
 0.107464438577192D+03 0.827083815060878D+02 0.654413974449295D+02 -.206240802900226D+02
 0.329119851343242D+03 0.228763654290647D+03 0.216917942343001D+03 0.945181110341592D+02
 0.128418613899763D+03 0.130179930170444D+02 -.840594511933272D+02 -.306696849481918D+02
 0.000000000000000D+00 0.000000000000000D+00 0.000000000000000D+00 0.000000000000000D+00
 0.114980099324891D+04 0.000000000000000D+00 0.000000000000000D+00 0.114980099324891D+04
 0.665621509022319D+03 0.000000000000000D+00 0.000000000000000D+00 -.665621509022319D+03
 0.649871287764807D+03 -.587954450330977D+03 -.257795771073926D+03 -.432243457959448D+02
 0.701314722178551D+02 0.378608763972870D+02 0.553138748060906D+02 -.206240802900226D+02
 0.226050883104432D+03 0.885688590505016D+02 0.185258969135964D+03 0.945181110341592D+02
 0.150097395609199D+03 -.573144155582343D+02 -.999420082801076D+02 -.306696849481918D+02
 0.719271463574940D+03 0.518839130441423D+03 0.117164935411978D+03 0.484179484226595D+03
0.313325376753D-04 0.000000000000D+00 0.000000000000D+00 0.151800814759D-05 0.000000000000D+00  7 -1 1 23 -13 13 23 21 0 0.89785400D-01 0.60540505D-01 0.21925345D+06 0.21925345D+06 0.21925345D+06 0.10947728D+01  1  2  2  2  7  2        1 0.299827556439D-03 0.100000000000D+01
-.173955956115D-05 0.000000000000D+00 -.120325194720D-06 0.151800814759D-05 0.000000000000D+00  7 -1 1 23 -13 13 23 21 2 0.89785400D-01 0.60540505D-01 0.21925345D+06 0.21925345D+06 0.21925345D+06 0.10947728D+01  1  2  3  2  7  2        1 -.199509357517D-04 0.100000000000D+01
0.204534458922D-05 0.000000000000D+00 0.000000000000D+00 0.151800814759D-05 0.000000000000D+00  7 -1 1 23 -13 13 23 21 2 0.89785400D-01 0.60540505D-01 0.21925345D+06 0.21925345D+06 0.21925345D+06 0.10947728D+01  1  2 15  2  7  2        1 0.234579714320D-04 0.100000000000D+01
  </mgrwgt>
  </event>
  <event>
  8     66 0.58687835E-06 0.16277648E+03 0.75467711E-02 0.10219506E+00
       -1 -1    0    0    0  501 0.00000000E+00 0.00000000E+00 0.18318037E+03 0.18318065E+03 0.32000000E+00 0.0000E+00 0.9000E+01
        1 -1    0    0  501    0 0.00000000E+00 0.00000000E+00 -.44791478E+03 0.44791490E+03 0.32000000E+00 0.0000E+00 0.9000E+01
       25  2    1    2    0    0 0.41692045E+02 -.16977820E+03 -.26419933E+03 0.43555002E+03 0.29889743E+03 0.0000E+00 0.0000E+00
       23  2    1    2    0    0 -.41692045E+02 0.16977820E+03 -.53508047E+00 0.19554553E+03 0.87606520E+02 0.0000E+00 0.0000E+00
       23  1    3    3    0    0 -.42309234E+02 -.19526643E+03 -.16331778E+03 0.27369143E+03 0.91188000E+02 0.0000E+00 0.9000E+01
      -13  1    4    4    0    0 -.34178346E+02 0.13665970E+03 0.36273231E+02 0.14546406E+03 0.10565837E+00 0.0000E+00 0.9000E+01
       13  1    4    4    0    0 -.75136988E+01 0.33118504E+02 -.36808312E+02 0.50081473E+02 0.10565837E+00 0.0000E+00 0.9000E+01
       23  1    3    3    0    0 0.84001279E+02 0.25488231E+02 -.10088155E+03 0.16185859E+03 0.91188000E+02 0.0000E+00 0.9000E+01
#aMCatNLO 1  0  0  2  1 0.19080839D+02 0.00000000D+00  -5  7  0 0.00000000D+00 0.00000000D+00 0.00000000D+00 0.00000000D+00 0.00000000D+00
  <mgrwgt>
 0.1915320566D-03    9    2    0
 0.286442527484852D+03 0.000000000000000D+00 0.000000000000000D+00 0.286442527484852D+03
 0.286442527484852D+03 0.000000000000000D+00 0.000000000000000D+00 -.286442527484852D+03
 0.226030697772632D+03 -.423092332094748D+02 -.195266434144184D+03 -.534375661255636D+02
 0.177006898257915D+03 -.341783851602225D+02 0.136659851284270D+03 0.107179126072611D+03
 0.381606256726642D+02 -.751366008042496D+01 0.331183530803874D+02 -.174055437481230D+02
 0.131686833266494D+03 0.840012784501223D+02 0.254882297795274D+02 -.363360161989243D+02
 0.000000000000000D+00 0.000000000000000D+00 0.000000000000000D+00 -.000000000000000D+00
 0.289620027547211D+03 0.000000000000000D+00 0.000000000000000D+00 0.289620027547211D+03
 0.316753635906176D+03 0.000000000000000D+00 0.000000000000000D+00 -.316753635906176D+03
 0.232659980815374D+03 -.454687081551049D+02 -.202218788529385D+03 -.534375661255636D+02
 0.173432181129429D+03 -.365922198923830D+02 0.131348261613810D+03 0.107179126072611D+03
 0.372810982699341D+02 -.803330490378504D+01 0.319748861978817D+02 -.174055437481230D+02
 0.129829465375260D+03 0.821999464588640D+02 0.215244387749657D+02 -.363360161989243D+02
 0.331709378633905D+02 0.789428649240885D+01 0.173712019427276D+02 -.271336083589644D+02
0.194327539444D-05 0.000000000000D+00 0.000000000000D+00 0.156886653073D-07 0.000000000000D+00  7 -1 1 23 -13 13 23 21 0 0.28181626D-01 0.68909997D-01 0.67867187D+05 0.67867187D+05 0.67867187D+05 0.11358038D+01  1  2  2  2  7  2        1 0.132801553685D-03 0.100000000000D+01
-.106777985459D-06 0.000000000000D+00 -.746268919080D-08 0.156886653073D-07 0.000000000000D+00  7 -1 1 23 -13 13 23 21 2 0.28181626D-01 0.68909997D-01 0.67867187D+05 0.67867187D+05 0.67867187D+05 0.11358038D+01  1  2  3  2  7  2        1 -.941363037984D-05 0.100000000000D+01
0.126279896498D-06 0.000000000000D+00 0.000000000000D+00 0.156886653073D-07 0.000000000000D+00  7 -1 1 23 -13 13 23 21 2 0.28181626D-01 0.68909997D-01 0.67867187D+05 0.67867187D+05 0.67867187D+05 0.11358038D+01  1  2 15  2  7  2        1 0.111329340493D-04 0.100000000000D+01
0.129505473957D-04 0.000000000000D+00 0.000000000000D+00 0.156886653073D-07 0.000000000000D+00  7 -1 1 23 -13 13 23 21 2 0.28181626D-01 0.76559195D-01 0.72759832D+05 0.72759832D+05 0.72759832D+05 0.11332348D+01  1  2 12  2  7  2        1 0.984451665712D-03 0.100000000000D+01
-.131820113845D-04 0.000000000000D+00 0.000000000000D+00 0.156886653073D-07 0.000000000000D+00  7 -1 1 23 -13 13 23 21 2 0.28181626D-01 0.68909997D-01 0.67867187D+05 0.67867187D+05 0.67867187D+05 0.11358038D+01  1  2  4  2  7  2        1 -.116213639265D-02 0.100000000000D+01
-.211196267346D-04 0.000000000000D+00 -.244400072272D-05 0.156886653073D-07 0.000000000000D+00  7 -1 1 23 -13 13 23 21 2 0.28181626D-01 0.76714163D-01 0.67867187D+05 0.67867187D+05 0.67867187D+05 0.11358038D+01  1  2  5  2  7  2        1 -.160900787387D-02 0.100000000000D+01
0.212732835773D-04 0.000000000000D+00 0.243000253096D-05 0.156886653073D-07 0.000000000000D+00  7 -1 1 23 -13 13 23 21 2 0.28181626D-01 0.68909997D-01 0.67867187D+05 0.67867187D+05 0.67867187D+05 0.11358038D+01  1  2  6  2  7  2        1 0.187546925240D-02 0.100000000000D+01
0.219841508981D-06 0.000000000000D+00 0.000000000000D+00 0.156886653073D-07 0.000000000000D+00  7 -1 21 23 -13 13 23 -1 2 0.28181626D-01 0.76559195D-01 0.72759832D+05 0.72759832D+05 0.72759832D+05 0.11332348D+01  1  2 12  4  7  2        1 0.512095833049D-04 0.100000000000D+01
-.355216766157D-06 0.000000000000D+00 -.421696920970D-07 0.156886653073D-07 0.000000000000D+00  7 -1 21 23 -13 13 23 -1 2 0.28181626D-01 0.76714163D-01 0.67867187D+05 0.67867187D+05 0.67867187D+05 0.11358038D+01  1  2  5  4  7  2        1 -.829750356684D-04 0.100000000000D+01
  </mgrwgt>
  </event>
  <event>
  8     66 0.58687835E-06 0.32370835E+03 0.75467711E-02 0.86114818E-01
       -1 -1    0    0    0  501 0.00000000E+00 0.00000000E+00 0.85548211E+03 0.85548217E+03 0.32000000E+00 0.0000E+00 0.9000E+01
        1 -1    0    0  501    0 0.00000000E+00 0.00000000E+00 -.10146964E+04 0.10146965E+04 0.32000000E+00 0.0000E+00 0.9000E+01
       25  2    1    2    0    0 -.70027765E+03 0.56177444E+03 0.40572800E+02 0.94566510E+03 0.29437565E+03 0.0000E+00 0.0000E+00
       23  2    1    2    0    0 0.70027765E+03 -.56177444E+03 -.19978710E+03 0.92451353E+03 0.93973793E+02 0.0000E+00 0.0000E+00
       23  1    3    3    0    0 -.25349457E+03 0.19823079E+03 0.12366426E+03 0.35659928E+03 0.91188000E+02 0.0000E+00 0.9000E+01
      -13  1    4    4    0    0 0.87331076E+02 -.93795617E+02 -.11230851E+01 0.12816242E+03 0.10565837E+00 0.0000E+00 0.9000E+01
       13  1    4    4    0    0 0.61294657E+03 -.46797882E+03 -.19866401E+03 0.79635110E+03 0.10565837E+00 0.0000E+00 0.9000E+01
       23  1    3    3    0    0 -.44678308E+03 0.36354364E+03 -.83091459E+02 0.58906582E+03 0.91188000E+02 0.0000E+00 0.9000E+01
#aMCatNLO 1  0  0  2  1 0.42479092D+03 0.00000000D+00  -5  7  0 0.00000000D+00 0.00000000D+00 0.00000000D+00 0.00000000D+00 0.00000000D+00
  <mgrwgt>
 0.7420223545D-03    9    2    0
 0.931694544415103D+03 0.000000000000000D+00 0.000000000000000D+00 0.931694544415103D+03
 0.931694544415103D+03 0.000000000000000D+00 0.000000000000000D+00 -.931694544415103D+03
 0.368464896434973D+03 -.253494571802743D+03 0.198230793860242D+03 0.154583902761307D+03
 0.128532617078953D+03 0.873304116395123D+02 -.937951441193377D+02 0.982363454485256D+01
 0.782279023564506D+03 0.612947236213631D+03 -.467979293003458D+03 -.131345108957629D+03
 0.584112551751775D+03 -.446783076050400D+03 0.363543643262553D+03 -.330624283485314D+02
 0.000000000000000D+00 -.000000000000000D+00 0.000000000000000D+00 -.000000000000000D+00
 0.108859510373279D+04 0.000000000000000D+00 0.000000000000000D+00 0.108859510373279D+04
 0.129479027430234D+04 0.000000000000000D+00 0.000000000000000D+00 -.129479027430234D+04
 0.310141829468343D+03 -.179911332105965D+03 0.177787605386063D+03 0.154583902761307D+03
 0.156735767103122D+03 0.118262866461914D+03 -.102388921812590D+03 0.982363454485256D+01
 0.965538661161712D+03 0.802468033359107D+03 -.520632715057004D+03 -.131345108957629D+03
 0.478778715642766D+03 -.331530780553039D+03 0.331523791885480D+03 -.330624283485314D+02
 0.472190404659186D+03 -.409288787162017D+03 0.113710239598050D+03 -.206195170569549D+03
0.682656587017D-03 0.000000000000D+00 0.000000000000D+00 0.117785775449D-07 0.000000000000D+00  7 -1 1 23 -13 13 23 21 0 0.13161264D+00 0.15610715D+00 0.82535091D+06 0.82535091D+06 0.82535091D+06 0.10534585D+01  1  2  2  2  7  2        1 0.594269689878D-03 0.100000000000D+01
-.378960295471D-04 0.000000000000D+00 -.262158104175D-05 0.117785775449D-07 0.000000000000D+00  7 -1 1 23 -13 13 23 21 2 0.13161264D+00 0.15610715D+00 0.82535091D+06 0.82535091D+06 0.82535091D+06 0.10534585D+01  1  2  3  2  7  2        1 -.366108569629D-04 0.100000000000D+01
0.438751118259D-04 0.000000000000D+00 0.000000000000D+00 0.117785775449D-07 0.000000000000D+00  7 -1 1 23 -13 13 23 21 2 0.13161264D+00 0.15610715D+00 0.82535091D+06 0.82535091D+06 0.82535091D+06 0.10534585D+01  1  2 15  2  7  2        1 0.423871699090D-04 0.100000000000D+01
0.287300404593D-03 0.000000000000D+00 0.000000000000D+00 0.117785775449D-07 0.000000000000D+00  7 -1 1 23 -13 13 23 21 2 0.13161264D+00 0.22600933D+00 0.13044940D+07 0.13044940D+07 0.13044940D+07 0.10402647D+01  1  2 12  2  7  2        1 0.123606117417D-03 0.100000000000D+01
-.403965011855D-03 0.000000000000D+00 0.000000000000D+00 0.117785775449D-07 0.000000000000D+00  7 -1 1 23 -13 13 23 21 2 0.13161264D+00 0.15610715D+00 0.82535091D+06 0.82535091D+06 0.82535091D+06 0.10534585D+01  1  2  4  2  7  2        1 -.390265298075D-03 0.100000000000D+01
-.624626200283D-03 0.000000000000D+00 -.251377072665D-03 0.117785775449D-07 0.000000000000D+00  7 -1 1 23 -13 13 23 21 2 0.13161264D+00 0.23676450D+00 0.82535091D+06 0.82535091D+06 0.82535091D+06 0.10534585D+01  1  2  5  2  7  2        1 -.254893258047D-03 0.100000000000D+01
0.689024933008D-03 0.000000000000D+00 0.231043558785D-03 0.117785775449D-07 0.000000000000D+00  7 -1 1 23 -13 13 23 21 2 0.13161264D+00 0.15610715D+00 0.82535091D+06 0.82535091D+06 0.82535091D+06 0.10534585D+01  1  2  6  2  7  2        1 0.665657948015D-03 0.100000000000D+01
0.129206962952D-04 0.000000000000D+00 0.000000000000D+00 0.117785775449D-07 0.000000000000D+00  7 -1 21 23 -13 13 23 -1 2 0.13161264D+00 0.22600933D+00 0.13044940D+07 0.13044940D+07 0.13044940D+07 0.10402647D+01  1  2 12  4  7  2        1 0.417859159560D-05 0.100000000000D+01
-.215749447108D-04 0.000000000000D+00 -.123279486646D-04 0.117785775449D-07 0.000000000000D+00  7 -1 21 23 -13 13 23 -1 2 0.13161264D+00 0.23676450D+00 0.82535091D+06 0.82535091D+06 0.82535091D+06 0.10534585D+01  1  2  5  4  7  2        1 -.630774924346D-05 0.100000000000D+01
  </mgrwgt>
  </event>
  <event>
  8     66 0.58687835E-06 0.21460504E+03 0.75467711E-02 0.10432842E+00
       -1 -1    0    0    0  501 0.00000000E+00 0.00000000E+00 0.57904681E+03 0.57904690E+03 0.32000000E+00 0.0000E+00 0.9000E+01
        1 -1    0    0  501    0 0.00000000E+00 0.00000000E+00 -.10395050E+03 0.10395099E+03 0.32000000E+00 0.0000E+00 0.9000E+01
       25  2    1    2    0    0 0.14278541E+02 0.12307720E+03 0.24894297E+03 0.40927326E+03 0.30030007E+03 0.0000E+00 0.0000E+00
       23  2    1    2    0    0 -.14278541E+02 -.12307720E+03 0.22615335E+03 0.27372463E+03 0.91803930E+02 0.0000E+00 0.0000E+00
       23  1    3    3    0    0 0.73820119E+02 -.33396085E+01 0.99444700E+01 0.11779095E+03 0.91188000E+02 0.0000E+00 0.9000E+01
      -11  1    4    4    0    0 -.22258830E+02 -.13150464E+03 0.16841559E+03 0.21483188E+03 0.51099893E-03 0.0000E+00 0.9000E+01
       11  1    4    4    0    0 0.79802893E+01 0.84274442E+01 0.57737758E+02 0.58892746E+02 0.51099893E-03 0.0000E+00 0.9000E+01
       23  1    3    3    0    0 -.59541578E+02 0.12641681E+03 0.23899850E+03 0.29148232E+03 0.91188000E+02 0.0000E+00 0.9000E+01
#aMCatNLO 1  0  0  2  1 0.32658448D+02 0.00000000D+00  -5  7  0 0.00000000D+00 0.00000000D+00 0.00000000D+00 0.00000000D+00 0.00000000D+00
  <mgrwgt>
 0.1487912713D-03    4    2    0
 0.245341400095433D+03 0.000000000000000D+00 0.000000000000000D+00 0.245341400095433D+03
 0.245341400095433D+03 0.000000000000000D+00 0.000000000000000D+00 -.245341400095433D+03
 0.154328593188094D+03 0.738201188676478D+02 -.333960850751351D+01 -.100207287144194D+03
 0.135965833561722D+03 -.222588303140515D+02 -.131504642392800D+03 0.264155522055844D+02
 0.260710691350717D+02 0.798028928428362D+01 0.842744415674952D+01 0.233451025649857D+02
 0.174317304305980D+03 -.595415778378799D+02 0.126416806743564D+03 0.504466323736240D+02
 0.000000000000000D+00 0.000000000000000D+00 0.000000000000000D+00 0.000000000000000D+00
 0.284838669020839D+03 0.000000000000000D+00 0.000000000000000D+00 0.284838669020839D+03
 0.252729220908030D+03 0.000000000000000D+00 0.000000000000000D+00 -.252729220908030D+03
 0.149927848988517D+03 0.639569486301552D+02 -.557825093057159D+01 -.100207287144194D+03
 0.139648690649096D+03 -.311935071043587D+02 -.133532544782953D+03 0.264155522055844D+02
 0.254866285018910D+02 0.630892829284945D+01 0.804809557717759D+01 0.233451025649857D+02
 0.176705257703023D+03 -.709207790851157D+02 0.123834070966000D+03 0.504466323736240D+02
 0.457994640863421D+02 0.318484092664698D+02 0.722862917034678D+01 0.321094481128094D+02
0.371369398474D-05 0.000000000000D+00 0.000000000000D+00 0.186296657770D-06 0.000000000000D+00  7 -1 1 23 -11 11 23 21 0 0.89084170D-01 0.15992429D-01 0.46055323D+05 0.46055323D+05 0.46055323D+05 0.11504480D+01  1  2  2  2  7  2        1 0.211983940449D-03 0.100000000000D+01
-.201822044258D-06 0.000000000000D+00 -.142615627395D-07 0.186296657770D-06 0.000000000000D+00  7 -1 1 23 -11 11 23 21 2 0.89084170D-01 0.15992429D-01 0.46055323D+05 0.46055323D+05 0.46055323D+05 0.11504480D+01  1  2  3  2  7  2        1 -.152475270517D-04 0.100000000000D+01
0.243042467171D-06 0.000000000000D+00 0.000000000000D+00 0.186296657770D-06 0.000000000000D+00  7 -1 1 23 -11 11 23 21 2 0.89084170D-01 0.15992429D-01 0.46055323D+05 0.46055323D+05 0.46055323D+05 0.11504480D+01  1  2 15  2  7  2        1 0.183617037799D-04 0.100000000000D+01
-.877662530860D-06 0.000000000000D+00 0.000000000000D+00 0.186296657770D-06 0.000000000000D+00  7 -1 1 23 -11 11 23 21 2 0.89084170D-01 0.15992429D-01 0.46055323D+05 0.46055323D+05 0.46055323D+05 0.11504480D+01  1  2  4  2  7  2        1 -.663068458688D-04 0.100000000000D+01
  </mgrwgt>
  </event>
  <event>
  8     66 0.58687835E-06 0.10956408E+03 0.75467711E-02 0.98482872E-01
       -1 -1    0    0    0  501 0.00000000E+00 0.00000000E+00 0.84057162E+02 0.84057771E+02 0.32000000E+00 0.0000E+00 0.9000E+01
        1 -1    0    0  501    0 0.00000000E+00 0.00000000E+00 -.12513801E+04 0.12513801E+04 0.32000000E+00 0.0000E+00 0.9000E+01
       25  2    1    2    0    0 0.24507452E+03 0.15293649E+02 -.72302982E+03 0.82050149E+03 0.30025847E+03 0.0000E+00 0.0000E+00
       23  2    1    2    0    0 -.24507452E+03 -.15293649E+02 -.44429311E+03 0.51493642E+03 0.86416052E+02 0.0000E+00 0.0000E+00
       23  1    3    3    0    0 -.46982641E+01 0.45632862E+02 -.32670439E+03 0.34227977E+03 0.91188000E+02 0.0000E+00 0.9000E+01
      -13  1    4    4    0    0 -.15415370E+02 -.25534658E+02 -.62980022E+02 0.69686058E+02 0.10565837E+00 0.0000E+00 0.9000E+01
       13  1    4    4    0    0 -.22965915E+03 0.10241009E+02 -.38131309E+03 0.44525036E+03 0.10565837E+00 0.0000E+00 0.9000E+01
       23  1    3    3    0    0 0.24977278E+03 -.30339213E+02 -.39632543E+03 0.47822171E+03 0.91188000E+02 0.0000E+00 0.9000E+01
#aMCatNLO 1  0  0  1  2 0.86632362D+02 0.00000000D+00  -5  7  0 0.00000000D+00 0.00000000D+00 0.00000000D+00 0.00000000D+00 0.00000000D+00
  <mgrwgt>
 0.3321177362D-03    9    2    0
 0.324326829966705D+03 0.000000000000000D+00 0.000000000000000D+00 0.324326829966705D+03
 0.324326829966705D+03 0.000000000000000D+00 0.000000000000000D+00 -.324326829966705D+03
 0.116740039223687D+03 -.469826355805426D+01 0.456328614047706D+02 -.566440967224301D+02
 0.301288443432109D+02 -.154150496709509D+02 -.255347107296844D+02 -.425465075545452D+01
 0.230460260898298D+03 -.229659466612638D+03 0.102410619356706D+02 0.162352055404372D+02
 0.271324515468213D+03 0.249772779841643D+03 -.303392126107568D+02 0.446635419374475D+02
 0.000000000000000D+00 -.000000000000000D+00 0.000000000000000D+00 0.000000000000000D+00
 0.401352848389222D+03 0.000000000000000D+00 0.000000000000000D+00 0.401352848389222D+03
 0.352511930754520D+03 0.000000000000000D+00 0.000000000000000D+00 -.352511930754520D+03
 0.112216691633784D+03 0.307765940025357D+01 0.325470253072044D+02 -.566440967224301D+02
 0.322764454126424D+02 -.132956154725544D+02 -.291014344084680D+02 -.425465075545452D+01
 0.215661923505469D+03 -.214508080921010D+03 -.152566893762577D+02 0.162352055404372D+02
 0.294258216099485D+03 0.268981333924106D+03 -.626646345242799D+02 0.446635419374475D+02
 0.994515024923617D+02 -.442552969307951D+02 0.744757330018011D+02 0.488409176347026D+02
0.541995882287D-05 0.000000000000D+00 0.000000000000D+00 0.253491894552D-07 0.000000000000D+00  7 -1 1 23 -13 13 23 21 0 0.12931921D-01 0.19252006D+00 0.99040694D+05 0.99040694D+05 0.99040694D+05 0.11220657D+01  1  2  2  1  7  1       -1 0.254187944751D-03 0.100000000000D+01
-.300776937545D-06 0.000000000000D+00 -.208140689877D-07 0.253491894552D-07 0.000000000000D+00  7 -1 1 23 -13 13 23 21 2 0.12931921D-01 0.19252006D+00 0.99040694D+05 0.99040694D+05 0.99040694D+05 0.11220657D+01  1  2  3  1  7  1       -1 -.177598830699D-04 0.100000000000D+01
0.348946916637D-06 0.000000000000D+00 0.000000000000D+00 0.253491894552D-07 0.000000000000D+00  7 -1 1 23 -13 13 23 21 2 0.12931921D-01 0.19252006D+00 0.99040694D+05 0.99040694D+05 0.99040694D+05 0.11220657D+01  1  2 15  1  7  1       -1 0.206041609695D-04 0.100000000000D+01
0.537005475878D-05 0.000000000000D+00 0.000000000000D+00 0.253491894552D-07 0.000000000000D+00  7 -1 1 23 -13 13 23 21 2 0.16463849D-01 0.19252006D+00 0.13010348D+06 0.13010348D+06 0.13010348D+06 0.11124623D+01  1  2 12  1  7  1       -1 0.212270481291D-03 0.100000000000D+01
-.555385329341D-05 0.000000000000D+00 0.000000000000D+00 0.253491894552D-07 0.000000000000D+00  7 -1 1 23 -13 13 23 21 2 0.12931921D-01 0.19252006D+00 0.99040694D+05 0.99040694D+05 0.99040694D+05 0.11220657D+01  1  2  4  1  7  1       -1 -.327936662577D-03 0.100000000000D+01
-.990633684945D-05 0.000000000000D+00 -.290436585456D-05 0.253491894552D-07 0.000000000000D+00  7 -1 1 23 -13 13 23 21 2 0.17405718D-01 0.19252006D+00 0.99040694D+05 0.99040694D+05 0.99040694D+05 0.11220657D+01  1  2  5  1  7  1       -1 -.366795529525D-03 0.100000000000D+01
0.104291758112D-04 0.000000000000D+00 0.278073491397D-05 0.253491894552D-07 0.000000000000D+00  7 -1 1 23 -13 13 23 21 2 0.12931921D-01 0.19252006D+00 0.99040694D+05 0.99040694D+05 0.99040694D+05 0.11220657D+01  1  2  6  1  7  1       -1 0.615808327710D-03 0.100000000000D+01
0.177131593139D-06 0.000000000000D+00 0.000000000000D+00 0.253491894552D-07 0.000000000000D+00  7 21 1 23 -13 13 23 1 2 0.16463849D-01 0.19252006D+00 0.13010348D+06 0.13010348D+06 0.13010348D+06 0.11124623D+01  1  2 12  3  7  1       -1 0.881499066457D-04 0.100000000000D+01
-.316107898490D-06 0.000000000000D+00 -.111483537827D-06 0.253491894552D-07 0.000000000000D+00  7 21 1 23 -13 13 23 1 2 0.17405718D-01 0.19252006D+00 0.99040694D+05 0.99040694D+05 0.99040694D+05 0.11220657D+01  1  2  5  3  7  1       -1 -.146411010045D-03 0.100000000000D+01
  </mgrwgt>
  </event>
  <event>
  8     66 0.58687835E-06 0.31679462E+03 0.75467711E-02 0.10000858E+00
       -3 -1    0    0    0  501 0.00000000E+00 0.00000000E+00 0.21227921E+03 0.21227980E+03 0.50000000E+00 0.0000E+00 0.9000E+01
        3 -1    0    0  501    0 0.00000000E+00 0.00000000E+00 -.28329522E+04 0.28329522E+04 0.50000000E+00 0.0000E+00 0.9000E+01
       25  2    1    2    0    0 -.24439206E+03 0.96809137E+02 0.11048785E+02 0.39876890E+03 0.29965826E+03 0.0000E+00 0.0000E+00
       23  2    1    2    0    0 0.24439206E+03 -.96809137E+02 -.26317217E+04 0.26464631E+04 0.93317344E+02 0.0000E+00 0.0000E+00
       23  1    3    3    0    0 -.13271647E+03 -.36557173E+02 0.88862404E+02 0.18751498E+03 0.91188000E+02 0.0000E+00 0.9000E+01
      -11  1    4    4    0    0 0.19268376E+03 -.42968401E+02 -.16185740E+04 0.16305690E+04 0.51099893E-03 0.0000E+00 0.9000E+01
       11  1    4    4    0    0 0.51708298E+02 -.53840736E+02 -.10131477E+04 0.10158941E+04 0.51099893E-03 0.0000E+00 0.9000E+01
       23  1    3    3    0    0 -.11167559E+03 0.13336631E+03 -.77813618E+02 0.21125392E+03 0.91188000E+02 0.0000E+00 0.9000E+01
#aMCatNLO 1  0  0  1  1 0.42616371D+01 0.00000000D+00  -5  7  0 0.00000000D+00 0.00000000D+00 0.00000000D+00 0.00000000D+00 0.00000000D+00
  <mgrwgt>
 0.1140274520D-05    6    2    0
 0.775485524318771D+03 0.000000000000000D+00 0.000000000000000D+00 0.775485524318771D+03
 0.775485524318771D+03 0.000000000000000D+00 0.000000000000000D+00 -.775485524318771D+03
 0.518324253254550D+03 -.132716472689463D+03 -.365571731961052D+02 0.491319337226476D+03
 0.466615839032460D+03 0.192683761209765D+03 -.429684006499720D+02 -.422796672110375D+03
 0.282728982427050D+03 0.517082982909044D+02 -.538407360993022D+02 -.272695992871878D+03
 0.283301973923484D+03 -.111675586811207D+03 0.133366309945379D+03 0.204173327755777D+03
 0.000000000000000D+00 -.000000000000000D+00 0.000000000000000D+00 -.000000000000000D+00
 0.776229984296402D+03 0.000000000000000D+00 0.000000000000000D+00 0.776229984296402D+03
 0.781611430262777D+03 0.000000000000000D+00 0.000000000000000D+00 -.781611430262777D+03
 0.518193062019849D+03 -.131879234145902D+03 -.377090791445996D+02 0.491319337226476D+03
 0.467024382368121D+03 0.193437901606318D+03 -.440059768765691D+02 -.422796672110375D+03
 0.282933252973003D+03 0.521652074222180D+02 -.544693697788307D+02 -.272695992871878D+03
 0.282826206162388D+03 -.111218301316812D+03 0.132737158450618D+03 0.204173327755777D+03
 0.686451103581855D+01 -.250557356582194D+01 0.344726734938175D+01 -.538144596637517D+01
0.106956948114D-03 0.000000000000D+00 0.000000000000D+00 0.104929982736D-05 0.000000000000D+00  7 -3 3 23 -11 11 23 21 0 0.32658388D-01 0.43583884D+00 0.10035883D+06 0.10035883D+06 0.10035883D+06 0.11215944D+01  1  2  2  1  7  1       -3 0.975486931908D-06 0.100000000000D+01
-.151863797730D-06 0.000000000000D+00 -.410742843168D-06 0.104929982736D-05 0.000000000000D+00  7 -3 3 23 -11 11 23 21 2 0.32658388D-01 0.43583884D+00 0.10035883D+06 0.10035883D+06 0.10035883D+06 0.11215944D+01  1  2  3  1  7  1       -3 -.174236197222D-08 0.100000000000D+01
0.671830164492D-05 0.000000000000D+00 0.000000000000D+00 0.104929982736D-05 0.000000000000D+00  7 -3 3 23 -11 11 23 21 2 0.32658388D-01 0.43583884D+00 0.10035883D+06 0.10035883D+06 0.10035883D+06 0.11215944D+01  1  2 15  1  7  1       -3 0.770803409303D-07 0.100000000000D+01
-.176698947748D-03 0.000000000000D+00 0.000000000000D+00 0.104929982736D-05 0.000000000000D+00  7 -3 3 23 -11 11 23 21 2 0.32658388D-01 0.43583884D+00 0.10035883D+06 0.10035883D+06 0.10035883D+06 0.11215944D+01  1  2  4  1  7  1       -3 -.202730032890D-05 0.100000000000D+01
0.176701849700D-03 0.000000000000D+00 0.000000000000D+00 0.104929982736D-05 0.387257329637D-06  7 -3 3 23 -11 11 23 21 2 0.32689740D-01 0.43928173D+00 0.10191589D+06 0.10191589D+06 0.10191589D+06 0.11210463D+01  1  2 11  1  7  1       -3 0.197618302108D-05 0.100000000000D+01
0.779292820002D-06 0.000000000000D+00 0.000000000000D+00 0.104929982736D-05 0.697589427909D-10  7 21 3 23 -11 11 23 3 2 0.32689740D-01 0.43928173D+00 0.10191589D+06 0.10191589D+06 0.10191589D+06 0.11210463D+01  1  2 11  3  7  1       -3 0.140566916623D-06 0.100000000000D+01
  </mgrwgt>
  </event>
  <event>
  8     66 0.58687835E-06 0.19145926E+03 0.75467711E-02 0.10479153E+00
       -1 -1    0    0    0  501 0.00000000E+00 0.00000000E+00 0.67326783E+02 0.67327543E+02 0.32000000E+00 0.0000E+00 0.9000E+01
        1 -1    0    0  501    0 0.00000000E+00 0.00000000E+00 -.13271864E+04 0.13271864E+04 0.32000000E+00 0.0000E+00 0.9000E+01
       25  2    1    2    0    0 -.16826675E+02 0.29393293E+02 -.28455400E+03 0.41424116E+03 0.29912816E+03 0.0000E+00 0.0000E+00
       23  2    1    2    0    0 0.16826675E+02 -.29393293E+02 -.97530561E+03 0.98027282E+03 0.92556292E+02 0.0000E+00 0.0000E+00
       23  1    3    3    0    0 -.76340512E+02 0.11222075E+03 -.14066572E+03 0.21569299E+03 0.91188000E+02 0.0000E+00 0.9000E+01
      -13  1    4    4    0    0 -.19725191E+02 0.15222595E+02 -.99578933E+02 0.10264885E+03 0.10565837E+00 0.0000E+00 0.9000E+01
       13  1    4    4    0    0 0.36551866E+02 -.44615888E+02 -.87572668E+03 0.87762397E+03 0.10565837E+00 0.0000E+00 0.9000E+01
       23  1    3    3    0    0 0.59513837E+02 -.82827459E+02 -.14388828E+03 0.19854817E+03 0.91188000E+02 0.0000E+00 0.9000E+01
#aMCatNLO 1  0  0  2  1 0.73519020D+02 0.00000000D+00  -5  7  0 0.00000000D+00 0.00000000D+00 0.00000000D+00 0.00000000D+00 0.00000000D+00
  <mgrwgt>
 0.3047577769D-03    4    2    0
 0.298924317626876D+03 0.000000000000000D+00 0.000000000000000D+00 0.298924317626876D+03
 0.298924317626876D+03 0.000000000000000D+00 0.000000000000000D+00 -.298924317626876D+03
 0.206687488567144D+03 -.763405113242998D+02 0.112220751596571D+03 0.126424269141801D+03
 0.295888279804079D+02 -.197252638530605D+02 0.152226721811719D+02 -.159587893916140D+02
 0.201667034968471D+03 0.365519389969605D+02 -.446159652528328D+02 -.193243277743613D+03
 0.159905283737729D+03 0.595138361803998D+02 -.828274585249099D+02 0.827777979934253D+02
 0.000000000000000D+00 0.000000000000000D+00 -.000000000000000D+00 0.000000000000000D+00
 0.535939332196113D+03 0.000000000000000D+00 0.000000000000000D+00 0.535939332196113D+03
 0.306931890620206D+03 0.000000000000000D+00 0.000000000000000D+00 -.306931890620206D+03
 0.224031308083520D+03 -.974575798576119D+02 0.128037884853943D+03 0.126424269141801D+03
 0.328754038873750D+02 -.227877293769473D+02 0.175165239632511D+02 -.159587893916140D+02
 0.196299370710015D+03 0.170406385196691D+02 -.300015864063033D+02 -.193243277743613D+03
 0.149146004531581D+03 0.443618221855601D+02 -.714782779274285D+02 0.827777979934253D+02
 0.240519135603828D+03 0.588428485293300D+02 -.440745444834625D+02 0.229007441575906D+03
0.522342744445D-05 0.000000000000D+00 0.000000000000D+00 0.142515619140D-06 0.000000000000D+00  7 -1 1 23 -13 13 23 21 0 0.10358028D-01 0.20418258D+00 0.36656649D+05 0.36656649D+05 0.36656649D+05 0.11593461D+01  1  2  2  2  7  2        1 0.310294050125D-03 0.100000000000D+01
-.220159475795D-06 0.000000000000D+00 -.200593367467D-07 0.142515619140D-06 0.000000000000D+00  7 -1 1 23 -13 13 23 21 2 0.10358028D-01 0.20418258D+00 0.36656649D+05 0.36656649D+05 0.36656649D+05 0.11593461D+01  1  2  3  2  7  2        1 -.175784861759D-04 0.100000000000D+01
0.324626028888D-06 0.000000000000D+00 0.000000000000D+00 0.142515619140D-06 0.000000000000D+00  7 -1 1 23 -13 13 23 21 2 0.10358028D-01 0.20418258D+00 0.36656649D+05 0.36656649D+05 0.36656649D+05 0.11593461D+01  1  2 15  2  7  2        1 0.259195482754D-04 0.100000000000D+01
-.173804890651D-06 0.000000000000D+00 0.000000000000D+00 0.142515619140D-06 0.000000000000D+00  7 -1 1 23 -13 13 23 21 2 0.10358028D-01 0.20418258D+00 0.36656649D+05 0.36656649D+05 0.36656649D+05 0.11593461D+01  1  2  4  2  7  2        1 -.138773353115D-04 0.100000000000D+01
  </mgrwgt>
  </event>
  <event>
  9     66 0.58687835E-06 0.20255281E+03 0.75467711E-02 0.10441625E+00
       -3 -1    0    0    0  501 0.00000000E+00 0.00000000E+00 0.37440197E+02 0.37443535E+02 0.50000000E+00 0.0000E+00 0.9000E+01
       21 -1    0    0  501  502 0.00000000E+00 0.00000000E+00 -.20404162E+04 0.20404163E+04 0.75000000E+00 0.0000E+00 0.9000E+01
       25  2    1    2    0    0 -.11799713E+03 0.20682518E+02 -.10054448E+04 0.10559516E+04 0.29960534E+03 0.0000E+00 0.0000E+00
       23  2    1    2    0    0 0.14032451E+03 0.25488487E+02 -.81005681E+03 0.82754481E+03 0.91091969E+02 0.0000E+00 0.0000E+00
       23  1    3    3    0    0 -.93873959E+02 0.57568504E+02 -.20979291E+03 0.25387944E+03 0.91188000E+02 0.0000E+00 0.9000E+01
      -11  1    4    4    0    0 0.11151104E+03 -.15231040E+02 -.65683715E+03 0.66640959E+03 0.51099893E-03 0.0000E+00 0.9000E+01
       11  1    4    4    0    0 0.28813464E+02 0.40719527E+02 -.15321966E+03 0.16113522E+03 0.51099893E-03 0.0000E+00 0.9000E+01
       23  1    3    3    0    0 -.24123176E+02 -.36885986E+02 -.79565191E+03 0.80207214E+03 0.91188000E+02 0.0000E+00 0.9000E+01
       -3  1    1    2    0  502 -.22327374E+02 -.46171005E+02 -.18747434E+03 0.19436345E+03 0.50000000E+00 0.0000E+00 0.9000E+01
#aMCatNLO 2  0  0  2  1 0.51286190D+02 0.00000000D+00  -5  7  0 0.00000000D+00 0.00000000D+00 0.00000000D+00 0.00000000D+00 0.00000000D+00
  <mgrwgt>
 0.3948687445D-06    2    2    0
 0.249440475588699D+03 0.000000000000000D+00 0.000000000000000D+00 0.249440475588699D+03
 0.249440475588699D+03 0.000000000000000D+00 0.000000000000000D+00 -.249440475588699D+03
 0.193913195365953D+03 -.102532040467366D+03 0.396643681818105D+02 0.131152562183781D+03
 0.122082472049842D+03 0.105996393672218D+03 -.266348427275520D+02 -.544010998341336D+02
 0.457096540893466D+02 0.266661591762815D+02 0.362790934357958D+02 0.788135846347147D+01
 0.137175629672255D+03 -.301305123811334D+02 -.493086188900544D+02 -.846328208131189D+02
 0.000000000000000D+00 -.000000000000000D+00 -.000000000000000D+00 -.000000000000000D+00
 0.276159955987106D+03 0.000000000000000D+00 0.000000000000000D+00 0.276159955987106D+03
 0.276638664508591D+03 0.000000000000000D+00 0.000000000000000D+00 -.276638664508591D+03
 0.194017263862385D+03 -.938739585725897D+02 0.575685041249786D+02 0.131152562183781D+03
 0.125004709096700D+03 0.111511044555192D+03 -.152310398659211D+02 -.544010998341336D+02
 0.505015976934362D+02 0.288134638730853D+02 0.407195267407954D+02 0.788135846347147D+01
 0.131986625420840D+03 -.241231757770053D+02 -.368859861956727D+02 -.846328208131189D+02
 0.512884244223353D+02 -.223273740786824D+02 -.461710048041803D+02 -.478708521485419D+00
-.363749053687D-07 0.000000000000D+00 0.000000000000D+00 0.126921270645D-06 0.000000000000D+00  7 -3 21 23 -11 11 23 -3 2 0.52029450D-02 0.32750482D+00 0.52434244D+05 0.52434244D+05 0.52434244D+05 0.11454839D+01  1  2 13  4  7  2        3 -.980585975908D-06 0.100000000000D+01
0.487893921149D-07 0.000000000000D+00 0.000000000000D+00 0.126921270645D-06 0.615201024113D-11  7 -3 21 23 -11 11 23 -3 2 0.57602723D-02 0.31390906D+00 0.52434244D+05 0.52434244D+05 0.52434244D+05 0.11454839D+01  1  2  1  4  7  2        3 0.137545472044D-05 0.100000000000D+01
  </mgrwgt>
  </event>
  <event>
  8     66 0.58687835E-06 0.28308484E+03 0.75467711E-02 0.91885849E-01
       -1 -1    0    0    0  501 0.00000000E+00 0.00000000E+00 0.20204019E+03 0.20204045E+03 0.32000000E+00 0.0000E+00 0.9000E+01
        1 -1    0    0  501    0 0.00000000E+00 0.00000000E+00 -.12679605E+04 0.12679606E+04 0.32000000E+00 0.0000E+00 0.9000E+01
       25  2    1    2    0    0 0.21930693E+03 -.16740289E+02 -.11554979E+04 0.12141219E+04 0.30090003E+03 0.0000E+00 0.0000E+00
       23  2    1    2    0    0 -.21930693E+03 0.16740289E+02 0.89577585E+02 0.25587910E+03 0.95258612E+02 0.0000E+00 0.0000E+00
       23  1    3    3    0    0 -.17502794E+01 -.18502657E+01 -.63015796E+03 0.63672662E+03 0.91188000E+02 0.0000E+00 0.9000E+01
      -13  1    4    4    0    0 -.29057925E+02 -.27525690E+02 -.21488522E+01 0.40083105E+02 0.10565837E+00 0.0000E+00 0.9000E+01
       13  1    4    4    0    0 -.19024900E+03 0.44265979E+02 0.91726437E+02 0.21579599E+03 0.10565837E+00 0.0000E+00 0.9000E+01
       23  1    3    3    0    0 0.22105721E+03 -.14890024E+02 -.52533994E+03 0.57739528E+03 0.91188000E+02 0.0000E+00 0.9000E+01
#aMCatNLO 1  0  0  1  1 0.52078301D+03 0.00000000D+00  -5  7  0 0.00000000D+00 0.00000000D+00 0.00000000D+00 0.00000000D+00 0.00000000D+00
  <mgrwgt>
 0.2145342458D-03    5    2    0
 0.506141486158759D+03 0.000000000000000D+00 0.000000000000000D+00 0.506141486158759D+03
 0.506141486158759D+03 0.000000000000000D+00 0.000000000000000D+00 -.506141486158759D+03
 0.261083716431850D+03 -.175027905317449D+01 -.185026576427181D+01 -.244628225439552D+03
 0.559440985820833D+02 -.290577266535397D+02 -.275257772326233D+02 0.390860880062205D+02
 0.409958331508027D+03 -.190249201559828D+03 0.442660666902105D+02 0.360432504386703D+03
 0.285296825795557D+03 0.221057207266542D+03 -.148900236933154D+02 -.154890366953372D+03
 0.000000000000000D+00 -.000000000000000D+00 0.000000000000000D+00 0.000000000000000D+00
 0.100639436579226D+04 0.000000000000000D+00 0.000000000000000D+00 0.100639436579226D+04
 0.724281525330151D+03 0.000000000000000D+00 0.000000000000000D+00 -.724281525330151D+03
 0.294451511828634D+03 0.136153392567588D+02 -.135492048952650D+03 -.244628225439552D+03
 0.752742257687818D+02 -.254283426204915D+02 -.590921837558439D+02 0.390860880062205D+02
 0.427225610466397D+03 -.167093426276478D+03 -.157130260978279D+03 0.360432504386703D+03
 0.341438636339118D+03 0.238392161743895D+03 -.165660020781236D+03 -.154890366953372D+03
 0.592285906719482D+03 -.594857321036841D+02 0.517374514468008D+03 0.282112840462111D+03
0.164351912530D-04 0.000000000000D+00 0.000000000000D+00 0.627178094222D-07 0.000000000000D+00  7 -1 1 23 -13 13 23 21 0 0.31083129D-01 0.19507087D+00 0.80137025D+05 0.80137025D+05 0.80137025D+05 0.11297001D+01  1  2  2  1  7  1       -1 0.184598662273D-03 0.100000000000D+01
-.538231219829D-06 0.000000000000D+00 -.631154618966D-07 0.627178094222D-07 0.000000000000D+00  7 -1 1 23 -13 13 23 21 2 0.31083129D-01 0.19507087D+00 0.80137025D+05 0.80137025D+05 0.80137025D+05 0.11297001D+01  1  2  3  1  7  1       -1 -.771523252334D-05 0.100000000000D+01
0.101317576914D-05 0.000000000000D+00 0.000000000000D+00 0.627178094222D-07 0.000000000000D+00  7 -1 1 23 -13 13 23 21 2 0.31083129D-01 0.19507087D+00 0.80137025D+05 0.80137025D+05 0.80137025D+05 0.11297001D+01  1  2 15  1  7  1       -1 0.145232873120D-04 0.100000000000D+01
0.437266796113D-05 0.000000000000D+00 -.521754388457D-05 0.627178094222D-07 0.000000000000D+00  7 -1 1 23 -13 13 23 21 2 0.86524310D-01 0.19507087D+00 0.80137025D+05 0.80137025D+05 0.80137025D+05 0.11297001D+01  1  2  5  1  7  1       -1 0.968141303275D-05 0.100000000000D+01
0.795472349298D-06 0.000000000000D+00 -.599196895417D-06 0.627178094222D-07 0.000000000000D+00  7 21 1 23 -13 13 23 1 2 0.86524310D-01 0.19507087D+00 0.80137025D+05 0.80137025D+05 0.80137025D+05 0.11297001D+01  1  2  5  3  7  1       -1 0.134461156716D-04 0.100000000000D+01
  </mgrwgt>
  </event>
  <event>
  8     66 0.58687835E-06 0.13147259E+03 0.75467711E-02 0.10134154E+00
       -1 -1    0    0    0  501 0.00000000E+00 0.00000000E+00 0.19777817E+03 0.19777843E+03 0.32000000E+00 0.0000E+00 0.9000E+01
        1 -1    0    0  501    0 0.00000000E+00 0.00000000E+00 -.36354302E+03 0.36354316E+03 0.32000000E+00 0.0000E+00 0.9000E+01
       25  2    1    2    0    0 0.72056700E+02 0.15159230E+03 -.10614779E+03 0.35939851E+03 0.29954555E+03 0.0000E+00 0.0000E+00
       23  2    1    2    0    0 -.72056700E+02 -.15159230E+03 -.59617062E+02 0.20192308E+03 0.95112254E+02 0.0000E+00 0.0000E+00
       23  1    3    3    0    0 0.10244364E+03 0.19425324E+03 -.81700989E+02 0.25143454E+03 0.91188000E+02 0.0000E+00 0.9000E+01
      -11  1    4    4    0    0 -.31336496E+02 0.43898405E+01 -.11802488E+02 0.33771962E+02 0.51099893E-03 0.0000E+00 0.9000E+01
       11  1    4    4    0    0 -.40720204E+02 -.15598215E+03 -.47814573E+02 0.16815112E+03 0.51099893E-03 0.0000E+00 0.9000E+01
       23  1    3    3    0    0 -.30386944E+02 -.42660938E+02 -.24446802E+02 0.10796397E+03 0.91188000E+02 0.0000E+00 0.9000E+01
#aMCatNLO 1  0  0  2  1 0.38469864D+02 0.00000000D+00  -5  7  0 0.00000000D+00 0.00000000D+00 0.00000000D+00 0.00000000D+00 0.00000000D+00
  <mgrwgt>
 0.2035852782D-03    9    2    0
 0.268143589025450D+03 0.000000000000000D+00 0.000000000000000D+00 0.268143589025450D+03
 0.268143589025450D+03 0.000000000000000D+00 0.000000000000000D+00 -.268143589025450D+03
 0.237918199579239D+03 0.102443643741526D+03 0.194253242982028D+03 -.779716582810355D+01
 0.317003539367152D+02 -.313364957355909D+02 0.438984029284151D+01 -.191462187641508D+01
 0.161221225557594D+03 -.407202042600047D+02 -.155982145414952D+03 0.192843124455887D+01
 0.105447398977352D+03 -.303869437459307D+02 -.426609378599176D+02 0.778335645995976D+01
 0.000000000000000D+00 -.000000000000000D+00 -.000000000000000D+00 -.000000000000000D+00
 0.283907870247467D+03 0.000000000000000D+00 0.000000000000000D+00 0.283907870247467D+03
 0.293374953475098D+03 0.000000000000000D+00 0.000000000000000D+00 -.293374953475098D+03
 0.253105613665013D+03 0.104133501073851D+03 0.211760757658009D+03 -.779716582810355D+01
 0.318792866292146D+02 -.311176865477288D+02 0.665678022585027D+01 -.191462187641508D+01
 0.150217440112675D+03 -.396483888030818D+02 -.144877761344728D+03 0.192843124455887D+01
 0.102462860022126D+03 -.296714210642210D+02 -.352478719096726D+02 0.778335645995976D+01
 0.396176232935362D+02 -.369600465881992D+01 -.382919046294595D+02 -.946708322763128D+01
0.142994740151D-05 0.000000000000D+00 0.000000000000D+00 0.155989662200D-07 0.000000000000D+00  7 -1 1 23 -11 11 23 21 0 0.30427441D-01 0.55929726D-01 0.71771033D+05 0.71771033D+05 0.71771033D+05 0.11337383D+01  1  2  2  2  7  2        1 0.113673951925D-03 0.100000000000D+01
-.794414432837D-07 0.000000000000D+00 -.549137453558D-08 0.155989662200D-07 0.000000000000D+00  7 -1 1 23 -11 11 23 21 2 0.30427441D-01 0.55929726D-01 0.71771033D+05 0.71771033D+05 0.71771033D+05 0.11337383D+01  1  2  3  2  7  2        1 -.811733877197D-05 0.100000000000D+01
0.948235510959D-07 0.000000000000D+00 0.000000000000D+00 0.155989662200D-07 0.000000000000D+00  7 -1 1 23 -11 11 23 21 2 0.30427441D-01 0.55929726D-01 0.71771033D+05 0.71771033D+05 0.71771033D+05 0.11337383D+01  1  2 15  2  7  2        1 0.968908489059D-05 0.100000000000D+01
0.220369964398D-05 0.000000000000D+00 0.000000000000D+00 0.155989662200D-07 0.000000000000D+00  7 -1 1 23 -11 11 23 21 2 0.30427441D-01 0.62709905D-01 0.82842931D+05 0.82842931D+05 0.82842931D+05 0.11284925D+01  1  2 12  2  7  2        1 0.191516127084D-03 0.100000000000D+01
-.198750587955D-05 0.000000000000D+00 0.000000000000D+00 0.155989662200D-07 0.000000000000D+00  7 -1 1 23 -11 11 23 21 2 0.30427441D-01 0.55929726D-01 0.71771033D+05 0.71771033D+05 0.71771033D+05 0.11337383D+01  1  2  4  2  7  2        1 -.203083653428D-03 0.100000000000D+01
-.650013192485D-05 0.000000000000D+00 -.143533957148D-05 0.155989662200D-07 0.000000000000D+00  7 -1 1 23 -11 11 23 21 2 0.30427441D-01 0.64268000D-01 0.71771033D+05 0.71771033D+05 0.71771033D+05 0.11337383D+01  1  2  5  2  7  2        1 -.552170196715D-03 0.100000000000D+01
0.664903886768D-05 0.000000000000D+00 0.142159093795D-05 0.155989662200D-07 0.000000000000D+00  7 -1 1 23 -11 11 23 21 2 0.30427441D-01 0.55929726D-01 0.71771033D+05 0.71771033D+05 0.71771033D+05 0.11337383D+01  1  2  6  2  7  2        1 0.679399804007D-03 0.100000000000D+01
0.401665281313D-07 0.000000000000D+00 0.000000000000D+00 0.155989662200D-07 0.000000000000D+00  7 -1 21 23 -11 11 23 -1 2 0.30427441D-01 0.62709905D-01 0.82842931D+05 0.82842931D+05 0.82842931D+05 0.11284925D+01  1  2 12  4  7  2        1 0.128644441630D-04 0.100000000000D+01
-.130643067509D-06 0.000000000000D+00 -.307646701734D-07 0.155989662200D-07 0.000000000000D+00  7 -1 21 23 -11 11 23 -1 2 0.30427441D-01 0.64268000D-01 0.71771033D+05 0.71771033D+05 0.71771033D+05 0.11337383D+01  1  2  5  4  7  2        1 -.401869449995D-04 0.100000000000D+01
  </mgrwgt>
  </event>
  <event>
  8     66 0.58687835E-06 0.33602208E+03 0.75467711E-02 0.85752747E-01
       -3 -1    0    0    0  501 0.00000000E+00 0.00000000E+00 0.37725555E+03 0.37725588E+03 0.50000000E+00 0.0000E+00 0.9000E+01
        3 -1    0    0  501    0 0.00000000E+00 0.00000000E+00 -.35120891E+03 0.35120926E+03 0.50000000E+00 0.0000E+00 0.9000E+01
       25  2    1    2    0    0 0.27746343E+03 -.71847983E+02 -.51020243E+02 0.41849670E+03 0.30064653E+03 0.0000E+00 0.0000E+00
       23  2    1    2    0    0 -.27746343E+03 0.71847983E+02 0.77066881E+02 0.30996844E+03 0.89403814E+02 0.0000E+00 0.0000E+00
       23  1    3    3    0    0 0.21767364E+03 -.11955254E+03 0.41441117E+02 0.26778208E+03 0.91188000E+02 0.0000E+00 0.9000E+01
      -13  1    4    4    0    0 -.19132066E+02 -.33306367E+01 0.31622026E+02 0.37109201E+02 0.10565837E+00 0.0000E+00 0.9000E+01
       13  1    4    4    0    0 -.25833136E+03 0.75178619E+02 0.45444855E+02 0.27285924E+03 0.10565837E+00 0.0000E+00 0.9000E+01
       23  1    3    3    0    0 0.59789792E+02 0.47704557E+02 -.92461360E+02 0.15071463E+03 0.91188000E+02 0.0000E+00 0.9000E+01
#aMCatNLO 1  0  0  1  1 0.10907147D+04 0.00000000D+00  -5  7  0 0.00000000D+00 0.00000000D+00 0.00000000D+00 0.00000000D+00 0.00000000D+00
  <mgrwgt>
 0.3365432756D-04    5    2    0
 0.363999669197198D+03 0.000000000000000D+00 0.000000000000000D+00 0.363999669197198D+03
 0.363999669197198D+03 0.000000000000000D+00 0.000000000000000D+00 -.363999669197198D+03
 0.266470718629081D+03 0.217673639166144D+03 -.119552540088542D+03 0.318868235050763D+02
 0.360012308646202D+02 -.191317323713577D+02 -.333074619700501D+01 0.303145438693964D+02
 0.271408211873389D+03 -.258331698581148D+03 0.751787289277169D+02 0.357114785090524D+02
 0.154119177027305D+03 0.597897917863608D+02 0.477045573578297D+02 -.979128458835252D+02
 0.000000000000000D+00 0.000000000000000D+00 -.000000000000000D+00 0.000000000000000D+00
 0.539056359047872D+04 0.000000000000000D+00 0.000000000000000D+00 0.539056359047872D+04
 0.718488975114466D+03 0.000000000000000D+00 0.000000000000000D+00 -.718488975114466D+03
 0.158026228557283D+03 0.100254645782523D+03 0.747614476439262D+02 0.318868235050763D+02
 0.754027456105238D+02 -.499468957390725D+02 0.476645579191293D+02 0.303145438693964D+02
 0.785463183880806D+03 -.550670138817135D+03 0.558962880475965D+03 0.357114785090524D+02
 0.292458898626781D+03 -.637370049504751D+02 0.252126208183366D+03 -.979128458835252D+02
 0.479770150891779D+04 0.564099393724159D+03 -.933515094222387D+03 0.467207461536425D+04
0.792189175958D-05 0.000000000000D+00 0.000000000000D+00 0.134495679900D-06 0.000000000000D+00  7 -3 3 23 -13 13 23 21 0 0.58039368D-01 0.54032193D-01 0.11291084D+06 0.11291084D+06 0.11291084D+06 0.11174200D+01  1  2  2  1  7  1       -3 0.332449381796D-04 0.100000000000D+01
-.436682482399D-06 0.000000000000D+00 -.304221502388D-07 0.134495679900D-06 0.000000000000D+00  7 -3 3 23 -13 13 23 21 2 0.58039368D-01 0.54032193D-01 0.11291084D+06 0.11291084D+06 0.11291084D+06 0.11174200D+01  1  2  3  1  7  1       -3 -.228820680457D-05 0.100000000000D+01
0.514830524956D-06 0.000000000000D+00 0.000000000000D+00 0.134495679900D-06 0.000000000000D+00  7 -3 3 23 -13 13 23 21 2 0.58039368D-01 0.54032193D-01 0.11291084D+06 0.11291084D+06 0.11291084D+06 0.11174200D+01  1  2 15  1  7  1       -3 0.269770086479D-05 0.100000000000D+01
-.989701745902D-05 0.000000000000D+00 -.820592349172D-05 0.134495679900D-06 0.000000000000D+00  7 -3 3 23 -13 13 23 21 2 0.88932747D+00 0.54032193D-01 0.11291084D+06 0.11291084D+06 0.11291084D+06 0.11174200D+01  1  2  5  1  7  1       -3 -.970857482176D-10 0.100000000000D+01
-.487144744429D-05 0.000000000000D+00 -.251474755658D-05 0.134495679900D-06 0.000000000000D+00  7 21 3 23 -13 13 23 3 2 0.88932747D+00 0.54032193D-01 0.11291084D+06 0.11291084D+06 0.11291084D+06 0.11174200D+01  1  2  5  3  7  1       -3 -.759304707508D-11 0.100000000000D+01
  </mgrwgt>
  </event>
  <event>
  8     66 0.58687835E-06 0.36565412E+03 0.75467711E-02 0.98264001E-01
       -1 -1    0    0    0  501 0.00000000E+00 0.00000000E+00 0.11249293E+04 0.11249294E+04 0.32000000E+00 0.0000E+00 0.9000E+01
        1 -1    0    0  501    0 0.00000000E+00 0.00000000E+00 -.22828356E+03 0.22828379E+03 0.32000000E+00 0.0000E+00 0.9000E+01
       25  2    1    2    0    0 -.15967797E+03 -.28266860E+03 0.91422352E+03 0.10157761E+04 0.30099463E+03 0.0000E+00 0.0000E+00
       23  2    1    2    0    0 0.15967797E+03 0.28266860E+03 -.17577751E+02 0.33743711E+03 0.90311871E+02 0.0000E+00 0.0000E+00
       23  1    3    3    0    0 -.15382856E+03 -.14049530E+03 0.28697699E+03 0.36616007E+03 0.91188000E+02 0.0000E+00 0.9000E+01
      -11  1    4    4    0    0 0.64416316E+02 0.19522623E+03 0.75110107E+01 0.20571620E+03 0.51099893E-03 0.0000E+00 0.9000E+01
       11  1    4    4    0    0 0.95261650E+02 0.87442376E+02 -.25088762E+02 0.13172091E+03 0.51099893E-03 0.0000E+00 0.9000E+01
       23  1    3    3    0    0 -.58494013E+01 -.14217330E+03 0.62724654E+03 0.64961599E+03 0.91188000E+02 0.0000E+00 0.9000E+01
#aMCatNLO 1  0  0  2  1 0.28868361D+01 0.00000000D+00  -5  7  0 0.00000000D+00 0.00000000D+00 0.00000000D+00 0.00000000D+00 0.00000000D+00
  <mgrwgt>
 0.5927514738D-04    6    2    0
 0.506757398232958D+03 0.000000000000000D+00 0.000000000000000D+00 0.506757398232958D+03
 0.506757398232958D+03 0.000000000000000D+00 0.000000000000000D+00 -.506757398232958D+03
 0.234999955625720D+03 -.153828564472185D+03 -.140495302744362D+03 0.592247453290198D+02
 0.268020910908376D+03 0.644163155931655D+02 0.195226225546473D+03 -.171966472977831D+03
 0.198065383422733D+03 0.952616501450947D+02 0.874423762336293D+02 -.150029813572651D+03
 0.312428546509086D+03 -.584940126607512D+01 -.142173299035740D+03 0.262771541221462D+03
 0.000000000000000D+00 -.000000000000000D+00 0.000000000000000D+00 0.000000000000000D+00
 0.508841000536101D+03 0.000000000000000D+00 0.000000000000000D+00 0.508841000536101D+03
 0.507760371046247D+03 0.000000000000000D+00 0.000000000000000D+00 -.507760371046247D+03
 0.234830960603561D+03 -.153254726254606D+03 -.140839437429044D+03 0.592247453290198D+02
 0.267893357677179D+03 0.650708661517545D+02 0.194833687121551D+03 -.171966472977831D+03
 0.198170789916987D+03 0.957456018213157D+02 0.871521471195764D+02 -.150029813572651D+03
 0.312623799607248D+03 -.508597997599145D+01 -.142631127979325D+03 0.262771541221462D+03
 0.308246377737200D+01 -.247576174247260D+01 0.148473116724130D+01 0.108062948985385D+01
0.176461620012D-04 0.000000000000D+00 0.000000000000D+00 0.218460263433D-06 0.000000000000D+00  7 -1 1 23 -11 11 23 21 0 0.17306607D+00 0.35120569D-01 0.13370294D+06 0.13370294D+06 0.13370294D+06 0.11115154D+01  1  2  2  2  7  2        1 0.658865376235D-04 0.100000000000D+01
-.853398412740D-06 0.000000000000D+00 -.677659084257D-07 0.218460263433D-06 0.000000000000D+00  7 -1 1 23 -11 11 23 21 2 0.17306607D+00 0.35120569D-01 0.13370294D+06 0.13370294D+06 0.13370294D+06 0.11115154D+01  1  2  3  2  7  2        1 -.393667183692D-05 0.100000000000D+01
0.113503946107D-05 0.000000000000D+00 0.000000000000D+00 0.218460263433D-06 0.000000000000D+00  7 -1 1 23 -11 11 23 21 2 0.17306607D+00 0.35120569D-01 0.13370294D+06 0.13370294D+06 0.13370294D+06 0.11115154D+01  1  2 15  2  7  2        1 0.523586382807D-05 0.100000000000D+01
-.211495497816D-03 0.000000000000D+00 0.000000000000D+00 0.218460263433D-06 0.000000000000D+00  7 -1 1 23 -11 11 23 21 2 0.17306607D+00 0.35120569D-01 0.13370294D+06 0.13370294D+06 0.13370294D+06 0.11115154D+01  1  2  4  2  7  2        1 -.975615090743D-03 0.100000000000D+01
0.211499593886D-03 0.000000000000D+00 0.000000000000D+00 0.218460263433D-06 0.172639287150D-06  7 -1 1 23 -11 11 23 21 2 0.17377766D+00 0.35190080D-01 0.13482710D+06 0.13482710D+06 0.13482710D+06 0.11112254D+01  1  2 11  2  7  2        1 0.959492106748D-03 0.100000000000D+01
0.313385420862D-06 0.000000000000D+00 0.000000000000D+00 0.218460263433D-06 0.641197057659D-10  7 -1 21 23 -11 11 23 -1 2 0.17377766D+00 0.35190080D-01 0.13482710D+06 0.13482710D+06 0.13482710D+06 0.11112254D+01  1  2 11  4  7  2        1 0.821240176242D-05 0.100000000000D+01
  </mgrwgt>
  </event>
  <event>
  8     66 0.58687835E-06 0.36494420E+03 0.75467711E-02 0.90446699E-01
       -1 -1    0    0    0  501 0.00000000E+00 0.00000000E+00 0.34641673E+03 0.34641687E+03 0.32000000E+00 0.0000E+00 0.9000E+01
        1 -1    0    0  501    0 0.00000000E+00 0.00000000E+00 -.17464373E+04 0.17464373E+04 0.32000000E+00 0.0000E+00 0.9000E+01
       25  2    1    2    0    0 -.50521929E+03 0.28426063E+03 -.13553715E+04 0.15042878E+04 0.29966506E+03 0.0000E+00 0.0000E+00
       23  2    1    2    0    0 0.50521929E+03 -.28426063E+03 -.44649069E+02 0.58856643E+03 0.91467316E+02 0.0000E+00 0.0000E+00
       23  1    3    3    0    0 -.75130809E+02 -.17278645E+02 -.25472882E+03 0.28132759E+03 0.91188000E+02 0.0000E+00 0.9000E+01
      -13  1    4    4    0    0 0.20207006E+03 -.12559913E+03 -.62324979E+02 0.24595094E+03 0.10565837E+00 0.0000E+00 0.9000E+01
       13  1    4    4    0    0 0.30314923E+03 -.15866150E+03 0.17675910E+02 0.34261549E+03 0.10565837E+00 0.0000E+00 0.9000E+01
       23  1    3    3    0    0 -.43008848E+03 0.30153927E+03 -.11006427E+04 0.12229602E+04 0.91188000E+02 0.0000E+00 0.9000E+01
#aMCatNLO 1  0  0  2  1 0.21819140D+03 0.00000000D+00  -5  7  0 0.00000000D+00 0.00000000D+00 0.00000000D+00 0.00000000D+00 0.00000000D+00
  <mgrwgt>
 0.2107649145D-03    9    2    0
 0.777814419668502D+03 0.000000000000000D+00 0.000000000000000D+00 0.777814419668502D+03
 0.777814419668502D+03 0.000000000000000D+00 0.000000000000000D+00 -.777814419668502D+03
 0.149233567671464D+03 -.751308092808365D+02 -.172786449804481D+02 -.895109842443910D+02
 0.274797416225301D+03 0.202069925430187D+03 -.125599087598461D+03 0.137499943255168D+03
 0.476843382401002D+03 0.303149360882824D+03 -.158661542368045D+03 0.332124361210310D+03
 0.654754473039237D+03 -.430088477032175D+03 0.301539274946954D+03 -.380113320221087D+03
 0.000000000000000D+00 -.000000000000000D+00 -.000000000000000D+00 -.000000000000000D+00
 0.836804843661201D+03 0.000000000000000D+00 0.000000000000000D+00 0.836804843661201D+03
 0.101708628711368D+04 0.000000000000000D+00 0.000000000000000D+00 -.101708628711368D+04
 0.139964749464308D+03 -.561736156654440D+02 -.103531807324004D+02 -.895109842443910D+02
 0.298063703442438D+03 0.239621455009709D+03 -.111880718685917D+03 0.137499943255168D+03
 0.513812672491091D+03 0.368087700859517D+03 -.134938191699146D+03 0.332124361210310D+03
 0.619014874451248D+03 -.346591821930987D+03 0.332042371104886D+03 -.380113320221087D+03
 0.283035130925798D+03 -.204943718272795D+03 -.748702799874224D+02 -.180281443452481D+03
0.812409821264D-04 0.000000000000D+00 0.000000000000D+00 0.411965634649D-05 0.000000000000D+00  7 -1 1 23 -13 13 23 21 0 0.53294894D-01 0.26868267D+00 0.37983275D+06 0.37983275D+06 0.37983275D+06 0.10770510D+01  1  2  2  2  7  2        1 0.158313034311D-03 0.100000000000D+01
-.421612263675D-05 0.000000000000D+00 -.311986762607D-06 0.411965634649D-05 0.000000000000D+00  7 -1 1 23 -13 13 23 21 2 0.53294894D-01 0.26868267D+00 0.37983275D+06 0.37983275D+06 0.37983275D+06 0.10770510D+01  1  2  3  2  7  2        1 -.953075519010D-05 0.100000000000D+01
0.523562514510D-05 0.000000000000D+00 0.000000000000D+00 0.411965634649D-05 0.000000000000D+00  7 -1 1 23 -13 13 23 21 2 0.53294894D-01 0.26868267D+00 0.37983275D+06 0.37983275D+06 0.37983275D+06 0.10770510D+01  1  2 15  2  7  2        1 0.118353913831D-04 0.100000000000D+01
0.729097459462D-04 0.000000000000D+00 0.000000000000D+00 0.411965634649D-05 0.000000000000D+00  7 -1 1 23 -13 13 23 21 2 0.53294894D-01 0.35916957D+00 0.54085005D+06 0.54085005D+06 0.54085005D+06 0.10661082D+01  1  2 12  2  7  2        1 0.635738919412D-04 0.100000000000D+01
-.834243552305D-04 0.000000000000D+00 0.000000000000D+00 0.411965634649D-05 0.000000000000D+00  7 -1 1 23 -13 13 23 21 2 0.53294894D-01 0.26868267D+00 0.37983275D+06 0.37983275D+06 0.37983275D+06 0.10770510D+01  1  2  4  2  7  2        1 -.188584909666D-03 0.100000000000D+01
-.119230636578D-03 0.000000000000D+00 -.332000860746D-04 0.411965634649D-05 0.000000000000D+00  7 -1 1 23 -13 13 23 21 2 0.53294894D-01 0.36073756D+00 0.37983275D+06 0.37983275D+06 0.37983275D+06 0.10770510D+01  1  2  5  2  7  2        1 -.106878043739D-03 0.100000000000D+01
0.124940782015D-03 0.000000000000D+00 0.318095255912D-04 0.411965634649D-05 0.000000000000D+00  7 -1 1 23 -13 13 23 21 2 0.53294894D-01 0.26868267D+00 0.37983275D+06 0.37983275D+06 0.37983275D+06 0.10770510D+01  1  2  6  2  7  2        1 0.282434859999D-03 0.100000000000D+01
0.275187305274D-05 0.000000000000D+00 0.000000000000D+00 0.411965634649D-05 0.000000000000D+00  7 -1 21 23 -13 13 23 -1 2 0.53294894D-01 0.35916957D+00 0.54085005D+06 0.54085005D+06 0.54085005D+06 0.10661082D+01  1  2 12  4  7  2        1 0.901859745414D-06 0.100000000000D+01
-.382525017639D-05 0.000000000000D+00 -.126667522159D-05 0.411965634649D-05 0.000000000000D+00  7 -1 21 23 -13 13 23 -1 2 0.53294894D-01 0.36073756D+00 0.37983275D+06 0.37983275D+06 0.37983275D+06 0.10770510D+01  1  2  5  4  7  2        1 -.130041432210D-05 0.100000000000D+01
  </mgrwgt>
  </event>
  <event>
  8     66 0.58687835E-06 0.23389540E+03 0.75467711E-02 0.83898393E-01
       -1 -1    0    0    0  501 0.00000000E+00 0.00000000E+00 0.71583413E+03 0.71583420E+03 0.32000000E+00 0.0000E+00 0.9000E+01
        1 -1    0    0  501    0 0.00000000E+00 0.00000000E+00 -.32383022E+03 0.32383038E+03 0.32000000E+00 0.0000E+00 0.9000E+01
       25  2    1    2    0    0 0.13309875E+02 -.14109813E+03 -.22417235E+03 0.40022447E+03 0.29973413E+03 0.0000E+00 0.0000E+00
       23  2    1    2    0    0 -.13309875E+02 0.14109813E+03 0.61617626E+03 0.63944011E+03 0.95522962E+02 0.0000E+00 0.0000E+00
       23  1    3    3    0    0 0.79314831E+02 -.14850850E+03 -.21369496E+03 0.28692578E+03 0.91188000E+02 0.0000E+00 0.9000E+01
      -11  1    4    4    0    0 0.32615077E+02 0.84785163E+02 0.43198752E+03 0.44143571E+03 0.51099893E-03 0.0000E+00 0.9000E+01
       11  1    4    4    0    0 -.45924951E+02 0.56312964E+02 0.18418874E+03 0.19800441E+03 0.51099893E-03 0.0000E+00 0.9000E+01
       23  1    3    3    0    0 -.66004956E+02 0.74103687E+01 -.10477398E+02 0.11329870E+03 0.91188000E+02 0.0000E+00 0.9000E+01
#aMCatNLO 1  0  0  2  1 0.14192347D+04 0.00000000D+00  -5  7  0 0.00000000D+00 0.00000000D+00 0.00000000D+00 0.00000000D+00 0.00000000D+00
  <mgrwgt>
 0.2169302317D-03    5    2    0
 0.481465312686231D+03 0.000000000000000D+00 0.000000000000000D+00 0.481465312686231D+03
 0.481465312686231D+03 0.000000000000000D+00 0.000000000000000D+00 -.481465312686231D+03
 0.396784375508856D+03 0.793148307234559D+02 -.148508495938676D+03 -.347529816800364D+03
 0.300753001845207D+03 0.326150768923625D+02 0.847851633887622D+02 0.286705599783732D+03
 0.138800716608101D+03 -.459249514814571D+02 0.563129638826638D+02 0.118259831984906D+03
 0.126592531410298D+03 -.660049561343613D+02 0.741036866725037D+01 -.574356149682735D+02
 0.000000000000000D+00 -.000000000000000D+00 0.000000000000000D+00 -.000000000000000D+00
 0.121777999315423D+04 0.000000000000000D+00 0.000000000000000D+00 0.121777999315423D+04
 0.225535054400339D+04 0.000000000000000D+00 0.000000000000000D+00 -.225535054400339D+04
 0.891533405729801D+03 0.720739981639263D+03 -.382457144644363D+03 -.347529816800364D+03
 0.538010796584996D+03 0.450217165309975D+03 -.675279227795678D+02 0.286705599783732D+03
 0.155187779403097D+03 0.100445469052669D+03 0.292690309981086D+01 0.118259831984906D+03
 0.130337224862704D+03 0.619147311447533D+02 -.392461086147437D+02 -.574356149682735D+02
 0.175806133057702D+04 -.133331734714666D+04 0.486304272938864D+03 -.103757055084917D+04
0.239112266844D-04 0.000000000000D+00 0.000000000000D+00 0.168683013348D-06 0.000000000000D+00  7 -1 1 23 -11 11 23 21 0 0.11012835D+00 0.49820052D-01 0.54707060D+05 0.54707060D+05 0.54707060D+05 0.11438743D+01  1  2  2  2  7  2        1 0.197438066427D-03 0.100000000000D+01
-.486546430651D-06 0.000000000000D+00 -.918254064387D-07 0.168683013348D-06 0.000000000000D+00  7 -1 1 23 -11 11 23 21 2 0.11012835D+00 0.49820052D-01 0.54707060D+05 0.54707060D+05 0.54707060D+05 0.11438743D+01  1  2  3  2  7  2        1 -.525666041611D-05 0.100000000000D+01
0.145740770143D-05 0.000000000000D+00 0.000000000000D+00 0.168683013348D-06 0.000000000000D+00  7 -1 1 23 -11 11 23 21 2 0.11012835D+00 0.49820052D-01 0.54707060D+05 0.54707060D+05 0.54707060D+05 0.11438743D+01  1  2 15  2  7  2        1 0.157458710857D-04 0.100000000000D+01
0.455270202721D-04 0.000000000000D+00 -.144213076753D-04 0.168683013348D-06 0.000000000000D+00  7 -1 1 23 -11 11 23 21 2 0.11012835D+00 0.39887140D+00 0.54707060D+05 0.54707060D+05 0.54707060D+05 0.11438743D+01  1  2  5  2  7  2        1 0.838024691246D-05 0.100000000000D+01
0.976799867644D-05 0.000000000000D+00 -.364116752944D-05 0.168683013348D-06 0.000000000000D+00  7 -1 21 23 -11 11 23 -1 2 0.11012835D+00 0.39887140D+00 0.54707060D+05 0.54707060D+05 0.54707060D+05 0.11438743D+01  1  2  5  4  7  2        1 0.622707674262D-06 0.100000000000D+01
  </mgrwgt>
  </event>
  <event>
  9     66 0.58687835E-06 0.28565852E+03 0.75467711E-02 0.97492712E-01
       -1 -1    0    0    0  502 0.00000000E+00 0.00000000E+00 0.61721467E+03 0.61721476E+03 0.32000000E+00 0.0000E+00 0.9000E+01
        1 -1    0    0  501    0 0.00000000E+00 0.00000000E+00 -.55439327E+03 0.55439336E+03 0.32000000E+00 0.0000E+00 0.9000E+01
       25  2    1    2    0    0 -.96583177E+02 -.97048431E+02 0.23159003E+03 0.40546269E+03 0.30334690E+03 0.0000E+00 0.0000E+00
       23  2    1    2    0    0 0.26231735E+03 0.36742740E+02 -.39217419E+03 0.48151374E+03 0.88850833E+02 0.0000E+00 0.0000E+00
       23  1    3    3    0    0 -.67112521E+02 0.73950169E+02 0.75461183E+02 0.15486239E+03 0.91188000E+02 0.0000E+00 0.9000E+01
      -13  1    4    4    0    0 0.29062061E+02 0.29667351E+02 -.94866480E+02 0.10355875E+03 0.10565837E+00 0.0000E+00 0.9000E+01
       13  1    4    4    0    0 0.23325528E+03 0.70753888E+01 -.29730771E+03 0.37795499E+03 0.10565837E+00 0.0000E+00 0.9000E+01
       23  1    3    3    0    0 -.29470655E+02 -.17099860E+03 0.15612885E+03 0.25060030E+03 0.91188000E+02 0.0000E+00 0.9000E+01
       21  1    1    2  501  502 -.16573417E+03 0.60305692E+02 0.22340556E+03 0.28463169E+03 0.75000000E+00 0.0000E+00 0.9000E+01
#aMCatNLO 2  0  0  1  2 0.17636494D+03 0.00000000D+00  -5  7  0 0.00000000D+00 0.00000000D+00 0.00000000D+00 0.00000000D+00 0.00000000D+00
  <mgrwgt>
 0.7947131459D-04    2    2    0
 0.427151998489980D+03 0.000000000000000D+00 0.000000000000000D+00 0.427151998489980D+03
 0.427151998489980D+03 0.000000000000000D+00 0.000000000000000D+00 -.427151998489980D+03
 0.193209458045580D+03 -.102106255418067D+03 0.866833336646693D+02 0.105237614965119D+03
 0.861431110898241D+02 0.123620839283140D+02 0.357438986039027D+02 -.773963059956805D+02
 0.291772980409808D+03 0.173613931813905D+03 0.287771616689500D+02 -.232726340889075D+03
 0.283178447434748D+03 -.838697603241521D+02 -.151204393937522D+03 0.204885031919636D+03
 0.000000000000000D+00 -.000000000000000D+00 0.000000000000000D+00 0.000000000000000D+00
 0.741207645488291D+03 0.000000000000000D+00 0.000000000000000D+00 0.741207645488291D+03
 0.461650878923806D+03 0.000000000000000D+00 0.000000000000000D+00 -.461650878923806D+03
 0.171356132677198D+03 -.671125214341461D+02 0.739501637948826D+02 0.105237614965119D+03
 0.878346653393739D+02 0.290617730443583D+02 0.296673827801005D+02 -.773963059956805D+02
 0.329575141188808D+03 0.233255574996750D+03 0.707535715991080D+01 -.232726340889075D+03
 0.283552758581823D+03 -.294706574784550D+02 -.170998595311303D+03 0.204885031919636D+03
 0.330539826624895D+03 -.165734169128508D+03 0.603056915764092D+02 0.279556766564484D+03
-.604021452344D-05 0.000000000000D+00 0.000000000000D+00 0.109054284859D-07 0.000000000000D+00  7 -1 1 23 -13 13 23 21 2 0.95746998D-01 0.78917452D-01 0.15308124D+06 0.15308124D+06 0.15308124D+06 0.11068557D+01  1  2 13  1  7  1       -1 -.434071159429D-04 0.100000000000D+01
0.187323803720D-04 0.000000000000D+00 0.000000000000D+00 0.109054284859D-07 0.277334680489D-11  7 -1 1 23 -13 13 23 21 2 0.94956033D-01 0.85291211D-01 0.15308124D+06 0.15308124D+06 0.15308124D+06 0.11068557D+01  1  2  1  1  7  1       -1 0.122878430533D-03 0.100000000000D+01
  </mgrwgt>
  </event>
  <event>
  8     66 0.58687835E-06 0.52407106E+03 0.75467711E-02 0.91232074E-01
       -1 -1    0    0    0  501 0.00000000E+00 0.00000000E+00 0.54519025E+03 0.54519034E+03 0.32000000E+00 0.0000E+00 0.9000E+01
        1 -1    0    0  502    0 0.00000000E+00 0.00000000E+00 -.11165792E+04 0.11165793E+04 0.32000000E+00 0.0000E+00 0.9000E+01
       23  2    1    2    0    0 -.13736625E+03 -.41190369E+03 -.74507508E+02 0.45022603E+03 0.92833032E+02 0.0000E+00 0.0000E+00
       23  1    1    2    0    0 -.12919557E+03 -.13581697E+03 -.15885724E+03 0.26208514E+03 0.91188000E+02 0.0000E+00 0.9000E+01
      -11  1    3    3    0    0 -.35257930E+02 -.92181047E+02 -.57370423E+02 0.11415705E+03 0.51099893E-03 0.0000E+00 0.9000E+01
       11  1    3    3    0    0 -.10210832E+03 -.31972265E+03 -.17137085E+02 0.33606898E+03 0.51099893E-03 0.0000E+00 0.9000E+01
       23  1    1    2    0    0 0.33295070E+03 0.27673829E+03 0.77280378E+02 0.44914113E+03 0.91188000E+02 0.0000E+00 0.9000E+01
       21  1    1    2  502  501 -.66388873E+02 0.27098237E+03 -.41530459E+03 0.50031729E+03 0.75000000E+00 0.0000E+00 0.9000E+01
#aMCatNLO 2  0  0  2  1 0.27899628D+03 0.00000000D+00  -5  7  0 0.00000000D+00 0.00000000D+00 0.00000000D+00 0.00000000D+00 0.00000000D+00
  <mgrwgt>
 0.1879785955D-03    2    2    0
 0.558294321283065D+03 0.000000000000000D+00 0.000000000000000D+00 0.558294321283065D+03
 0.558294321283065D+03 0.000000000000000D+00 0.000000000000000D+00 -.558294321283065D+03
 0.225129707075590D+03 -.142899828036324D+03 -.798792728645254D+02 -.124768083169392D+03
 0.904493095358275D+02 -.410512835417513D+02 -.685341491449065D+02 -.424139141799761D+02
 0.275654804220858D+03 -.120040671592721D+03 -.246527662844555D+03 0.282828518012166D+02
 0.525354821733855D+03 0.303991783170796D+03 0.394941084853987D+03 0.138899145548152D+03
 0.000000000000000D+00 -.000000000000000D+00 0.000000000000000D+00 -.000000000000000D+00
 0.624118088376393D+03 0.000000000000000D+00 0.000000000000000D+00 0.624118088376393D+03
 0.975372522270160D+03 0.000000000000000D+00 0.000000000000000D+00 -.975372522270160D+03
 0.242940356513096D+03 -.129195496525985D+03 -.135816842027600D+03 -.124768083169392D+03
 0.107421666991627D+03 -.352579426093782D+02 -.921810821489276D+02 -.424139141799761D+02
 0.336821433313129D+03 -.102108361764962D+03 -.319722755978952D+03 0.282828518012166D+02
 0.463733187649311D+03 0.332950674217073D+03 0.276738313010289D+03 0.138899145548152D+03
 0.448573966179391D+03 -.663888733167481D+02 0.270982367145191D+03 -.351254433893767D+03
-.109151352622D-03 0.000000000000D+00 0.000000000000D+00 0.111620379896D-08 0.000000000000D+00  7 -1 1 23 -11 11 23 21 2 0.75029320D-01 0.17383466D+00 0.46527292D+06 0.46527292D+06 0.46527292D+06 0.10707269D+01  1  2 13  2  7  2        1 -.331466279542D-03 0.100000000000D+01
0.210265673145D-03 0.000000000000D+00 0.000000000000D+00 0.111620379896D-08 0.999953671484D-13  7 -1 1 23 -11 11 23 21 2 0.83875393D-01 0.17178135D+00 0.46527292D+06 0.46527292D+06 0.46527292D+06 0.10707269D+01  1  2  1  2  7  2        1 0.519444875014D-03 0.100000000000D+01
  </mgrwgt>
  </event>
  <event>
  9     66 0.58687835E-06 0.20844697E+03 0.75467711E-02 0.10533646E+00
       -1 -1    0    0    0  502 0.00000000E+00 0.00000000E+00 0.12788965E+03 0.12789005E+03 0.32000000E+00 0.0000E+00 0.9000E+01
        1 -1    0    0  501    0 0.00000000E+00 0.00000000E+00 -.61963695E+03 0.61963703E+03 0.32000000E+00 0.0000E+00 0.9000E+01
       25  2    1    2    0    0 0.12754040E+03 0.39875648E+02 -.17540213E+03 0.37004199E+03 0.29716754E+03 0.0000E+00 0.0000E+00
       23  2    1    2    0    0 -.12280021E+03 -.50271906E+02 -.32515008E+03 0.36304070E+03 0.92026199E+02 0.0000E+00 0.0000E+00
       23  1    3    3    0    0 0.36277560E+01 -.41725146E+02 -.16805829E+03 0.19573704E+03 0.91188000E+02 0.0000E+00 0.9000E+01
      -13  1    4    4    0    0 -.94723464E+02 -.12091150E+02 -.12469411E+03 0.15705847E+03 0.10565837E+00 0.0000E+00 0.9000E+01
       13  1    4    4    0    0 -.28076749E+02 -.38180756E+02 -.20045597E+03 0.20598223E+03 0.10565837E+00 0.0000E+00 0.9000E+01
       23  1    3    3    0    0 0.12391264E+03 0.81600795E+02 -.73438419E+01 0.17430495E+03 0.91188000E+02 0.0000E+00 0.9000E+01
       21  1    1    2  501  502 -.47401870E+01 0.10396257E+02 0.88049086E+01 0.14444392E+02 0.75000000E+00 0.0000E+00 0.9000E+01
#aMCatNLO 2  0  0  1  2 0.11425915D+02 0.00000000D+00  -5  7  0 0.00000000D+00 0.00000000D+00 0.00000000D+00 0.00000000D+00 0.00000000D+00
  <mgrwgt>
 0.2550153556D-04    5    2    0
 0.267734555557214D+03 0.000000000000000D+00 0.000000000000000D+00 0.267734555557214D+03
 0.267734555557214D+03 0.000000000000000D+00 0.000000000000000D+00 -.267734555557214D+03
 0.110031567529373D+03 0.265020857592777D+01 -.395811705786597D+02 -.470956668824003D+02
 0.990612522918978D+02 -.955976083472366D+02 -.101741176027020D+02 -.238896696279746D+02
 0.941221056063000D+02 -.289118634178938D+02 -.363490204161735D+02 -.818646665677761D+02
 0.232254185686858D+03 0.121859263189203D+03 0.861043085975352D+02 0.152850003078151D+03
 0.000000000000000D+00 -.000000000000000D+00 0.000000000000000D+00 0.000000000000000D+00
 0.294565256288325D+03 0.000000000000000D+00 0.000000000000000D+00 0.294565256288325D+03
 0.269014707935003D+03 0.000000000000000D+00 0.000000000000000D+00 -.269014707935003D+03
 0.110848552579079D+03 0.362775695073730D+01 -.417251459588251D+02 -.470956668824003D+02
 0.984350663684560D+02 -.947235495806871D+02 -.120911178500451D+02 -.238896696279746D+02
 0.945933161046696D+02 -.280766662362530D+02 -.381807887881174D+02 -.818646665677761D+02
 0.231714066077906D+03 0.123912645857834D+03 0.816007955223269D+02 0.152850003078151D+03
 0.279889630932175D+02 -.474018699163093D+01 0.103962570746606D+02 0.255505483533218D+02
-.188873392808D-04 0.000000000000D+00 0.000000000000D+00 0.104750547671D-07 0.000000000000D+00  7 -1 1 23 -13 13 23 21 2 0.19715221D-01 0.94873396D-01 0.45968938D+05 0.45968938D+05 0.45968938D+05 0.11505203D+01  1  2 13  1  7  1       -1 -.195770780617D-02 0.100000000000D+01
-.441823431314D-07 0.000000000000D+00 0.000000000000D+00 0.104750547671D-07 0.000000000000D+00  7 -1 1 23 -13 13 23 21 2 0.17882890D-01 0.94873396D-01 0.43450139D+05 0.43450139D+05 0.43450139D+05 0.11526980D+01  1  2  8  1  7  1       -1 -.536371824756D-05 0.100000000000D+01
-.118020447516D-09 0.000000000000D+00 0.000000000000D+00 0.104750547671D-07 0.000000000000D+00  7 -1 1 23 -13 13 23 21 2 0.19743667D-01 0.94873396D-01 0.43450139D+05 0.43450139D+05 0.43450139D+05 0.11526980D+01  1  2  9  1  7  1       -1 -.122533972347D-07 0.100000000000D+01
0.117444575111D-09 0.000000000000D+00 0.000000000000D+00 0.104750547671D-07 0.000000000000D+00  7 -1 1 23 -13 13 23 21 2 0.17882890D-01 0.94873396D-01 0.43450139D+05 0.43450139D+05 0.43450139D+05 0.11526980D+01  1  2 10  1  7  1       -1 0.142577230168D-07 0.100000000000D+01
0.192539184040D-04 0.000000000000D+00 0.000000000000D+00 0.104750547671D-07 0.569732068428D-09  7 -1 1 23 -13 13 23 21 2 0.19675002D-01 0.95327026D-01 0.45968938D+05 0.45968938D+05 0.45968938D+05 0.11505203D+01  1  2  1  1  7  1       -1 0.198857105565D-02 0.100000000000D+01
  </mgrwgt>
  </event>
  <event>
  8     66 0.58687835E-06 0.90227511E+02 0.75467711E-02 0.10055212E+00
       -1 -1    0    0    0  501 0.00000000E+00 0.00000000E+00 0.15419196E+03 0.15419229E+03 0.32000000E+00 0.0000E+00 0.9000E+01
        1 -1    0    0  501    0 0.00000000E+00 0.00000000E+00 -.44888218E+03 0.44888230E+03 0.32000000E+00 0.0000E+00 0.9000E+01
       25  2    1    2    0    0 0.14299549E+02 0.10144195E+03 -.65885776E+02 0.32392116E+03 0.30014835E+03 0.0000E+00 0.0000E+00
       23  2    1    2    0    0 -.14299549E+02 -.10144195E+03 -.22880445E+03 0.27915343E+03 0.12280153E+03 0.0000E+00 0.0000E+00
       23  1    3    3    0    0 -.34819746E+02 0.14604584E+03 -.10489012E+03 0.20459470E+03 0.91188000E+02 0.0000E+00 0.9000E+01
      -11  1    4    4    0    0 -.27302145E+02 -.62368330E+02 -.22801850E+03 0.23796565E+03 0.51099893E-03 0.0000E+00 0.9000E+01
       11  1    4    4    0    0 0.13002596E+02 -.39073623E+02 -.78594884E+00 0.41187780E+02 0.51099893E-03 0.0000E+00 0.9000E+01
       23  1    3    3    0    0 0.49119295E+02 -.44603891E+02 0.39004347E+02 0.11932645E+03 0.91188000E+02 0.0000E+00 0.9000E+01
#aMCatNLO 1  0  0  1  2 0.17297767D+03 0.00000000D+00  -5  7  0 0.00000000D+00 0.00000000D+00 0.00000000D+00 0.00000000D+00 0.00000000D+00
  <mgrwgt>
 0.7742512916D-04    7    2    0
 0.263085838623596D+03 0.000000000000000D+00 0.000000000000000D+00 0.263085838623596D+03
 0.263085838623596D+03 0.000000000000000D+00 0.000000000000000D+00 -.263085838623596D+03
 0.175752093936899D+03 -.348197456447483D+02 0.146045846627036D+03 -.563410821974765D+01
 0.145040524630606D+03 -.273021443396786D+02 -.623683342539616D+02 -.128068487856939D+03
 0.467674178098242D+02 0.130025946090240D+02 -.390736228396552D+02 0.221670002529980D+02
 0.158611640869864D+03 0.491192953754029D+02 -.446038895334190D+02 0.111535595823688D+03
 0.000000000000000D+00 0.000000000000000D+00 0.000000000000000D+00 0.000000000000000D+00
 0.604016336920307D+03 0.000000000000000D+00 0.000000000000000D+00 0.604016336920307D+03
 0.299807766853065D+03 0.000000000000000D+00 0.000000000000000D+00 -.299807766853065D+03
 0.189062912374997D+03 -.925761285051074D+02 0.137213158069077D+03 -.563410821974765D+01
 0.164649030130865D+03 -.763312362991407D+02 -.698663574699318D+02 -.128068487856939D+03
 0.469462076333193D+02 -.183385656946471D+01 -.413425625840603D+02 0.221670002529980D+02
 0.153217203603075D+03 -.248482311035929D+00 -.521537079865086D+02 0.111535595823688D+03
 0.349948750031117D+03 0.170989703684749D+03 0.261494699714233D+02 0.304208570067243D+03
0.129065640016D-05 0.000000000000D+00 0.000000000000D+00 0.998229274068D-09 0.000000000000D+00  7 -1 1 23 -11 11 23 21 0 0.23721874D-01 0.69058832D-01 0.39540566D+05 0.39540566D+05 0.39540566D+05 0.11563702D+01  1  2  2  1  7  1       -1 0.116560193804D-03 0.100000000000D+01
-.648711481951D-07 0.000000000000D+00 -.495646041426D-08 0.998229274068D-09 0.000000000000D+00  7 -1 1 23 -11 11 23 21 2 0.23721874D-01 0.69058832D-01 0.39540566D+05 0.39540566D+05 0.39540566D+05 0.11563702D+01  1  2  3  1  7  1       -1 -.783402626996D-05 0.100000000000D+01
0.850303746219D-07 0.000000000000D+00 0.000000000000D+00 0.998229274068D-09 0.000000000000D+00  7 -1 1 23 -11 11 23 21 2 0.23721874D-01 0.69058832D-01 0.39540566D+05 0.39540566D+05 0.39540566D+05 0.11563702D+01  1  2 15  1  7  1       -1 0.102685123829D-04 0.100000000000D+01
0.429917774198D-07 0.000000000000D+00 0.000000000000D+00 0.998229274068D-09 0.000000000000D+00  7 -1 1 23 -11 11 23 21 2 0.54006542D-01 0.69058832D-01 0.93595400D+05 0.93595400D+05 0.93595400D+05 0.11240886D+01  1  2 12  1  7  1       -1 0.120031099017D-05 0.100000000000D+01
-.103935174690D-05 0.000000000000D+00 -.407203779742D-06 0.998229274068D-09 0.000000000000D+00  7 -1 1 23 -11 11 23 21 2 0.60129775D-01 0.69058832D-01 0.39540566D+05 0.39540566D+05 0.39540566D+05 0.11563702D+01  1  2  5  1  7  1       -1 -.256791039460D-04 0.100000000000D+01
0.384515182755D-08 0.000000000000D+00 0.000000000000D+00 0.998229274068D-09 0.000000000000D+00  7 21 1 23 -11 11 23 1 2 0.54006542D-01 0.69058832D-01 0.93595400D+05 0.93595400D+05 0.93595400D+05 0.11240886D+01  1  2 12  3  7  1       -1 0.971680555043D-06 0.100000000000D+01
-.816828297975D-07 0.000000000000D+00 -.417840091574D-07 0.998229274068D-09 0.000000000000D+00  7 21 1 23 -11 11 23 1 2 0.60129775D-01 0.69058832D-01 0.39540566D+05 0.39540566D+05 0.39540566D+05 0.11563702D+01  1  2  5  3  7  1       -1 -.180624383606D-04 0.100000000000D+01
  </mgrwgt>
  </event>
  <event>
  8     66 0.58687835E-06 0.21494086E+03 0.75467711E-02 0.83851472E-01
       -1 -1    0    0    0  501 0.00000000E+00 0.00000000E+00 0.14516440E+03 0.14516475E+03 0.32000000E+00 0.0000E+00 0.9000E+01
        1 -1    0    0  501    0 0.00000000E+00 0.00000000E+00 -.10460772E+04 0.10460772E+04 0.32000000E+00 0.0000E+00 0.9000E+01
       25  2    1    2    0    0 0.83904340E+02 0.37998850E+02 -.36153420E+02 0.31692612E+03 0.30108345E+03 0.0000E+00 0.0000E+00
       23  2    1    2    0    0 -.83904340E+02 -.37998850E+02 -.86475933E+03 0.87431583E+03 0.90197669E+02 0.0000E+00 0.0000E+00
       23  1    3    3    0    0 -.20898339E+01 0.12961763E+03 -.31542538E+02 0.16160223E+03 0.91188000E+02 0.0000E+00 0.9000E+01
      -11  1    4    4    0    0 -.29291885E+02 -.52063393E+02 -.25274635E+03 0.25971009E+03 0.51099893E-03 0.0000E+00 0.9000E+01
       11  1    4    4    0    0 -.54612456E+02 0.14064543E+02 -.61201298E+03 0.61460575E+03 0.51099893E-03 0.0000E+00 0.9000E+01
       23  1    3    3    0    0 0.85994174E+02 -.91618781E+02 -.46108815E+01 0.15532389E+03 0.91188000E+02 0.0000E+00 0.9000E+01
#aMCatNLO 1  0  0  2  2 0.14320369D+04 0.00000000D+00  -5  7  0 0.00000000D+00 0.00000000D+00 0.00000000D+00 0.00000000D+00 0.00000000D+00
  <mgrwgt>
 0.2761489445D-03    3    2    0
 0.389683718052358D+03 0.000000000000000D+00 0.000000000000000D+00 0.389683718052358D+03
 0.389683718052358D+03 0.000000000000000D+00 0.000000000000000D+00 -.389683718052358D+03
 0.210542901616776D+03 -.208983390696567D+01 0.129617631503754D+03 0.138592800227175D+03
 0.104796706025349D+03 -.292918847857828D+02 -.520633931739287D+02 -.861030671386142D+02
 0.231949449117116D+03 -.546124556459248D+02 0.140645430159147D+02 -.224989367001663D+03
 0.232078379345476D+03 0.859941743386733D+02 -.916187813457399D+02 0.172499633913102D+03
 0.000000000000000D+00 0.000000000000000D+00 -.000000000000000D+00 0.000000000000000D+00
 0.225481079557439D+04 0.000000000000000D+00 0.000000000000000D+00 0.225481079557439D+04
 0.117131411283061D+04 0.000000000000000D+00 0.000000000000000D+00 -.117131411283061D+04
 0.483240785115244D+03 -.408814573933977D+03 0.197152440814636D+03 0.138592800227175D+03
 0.256652360478229D+03 -.241188302095833D+03 -.168789484417422D+02 -.861030671386142D+02
 0.588446348811718D+03 -.535562460687975D+03 0.939241229284261D+02 -.224989367001663D+03
 0.302041873117362D+03 -.227129245800233D+03 -.396260491887342D+02 0.172499633913102D+03
 0.179574354088245D+04 0.141269458251802D+04 -.234571566112585D+03 0.108349668274377D+04
0.946928160857D-05 0.000000000000D+00 0.000000000000D+00 0.198930591029D-06 0.000000000000D+00  7 -1 1 23 -11 11 23 21 0 0.22333015D-01 0.16093498D+00 0.46199574D+05 0.46199574D+05 0.46199574D+05 0.11503275D+01  1  2  2  2  7  2        1 0.265430662713D-03 0.100000000000D+01
-.299648580567D-06 0.000000000000D+00 -.363645346960D-07 0.198930591029D-06 0.000000000000D+00  7 -1 1 23 -11 11 23 21 2 0.22333015D-01 0.16093498D+00 0.46199574D+05 0.46199574D+05 0.46199574D+05 0.11503275D+01  1  2  3  2  7  2        1 -.111144838665D-04 0.100000000000D+01
0.588615477478D-06 0.000000000000D+00 0.000000000000D+00 0.198930591029D-06 0.000000000000D+00  7 -1 1 23 -11 11 23 21 2 0.22333015D-01 0.16093498D+00 0.46199574D+05 0.46199574D+05 0.46199574D+05 0.11503275D+01  1  2 15  2  7  2        1 0.218327656205D-04 0.100000000000D+01
  </mgrwgt>
  </event>
  <event>
  8     66 0.58687835E-06 0.26696886E+03 0.75467711E-02 0.91949312E-01
       -1 -1    0    0    0  501 0.00000000E+00 0.00000000E+00 0.11439029E+03 0.11439073E+03 0.32000000E+00 0.0000E+00 0.9000E+01
        1 -1    0    0  501    0 0.00000000E+00 0.00000000E+00 -.10362330E+04 0.10362330E+04 0.32000000E+00 0.0000E+00 0.9000E+01
       25  2    1    2    0    0 0.65217311E+02 -.16694573E+03 -.89504628E+03 0.96067715E+03 0.29944710E+03 0.0000E+00 0.0000E+00
       23  2    1    2    0    0 -.65217311E+02 0.16694573E+03 -.26796421E+02 0.18994662E+03 0.56899008E+02 0.0000E+00 0.0000E+00
       23  1    3    3    0    0 0.10438162E+03 0.14283853E+02 -.42393749E+03 0.44624858E+03 0.91188000E+02 0.0000E+00 0.9000E+01
      -13  1    4    4    0    0 -.31614851E+02 0.20393118E+02 -.32989366E+01 0.37766019E+02 0.10565837E+00 0.0000E+00 0.9000E+01
       13  1    4    4    0    0 -.33602460E+02 0.14655261E+03 -.23497485E+02 0.15218060E+03 0.10565837E+00 0.0000E+00 0.9000E+01
       23  1    3    3    0    0 -.39164309E+02 -.18122958E+03 -.47110879E+03 0.51442856E+03 0.91188000E+02 0.0000E+00 0.9000E+01
#aMCatNLO 1  0  0  2  1 0.53253942D+03 0.00000000D+00  -5  7  0 0.00000000D+00 0.00000000D+00 0.00000000D+00 0.00000000D+00 0.00000000D+00
  <mgrwgt>
 0.2818522217D-03    5    2    0
 0.344289521355231D+03 0.000000000000000D+00 0.000000000000000D+00 0.344289521355231D+03
 0.344289521355231D+03 0.000000000000000D+00 0.000000000000000D+00 -.344289521355231D+03
 0.178135753871772D+03 0.104381619944478D+03 0.142838528379485D+02 -.110984433274829D+03
 0.586904138684801D+02 -.316148433311011D+02 0.203926838630314D+02 0.450466958396049D+02
 0.222838652759586D+03 -.336024676942851D+02 0.146553046980479D+03 0.164469279044140D+03
 0.228914222210623D+03 -.391643089190915D+02 -.181229583681459D+03 -.985315416089156D+02
 0.000000000000000D+00 0.000000000000000D+00 0.000000000000000D+00 -.000000000000000D+00
 0.630745057083887D+03 0.000000000000000D+00 0.000000000000000D+00 0.630745057083887D+03
 0.797891414109678D+03 0.000000000000000D+00 0.000000000000000D+00 -.797891414109678D+03
 0.143808978922030D+03 -.516389999990641D+01 0.464335891922945D+01 -.110984433274829D+03
 0.971685874211853D+02 -.846477200802421D+02 0.157255543806770D+02 0.450466958396049D+02
 0.297657832460337D+03 -.210707580139655D+03 0.130967007858382D+03 0.164469279044140D+03
 0.331846844359227D+03 -.229969923500478D+03 -.198021328044562D+03 -.985315416089156D+02
 0.558154228030785D+03 0.530489123720281D+03 0.466854068862738D+02 -.167146357025791D+03
0.664883877996D-05 0.000000000000D+00 0.000000000000D+00 0.248140129351D-09 0.000000000000D+00  7 -1 1 23 -13 13 23 21 0 0.17598544D-01 0.15942050D+00 0.71272374D+05 0.71272374D+05 0.71272374D+05 0.11339952D+01  1  2  2  2  7  2        1 0.274863751547D-03 0.100000000000D+01
-.340324900314D-06 0.000000000000D+00 -.255332915945D-07 0.248140129351D-09 0.000000000000D+00  7 -1 1 23 -13 13 23 21 2 0.17598544D-01 0.15942050D+00 0.71272374D+05 0.71272374D+05 0.71272374D+05 0.11339952D+01  1  2  3  2  7  2        1 -.180920510312D-04 0.100000000000D+01
0.420931368603D-06 0.000000000000D+00 0.000000000000D+00 0.248140129351D-09 0.000000000000D+00  7 -1 1 23 -13 13 23 21 2 0.17598544D-01 0.15942050D+00 0.71272374D+05 0.71272374D+05 0.71272374D+05 0.11339952D+01  1  2 15  2  7  2        1 0.223771807304D-04 0.100000000000D+01
0.125458627803D-05 0.000000000000D+00 -.190914213298D-05 0.248140129351D-09 0.000000000000D+00  7 -1 1 23 -13 13 23 21 2 0.17598544D-01 0.47841560D+00 0.71272374D+05 0.71272374D+05 0.71272374D+05 0.11339952D+01  1  2  5  2  7  2        1 0.259102537114D-05 0.100000000000D+01
0.252277508052D-06 0.000000000000D+00 -.238727344178D-06 0.248140129351D-09 0.000000000000D+00  7 -1 21 23 -13 13 23 -1 2 0.17598544D-01 0.47841560D+00 0.71272374D+05 0.71272374D+05 0.71272374D+05 0.11339952D+01  1  2  5  4  7  2        1 0.112315038951D-06 0.100000000000D+01
  </mgrwgt>
  </event>
  <event>
  8     66 0.58687835E-06 0.33084283E+03 0.75467711E-02 0.95467047E-01
       -1 -1    0    0    0  501 0.00000000E+00 0.00000000E+00 0.30929752E+03 0.30929769E+03 0.32000000E+00 0.0000E+00 0.9000E+01
        1 -1    0    0  501    0 0.00000000E+00 0.00000000E+00 -.49526895E+03 0.49526905E+03 0.32000000E+00 0.0000E+00 0.9000E+01
       25  2    1    2    0    0 0.21465583E+03 -.14048400E+03 0.10376990E+03 0.40687787E+03 0.29827592E+03 0.0000E+00 0.0000E+00
       23  2    1    2    0    0 -.21465583E+03 0.14048400E+03 -.28974133E+03 0.39768887E+03 0.91616158E+02 0.0000E+00 0.0000E+00
       23  1    3    3    0    0 0.20796027E+03 -.65187145E+01 0.89120694E+02 0.24402401E+03 0.91188000E+02 0.0000E+00 0.9000E+01
      -11  1    4    4    0    0 -.19513292E+03 0.15399787E+03 -.26161157E+03 0.36087784E+03 0.51099893E-03 0.0000E+00 0.9000E+01
       11  1    4    4    0    0 -.19522910E+02 -.13513871E+02 -.28129764E+02 0.36811035E+02 0.51099893E-03 0.0000E+00 0.9000E+01
       23  1    3    3    0    0 0.66955588E+01 -.13396529E+03 0.14649207E+02 0.16285386E+03 0.91188000E+02 0.0000E+00 0.9000E+01
#aMCatNLO 1  0  0  1  2 0.24078427D+03 0.00000000D+00  -5  7  0 0.00000000D+00 0.00000000D+00 0.00000000D+00 0.00000000D+00 0.00000000D+00
  <mgrwgt>
 0.2719693816D-03    3    2    0
 0.391389276910296D+03 0.000000000000000D+00 0.000000000000000D+00 0.391389276910296D+03
 0.391389276910296D+03 0.000000000000000D+00 0.000000000000000D+00 -.391389276910296D+03
 0.271989442697598D+03 0.207960268060088D+03 -.651871452110248D+01 0.149576197519254D+03
 0.308769351413515D+03 -.195132916521850D+03 0.153997873971545D+03 -.183156523428031D+03
 0.311526194616802D+02 -.195229103099260D+02 -.135138709110877D+02 -.201672250285778D+02
 0.170867140247800D+03 0.669555877168877D+01 -.133965288539355D+03 0.537475509373553D+02
 0.000000000000000D+00 -.000000000000000D+00 0.000000000000000D+00 -.000000000000000D+00
 0.441186395787827D+03 0.000000000000000D+00 0.000000000000000D+00 0.441186395787827D+03
 0.866732412504898D+03 0.000000000000000D+00 0.000000000000000D+00 -.866732412504898D+03
 0.323850657493256D+03 0.260697077897338D+03 -.789176262078658D+02 0.149576197519254D+03
 0.249417615272318D+03 -.145728722500143D+03 0.861740922340534D+02 -.183156523428031D+03
 0.324173444611837D+02 -.138964392186263D+02 -.212380845088432D+02 -.201672250285778D+02
 0.213288942769052D+03 0.406965706058932D+02 -.180643050441183D+03 0.537475509373553D+02
 0.488944248296916D+03 -.141768486784462D+03 0.194624668923839D+03 -.425546016717071D+03
0.110808092209D-04 0.000000000000D+00 0.000000000000D+00 0.923461616709D-07 0.000000000000D+00  7 -1 1 23 -11 11 23 21 0 0.47584255D-01 0.76195244D-01 0.10945698D+06 0.10945698D+06 0.10945698D+06 0.11185158D+01  1  2  2  1  7  1       -1 0.268067505816D-03 0.100000000000D+01
-.594460499308D-06 0.000000000000D+00 -.425532250522D-07 0.923461616709D-07 0.000000000000D+00  7 -1 1 23 -11 11 23 21 2 0.47584255D-01 0.76195244D-01 0.10945698D+06 0.10945698D+06 0.10945698D+06 0.11185158D+01  1  2  3  1  7  1       -1 -.179920215056D-04 0.100000000000D+01
0.723379365502D-06 0.000000000000D+00 0.000000000000D+00 0.923461616709D-07 0.000000000000D+00  7 -1 1 23 -11 11 23 21 2 0.47584255D-01 0.76195244D-01 0.10945698D+06 0.10945698D+06 0.10945698D+06 0.11185158D+01  1  2 15  1  7  1       -1 0.218938972664D-04 0.100000000000D+01
  </mgrwgt>
  </event>
  <event>
  8     66 0.58687835E-06 0.36271729E+03 0.75467711E-02 0.92139915E-01
       -3 -1    0    0    0  501 0.00000000E+00 0.00000000E+00 0.36223257E+03 0.36223291E+03 0.50000000E+00 0.0000E+00 0.9000E+01
        3 -1    0    0  501    0 0.00000000E+00 0.00000000E+00 -.39810480E+03 0.39810511E+03 0.50000000E+00 0.0000E+00 0.9000E+01
       25  2    1    2    0    0 0.29160672E+03 0.92706784E+02 -.88707410E+02 0.43820655E+03 0.30087697E+03 0.0000E+00 0.0000E+00
       23  2    1    2    0    0 -.29160672E+03 -.92706784E+02 0.52835181E+02 0.32213147E+03 0.85721048E+02 0.0000E+00 0.0000E+00
       23  1    3    3    0    0 0.90030726E+01 0.62244499E+02 0.33383548E+02 0.11569419E+03 0.91188000E+02 0.0000E+00 0.9000E+01
      -11  1    4    4    0    0 -.25957652E+03 -.10739325E+03 0.57031067E+02 0.28664581E+03 0.51099893E-03 0.0000E+00 0.9000E+01
       11  1    4    4    0    0 -.32030202E+02 0.14686467E+02 -.41958860E+01 0.35485654E+02 0.51099893E-03 0.0000E+00 0.9000E+01
       23  1    3    3    0    0 0.28260365E+03 0.30462286E+02 -.12209096E+03 0.32251237E+03 0.91188000E+02 0.0000E+00 0.9000E+01
#aMCatNLO 1  0  0  2  2 0.41605428D+03 0.00000000D+00  -5  7  0 0.00000000D+00 0.00000000D+00 0.00000000D+00 0.00000000D+00 0.00000000D+00
  <mgrwgt>
 0.1315058114D-03    3    2    0
 0.379745667835777D+03 0.000000000000000D+00 0.000000000000000D+00 0.379745667835777D+03
 0.379745667835777D+03 0.000000000000000D+00 0.000000000000000D+00 -.379745667835777D+03
 0.117399935121365D+03 0.900307264306183D+01 0.622444985437251D+02 0.388852222126181D+02
 0.289659052847922D+03 -.259576517781591D+03 -.107393251416038D+03 0.706334755157249D+02
 0.353270336477298D+02 -.320302020962217D+02 0.146864671722564D+02 -.252450827316261D+01
 0.317105314054536D+03 0.282603647234750D+03 0.304622857000561D+02 -.106994189455180D+03
 0.000000000000000D+00 -.000000000000000D+00 0.000000000000000D+00 0.000000000000000D+00
 0.171491627405963D+04 0.000000000000000D+00 0.000000000000000D+00 0.171491627405963D+04
 0.466750059894554D+03 0.000000000000000D+00 0.000000000000000D+00 -.466750059894554D+03
 0.105650809035239D+03 0.347475241464826D+02 0.112867694654183D+02 0.388852222126181D+02
 0.318662292203822D+03 -.189364246464599D+03 -.246369135181454D+03 0.706334755157249D+02
 0.251873012437804D+02 -.250456553027690D+02 0.861482662944660D+00 -.252450827316261D+01
 0.416483576065691D+03 0.367274261881473D+03 -.137131972095185D+03 -.106994189455180D+03
 0.131568235540565D+04 -.187611884260587D+03 0.371352855148277D+03 0.124816621416507D+04
0.368096335173D-04 0.000000000000D+00 0.000000000000D+00 0.130203975105D-07 0.000000000000D+00  7 -3 3 23 -11 11 23 21 0 0.55728138D-01 0.61246942D-01 0.13156383D+06 0.13156383D+06 0.13156383D+06 0.11120747D+01  1  2  2  2  7  2        3 0.130006968838D-03 0.100000000000D+01
-.203974629046D-05 0.000000000000D+00 -.141358684906D-06 0.130203975105D-07 0.000000000000D+00  7 -3 3 23 -11 11 23 21 2 0.55728138D-01 0.61246942D-01 0.13156383D+06 0.13156383D+06 0.13156383D+06 0.11120747D+01  1  2  3  2  7  2        3 -.890941507537D-05 0.100000000000D+01
0.238289548090D-05 0.000000000000D+00 0.000000000000D+00 0.130203975105D-07 0.000000000000D+00  7 -3 3 23 -11 11 23 21 2 0.55728138D-01 0.61246942D-01 0.13156383D+06 0.13156383D+06 0.13156383D+06 0.11120747D+01  1  2 15  2  7  2        3 0.104082576445D-04 0.100000000000D+01
  </mgrwgt>
  </event>
  <event>
  8     66 0.58687835E-06 0.19681506E+03 0.75467711E-02 0.10582673E+00
       -1 -1    0    0    0  501 0.00000000E+00 0.00000000E+00 0.49602673E+02 0.49603705E+02 0.32000000E+00 0.0000E+00 0.9000E+01
        1 -1    0    0  501    0 0.00000000E+00 0.00000000E+00 -.25066513E+04 0.25066513E+04 0.32000000E+00 0.0000E+00 0.9000E+01
       25  2    1    2    0    0 0.12517122E+03 0.35329978E+01 -.52034666E+03 0.61291553E+03 0.29870467E+03 0.0000E+00 0.0000E+00
       23  2    1    2    0    0 -.12517122E+03 -.35329978E+01 -.19367020E+04 0.19433395E+04 0.10036720E+03 0.0000E+00 0.0000E+00
       23  1    3    3    0    0 0.10324448E+03 -.12801744E+02 -.49560891E+03 0.51455490E+03 0.91188000E+02 0.0000E+00 0.9000E+01
      -11  1    4    4    0    0 -.66421803E+02 -.51657711E+02 -.94999285E+03 0.95371211E+03 0.51099893E-03 0.0000E+00 0.9000E+01
       11  1    4    4    0    0 -.58749419E+02 0.48124713E+02 -.98670910E+03 0.98962737E+03 0.51099893E-03 0.0000E+00 0.9000E+01
       23  1    3    3    0    0 0.21926745E+02 0.16334742E+02 -.24737758E+02 0.98360632E+02 0.91188000E+02 0.0000E+00 0.9000E+01
#aMCatNLO 1  0  0  2  2 0.19726912D+02 0.00000000D+00  -5  7  0 0.00000000D+00 0.00000000D+00 0.00000000D+00 0.00000000D+00 0.00000000D+00
  <mgrwgt>
 0.2244273179D-03    4    2    0
 0.352615866935981D+03 0.000000000000000D+00 0.000000000000000D+00 0.352615866935981D+03
 0.352615866935981D+03 0.000000000000000D+00 0.000000000000000D+00 -.352615866935981D+03
 0.138391912672728D+03 0.103244477271460D+03 -.128017438728280D+02 -.370990781198795D+01
 0.147118660316463D+03 -.664218031036527D+02 -.516577106103173D+02 -.120679431637173D+03
 0.149380256777141D+03 -.587494191044510D+02 0.481247128120457D+02 -.128635060875534D+03
 0.270340904105630D+03 0.219267449366434D+02 0.163347416710996D+02 0.253024400324695D+03
 0.000000000000000D+00 0.000000000000000D+00 0.000000000000000D+00 0.000000000000000D+00
 0.600299974093969D+03 0.000000000000000D+00 0.000000000000000D+00 0.600299974093969D+03
 0.353146799961681D+03 0.000000000000000D+00 0.000000000000000D+00 -.353146799961681D+03
 0.136852380979430D+03 0.100756464083039D+03 -.157383088433564D+02 -.370990781198795D+01
 0.149479733753194D+03 -.691028422137400D+02 -.548221012059700D+02 -.120679431637173D+03
 0.149473920018226D+03 -.614508488903897D+02 0.449362554048869D+02 -.128635060875534D+03
 0.269701548127076D+03 0.170451442115790D+02 0.105730609227641D+02 0.253024400324695D+03
 0.247939191177724D+03 0.127520828095115D+02 0.150510937216755D+02 0.247153174132287D+03
0.136526120862D-04 0.000000000000D+00 0.000000000000D+00 0.231470502668D-08 0.000000000000D+00  7 -1 1 23 -11 11 23 21 0 0.76312614D-02 0.38563874D+00 0.38736168D+05 0.38736168D+05 0.38736168D+05 0.11571755D+01  1  2  2  2  7  2        1 0.218115301585D-03 0.100000000000D+01
-.444909676021D-06 0.000000000000D+00 -.524296252265D-07 0.231470502668D-08 0.000000000000D+00  7 -1 1 23 -11 11 23 21 2 0.76312614D-02 0.38563874D+00 0.38736168D+05 0.38736168D+05 0.38736168D+05 0.11571755D+01  1  2  3  2  7  2        1 -.951789110355D-05 0.100000000000D+01
0.857000945348D-06 0.000000000000D+00 0.000000000000D+00 0.231470502668D-08 0.000000000000D+00  7 -1 1 23 -11 11 23 21 2 0.76312614D-02 0.38563874D+00 0.38736168D+05 0.38736168D+05 0.38736168D+05 0.11571755D+01  1  2 15  2  7  2        1 0.183337025762D-04 0.100000000000D+01
-.117038812577D-06 0.000000000000D+00 0.000000000000D+00 0.231470502668D-08 0.000000000000D+00  7 -1 1 23 -11 11 23 21 2 0.76312614D-02 0.38563874D+00 0.38736168D+05 0.38736168D+05 0.38736168D+05 0.11571755D+01  1  2  4  2  7  2        1 -.250379511400D-05 0.100000000000D+01
  </mgrwgt>
  </event>
  <event>
  8     66 0.58687835E-06 0.25163479E+03 0.75467711E-02 0.10112467E+00
       -1 -1    0    0    0  501 0.00000000E+00 0.00000000E+00 0.81542727E+02 0.81543355E+02 0.32000000E+00 0.0000E+00 0.9000E+01
        1 -1    0    0  501    0 0.00000000E+00 0.00000000E+00 -.93152737E+03 0.93152743E+03 0.32000000E+00 0.0000E+00 0.9000E+01
       25  2    1    2    0    0 0.94838168E+02 -.99667573E+02 -.74227168E+03 0.81620423E+03 0.31031305E+03 0.0000E+00 0.0000E+00
       23  2    1    2    0    0 -.94838168E+02 0.99667573E+02 -.10771297E+03 0.19686656E+03 0.90699805E+02 0.0000E+00 0.0000E+00
       23  1    3    3    0    0 -.66937787E+02 -.10265736E+03 -.30469782E+03 0.34084485E+03 0.91188000E+02 0.0000E+00 0.9000E+01
      -13  1    4    4    0    0 -.97970293E+02 0.41279979E+02 -.69981412E+02 0.12727774E+03 0.10565837E+00 0.0000E+00 0.9000E+01
       13  1    4    4    0    0 0.31321253E+01 0.58387594E+02 -.37731553E+02 0.69588811E+02 0.10565837E+00 0.0000E+00 0.9000E+01
       23  1    3    3    0    0 0.16177596E+03 0.29897896E+01 -.43757386E+03 0.47535937E+03 0.91188000E+02 0.0000E+00 0.9000E+01
#aMCatNLO 1  0  0  2  1 0.78321710D+02 0.00000000D+00  -5  7  0 0.00000000D+00 0.00000000D+00 0.00000000D+00 0.00000000D+00 0.00000000D+00
  <mgrwgt>
 0.8714303006D-04    4    2    0
 0.275607742752398D+03 0.000000000000000D+00 0.000000000000000D+00 0.275607742752398D+03
 0.275607742752398D+03 0.000000000000000D+00 0.000000000000000D+00 -.275607742752398D+03
 0.156583677202180D+03 -.669372136981161D+02 -.102657265699883D+03 -.344106356162320D+02
 0.126009621241436D+03 -.979706138169341D+02 0.412801494156084D+02 0.676471192141131D+02
 0.697135514126559D+02 0.313216023594086D+01 0.583877241066703D+02 0.379610655338435D+02
 0.198908635648523D+03 0.161775667279109D+03 0.298939217760389D+01 -.711975491317246D+02
 0.000000000000000D+00 0.000000000000000D+00 0.000000000000000D+00 0.000000000000000D+00
 0.341517423160133D+03 0.000000000000000D+00 0.000000000000000D+00 0.341517423160133D+03
 0.302663907323191D+03 0.000000000000000D+00 0.000000000000000D+00 -.302663907323191D+03
 0.174430294655046D+03 -.719074139807460D+02 -.125522541085396D+03 -.344106356162320D+02
 0.124500522053754D+03 -.101732042913179D+03 0.239757940097905D+02 0.676471192141131D+02
 0.622122917251155D+02 0.115128354010050D+01 0.492747530834646D+02 0.379610655338435D+02
 0.195608902504121D+03 0.155851956057414D+03 -.242624851484859D+02 -.711975491317246D+02
 0.874293195452870D+02 0.166362172964110D+02 0.765344791406265D+02 0.388535158369421D+02
0.155696681098D-05 0.000000000000D+00 0.000000000000D+00 0.587128305813D-08 0.000000000000D+00  7 -1 1 23 -13 13 23 21 0 0.12545087D-01 0.14331196D+00 0.63320066D+05 0.63320066D+05 0.63320066D+05 0.11383811D+01  1  2  2  2  7  2        1 0.131218033070D-03 0.100000000000D+01
-.856272531731D-07 0.000000000000D+00 -.597916251295D-08 0.587128305813D-08 0.000000000000D+00  7 -1 1 23 -13 13 23 21 2 0.12545087D-01 0.14331196D+00 0.63320066D+05 0.63320066D+05 0.63320066D+05 0.11383811D+01  1  2  3  2  7  2        1 -.935193584328D-05 0.100000000000D+01
0.100889759275D-06 0.000000000000D+00 0.000000000000D+00 0.587128305813D-08 0.000000000000D+00  7 -1 1 23 -13 13 23 21 2 0.12545087D-01 0.14331196D+00 0.63320066D+05 0.63320066D+05 0.63320066D+05 0.11383811D+01  1  2 15  2  7  2        1 0.110188581441D-04 0.100000000000D+01
-.418817610083D-06 0.000000000000D+00 0.000000000000D+00 0.587128305813D-08 0.000000000000D+00  7 -1 1 23 -13 13 23 21 2 0.12545087D-01 0.14331196D+00 0.63320066D+05 0.63320066D+05 0.63320066D+05 0.11383811D+01  1  2  4  2  7  2        1 -.457419253145D-04 0.100000000000D+01
  </mgrwgt>
  </event>
  <event>
  8     66 0.58687835E-06 0.10423715E+03 0.75467711E-02 0.10780698E+00
       -1 -1    0    0    0  501 0.00000000E+00 0.00000000E+00 0.58356823E+03 0.58356832E+03 0.32000000E+00 0.0000E+00 0.9000E+01
        1 -1    0    0  501    0 0.00000000E+00 0.00000000E+00 -.20630075E+03 0.20630100E+03 0.32000000E+00 0.0000E+00 0.9000E+01
       25  2    1    2    0    0 -.24539727E+02 0.41566814E+02 -.85239969E+02 0.31591259E+03 0.30034133E+03 0.0000E+00 0.0000E+00
       23  2    1    2    0    0 0.24539727E+02 -.41566814E+02 0.46250745E+03 0.47395673E+03 0.91606988E+02 0.0000E+00 0.0000E+00
       23  1    3    3    0    0 0.69228258E+02 0.11167698E+02 -.13072957E+03 0.17413426E+03 0.91188000E+02 0.0000E+00 0.9000E+01
      -13  1    4    4    0    0 0.49716437E+02 -.44182468E+02 0.41332981E+03 0.41864705E+03 0.10565837E+00 0.0000E+00 0.9000E+01
       13  1    4    4    0    0 -.25176710E+02 0.26156543E+01 0.49177644E+02 0.55309675E+02 0.10565837E+00 0.0000E+00 0.9000E+01
       23  1    3    3    0    0 -.93767985E+02 0.30399116E+02 0.45489597E+02 0.14177833E+03 0.91188000E+02 0.0000E+00 0.9000E+01
#aMCatNLO 1  0  0  1  2 0.22241870D+02 0.00000000D+00  -5  7  0 0.00000000D+00 0.00000000D+00 0.00000000D+00 0.00000000D+00 0.00000000D+00
  <mgrwgt>
 0.2236168871D-03    9    2    0
 0.346973626972677D+03 0.000000000000000D+00 0.000000000000000D+00 0.346973626972677D+03
 0.346973626972677D+03 0.000000000000000D+00 0.000000000000000D+00 -.346973626972677D+03
 0.269275974450377D+03 0.692282577210557D+02 0.111676981840660D+02 -.243468745268005D+03
 0.251806986927246D+03 0.497165359285009D+02 -.441825302598247D+02 0.242864012855935D+03
 0.362190216917720D+02 -.251768090688461D+02 0.261571647205451D+01 0.259056720576353D+02
 0.136645270875959D+03 -.937679845807105D+02 0.303991156037042D+02 -.253009396455655D+02
 0.000000000000000D+00 0.000000000000000D+00 0.000000000000000D+00 0.000000000000000D+00
 0.362336806999659D+03 0.000000000000000D+00 0.000000000000000D+00 0.362336806999659D+03
 0.355296361595246D+03 0.000000000000000D+00 0.000000000000000D+00 -.355296361595246D+03
 0.267546056757210D+03 0.629319428650573D+02 0.530865210621298D+01 -.243468745268005D+03
 0.251734447240044D+03 0.438105648091221D+02 -.496783413357183D+02 0.242864012855935D+03
 0.367712508991588D+02 -.260329023566418D+02 0.181907746418201D+01 0.259056720576353D+02
 0.138251847322457D+03 -.969922166512354D+02 0.273988011818643D+02 -.253009396455655D+02
 0.233295663760346D+02 0.162826113336977D+02 0.151518105834590D+02 0.704044540441324D+01
0.458879090902D-05 0.000000000000D+00 0.000000000000D+00 0.117203206386D-05 0.000000000000D+00  7 -1 1 23 -13 13 23 21 0 0.89779754D-01 0.31738603D-01 0.29094023D+05 0.29094023D+05 0.29094023D+05 0.11685736D+01  1  2  2  1  7  1       -1 0.107375608157D-03 0.100000000000D+01
-.986353030027D-07 0.000000000000D+00 -.176221653470D-07 0.117203206386D-05 0.000000000000D+00  7 -1 1 23 -13 13 23 21 2 0.89779754D-01 0.31738603D-01 0.29094023D+05 0.29094023D+05 0.29094023D+05 0.11685736D+01  1  2  3  1  7  1       -1 -.315175069236D-05 0.100000000000D+01
0.286959874986D-06 0.000000000000D+00 0.000000000000D+00 0.117203206386D-05 0.000000000000D+00  7 -1 1 23 -13 13 23 21 2 0.89779754D-01 0.31738603D-01 0.29094023D+05 0.29094023D+05 0.29094023D+05 0.11685736D+01  1  2 15  1  7  1       -1 0.916939429527D-05 0.100000000000D+01
0.121983097450D-04 0.000000000000D+00 0.000000000000D+00 0.117203206386D-05 0.000000000000D+00  7 -1 1 23 -13 13 23 21 2 0.94794608D-01 0.31738603D-01 0.32655158D+05 0.32655158D+05 0.32655158D+05 0.11639341D+01  1  2 12  1  7  1       -1 0.344355142943D-03 0.100000000000D+01
-.112148634406D-04 0.000000000000D+00 0.000000000000D+00 0.117203206386D-05 0.000000000000D+00  7 -1 1 23 -13 13 23 21 2 0.89779754D-01 0.31738603D-01 0.29094023D+05 0.29094023D+05 0.29094023D+05 0.11685736D+01  1  2  4  1  7  1       -1 -.358354996007D-03 0.100000000000D+01
-.454526118062D-04 0.000000000000D+00 -.933701536102D-05 0.117203206386D-05 0.000000000000D+00  7 -1 1 23 -13 13 23 21 2 0.95497948D-01 0.31738603D-01 0.29094023D+05 0.29094023D+05 0.29094023D+05 0.11685736D+01  1  2  5  1  7  1       -1 -.127615645622D-02 0.100000000000D+01
0.459592615111D-04 0.000000000000D+00 0.931924500646D-05 0.117203206386D-05 0.000000000000D+00  7 -1 1 23 -13 13 23 21 2 0.89779754D-01 0.31738603D-01 0.29094023D+05 0.29094023D+05 0.29094023D+05 0.11685736D+01  1  2  6  1  7  1       -1 0.146856277497D-02 0.100000000000D+01
0.148559952865D-06 0.000000000000D+00 0.000000000000D+00 0.117203206386D-05 0.000000000000D+00  7 21 1 23 -13 13 23 1 2 0.94794608D-01 0.31738603D-01 0.32655158D+05 0.32655158D+05 0.32655158D+05 0.11639341D+01  1  2 12  3  7  1       -1 0.318790564244D-04 0.100000000000D+01
-.468431375714D-06 0.000000000000D+00 -.987618977988D-07 0.117203206386D-05 0.000000000000D+00  7 21 1 23 -13 13 23 1 2 0.95497948D-01 0.31738603D-01 0.29094023D+05 0.29094023D+05 0.29094023D+05 0.11685736D+01  1  2  5  3  7  1       -1 -.100061886770D-03 0.100000000000D+01
  </mgrwgt>
  </event>
  <event>
  8     66 0.58687835E-06 0.10022428E+03 0.75467711E-02 0.10418803E+00
       -1 -1    0    0    0  501 0.00000000E+00 0.00000000E+00 0.76522183E+03 0.76522189E+03 0.32000000E+00 0.0000E+00 0.9000E+01
        1 -1    0    0  501    0 0.00000000E+00 0.00000000E+00 -.77976445E+02 0.77977102E+02 0.32000000E+00 0.0000E+00 0.9000E+01
       25  2    1    2    0    0 -.80388407E+02 -.48494227E+02 0.30297409E+03 0.43665796E+03 0.30010480E+03 0.0000E+00 0.0000E+00
       23  2    1    2    0    0 0.80388407E+02 0.48494227E+02 0.38427129E+03 0.40654103E+03 0.93793404E+02 0.0000E+00 0.0000E+00
       23  1    3    3    0    0 -.34897850E+02 0.94172467E+02 0.10049519E+03 0.16882194E+03 0.91188000E+02 0.0000E+00 0.9000E+01
      -11  1    4    4    0    0 0.78639144E+02 0.67826541E+02 0.36379141E+03 0.37832359E+03 0.51099893E-03 0.0000E+00 0.9000E+01
       11  1    4    4    0    0 0.17492635E+01 -.19332315E+02 0.20479883E+02 0.28217440E+02 0.51099893E-03 0.0000E+00 0.9000E+01
       23  1    3    3    0    0 -.45490557E+02 -.14266669E+03 0.20247890E+03 0.26783602E+03 0.91188000E+02 0.0000E+00 0.9000E+01
#aMCatNLO 1  0  0  2  1 0.31884488D+02 0.00000000D+00  -5  7  0 0.00000000D+00 0.00000000D+00 0.00000000D+00 0.00000000D+00 0.00000000D+00
  <mgrwgt>
 0.9913130310D-04    7    2    0
 0.244273581951082D+03 0.000000000000000D+00 0.000000000000000D+00 0.244273581951082D+03
 0.244273581951082D+03 0.000000000000000D+00 0.000000000000000D+00 -.244273581951082D+03
 0.150007290156796D+03 -.348978504617939D+02 0.941724669326361D+02 -.640361012332345D+02
 0.141210748752196D+03 0.786391438315131D+02 0.678265411264482D+02 0.956865765895341D+02
 0.198920650844388D+02 0.174926351434366D+01 -.193323145664138D+02 -.434694651291662D+01
 0.177437059908733D+03 -.454905568840628D+02 -.142666693492671D+03 -.273035288433830D+02
 0.000000000000000D+00 -.000000000000000D+00 0.000000000000000D+00 -.000000000000000D+00
 0.245668444148598D+03 0.000000000000000D+00 0.000000000000000D+00 0.245668444148598D+03
 0.535193693601366D+03 0.000000000000000D+00 0.000000000000000D+00 -.535193693601366D+03
 0.143807954513139D+03 -.325284572023935D+02 0.848926006677384D+02 -.640361012332345D+02
 0.138491814190319D+03 0.808947292012154D+02 0.589924100691183D+02 0.956865765895341D+02
 0.211851102547529D+02 0.208051924095930D+01 -.206296968520596D+02 -.434694651291662D+01
 0.186101632215694D+03 -.425588978150499D+02 -.154148706445471D+03 -.273035288433830D+02
 0.291275626576059D+03 -.788789342473134D+01 0.308933925606741D+02 -.289525249452769D+03
0.223029642166D-05 0.000000000000D+00 0.000000000000D+00 0.862333742871D-07 0.000000000000D+00  7 -1 1 23 -11 11 23 21 0 0.11772649D+00 0.11996432D-01 0.47140259D+05 0.47140259D+05 0.47140259D+05 0.11495520D+01  1  2  2  2  7  2        1 0.999944324360D-04 0.100000000000D+01
-.121813112625D-06 0.000000000000D+00 -.856492550969D-08 0.862333742871D-07 0.000000000000D+00  7 -1 1 23 -11 11 23 21 2 0.11772649D+00 0.11996432D-01 0.47140259D+05 0.47140259D+05 0.47140259D+05 0.11495520D+01  1  2  3  2  7  2        1 -.721713027060D-05 0.100000000000D+01
0.144225494502D-06 0.000000000000D+00 0.000000000000D+00 0.862333742871D-07 0.000000000000D+00  7 -1 1 23 -11 11 23 21 2 0.11772649D+00 0.11996432D-01 0.47140259D+05 0.47140259D+05 0.47140259D+05 0.11495520D+01  1  2 15  2  7  2        1 0.854500931578D-05 0.100000000000D+01
0.559931579104D-04 0.000000000000D+00 0.000000000000D+00 0.862333742871D-07 0.000000000000D+00  7 -1 1 23 -11 11 23 21 2 0.11772649D+00 0.26274907D-01 0.54193668D+05 0.54193668D+05 0.54193668D+05 0.11442313D+01  1  2 12  2  7  2        1 0.118427965379D-02 0.100000000000D+01
-.556287480209D-04 0.000000000000D+00 -.732822199287D-06 0.862333742871D-07 0.000000000000D+00  7 -1 1 23 -11 11 23 21 2 0.11772649D+00 0.26342880D-01 0.47140259D+05 0.47140259D+05 0.47140259D+05 0.11495520D+01  1  2  5  2  7  2        1 -.118757021880D-02 0.100000000000D+01
0.475673014664D-05 0.000000000000D+00 0.000000000000D+00 0.862333742871D-07 0.000000000000D+00  7 -1 21 23 -11 11 23 -1 2 0.11772649D+00 0.26274907D-01 0.54193668D+05 0.54193668D+05 0.54193668D+05 0.11442313D+01  1  2 12  4  7  2        1 0.721072234660D-03 0.100000000000D+01
-.469604535474D-05 0.000000000000D+00 -.624708932347D-07 0.862333742871D-07 0.000000000000D+00  7 -1 21 23 -11 11 23 -1 2 0.11772649D+00 0.26342880D-01 0.47140259D+05 0.47140259D+05 0.47140259D+05 0.11495520D+01  1  2  5  4  7  2        1 -.719972678029D-03 0.100000000000D+01
  </mgrwgt>
  </event>
  <event>
  8     66 0.58687835E-06 0.23606198E+03 0.75467711E-02 0.92005026E-01
       -1 -1    0    0    0  501 0.00000000E+00 0.00000000E+00 0.71277169E+03 0.71277176E+03 0.32000000E+00 0.0000E+00 0.9000E+01
        1 -1    0    0  501    0 0.00000000E+00 0.00000000E+00 -.11419578E+03 0.11419623E+03 0.32000000E+00 0.0000E+00 0.9000E+01
       25  2    1    2    0    0 -.68839303E+02 0.15959552E+03 0.49893970E+03 0.60684292E+03 0.29850950E+03 0.0000E+00 0.0000E+00
       23  2    1    2    0    0 0.68839303E+02 -.15959552E+03 0.99636215E+02 0.22012507E+03 0.91203585E+02 0.0000E+00 0.0000E+00
       23  1    3    3    0    0 -.43100963E+02 0.18167241E+01 0.33430382E+02 0.10627246E+03 0.91188000E+02 0.0000E+00 0.9000E+01
      -11  1    4    4    0    0 -.14269447E+02 -.30445261E+02 0.46972799E+02 0.57766555E+02 0.51099893E-03 0.0000E+00 0.9000E+01
       11  1    4    4    0    0 0.83108751E+02 -.12915026E+03 0.52663416E+02 0.16235852E+03 0.51099893E-03 0.0000E+00 0.9000E+01
       23  1    3    3    0    0 -.25738341E+02 0.15777879E+03 0.46550931E+03 0.50057046E+03 0.91188000E+02 0.0000E+00 0.9000E+01
#aMCatNLO 1  0  0  2  2 0.56141256D+03 0.00000000D+00  -5  7  0 0.00000000D+00 0.00000000D+00 0.00000000D+00 0.00000000D+00 0.00000000D+00
  <mgrwgt>
 0.2471951010D-03    3    2    0
 0.285299375267667D+03 0.000000000000000D+00 0.000000000000000D+00 0.285299375267667D+03
 0.285299375267667D+03 0.000000000000000D+00 0.000000000000000D+00 -.285299375267667D+03
 0.118951012848714D+03 -.431009625075929D+02 0.181672409207979D+01 -.630325206399628D+02
 0.344450561951497D+02 -.142694474059517D+02 -.304452610369658D+02 0.747869289427041D+01
 0.180060411496359D+03 0.831087505339798D+02 -.129150256942110D+03 -.939941407998710D+02
 0.237142269995110D+03 -.257383406204352D+02 0.157778793886996D+03 0.149547968545563D+03
 0.000000000000000D+00 0.000000000000000D+00 -.000000000000000D+00 0.000000000000000D+00
 0.735617735326093D+03 0.000000000000000D+00 0.000000000000000D+00 0.735617735326093D+03
 0.635186408023918D+03 0.000000000000000D+00 0.000000000000000D+00 -.635186408023918D+03
 0.182723985297366D+03 -.843637280209826D+02 0.118247478599446D+03 -.630325206399628D+02
 0.247775164592270D+02 -.223698440034647D+02 -.758844870451840D+01 0.747869289427041D+01
 0.105515748331858D+03 0.440479659425434D+02 -.189328111396744D+02 -.939941407998710D+02
 0.487461976896936D+03 -.124848891091160D+03 0.437438095132867D+03 0.149547968545563D+03
 0.570324916364624D+03 0.187534497173064D+03 -.529164313888120D+03 0.100431327302175D+03
0.759791451380D-05 0.000000000000D+00 0.000000000000D+00 0.716547601994D-07 0.000000000000D+00  7 -1 1 23 -11 11 23 21 0 0.10965722D+00 0.17568621D-01 0.55725259D+05 0.55725259D+05 0.55725259D+05 0.11431770D+01  1  2  2  2  7  2        1 0.243630213548D-03 0.100000000000D+01
-.403687272139D-06 0.000000000000D+00 -.291779923098D-07 0.716547601994D-07 0.000000000000D+00  7 -1 1 23 -11 11 23 21 2 0.10965722D+00 0.17568621D-01 0.55725259D+05 0.55725259D+05 0.55725259D+05 0.11431770D+01  1  2  3  2  7  2        1 -.169164302252D-04 0.100000000000D+01
0.488758394141D-06 0.000000000000D+00 0.000000000000D+00 0.716547601994D-07 0.000000000000D+00  7 -1 1 23 -11 11 23 21 2 0.10965722D+00 0.17568621D-01 0.55725259D+05 0.55725259D+05 0.55725259D+05 0.11431770D+01  1  2 15  2  7  2        1 0.204813176984D-04 0.100000000000D+01
  </mgrwgt>
  </event>
  <event>
  8     66 0.58687835E-06 0.22376945E+03 0.75467711E-02 0.98469826E-01
       -1 -1    0    0    0  501 0.00000000E+00 0.00000000E+00 0.17921868E+03 0.17921897E+03 0.32000000E+00 0.0000E+00 0.9000E+01
        1 -1    0    0  501    0 0.00000000E+00 0.00000000E+00 -.50312759E+03 0.50312769E+03 0.32000000E+00 0.0000E+00 0.9000E+01
       25  2    1    2    0    0 0.80861684E+02 -.16423524E+03 -.32783763E+03 0.48050364E+03 0.29982397E+03 0.0000E+00 0.0000E+00
       23  2    1    2    0    0 -.80861684E+02 0.16423524E+03 0.39287275E+01 0.20184302E+03 0.84931407E+02 0.0000E+00 0.0000E+00
       23  1    3    3    0    0 -.57106325E+02 0.75343951E+01 -.66385124E+02 0.12664966E+03 0.91188000E+02 0.0000E+00 0.9000E+01
      -11  1    4    4    0    0 -.40815381E+01 0.97493171E+02 0.17734572E+02 0.99177076E+02 0.51099893E-03 0.0000E+00 0.9000E+01
       11  1    4    4    0    0 -.76780146E+02 0.66742064E+02 -.13805845E+02 0.10266594E+03 0.51099893E-03 0.0000E+00 0.9000E+01
       23  1    3    3    0    0 0.13796801E+03 -.17176963E+03 -.26145251E+03 0.35385398E+03 0.91188000E+02 0.0000E+00 0.9000E+01
#aMCatNLO 1  0  0  2  1 0.15292955D+03 0.00000000D+00  -5  7  0 0.00000000D+00 0.00000000D+00 0.00000000D+00 0.00000000D+00 0.00000000D+00
  <mgrwgt>
 0.4537294289D-03    8    2    0
 0.300283192460251D+03 0.000000000000000D+00 0.000000000000000D+00 0.300283192460251D+03
 0.300283192460251D+03 0.000000000000000D+00 0.000000000000000D+00 -.300283192460251D+03
 0.108091692659924D+03 -.571063252511643D+02 0.753439512335235D+01 -.711780756419993D+01
 0.122247154998546D+03 -.408153805587667D+01 0.974931708439198D+02 0.736395925513937D+02
 0.109200126480685D+03 -.767801460892453D+02 0.667420643042752D+02 0.396859375889717D+02
 0.261027410781346D+03 0.137968009396286D+03 -.171769630271547D+03 -.106207722576165D+03
 0.000000000000000D+00 -.000000000000000D+00 -.000000000000000D+00 -.000000000000000D+00
 0.332490969632761D+03 0.000000000000000D+00 0.000000000000000D+00 0.332490969632761D+03
 0.568289588974172D+03 0.000000000000000D+00 0.000000000000000D+00 -.568289588974172D+03
 0.100249068964398D+03 -.349987042414422D+02 0.214254988536487D+02 -.711780756419993D+01
 0.138476433704799D+03 0.235845712662240D+02 0.114876895408314D+03 0.736395925513937D+02
 0.105172277520596D+03 -.540324906345286D+02 0.810353273108895D+02 0.396859375889717D+02
 0.275833961303407D+03 0.194935871356063D+03 -.135974440937134D+03 -.106207722576165D+03
 0.281048817113734D+03 -.129489247746316D+03 -.813632806357180D+02 -.235798619341411D+03
0.343348707654D-05 0.000000000000D+00 0.000000000000D+00 0.996886971461D-08 0.000000000000D+00  7 -1 1 23 -11 11 23 21 0 0.27572135D-01 0.77404274D-01 0.74423235D+05 0.74423235D+05 0.74423235D+05 0.11324044D+01  1  2  2  2  7  2        1 0.207502291767D-03 0.100000000000D+01
-.188613467623D-06 0.000000000000D+00 -.131854944318D-07 0.996886971461D-08 0.000000000000D+00  7 -1 1 23 -11 11 23 21 2 0.27572135D-01 0.77404274D-01 0.74423235D+05 0.74423235D+05 0.74423235D+05 0.11324044D+01  1  2  3  2  7  2        1 -.146171688212D-04 0.100000000000D+01
0.222650449740D-06 0.000000000000D+00 0.000000000000D+00 0.996886971461D-08 0.000000000000D+00  7 -1 1 23 -11 11 23 21 2 0.27572135D-01 0.77404274D-01 0.74423235D+05 0.74423235D+05 0.74423235D+05 0.11324044D+01  1  2 15  2  7  2        1 0.172549672777D-04 0.100000000000D+01
0.197680463130D-05 0.000000000000D+00 0.000000000000D+00 0.996886971461D-08 0.000000000000D+00  7 -1 1 23 -11 11 23 21 2 0.27572135D-01 0.14727767D+00 0.13037974D+06 0.13037974D+06 0.13037974D+06 0.11123886D+01  1  2 12  2  7  2        1 0.554807241706D-04 0.100000000000D+01
-.374521537095D-05 0.000000000000D+00 -.108305436204D-05 0.996886971461D-08 0.000000000000D+00  7 -1 1 23 -11 11 23 21 2 0.27572135D-01 0.15442739D+00 0.74423235D+05 0.74423235D+05 0.74423235D+05 0.11324044D+01  1  2  5  2  7  2        1 -.101699455523D-03 0.100000000000D+01
0.377244164981D-05 0.000000000000D+00 0.867724311714D-06 0.996886971461D-08 0.000000000000D+00  7 -1 1 23 -11 11 23 21 2 0.27572135D-01 0.77404274D-01 0.74423235D+05 0.74423235D+05 0.74423235D+05 0.11324044D+01  1  2  6  2  7  2        1 0.292356729127D-03 0.100000000000D+01
0.138149163167D-06 0.000000000000D+00 0.000000000000D+00 0.996886971461D-08 0.000000000000D+00  7 -1 21 23 -11 11 23 -1 2 0.27572135D-01 0.14727767D+00 0.13037974D+06 0.13037974D+06 0.13037974D+06 0.11123886D+01  1  2 12  4  7  2        1 0.561245862713D-05 0.100000000000D+01
-.215068860203D-06 0.000000000000D+00 -.809490608922D-07 0.996886971461D-08 0.000000000000D+00  7 -1 21 23 -11 11 23 -1 2 0.27572135D-01 0.15442739D+00 0.74423235D+05 0.74423235D+05 0.74423235D+05 0.11324044D+01  1  2  5  4  7  2        1 -.816111768878D-05 0.100000000000D+01
  </mgrwgt>
  </event>
  <event>
  9     66 0.58687835E-06 0.29920838E+03 0.75467711E-02 0.10022113E+00
       -1 -1    0    0    0  502 0.00000000E+00 0.00000000E+00 0.16471785E+03 0.16471816E+03 0.32000000E+00 0.0000E+00 0.9000E+01
        1 -1    0    0  501    0 0.00000000E+00 0.00000000E+00 -.81641765E+03 0.81641771E+03 0.32000000E+00 0.0000E+00 0.9000E+01
       25  2    1    2    0    0 -.75622760E+02 0.19878382E+03 -.11870594E+03 0.38627249E+03 0.29980248E+03 0.0000E+00 0.0000E+00
       23  2    1    2    0    0 0.49153883E+02 -.20907625E+03 -.49627828E+03 0.54843998E+03 0.91461991E+02 0.0000E+00 0.0000E+00
       23  1    3    3    0    0 -.68936847E+02 -.32491041E+02 -.35509501E+02 0.12403279E+03 0.91188000E+02 0.0000E+00 0.9000E+01
      -13  1    4    4    0    0 0.25911776E+02 -.47685507E+01 -.39108076E+02 0.47155191E+02 0.10565837E+00 0.0000E+00 0.9000E+01
       13  1    4    4    0    0 0.23242106E+02 -.20430770E+03 -.45717020E+03 0.50128479E+03 0.10565837E+00 0.0000E+00 0.9000E+01
       23  1    3    3    0    0 -.66859131E+01 0.23127486E+03 -.83196441E+02 0.26223970E+03 0.91188000E+02 0.0000E+00 0.9000E+01
       21  1    1    2  501  502 0.26468878E+02 0.10292430E+02 -.36715578E+02 0.46423397E+02 0.75000000E+00 0.0000E+00 0.9000E+01
#aMCatNLO 2  0  0  1  1 0.28399571D+02 0.00000000D+00  -5  7  0 0.00000000D+00 0.00000000D+00 0.00000000D+00 0.00000000D+00 0.00000000D+00
  <mgrwgt>
 0.1835507413D-03    2    2    0
 0.351665777516784D+03 0.000000000000000D+00 0.000000000000000D+00 0.351665777516784D+03
 0.351665777516784D+03 0.000000000000000D+00 0.000000000000000D+00 -.351665777516784D+03
 0.130718035334973D+03 -.639637729710788D+02 -.305572600955614D+02 0.612114615132790D+02
 0.293776812927344D+02 0.269994512603832D+02 -.434534323517353D+01 -.107329297931272D+02
 0.264338020858024D+03 0.332217377528192D+02 -.200427383118894D+03 -.169114663787421D+03
 0.278897817547837D+03 0.374258395787637D+01 0.235329986449629D+03 0.118636132067269D+03
 0.000000000000000D+00 0.000000000000000D+00 0.000000000000000D+00 -.000000000000000D+00
 0.362633856415867D+03 0.000000000000000D+00 0.000000000000000D+00 0.362633856415867D+03
 0.370829251722170D+03 0.000000000000000D+00 0.000000000000000D+00 -.370829251722170D+03
 0.133678910256544D+03 -.689368473161291D+02 -.324910413021514D+02 0.612114615132790D+02
 0.284491239552815D+02 0.259117798389462D+02 -.476828454024639D+01 -.107329297931272D+02
 0.266236192318541D+03 0.232421027695538D+02 -.204307966685571D+03 -.169114663787421D+03
 0.275540462979178D+03 -.668591317409339D+01 0.231274862723829D+03 0.118636132067269D+03
 0.295584186284932D+02 0.264688778817225D+02 0.102924298041402D+02 -.819539530630252D+01
-.257749936419D-06 0.000000000000D+00 0.000000000000D+00 0.113851100569D-05 0.000000000000D+00  7 -1 1 23 -13 13 23 21 2 0.24574455D-01 0.11911038D+00 0.89525654D+05 0.89525654D+05 0.89525654D+05 0.11256868D+01  1  2  8  1  7  1       -1 -.127192560747D-04 0.100000000000D+01
0.457937251521D-05 0.000000000000D+00 0.000000000000D+00 0.113851100569D-05 0.949509507302D-08  7 -1 1 23 -13 13 23 21 2 0.25340906D-01 0.12560111D+00 0.98566446D+05 0.98566446D+05 0.98566446D+05 0.11222370D+01  1  2  1  1  7  1       -1 0.196269997386D-03 0.100000000000D+01
  </mgrwgt>
  </event>
  <event>
  8     66 0.58687835E-06 0.11606700E+03 0.75467711E-02 0.94707551E-01
       -3 -1    0    0    0  501 0.00000000E+00 0.00000000E+00 0.21836879E+03 0.21836936E+03 0.50000000E+00 0.0000E+00 0.9000E+01
        3 -1    0    0  501    0 0.00000000E+00 0.00000000E+00 -.77948655E+03 0.77948671E+03 0.50000000E+00 0.0000E+00 0.9000E+01
       25  2    1    2    0    0 0.28344429E+03 0.19884480E+03 -.41559157E+03 0.61159847E+03 0.28540570E+03 0.0000E+00 0.0000E+00
       23  2    1    2    0    0 -.28344429E+03 -.19884480E+03 -.14552618E+03 0.38625760E+03 0.90206135E+02 0.0000E+00 0.0000E+00
       23  1    3    3    0    0 0.19842727E+03 0.65636572E+01 -.22393282E+03 0.31285400E+03 0.91188000E+02 0.0000E+00 0.9000E+01
      -11  1    4    4    0    0 -.28929354E+03 -.19462347E+03 -.13587194E+03 0.37420614E+03 0.51099893E-03 0.0000E+00 0.9000E+01
       11  1    4    4    0    0 0.58492542E+01 -.42213246E+01 -.96542431E+01 0.12051463E+02 0.51099893E-03 0.0000E+00 0.9000E+01
       23  1    3    3    0    0 0.85017022E+02 0.19228114E+03 -.19165875E+03 0.29874447E+03 0.91188000E+02 0.0000E+00 0.9000E+01
#aMCatNLO 1  0  0  2  1 0.17242530D+03 0.00000000D+00  -5  7  0 0.00000000D+00 0.00000000D+00 0.00000000D+00 0.00000000D+00 0.00000000D+00
  <mgrwgt>
 0.7321343373D-04    9    2    0
 0.412572298250631D+03 0.000000000000000D+00 0.000000000000000D+00 0.412572298250631D+03
 0.412572298250631D+03 0.000000000000000D+00 0.000000000000000D+00 -.412572298250631D+03
 0.226058048369350D+03 0.198427268258804D+03 0.656365724426810D+01 -.580562443109105D+02
 0.360135318390240D+03 -.289293544714757D+03 -.194623474923319D+03 0.901576150260354D+02
 0.800884909817665D+01 0.584925421791729D+01 -.422132463394539D+01 -.347969931264009D+01
 0.230942380643495D+03 0.850170222380358D+02 0.192281142312996D+03 -.286216714024848D+02
 0.000000000000000D+00 -.000000000000000D+00 -.000000000000000D+00 -.000000000000000D+00
 0.464541199517316D+03 0.000000000000000D+00 0.000000000000000D+00 0.464541199517316D+03
 0.594104605667043D+03 0.000000000000000D+00 0.000000000000000D+00 -.594104605667043D+03
 0.269988005353660D+03 0.246087099498702D+03 0.254731946892425D+02 -.580562443109105D+02
 0.296724870778955D+03 -.226182780040692D+03 -.169583617736704D+03 0.901576150260354D+02
 0.899264848586721D+01 0.748274872835548D+01 -.357321857045952D+01 -.347969931264009D+01
 0.267261906516681D+03 0.132884215356170D+03 0.211272952755989D+03 -.286216714024848D+02
 0.215678374049195D+03 -.160271283542535D+03 -.635893111380679D+02 -.129563406149727D+03
0.270578333427D-04 0.000000000000D+00 0.000000000000D+00 0.125149404036D-08 0.000000000000D+00  7 -3 3 23 -11 11 23 21 0 0.33595255D-01 0.11992106D+00 0.16141060D+06 0.16141060D+06 0.16141060D+06 0.11050479D+01  1  2  2  2  7  2        3 0.567016298598D-04 0.100000000000D+01
-.150192383440D-05 0.000000000000D+00 -.103909204527D-06 0.125149404036D-08 0.000000000000D+00  7 -3 3 23 -11 11 23 21 2 0.33595255D-01 0.11992106D+00 0.16141060D+06 0.16141060D+06 0.16141060D+06 0.11050479D+01  1  2  3  2  7  2        3 -.384337423571D-05 0.100000000000D+01
0.176037614959D-05 0.000000000000D+00 0.000000000000D+00 0.125149404036D-08 0.000000000000D+00  7 -3 3 23 -11 11 23 21 2 0.33595255D-01 0.11992106D+00 0.16141060D+06 0.16141060D+06 0.16141060D+06 0.11050479D+01  1  2 15  2  7  2        3 0.450474530301D-05 0.100000000000D+01
0.165831659534D-04 0.000000000000D+00 0.000000000000D+00 0.125149404036D-08 0.000000000000D+00  7 -3 3 23 -11 11 23 21 2 0.33595255D-01 0.17761135D+00 0.24641836D+06 0.24641836D+06 0.24641836D+06 0.10909309D+01  1  2 12  2  7  2        3 0.131305266079D-04 0.100000000000D+01
-.213848862934D-04 0.000000000000D+00 0.000000000000D+00 0.125149404036D-08 0.000000000000D+00  7 -3 3 23 -11 11 23 21 2 0.33595255D-01 0.11992106D+00 0.16141060D+06 0.16141060D+06 0.16141060D+06 0.11050479D+01  1  2  4  2  7  2        3 -.547232283897D-04 0.100000000000D+01
-.293154993055D-04 0.000000000000D+00 -.101370282826D-04 0.125149404036D-08 0.000000000000D+00  7 -3 3 23 -11 11 23 21 2 0.33595255D-01 0.18492885D+00 0.16141060D+06 0.16141060D+06 0.16141060D+06 0.11050479D+01  1  2  5  2  7  2        3 -.210233763176D-04 0.100000000000D+01
0.315792000965D-04 0.000000000000D+00 0.925519559520D-05 0.125149404036D-08 0.000000000000D+00  7 -3 3 23 -11 11 23 21 2 0.33595255D-01 0.11992106D+00 0.16141060D+06 0.16141060D+06 0.16141060D+06 0.11050479D+01  1  2  6  2  7  2        3 0.808101457980D-04 0.100000000000D+01
0.778867721908D-06 0.000000000000D+00 0.000000000000D+00 0.125149404036D-08 0.000000000000D+00  7 -3 21 23 -11 11 23 -3 2 0.33595255D-01 0.17761135D+00 0.24641836D+06 0.24641836D+06 0.24641836D+06 0.10909309D+01  1  2 12  4  7  2        3 0.776166201221D-05 0.100000000000D+01
-.109581413375D-05 0.000000000000D+00 -.511829730355D-06 0.125149404036D-08 0.000000000000D+00  7 -3 21 23 -11 11 23 -3 2 0.33595255D-01 0.18492885D+00 0.16141060D+06 0.16141060D+06 0.16141060D+06 0.11050479D+01  1  2  5  4  7  2        3 -.101052969088D-04 0.100000000000D+01
  </mgrwgt>
  </event>
  <event>
  8     66 0.58687835E-06 0.27361245E+03 0.75467711E-02 0.93647705E-01
       -1 -1    0    0    0  501 0.00000000E+00 0.00000000E+00 0.35273559E+03 0.35273573E+03 0.32000000E+00 0.0000E+00 0.9000E+01
        1 -1    0    0  501    0 0.00000000E+00 0.00000000E+00 -.83701785E+03 0.83701792E+03 0.32000000E+00 0.0000E+00 0.9000E+01
       25  2    1    2    0    0 0.19517180E+03 -.43367469E+02 -.75894302E+03 0.83893932E+03 0.29639823E+03 0.0000E+00 0.0000E+00
       23  2    1    2    0    0 -.19517180E+03 0.43367469E+02 0.27466075E+03 0.35081433E+03 0.87517964E+02 0.0000E+00 0.0000E+00
       23  1    3    3    0    0 -.31777295E+02 -.28403631E+02 -.32918373E+03 0.34422920E+03 0.91188000E+02 0.0000E+00 0.9000E+01
      -13  1    4    4    0    0 -.52655091E+02 0.23392053E+02 0.14903882E+03 0.15978839E+03 0.10565837E+00 0.0000E+00 0.9000E+01
       13  1    4    4    0    0 -.14251671E+03 0.19975417E+02 0.12562193E+03 0.19102594E+03 0.10565837E+00 0.0000E+00 0.9000E+01
       23  1    3    3    0    0 0.22694909E+03 -.14963838E+02 -.42975929E+03 0.49471012E+03 0.91188000E+02 0.0000E+00 0.9000E+01
#aMCatNLO 1  0  0  1  2 0.39984176D+03 0.00000000D+00  -5  7  0 0.00000000D+00 0.00000000D+00 0.00000000D+00 0.00000000D+00 0.00000000D+00
  <mgrwgt>
 0.5444463564D-03    3    2    0
 0.543365539244994D+03 0.000000000000000D+00 0.000000000000000D+00 0.543365539244994D+03
 0.543365539244994D+03 0.000000000000000D+00 0.000000000000000D+00 -.543365539244994D+03
 0.230167434860100D+03 -.317772952667537D+02 -.284036314470341D+02 -.206990903066365D+03
 0.241352844749126D+03 -.526549604845729D+02 0.233920575747928D+02 0.234374619887225D+03
 0.265116483315185D+03 -.142516837990522D+03 0.199754115560581D+02 0.222658221379225D+03
 0.350094315565576D+03 0.226949093741849D+03 -.149638376838169D+02 -.250041938200085D+03
 0.000000000000000D+00 0.000000000000000D+00 -.000000000000000D+00 -.000000000000000D+00
 0.752284306329648D+03 0.000000000000000D+00 0.000000000000000D+00 0.752284306329648D+03
 0.809598514779394D+03 0.000000000000000D+00 0.000000000000000D+00 -.809598514779394D+03
 0.234845254784639D+03 -.320848352983666D+02 0.544276744176113D+02 -.206990903066365D+03
 0.265849358023294D+03 -.529904029035614D+02 0.113738453982084D+03 0.234374619887225D+03
 0.290036114370014D+03 -.142883992804238D+03 0.118863066977991D+03 0.222658221379225D+03
 0.367223447250097D+03 0.226474689639842D+03 0.112809808793059D+03 -.250041938200085D+03
 0.403928646680998D+03 0.148454136632448D+01 -.399839004170745D+03 -.573142084497457D+02
0.581985714495D-04 0.000000000000D+00 0.000000000000D+00 0.553765954507D-08 0.000000000000D+00  7 -1 1 23 -13 13 23 21 0 0.54267030D-01 0.12877199D+00 0.74863772D+05 0.74863772D+05 0.74863772D+05 0.11321879D+01  1  2  2  1  7  1       -1 0.518873224154D-03 0.100000000000D+01
-.138288785228D-05 0.000000000000D+00 -.223497838402D-06 0.553765954507D-08 0.000000000000D+00  7 -1 1 23 -13 13 23 21 2 0.54267030D-01 0.12877199D+00 0.74863772D+05 0.74863772D+05 0.74863772D+05 0.11321879D+01  1  2  3  1  7  1       -1 -.158042140198D-04 0.100000000000D+01
0.362056787256D-05 0.000000000000D+00 0.000000000000D+00 0.553765954507D-08 0.000000000000D+00  7 -1 1 23 -13 13 23 21 2 0.54267030D-01 0.12877199D+00 0.74863772D+05 0.74863772D+05 0.74863772D+05 0.11321879D+01  1  2 15  1  7  1       -1 0.413773462804D-04 0.100000000000D+01
  </mgrwgt>
  </event>
  <event>
  9     66 0.58687835E-06 0.57840748E+03 0.75467711E-02 0.84267364E-01
       21 -1    0    0  502  501 0.00000000E+00 0.00000000E+00 0.11923705E+04 0.11923708E+04 0.75000000E+00 0.0000E+00 0.9000E+01
        1 -1    0    0  501    0 0.00000000E+00 0.00000000E+00 -.18230249E+04 0.18230250E+04 0.32000000E+00 0.0000E+00 0.9000E+01
       25  2    1    2    0    0 0.52962952E+03 -.77834862E+03 -.37345555E+03 0.10565777E+04 0.30092090E+03 0.0000E+00 0.0000E+00
       23  2    1    2    0    0 -.51993663E+03 -.38192209E+03 -.43758420E+03 0.78456891E+03 0.88712229E+02 0.0000E+00 0.0000E+00
       23  1    3    3    0    0 0.25582342E+03 -.56607265E+03 -.27196454E+03 0.68422498E+03 0.91188000E+02 0.0000E+00 0.9000E+01
      -11  1    4    4    0    0 -.50910353E+03 -.38372340E+03 -.41868403E+03 0.76270989E+03 0.51099893E-03 0.0000E+00 0.9000E+01
       11  1    4    4    0    0 -.10833097E+02 0.18013040E+01 -.18900161E+02 0.21859020E+02 0.51099893E-03 0.0000E+00 0.9000E+01
       23  1    3    3    0    0 0.27380611E+03 -.21227597E+03 -.10149101E+03 0.37235272E+03 0.91188000E+02 0.0000E+00 0.9000E+01
        1  1    1    2  502    0 -.96928922E+01 0.11602707E+04 0.18038534E+03 0.11742491E+04 0.32000000E+00 0.0000E+00 0.9000E+01
#aMCatNLO 2  0  0  1  2 0.11603112D+04 0.00000000D+00  -5  7  0 0.00000000D+00 0.00000000D+00 0.00000000D+00 0.00000000D+00 0.00000000D+00
  <mgrwgt>
 0.5370923287D-05    1    2    0
 0.588581620432583D+03 0.000000000000000D+00 0.000000000000000D+00 0.588581620432583D+03
 0.588581620432583D+03 0.000000000000000D+00 0.000000000000000D+00 -.588581620432583D+03
 0.322731171101013D+03 0.252564744135184D+03 -.175999063226091D+03 0.327953841218372D+02
 0.530430256230385D+03 -.513126425481169D+03 0.978298836764716D+02 -.921240579729167D+02
 0.230315412741523D+02 -.109636108115850D+02 0.174242171296149D+02 -.103270416313248D+02
 0.300970272259616D+03 0.271525292157571D+03 0.607449624200044D+02 0.696557154824043D+02
 0.000000000000000D+00 -.000000000000000D+00 0.000000000000000D+00 0.000000000000000D+00
 0.191325192654913D+04 0.000000000000000D+00 0.000000000000000D+00 0.191325192654913D+04
 0.113613976242088D+04 0.000000000000000D+00 0.000000000000000D+00 -.113613976242088D+04
 0.628708718764569D+03 0.255823415736075D+03 -.566072649443527D+03 0.327953841218372D+02
 0.644140431104844D+03 -.509103533249270D+03 -.383723396940616D+03 -.921240579729167D+02
 0.150747629561381D+02 -.108330971209852D+02 0.180130399875801D+01 -.103270416313248D+02
 0.364963069392923D+03 0.273806106838188D+03 -.212275970932775D+03 0.696557154824043D+02
 0.139650470675154D+04 -.969289220400733D+01 0.116027071331816D+04 0.777112164128244D+03
0.105157177268D-04 0.000000000000D+00 0.000000000000D+00 0.144449083817D-06 0.420808662667D-12  7 21 1 23 -11 11 23 1 2 0.18344164D+00 0.28046539D+00 0.19528927D+07 0.19528927D+07 0.19528927D+07 0.10290456D+01  1  2  1  3  7  1       -1 0.537092328676D-05 0.100000000000D+01
  </mgrwgt>
  </event>
  <event>
  8     66 0.58687835E-06 0.24574163E+03 0.75467711E-02 0.97000355E-01
       -1 -1    0    0    0  501 0.00000000E+00 0.00000000E+00 0.14523153E+04 0.14523153E+04 0.32000000E+00 0.0000E+00 0.9000E+01
        1 -1    0    0  501    0 0.00000000E+00 0.00000000E+00 -.15283298E+03 0.15283332E+03 0.32000000E+00 0.0000E+00 0.9000E+01
       25  2    1    2    0    0 -.35295379E+02 0.32784917E+03 0.11456327E+04 0.12301170E+04 0.30328656E+03 0.0000E+00 0.0000E+00
       23  2    1    2    0    0 0.35295379E+02 -.32784917E+03 0.15384959E+03 0.37503161E+03 0.90819451E+02 0.0000E+00 0.0000E+00
       23  1    3    3    0    0 0.84892929E+02 0.56411575E+02 0.31927198E+03 0.34733114E+03 0.91188000E+02 0.0000E+00 0.9000E+01
      -13  1    4    4    0    0 0.30879716E+02 -.77697151E+02 0.46651824E+01 0.83738756E+02 0.10565837E+00 0.0000E+00 0.9000E+01
       13  1    4    4    0    0 0.44156638E+01 -.25015202E+03 0.14918440E+03 0.29129285E+03 0.10565837E+00 0.0000E+00 0.9000E+01
       23  1    3    3    0    0 -.12018831E+03 0.27143759E+03 0.82636071E+03 0.88278586E+03 0.91188000E+02 0.0000E+00 0.9000E+01
#aMCatNLO 1  0  0  2  1 0.32461538D+02 0.00000000D+00  -5  7  0 0.00000000D+00 0.00000000D+00 0.00000000D+00 0.00000000D+00 0.00000000D+00
  <mgrwgt>
 0.1238171594D-03    9    2    0
 0.471128401745480D+03 0.000000000000000D+00 0.000000000000000D+00 0.471128401745480D+03
 0.471128401745480D+03 0.000000000000000D+00 0.000000000000000D+00 -.471128401745480D+03
 0.151370437908047D+03 0.848929291651348D+02 0.564115746712190D+02 0.648743628049699D+02
 0.136216186701551D+03 0.308797512949186D+02 -.776969176367730D+02 -.107538269789040D+03
 0.290479229873666D+03 0.441562801007423D+01 -.250152250746171D+03 -.147589080435849D+03
 0.364190949007695D+03 -.120188308470128D+03 0.271437593711725D+03 0.190252987419919D+03
 0.000000000000000D+00 0.000000000000000D+00 0.000000000000000D+00 -.000000000000000D+00
 0.478471265255331D+03 0.000000000000000D+00 0.000000000000000D+00 0.478471265255331D+03
 0.508704270378988D+03 0.000000000000000D+00 0.000000000000000D+00 -.508704270378988D+03
 0.149372813161476D+03 0.846336200778850D+02 0.512391780860556D+02 0.648743628049699D+02
 0.138917097580534D+03 0.306425238240925D+02 -.824288557767795D+02 -.107538269789040D+03
 0.299251086512761D+03 0.390714634166807D+01 -.260294852662579D+03 -.147589080435849D+03
 0.355274804032791D+03 -.120808651593589D+03 0.259063709373724D+03 0.190252987419919D+03
 0.443597343467569D+02 0.162536134994362D+01 0.324208209795786D+02 -.302330051236570D+02
0.425133784435D-04 0.000000000000D+00 0.000000000000D+00 0.460421611636D-07 0.000000000000D+00  7 -1 1 23 -13 13 23 21 0 0.22343314D+00 0.23512795D-01 0.15253300D+06 0.15253300D+06 0.15253300D+06 0.11069784D+01  1  2  2  2  7  2        1 0.104753063235D-03 0.100000000000D+01
-.226082981411D-05 0.000000000000D+00 -.163262567253D-06 0.460421611636D-07 0.000000000000D+00  7 -1 1 23 -13 13 23 21 2 0.22343314D+00 0.23512795D-01 0.15253300D+06 0.15253300D+06 0.15253300D+06 0.11069784D+01  1  2  3  2  7  2        1 -.682633057338D-05 0.100000000000D+01
0.276315091408D-05 0.000000000000D+00 0.000000000000D+00 0.460421611636D-07 0.000000000000D+00  7 -1 1 23 -13 13 23 21 2 0.22343314D+00 0.23512795D-01 0.15253300D+06 0.15253300D+06 0.15253300D+06 0.11069784D+01  1  2 15  2  7  2        1 0.834303468841D-05 0.100000000000D+01
0.207664133353D-03 0.000000000000D+00 0.000000000000D+00 0.460421611636D-07 0.000000000000D+00  7 -1 1 23 -13 13 23 21 2 0.22343314D+00 0.25561965D-01 0.16618478D+06 0.16618478D+06 0.16618478D+06 0.11040572D+01  1  2 12  2  7  2        1 0.556798522723D-03 0.100000000000D+01
-.210611707585D-03 0.000000000000D+00 0.000000000000D+00 0.460421611636D-07 0.000000000000D+00  7 -1 1 23 -13 13 23 21 2 0.22343314D+00 0.23512795D-01 0.15253300D+06 0.15253300D+06 0.15253300D+06 0.11069784D+01  1  2  4  2  7  2        1 -.635919222947D-03 0.100000000000D+01
-.439327652207D-03 0.000000000000D+00 -.655194603575D-04 0.460421611636D-07 0.000000000000D+00  7 -1 1 23 -13 13 23 21 2 0.22343314D+00 0.25751232D-01 0.15253300D+06 0.15253300D+06 0.15253300D+06 0.11069784D+01  1  2  5  2  7  2        1 -.117777522555D-02 0.100000000000D+01
0.443719851225D-03 0.000000000000D+00 0.652494786333D-04 0.460421611636D-07 0.000000000000D+00  7 -1 1 23 -13 13 23 21 2 0.22343314D+00 0.23512795D-01 0.15253300D+06 0.15253300D+06 0.15253300D+06 0.11069784D+01  1  2  6  2  7  2        1 0.133976399618D-02 0.100000000000D+01
0.293570228978D-05 0.000000000000D+00 0.000000000000D+00 0.460421611636D-07 0.000000000000D+00  7 -1 21 23 -13 13 23 -1 2 0.22343314D+00 0.25561965D-01 0.16618478D+06 0.16618478D+06 0.16618478D+06 0.11040572D+01  1  2 12  4  7  2        1 0.557935215814D-04 0.100000000000D+01
-.638919142250D-05 0.000000000000D+00 -.979827715261D-06 0.460421611636D-07 0.000000000000D+00  7 -1 21 23 -13 13 23 -1 2 0.22343314D+00 0.25751232D-01 0.15253300D+06 0.15253300D+06 0.15253300D+06 0.11069784D+01  1  2  5  4  7  2        1 -.121114199971D-03 0.100000000000D+01
  </mgrwgt>
  </event>
  <event>
  9     66 0.58687835E-06 0.29148177E+03 0.75467711E-02 0.95719382E-01
       -1 -1    0    0    0  502 0.00000000E+00 0.00000000E+00 0.10691821E+04 0.10691822E+04 0.32000000E+00 0.0000E+00 0.9000E+01
        1 -1    0    0  501    0 0.00000000E+00 0.00000000E+00 -.48737930E+03 0.48737940E+03 0.32000000E+00 0.0000E+00 0.9000E+01
       25  2    1    2    0    0 -.34632460E+03 -.16335068E+03 -.28909973E+03 0.56222992E+03 0.29308644E+03 0.0000E+00 0.0000E+00
       23  2    1    2    0    0 0.38175095E+02 0.90736709E+02 0.43157526E+03 0.45281717E+03 0.95371369E+02 0.0000E+00 0.0000E+00
       23  1    3    3    0    0 -.80674809E+02 -.15731619E+03 -.14740568E+03 0.24758937E+03 0.91188000E+02 0.0000E+00 0.9000E+01
      -11  1    4    4    0    0 0.38776047E+02 0.23390115E+02 0.31457089E+03 0.31781366E+03 0.51099893E-03 0.0000E+00 0.9000E+01
       11  1    4    4    0    0 -.60095243E+00 0.67346594E+02 0.11700437E+03 0.13500350E+03 0.51099893E-03 0.0000E+00 0.9000E+01
       23  1    3    3    0    0 -.26564979E+03 -.60344915E+01 -.14169404E+03 0.31464055E+03 0.91188000E+02 0.0000E+00 0.9000E+01
       21  1    1    2  501  502 0.30814950E+03 0.72613972E+02 0.43932731E+03 0.54151450E+03 0.75000000E+00 0.0000E+00 0.9000E+01
#aMCatNLO 2  0  0  1  1 0.31658949D+03 0.00000000D+00  -5  7  0 0.00000000D+00 0.00000000D+00 0.00000000D+00 0.00000000D+00 0.00000000D+00
  <mgrwgt>
 0.8338167827D-04    1    2    0
 0.476915195104828D+03 0.000000000000000D+00 0.000000000000000D+00 0.476915195104828D+03
 0.476915195104828D+03 0.000000000000000D+00 0.000000000000000D+00 -.476915195104828D+03
 0.247458370063225D+03 0.879575538400843D+00 -.138098284807012D+03 -.183979574003696D+03
 0.305530681387777D+03 0.130320723772615D+03 0.449621853821234D+02 0.272660793130080D+03
 0.131123706204061D+03 0.388673059320008D+02 0.766471018718657D+02 0.990352494464519D+02
 0.269717632554593D+03 -.170067605243017D+03 0.164889975530228D+02 -.187716468572836D+03
 0.000000000000000D+00 0.000000000000000D+00 0.000000000000000D+00 0.000000000000000D+00
 0.928297756611745D+03 0.000000000000000D+00 0.000000000000000D+00 0.928297756611745D+03
 0.561346674761467D+03 0.000000000000000D+00 0.000000000000000D+00 -.561346674761467D+03
 0.270962254356038D+03 -.806748087389569D+02 -.157316189650200D+03 -.183979574003696D+03
 0.276395708082992D+03 0.387760472057873D+02 0.233901154222972D+02 0.272660793130080D+03
 0.119766044574629D+03 -.600952432867359D+00 0.673465935018580D+02 0.990352494464519D+02
 0.337874160897285D+03 -.265649787495992D+03 -.603449152139492D+01 -.187716468572836D+03
 0.484646263462268D+03 0.308149501462029D+03 0.726139722474395D+02 0.366951081850278D+03
0.444672054141D-04 0.000000000000D+00 0.000000000000D+00 0.110533257442D-08 0.925190768896D-13  7 -1 1 23 -11 11 23 21 2 0.16448949D+00 0.74981406D-01 0.20660667D+06 0.20660667D+06 0.20660667D+06 0.10967430D+01  1  2  1  1  7  1       -1 0.833816782745D-04 0.100000000000D+01
  </mgrwgt>
  </event>
  <event>
  8     66 0.58687835E-06 0.96710470E+03 0.75467711E-02 0.78156898E-01
       -1 -1    0    0    0  501 0.00000000E+00 0.00000000E+00 0.58702677E+03 0.58702686E+03 0.32000000E+00 0.0000E+00 0.9000E+01
        1 -1    0    0  501    0 0.00000000E+00 0.00000000E+00 -.16264232E+04 0.16264232E+04 0.32000000E+00 0.0000E+00 0.9000E+01
       25  2    1    2    0    0 -.90275250E+02 0.94336522E+03 -.63176266E+03 0.11776766E+04 0.29951707E+03 0.0000E+00 0.0000E+00
       23  2    1    2    0    0 0.90275250E+02 -.94336522E+03 -.40763373E+03 0.10357735E+04 0.92595284E+02 0.0000E+00 0.0000E+00
       23  1    3    3    0    0 0.29594305E+02 0.16151199E+03 -.59100475E+02 0.19690115E+03 0.91188000E+02 0.0000E+00 0.9000E+01
      -13  1    4    4    0    0 -.95835389E+01 -.33905793E+02 -.28848805E+02 0.45538026E+02 0.10565837E+00 0.0000E+00 0.9000E+01
       13  1    4    4    0    0 0.99858789E+02 -.90945943E+03 -.37878493E+03 0.99023546E+03 0.10565837E+00 0.0000E+00 0.9000E+01
       23  1    3    3    0    0 -.11986956E+03 0.78185323E+03 -.57266219E+03 0.98077541E+03 0.91188000E+02 0.0000E+00 0.9000E+01
#aMCatNLO 1  0  0  2  2 0.25990626D+04 0.00000000D+00  -5  7  0 0.00000000D+00 0.00000000D+00 0.00000000D+00 0.00000000D+00 0.00000000D+00
  <mgrwgt>
 0.4194485092D-03    3    2    0
 0.977115176398683D+03 0.000000000000000D+00 0.000000000000000D+00 0.977115176398683D+03
 0.977115176398683D+03 0.000000000000000D+00 0.000000000000000D+00 -.977115176398683D+03
 0.191585424033356D+03 0.295943050607996D+02 0.161511994482726D+03 0.377859246839478D+02
 0.362334725580074D+02 -.958368144020716D+01 -.339046533403733D+02 -.845529807479449D+01
 0.920122485678655D+03 0.998589317715167D+02 -.909460569329105D+03 0.976476074079496D+02
 0.806288970527347D+03 -.119869555392109D+03 0.781853228186752D+03 -.126978234017103D+03
 0.000000000000000D+00 0.000000000000000D+00 -.000000000000000D+00 0.000000000000000D+00
 0.296821969027217D+04 0.000000000000000D+00 0.000000000000000D+00 0.296821969027217D+04
 0.288399785712852D+04 0.000000000000000D+00 0.000000000000000D+00 -.288399785712852D+04
 0.433703336260088D+03 -.201913162889251D+03 0.370926719295024D+03 0.377859246839478D+02
 0.394947507323321D+02 -.376213663301051D+02 -.854260295995661D+01 -.845529807479449D+01
 0.621158295969293D+03 -.470786238616543D+03 -.393272031739185D+03 0.976476074079496D+02
 0.215743431590130D+04 -.121716110661671D+04 0.177443031554074D+04 -.126978234017103D+03
 0.260042684853767D+04 0.192748187445260D+04 -.174354240013662D+04 0.842218331436565D+02
0.532444563263D-03 0.000000000000D+00 0.000000000000D+00 0.223890639738D-05 0.000000000000D+00  7 -1 1 23 -13 13 23 21 0 0.90311820D-01 0.25021896D+00 0.93529150D+06 0.93529150D+06 0.93529150D+06 0.10498034D+01  1  2  2  2  7  2        1 0.415425423487D-03 0.100000000000D+01
-.295764396115D-04 0.000000000000D+00 -.204472731880D-05 0.223890639738D-05 0.000000000000D+00  7 -1 1 23 -13 13 23 21 2 0.90311820D-01 0.25021896D+00 0.93529150D+06 0.93529150D+06 0.93529150D+06 0.10498034D+01  1  2  3  2  7  2        1 -.254320006375D-04 0.100000000000D+01
0.342551337409D-04 0.000000000000D+00 0.000000000000D+00 0.223890639738D-05 0.000000000000D+00  7 -1 1 23 -13 13 23 21 2 0.90311820D-01 0.25021896D+00 0.93529150D+06 0.93529150D+06 0.93529150D+06 0.10498034D+01  1  2 15  2  7  2        1 0.294550863653D-04 0.100000000000D+01
  </mgrwgt>
  </event>
  <event>
  8     66 0.58687835E-06 0.29628555E+03 0.75467711E-02 0.93420045E-01
       -1 -1    0    0    0  501 0.00000000E+00 0.00000000E+00 0.45388760E+03 0.45388771E+03 0.32000000E+00 0.0000E+00 0.9000E+01
        1 -1    0    0  501    0 0.00000000E+00 0.00000000E+00 -.33866763E+03 0.33866778E+03 0.32000000E+00 0.0000E+00 0.9000E+01
       25  2    1    2    0    0 0.18146498E+03 0.11202283E+03 -.18517327E+03 0.41307830E+03 0.30143970E+03 0.0000E+00 0.0000E+00
       23  2    1    2    0    0 -.18146498E+03 -.11202283E+03 0.30039323E+03 0.37947719E+03 0.91039500E+02 0.0000E+00 0.0000E+00
       23  1    3    3    0    0 0.18126145E+03 -.22999259E+02 -.12480164E+03 0.23932275E+03 0.91188000E+02 0.0000E+00 0.9000E+01
      -11  1    4    4    0    0 -.15099320E+02 0.10867080E+02 0.57237823E+01 0.19463930E+02 0.51099893E-03 0.0000E+00 0.9000E+01
       11  1    4    4    0    0 -.16636566E+03 -.12288991E+03 0.29466945E+03 0.36001326E+03 0.51099893E-03 0.0000E+00 0.9000E+01
       23  1    3    3    0    0 0.20352506E+00 0.13502209E+03 -.60371633E+02 0.17375555E+03 0.91188000E+02 0.0000E+00 0.9000E+01
#aMCatNLO 1  0  0  1  2 0.44017780D+03 0.00000000D+00  -5  7  0 0.00000000D+00 0.00000000D+00 0.00000000D+00 0.00000000D+00 0.00000000D+00
  <mgrwgt>
 0.1792605428D-03    5    2    0
 0.392067777203070D+03 0.000000000000000D+00 0.000000000000000D+00 0.392067777203070D+03
 0.392067777203070D+03 0.000000000000000D+00 0.000000000000000D+00 -.392067777203070D+03
 0.260230773467001D+03 0.181261451552567D+03 -.229992593210755D+02 -.161307545908342D+03
 0.188318850888719D+02 -.150993199458237D+02 0.108670798959908D+02 0.292523635084097D+01
 0.320580646047451D+03 -.166365656668176D+03 -.122889908429764D+03 0.244933642662032D+03
 0.184492249802816D+03 0.203525061432103D+00 0.135022087854849D+03 -.865513331045314D+02
 0.000000000000000D+00 -.000000000000000D+00 -.000000000000000D+00 0.000000000000000D+00
 0.930294837112899D+03 0.000000000000000D+00 0.000000000000000D+00 0.930294837112899D+03
 0.550390633472026D+03 0.000000000000000D+00 0.000000000000000D+00 -.550390633472026D+03
 0.338402922064528D+03 0.259928319274070D+03 0.112331788867605D+03 -.161307545908342D+03
 0.226104400190139D+02 -.965335535734710D+01 0.202358029366250D+02 0.292523635084097D+01
 0.261063427832980D+03 -.899314068715265D+02 0.860035477882792D+01 0.244933642662032D+03
 0.277159030061217D+03 0.608694388541411D+02 0.239385995312769D+03 -.865513331045314D+02
 0.581449650607186D+03 -.221212995899338D+03 -.380553941895827D+03 0.379904203640872D+03
0.879213057758D-05 0.000000000000D+00 0.000000000000D+00 0.185861005710D-06 0.000000000000D+00  7 -1 1 23 -11 11 23 21 0 0.69828881D-01 0.52102733D-01 0.87785127D+05 0.87785127D+05 0.87785127D+05 0.11263948D+01  1  2  2  1  7  1       -1 0.175089873061D-03 0.100000000000D+01
-.441854094502D-06 0.000000000000D+00 -.337640964390D-07 0.185861005710D-06 0.000000000000D+00  7 -1 1 23 -11 11 23 21 2 0.69828881D-01 0.52102733D-01 0.87785127D+05 0.87785127D+05 0.87785127D+05 0.11263948D+01  1  2  3  1  7  1       -1 -.111641856307D-04 0.100000000000D+01
0.554071027608D-06 0.000000000000D+00 0.000000000000D+00 0.185861005710D-06 0.000000000000D+00  7 -1 1 23 -11 11 23 21 2 0.69828881D-01 0.52102733D-01 0.87785127D+05 0.87785127D+05 0.87785127D+05 0.11263948D+01  1  2 15  1  7  1       -1 0.139995348732D-04 0.100000000000D+01
-.584776390830D-07 0.000000000000D+00 -.271525900861D-05 0.185861005710D-06 0.000000000000D+00  7 -1 1 23 -11 11 23 21 2 0.20520472D+00 0.52102733D-01 0.87785127D+05 0.87785127D+05 0.87785127D+05 0.11263948D+01  1  2  5  1  7  1       -1 -.933337836301D-07 0.100000000000D+01
0.133764761717D-06 0.000000000000D+00 -.331722547649D-06 0.185861005710D-06 0.000000000000D+00  7 21 1 23 -11 11 23 1 2 0.20520472D+00 0.52102733D-01 0.87785127D+05 0.87785127D+05 0.87785127D+05 0.11263948D+01  1  2  5  3  7  1       -1 0.142865430076D-05 0.100000000000D+01
  </mgrwgt>
  </event>
  <event>
  8     66 0.58687835E-06 0.24990381E+03 0.75467711E-02 0.92987359E-01
       -1 -1    0    0    0  501 0.00000000E+00 0.00000000E+00 0.75102179E+02 0.75102861E+02 0.32000000E+00 0.0000E+00 0.9000E+01
        1 -1    0    0  501    0 0.00000000E+00 0.00000000E+00 -.12278225E+04 0.12278225E+04 0.32000000E+00 0.0000E+00 0.9000E+01
       25  2    1    2    0    0 -.18208148E+03 -.91022343E+02 -.54242672E+03 0.65304227E+03 0.30132827E+03 0.0000E+00 0.0000E+00
       23  2    1    2    0    0 0.18208148E+03 0.91022343E+02 -.61029359E+03 0.64988312E+03 0.91929728E+02 0.0000E+00 0.0000E+00
       23  1    3    3    0    0 -.10537933E+03 0.10282621E+02 -.71787475E+02 0.15709624E+03 0.91188000E+02 0.0000E+00 0.9000E+01
      -11  1    4    4    0    0 0.15917520E+02 0.59174296E+01 -.70070528E+01 0.18370689E+02 0.51099893E-03 0.0000E+00 0.9000E+01
       11  1    4    4    0    0 0.16616396E+03 0.85104913E+02 -.60328654E+03 0.63151244E+03 0.51099893E-03 0.0000E+00 0.9000E+01
       23  1    3    3    0    0 -.76702152E+02 -.10130496E+03 -.47063925E+03 0.49594603E+03 0.91188000E+02 0.0000E+00 0.9000E+01
#aMCatNLO 1  0  0  1  2 0.48673275D+03 0.00000000D+00  -5  7  0 0.00000000D+00 0.00000000D+00 0.00000000D+00 0.00000000D+00 0.00000000D+00
  <mgrwgt>
 0.2967715204D-03    5    2    0
 0.303665303136192D+03 0.000000000000000D+00 0.000000000000000D+00 0.303665303136192D+03
 0.303665303136192D+03 0.000000000000000D+00 0.000000000000000D+00 -.303665303136192D+03
 0.200770052197692D+03 -.105379328087264D+03 0.102826207489631D+02 0.144162503577989D+03
 0.261117504241650D+02 0.159175203422531D+02 0.591742955986366D+01 0.198353241408324D+02
 0.209758803342052D+03 0.166163960033879D+03 0.851049131868430D+02 -.956318342227586D+02
 0.170690000308475D+03 -.767021522888678D+02 -.101304963495670D+03 -.683659934960624D+02
 0.000000000000000D+00 0.000000000000000D+00 0.000000000000000D+00 0.000000000000000D+00
 0.101276295027445D+04 0.000000000000000D+00 0.000000000000000D+00 0.101276295027445D+04
 0.484127374082844D+03 0.000000000000000D+00 0.000000000000000D+00 -.484127374082844D+03
 0.334205472224363D+03 -.282618808479352D+03 -.521711412233544D+02 0.144162503577989D+03
 0.198549255593922D+02 0.688581082875542D+00 0.551218005349835D+00 0.198353241408324D+02
 0.120542944924376D+03 0.567337009606540D+02 0.465450430179090D+02 -.956318342227586D+02
 0.303702020797602D+03 -.233870081445679D+03 -.156686125838999D+03 -.683659934960624D+02
 0.718584960851558D+03 0.459066607881502D+03 0.161761006039095D+03 0.528635576191602D+03
0.464834181743D-05 0.000000000000D+00 0.000000000000D+00 0.978024742989D-07 0.000000000000D+00  7 -1 1 23 -11 11 23 21 0 0.11554237D-01 0.18889582D+00 0.62451915D+05 0.62451915D+05 0.62451915D+05 0.11388963D+01  1  2  2  1  7  1       -1 0.271106053399D-03 0.100000000000D+01
-.246320341162D-06 0.000000000000D+00 -.178508565154D-07 0.978024742989D-07 0.000000000000D+00  7 -1 1 23 -11 11 23 21 2 0.11554237D-01 0.18889582D+00 0.62451915D+05 0.62451915D+05 0.62451915D+05 0.11388963D+01  1  2  3  1  7  1       -1 -.186341587385D-04 0.100000000000D+01
0.302290591881D-06 0.000000000000D+00 0.000000000000D+00 0.978024742989D-07 0.000000000000D+00  7 -1 1 23 -11 11 23 21 2 0.11554237D-01 0.18889582D+00 0.62451915D+05 0.62451915D+05 0.62451915D+05 0.11388963D+01  1  2 15  1  7  1       -1 0.228683138699D-04 0.100000000000D+01
0.188631512141D-05 0.000000000000D+00 -.208222695883D-05 0.978024742989D-07 0.000000000000D+00  7 -1 1 23 -11 11 23 21 2 0.61486102D-01 0.18889582D+00 0.62451915D+05 0.62451915D+05 0.62451915D+05 0.11388963D+01  1  2  5  1  7  1       -1 0.893837772934D-05 0.100000000000D+01
0.301371718022D-06 0.000000000000D+00 -.425543389823D-06 0.978024742989D-07 0.000000000000D+00  7 21 1 23 -11 11 23 1 2 0.61486102D-01 0.18889582D+00 0.62451915D+05 0.62451915D+05 0.62451915D+05 0.11388963D+01  1  2  5  3  7  1       -1 0.124929341454D-04 0.100000000000D+01
  </mgrwgt>
  </event>
  <event>
  8     66 0.58687835E-06 0.16824552E+03 0.75467711E-02 0.91252364E-01
       -1 -1    0    0    0  501 0.00000000E+00 0.00000000E+00 0.48003977E+03 0.48003988E+03 0.32000000E+00 0.0000E+00 0.9000E+01
        1 -1    0    0  501    0 0.00000000E+00 0.00000000E+00 -.21564779E+03 0.21564803E+03 0.32000000E+00 0.0000E+00 0.9000E+01
       25  2    1    2    0    0 0.28145280E+02 0.27983221E+02 0.41597546E+03 0.51464366E+03 0.30041188E+03 0.0000E+00 0.0000E+00
       23  2    1    2    0    0 -.28145280E+02 -.27983221E+02 -.15158348E+03 0.18104425E+03 0.90687668E+02 0.0000E+00 0.0000E+00
       23  1    3    3    0    0 0.55359081E+02 0.12089327E+03 0.16552319E+03 0.23106923E+03 0.91188000E+02 0.0000E+00 0.9000E+01
      -11  1    4    4    0    0 -.29328006E+01 0.16435079E+01 -.14057347E+03 0.14061366E+03 0.51099893E-03 0.0000E+00 0.9000E+01
       11  1    4    4    0    0 -.25212479E+02 -.29626729E+02 -.11010010E+02 0.40430589E+02 0.51099893E-03 0.0000E+00 0.9000E+01
       23  1    3    3    0    0 -.27213801E+02 -.92910050E+02 0.25045227E+03 0.28357443E+03 0.91188000E+02 0.0000E+00 0.9000E+01
#aMCatNLO 1  0  0  2  2 0.63400653D+03 0.00000000D+00  -5  7  0 0.00000000D+00 0.00000000D+00 0.00000000D+00 0.00000000D+00 0.00000000D+00
  <mgrwgt>
 0.2241350071D-03    3    2    0
 0.321744678309715D+03 0.000000000000000D+00 0.000000000000000D+00 0.321744678309715D+03
 0.321744678309715D+03 0.000000000000000D+00 0.000000000000000D+00 -.321744678309715D+03
 0.181804195936793D+03 0.553590811880111D+02 0.120893270821826D+03 0.840101393656963D+02
 0.209777709715932D+03 -.293280057970845D+01 0.164350787945653D+01 -.209750768905079D+03
 0.482339444889401D+02 -.252124792331888D+02 -.296267290124092D+02 -.285149297720237D+02
 0.203673506477764D+03 -.272138013751139D+02 -.929100496888734D+02 0.154255559311406D+03
 0.000000000000000D+00 -.000000000000000D+00 -.000000000000000D+00 0.000000000000000D+00
 0.203200965466910D+04 0.000000000000000D+00 0.000000000000000D+00 0.203200965466910D+04
 0.515263937502709D+03 0.000000000000000D+00 0.000000000000000D+00 -.515263937502709D+03
 0.351850215366614D+03 0.256817261995691D+03 0.206083752717980D+03 0.840101393656963D+02
 0.292461911139413D+03 0.186666082525056D+03 0.818190567398272D+02 -.209750768905079D+03
 0.334640511236308D+02 0.562907144666637D+01 -.165847837595145D+02 -.285149297720237D+02
 0.225574712722085D+03 0.134830329664164D+03 -.243865598194892D+02 0.154255559311406D+03
 0.164392270182007D+04 -.583942745631577D+03 -.246931465878804D+03 0.151674571716639D+04
0.653952291547D-05 0.000000000000D+00 0.000000000000D+00 0.498384797567D-06 0.000000000000D+00  7 -1 1 23 -11 11 23 21 0 0.73852299D-01 0.33176610D-01 0.28306555D+05 0.28306555D+05 0.28306555D+05 0.11696845D+01  1  2  2  2  7  2        1 0.213639367727D-03 0.100000000000D+01
-.177632182704D-06 0.000000000000D+00 -.251134898913D-07 0.498384797567D-06 0.000000000000D+00  7 -1 1 23 -11 11 23 21 2 0.73852299D-01 0.33176610D-01 0.28306555D+05 0.28306555D+05 0.28306555D+05 0.11696845D+01  1  2  3  2  7  2        1 -.793952106421D-05 0.100000000000D+01
0.412452811263D-06 0.000000000000D+00 0.000000000000D+00 0.498384797567D-06 0.000000000000D+00  7 -1 1 23 -11 11 23 21 2 0.73852299D-01 0.33176610D-01 0.28306555D+05 0.28306555D+05 0.28306555D+05 0.11696845D+01  1  2 15  2  7  2        1 0.184351604150D-04 0.100000000000D+01
  </mgrwgt>
  </event>
  <event>
  8     66 0.58687835E-06 0.28664354E+03 0.75467711E-02 0.94816322E-01
       -1 -1    0    0    0  501 0.00000000E+00 0.00000000E+00 0.11430721E+03 0.11430766E+03 0.32000000E+00 0.0000E+00 0.9000E+01
        1 -1    0    0  501    0 0.00000000E+00 0.00000000E+00 -.77334290E+03 0.77334297E+03 0.32000000E+00 0.0000E+00 0.9000E+01
       25  2    1    2    0    0 0.17888796E+03 -.10858252E+03 -.38948673E+03 0.53515902E+03 0.30150323E+03 0.0000E+00 0.0000E+00
       23  2    1    2    0    0 -.17888796E+03 0.10858252E+03 -.26954896E+03 0.35249161E+03 0.88332490E+02 0.0000E+00 0.0000E+00
       23  1    3    3    0    0 0.15536604E+03 0.43320269E+02 -.16407141E+03 0.24748723E+03 0.91188000E+02 0.0000E+00 0.9000E+01
      -13  1    4    4    0    0 -.42469449E+02 0.26943830E+02 -.15195815E+02 0.52540917E+02 0.10565837E+00 0.0000E+00 0.9000E+01
       13  1    4    4    0    0 -.13641851E+03 0.81638690E+02 -.25435314E+03 0.29995070E+03 0.10565837E+00 0.0000E+00 0.9000E+01
       23  1    3    3    0    0 0.23521923E+02 -.15190279E+03 -.22541532E+03 0.28767178E+03 0.91188000E+02 0.0000E+00 0.9000E+01
#aMCatNLO 1  0  0  2  2 0.32192453D+03 0.00000000D+00  -5  7  0 0.00000000D+00 0.00000000D+00 0.00000000D+00 0.00000000D+00 0.00000000D+00
  <mgrwgt>
 0.2594916059D-03    3    2    0
 0.297319526681642D+03 0.000000000000000D+00 0.000000000000000D+00 0.297319526681642D+03
 0.297319526681642D+03 0.000000000000000D+00 0.000000000000000D+00 -.297319526681642D+03
 0.187598315295602D+03 0.155366039628019D+03 0.433202688051257D+02 0.293704715437919D+02
 0.615891344937891D+02 -.424693146749024D+02 0.269437517265224D+02 0.355473352255507D+02
 0.165854753104057D+03 -.136418648647618D+03 0.816387686735142D+02 -.472531784945503D+02
 0.179596850469836D+03 0.235219236945012D+02 -.151902789205162D+03 -.176646282747923D+02
 0.000000000000000D+00 0.000000000000000D+00 -.000000000000000D+00 0.000000000000000D+00
 0.104798978882984D+04 0.000000000000000D+00 0.000000000000000D+00 0.104798978882984D+04
 0.374591005984095D+03 0.000000000000000D+00 0.000000000000000D+00 -.374591005984095D+03
 0.149816007120483D+03 0.797285966095216D+02 0.831282799623337D+02 0.293704715437919D+02
 0.971752472361575D+02 -.780591846913191D+02 0.456747120308075D+02 0.355473352255507D+02
 0.274539826325191D+03 -.235140954413163D+03 0.133596350693031D+03 -.472531784945503D+02
 0.154657508336666D+03 -.514071570774001D+02 -.112467589331500D+03 -.176646282747923D+02
 0.746392205795437D+03 0.284878699572360D+03 -.149931753354672D+03 0.673398782845747D+03
0.383922431783D-05 0.000000000000D+00 0.000000000000D+00 0.127087000579D-07 0.000000000000D+00  7 -1 1 23 -13 13 23 21 0 0.17585765D-01 0.11897587D+00 0.82164521D+05 0.82164521D+05 0.82164521D+05 0.11287911D+01  1  2  2  2  7  2        1 0.256631152454D-03 0.100000000000D+01
-.212943459688D-06 0.000000000000D+00 -.147436322714D-07 0.127087000579D-07 0.000000000000D+00  7 -1 1 23 -13 13 23 21 2 0.17585765D-01 0.11897587D+00 0.82164521D+05 0.82164521D+05 0.82164521D+05 0.11287911D+01  1  2  3  2  7  2        1 -.181366629484D-04 0.100000000000D+01
0.246528185367D-06 0.000000000000D+00 0.000000000000D+00 0.127087000579D-07 0.000000000000D+00  7 -1 1 23 -13 13 23 21 2 0.17585765D-01 0.11897587D+00 0.82164521D+05 0.82164521D+05 0.82164521D+05 0.11287911D+01  1  2 15  2  7  2        1 0.209971163793D-04 0.100000000000D+01
  </mgrwgt>
  </event>
  <event>
  8     66 0.58687835E-06 0.10962780E+03 0.75467711E-02 0.10413745E+00
       -1 -1    0    0    0  501 0.00000000E+00 0.00000000E+00 0.15274410E+03 0.15274444E+03 0.32000000E+00 0.0000E+00 0.9000E+01
        1 -1    0    0  501    0 0.00000000E+00 0.00000000E+00 -.40172647E+03 0.40172660E+03 0.32000000E+00 0.0000E+00 0.9000E+01
       25  2    1    2    0    0 -.40024147E+01 0.13327885E+03 -.19901196E+03 0.38395002E+03 0.30005430E+03 0.0000E+00 0.0000E+00
       23  2    1    2    0    0 0.40024147E+01 -.13327885E+03 -.49970414E+02 0.17052102E+03 0.93814194E+02 0.0000E+00 0.0000E+00
       23  1    3    3    0    0 0.88808791E+02 0.85573921E+02 -.19124234E+03 0.24515052E+03 0.91188000E+02 0.0000E+00 0.9000E+01
      -11  1    4    4    0    0 0.20980931E+02 -.46580426E+02 0.22914460E+02 0.55991143E+02 0.51099893E-03 0.0000E+00 0.9000E+01
       11  1    4    4    0    0 -.16978516E+02 -.86698428E+02 -.72884874E+02 0.11452988E+03 0.51099893E-03 0.0000E+00 0.9000E+01
       23  1    3    3    0    0 -.92811206E+02 0.47704934E+02 -.77696215E+01 0.13879949E+03 0.91188000E+02 0.0000E+00 0.9000E+01
#aMCatNLO 1  0  0  2  1 0.35527379D+02 0.00000000D+00  -5  7  0 0.00000000D+00 0.00000000D+00 0.00000000D+00 0.00000000D+00 0.00000000D+00
  <mgrwgt>
 0.1582767403D-03    9    2    0
 0.247712487721453D+03 0.000000000000000D+00 0.000000000000000D+00 0.247712487721453D+03
 0.247712487721453D+03 0.000000000000000D+00 0.000000000000000D+00 -.247712487721453D+03
 0.178256847720996D+03 0.888087908277648D+02 0.855739207619407D+02 -.908314657625095D+02
 0.741802800542089D+02 0.209809304318640D+02 -.465804266439723D+02 0.537845550395248D+02
 0.915505914054231D+02 -.169785157158927D+02 -.866984280712320D+02 -.240129831704712D+02
 0.151437256262278D+03 -.928112055437361D+02 0.477049339532636D+02 0.610598938934560D+02
 0.000000000000000D+00 0.000000000000000D+00 -.000000000000000D+00 -.000000000000000D+00
 0.255001055362485D+03 0.000000000000000D+00 0.000000000000000D+00 0.255001055362485D+03
 0.295781983378389D+03 0.000000000000000D+00 0.000000000000000D+00 -.295781983378389D+03
 0.180633174839231D+03 0.821113872471662D+02 0.965425161277674D+02 -.908314657625095D+02
 0.707358065379317D+02 0.182765879976420D+02 -.421514210547697D+02 0.537845550395248D+02
 0.871139326844292D+02 -.203126524935862D+02 -.812379840695024D+02 -.240129831704712D+02
 0.158214278373932D+03 -.985897481792098D+02 0.571686754181351D+02 0.610598938934560D+02
 0.540858463053494D+02 0.185144254279878D+02 -.303217864216303D+02 -.407809280159045D+02
0.106527401742D-05 0.000000000000D+00 0.000000000000D+00 0.755572626974D-07 0.000000000000D+00  7 -1 1 23 -11 11 23 21 0 0.23499128D-01 0.61804108D-01 0.46525145D+05 0.46525145D+05 0.46525145D+05 0.11500572D+01  1  2  2  2  7  2        1 0.113255412279D-03 0.100000000000D+01
-.578037003107D-07 0.000000000000D+00 -.409093272000D-08 0.755572626974D-07 0.000000000000D+00  7 -1 1 23 -11 11 23 21 2 0.23499128D-01 0.61804108D-01 0.46525145D+05 0.46525145D+05 0.46525145D+05 0.11500572D+01  1  2  3  2  7  2        1 -.812815785930D-05 0.100000000000D+01
0.702305508465D-07 0.000000000000D+00 0.000000000000D+00 0.755572626974D-07 0.000000000000D+00  7 -1 1 23 -11 11 23 21 2 0.23499128D-01 0.61804108D-01 0.46525145D+05 0.46525145D+05 0.46525145D+05 0.11500572D+01  1  2 15  2  7  2        1 0.987557891204D-05 0.100000000000D+01
0.292835800213D-05 0.000000000000D+00 0.000000000000D+00 0.755572626974D-07 0.000000000000D+00  7 -1 1 23 -11 11 23 21 2 0.23499128D-01 0.74586338D-01 0.54592568D+05 0.54592568D+05 0.54592568D+05 0.11439536D+01  1  2 12  2  7  2        1 0.316600190779D-03 0.100000000000D+01
-.298001385527D-05 0.000000000000D+00 0.000000000000D+00 0.755572626974D-07 0.000000000000D+00  7 -1 1 23 -11 11 23 21 2 0.23499128D-01 0.61804108D-01 0.46525145D+05 0.46525145D+05 0.46525145D+05 0.11500572D+01  1  2  4  2  7  2        1 -.419039315967D-03 0.100000000000D+01
-.454415768640D-05 0.000000000000D+00 -.779139352092D-06 0.755572626974D-07 0.000000000000D+00  7 -1 1 23 -11 11 23 21 2 0.23499128D-01 0.75247976D-01 0.46525145D+05 0.46525145D+05 0.46525145D+05 0.11500572D+01  1  2  5  2  7  2        1 -.490767156513D-03 0.100000000000D+01
0.462253571109D-05 0.000000000000D+00 0.764288087735D-06 0.755572626974D-07 0.000000000000D+00  7 -1 1 23 -11 11 23 21 2 0.23499128D-01 0.61804108D-01 0.46525145D+05 0.46525145D+05 0.46525145D+05 0.11500572D+01  1  2  6  2  7  2        1 0.650005099466D-03 0.100000000000D+01
0.798899104724D-07 0.000000000000D+00 0.000000000000D+00 0.755572626974D-07 0.000000000000D+00  7 -1 21 23 -11 11 23 -1 2 0.23499128D-01 0.74586338D-01 0.54592568D+05 0.54592568D+05 0.54592568D+05 0.11439536D+01  1  2 12  4  7  2        1 0.274396184714D-04 0.100000000000D+01
-.119719118266D-06 0.000000000000D+00 -.220235997912D-07 0.755572626974D-07 0.000000000000D+00  7 -1 21 23 -11 11 23 -1 2 0.23499128D-01 0.75247976D-01 0.46525145D+05 0.46525145D+05 0.46525145D+05 0.11500572D+01  1  2  5  4  7  2        1 -.409645292396D-04 0.100000000000D+01
  </mgrwgt>
  </event>
  <event>
  9     66 0.58687835E-06 0.47324198E+03 0.75467711E-02 0.92186212E-01
       21 -1    0    0  502  501 0.00000000E+00 0.00000000E+00 0.31436156E+03 0.31436246E+03 0.75000000E+00 0.0000E+00 0.9000E+01
        1 -1    0    0  501    0 0.00000000E+00 0.00000000E+00 -.23071103E+04 0.23071103E+04 0.32000000E+00 0.0000E+00 0.9000E+01
       25  2    1    2    0    0 -.22013177E+02 -.47245705E+03 -.16427534E+04 0.17355697E+04 0.29977178E+03 0.0000E+00 0.0000E+00
       23  2    1    2    0    0 0.27329808E+03 0.38396424E+03 -.38729305E+03 0.61689321E+03 0.91874600E+02 0.0000E+00 0.0000E+00
       23  1    3    3    0    0 -.26341486E+02 -.24140816E+03 -.12015556E+04 0.12292367E+04 0.91188000E+02 0.0000E+00 0.9000E+01
      -11  1    4    4    0    0 -.89994021E+00 0.57260987E+01 -.25112431E+02 0.25772705E+02 0.51099893E-03 0.0000E+00 0.9000E+01
       11  1    4    4    0    0 0.27419802E+03 0.37823814E+03 -.36218062E+03 0.59112050E+03 0.51099893E-03 0.0000E+00 0.9000E+01
       23  1    3    3    0    0 0.43283097E+01 -.23104889E+03 -.44119780E+03 0.50633297E+03 0.91188000E+02 0.0000E+00 0.9000E+01
        1  1    1    2  502    0 -.25128491E+03 0.88492815E+02 0.37297751E+02 0.26900986E+03 0.32000000E+00 0.0000E+00 0.9000E+01
#aMCatNLO 2  0  0  1  2 0.26641149D+03 0.00000000D+00  -5  7  0 0.00000000D+00 0.00000000D+00 0.00000000D+00 0.00000000D+00 0.00000000D+00
  <mgrwgt>
 0.3598751888D-04    2    2    0
 0.579227489226357D+03 0.000000000000000D+00 0.000000000000000D+00 0.579227489226357D+03
 0.579227489226357D+03 0.000000000000000D+00 0.000000000000000D+00 -.579227489226357D+03
 0.377896759943636D+03 -.107555169264643D+03 -.212807848932816D+03 -.278631324206270D+03
 0.896261757663694D+01 -.272859510741215D+01 0.637008019587807D+01 -.568378050798330D+01
 0.535122297931038D+03 0.157884363073782D+03 0.419199304545475D+03 0.292746212116179D+03
 0.236473303001403D+03 -.476005987017271D+02 -.212761535808538D+03 -.843110740192493D+01
 0.000000000000000D+00 -.000000000000000D+00 0.000000000000000D+00 0.000000000000000D+00
 0.115899854676124D+04 0.000000000000000D+00 0.000000000000000D+00 0.115899854676124D+04
 0.625771193663659D+03 0.000000000000000D+00 0.000000000000000D+00 -.625771193663659D+03
 0.380686802613999D+03 -.263414864595171D+02 -.241408163910488D+03 -.278631324206270D+03
 0.811809460504824D+01 -.899940217327264D+00 0.572609873813056D+01 -.568378050798330D+01
 0.551315688355109D+03 0.274198022320755D+03 0.378238136725376D+03 0.292746212116179D+03
 0.248573243450712D+03 0.432830974504784D+01 -.231048886987873D+03 -.843110740192493D+01
 0.596075911400026D+03 -.251284905388958D+03 0.884928154348549D+02 0.533227353097576D+03
-.283159162897D-05 0.000000000000D+00 0.000000000000D+00 0.236069219906D-05 0.000000000000D+00  7 21 1 23 -11 11 23 1 2 0.48410374D-01 0.32854031D+00 0.38888096D+06 0.38888096D+06 0.38888096D+06 0.10763113D+01  1  2 13  3  7  1       -1 -.377830387867D-04 0.100000000000D+01
0.720929596920D-05 0.000000000000D+00 0.000000000000D+00 0.236069219906D-05 0.213954246474D-10  7 21 1 23 -11 11 23 1 2 0.48363385D-01 0.35494009D+00 0.38888096D+06 0.38888096D+06 0.38888096D+06 0.10763113D+01  1  2  1  3  7  1       -1 0.737705576670D-04 0.100000000000D+01
  </mgrwgt>
  </event>
  <event>
  8     66 0.58687835E-06 0.15586020E+03 0.75467711E-02 0.10927382E+00
       -1 -1    0    0    0  501 0.00000000E+00 0.00000000E+00 0.33619257E+03 0.33619272E+03 0.32000000E+00 0.0000E+00 0.9000E+01
        1 -1    0    0  501    0 0.00000000E+00 0.00000000E+00 -.25044408E+03 0.25044429E+03 0.32000000E+00 0.0000E+00 0.9000E+01
       25  2    1    2    0    0 0.83630765E+02 -.40223343E+02 0.23255068E+03 0.39109796E+03 0.30044263E+03 0.0000E+00 0.0000E+00
       23  2    1    2    0    0 -.83630765E+02 0.40223343E+02 -.14680220E+03 0.19553904E+03 0.89847704E+02 0.0000E+00 0.0000E+00
       23  1    3    3    0    0 0.30453979E+02 -.84918462E+01 0.26014389E+03 0.27747009E+03 0.91188000E+02 0.0000E+00 0.9000E+01
      -13  1    4    4    0    0 -.67420422E+02 0.63368585E+02 -.13760987E+03 0.16582394E+03 0.10565837E+00 0.0000E+00 0.9000E+01
       13  1    4    4    0    0 -.16210343E+02 -.23145242E+02 -.91923284E+01 0.29715106E+02 0.10565837E+00 0.0000E+00 0.9000E+01
       23  1    3    3    0    0 0.53176787E+02 -.31731497E+02 -.27593201E+02 0.11362788E+03 0.91188000E+02 0.0000E+00 0.9000E+01
#aMCatNLO 1  0  0  2  2 0.24355092D+00 0.00000000D+00  -5  7  0 0.00000000D+00 0.00000000D+00 0.00000000D+00 0.00000000D+00 0.00000000D+00
  <mgrwgt>
 0.5385580534D-04    9    2    0
 0.290168130114414D+03 0.000000000000000D+00 0.000000000000000D+00 0.290168130114414D+03
 0.290168130114414D+03 0.000000000000000D+00 0.000000000000000D+00 -.290168130114414D+03
 0.242044631526817D+03 0.304539791637137D+02 -.849184656876707D+01 0.221970259273402D+03
 0.187957275413469D+03 -.674204936166087D+02 0.633687044980886D+02 -.163605689728633D+03
 0.313957347402307D+02 -.162102721811443D+02 -.231453613465356D+02 -.136825247608198D+02
 0.118938618548310D+03 0.531767866340394D+02 -.317314965827860D+02 -.446820447839497D+02
 0.000000000000000D+00 -.000000000000000D+00 0.000000000000000D+00 -.000000000000000D+00
 0.290271743935787D+03 0.000000000000000D+00 0.000000000000000D+00 0.290271743935787D+03
 0.290311311476369D+03 0.000000000000000D+00 0.000000000000000D+00 -.290311311476369D+03
 0.242056021046330D+03 0.305237466122836D+02 -.856567986965035D+01 0.221970259273402D+03
 0.187918529460931D+03 -.673663232787959D+02 0.633113772640753D+02 -.163605689728633D+03
 0.313981252279783D+02 -.162012224775908D+02 -.231549384415715D+02 -.136825247608198D+02
 0.118963635599344D+03 0.532110725479143D+02 -.317677805840942D+02 -.446820447839497D+02
 0.246744077573070D+00 -.167273403811077D+00 0.177021631240743D+00 -.395675405819939D-01
0.642883963399D-06 0.000000000000D+00 0.000000000000D+00 0.165077426939D-06 0.000000000000D+00  7 -1 1 23 -13 13 23 21 0 0.51721961D-01 0.38529886D-01 0.26817924D+05 0.26817924D+05 0.26817924D+05 0.11718812D+01  1  2  2  2  7  2        1 0.335085822021D-04 0.100000000000D+01
-.215053857861D-07 0.000000000000D+00 -.246884369469D-08 0.165077426939D-06 0.000000000000D+00  7 -1 1 23 -13 13 23 21 2 0.51721961D-01 0.38529886D-01 0.26817924D+05 0.26817924D+05 0.26817924D+05 0.11718812D+01  1  2  3  2  7  2        1 -.153935164944D-05 0.100000000000D+01
0.407047138029D-07 0.000000000000D+00 0.000000000000D+00 0.165077426939D-06 0.000000000000D+00  7 -1 1 23 -13 13 23 21 2 0.51721961D-01 0.38529886D-01 0.26817924D+05 0.26817924D+05 0.26817924D+05 0.11718812D+01  1  2 15  2  7  2        1 0.291363609821D-05 0.100000000000D+01
-.131023860308D-03 0.000000000000D+00 0.000000000000D+00 0.165077426939D-06 0.000000000000D+00  7 -1 1 23 -13 13 23 21 2 0.51721961D-01 0.38529886D-01 0.26817924D+05 0.26817924D+05 0.26817924D+05 0.11718812D+01  1  2  4  2  7  2        1 -.937866437212D-02 0.100000000000D+01
-.139919793769D-02 0.000000000000D+00 -.103125523604D-03 0.165077426939D-06 0.000000000000D+00  7 -1 1 23 -13 13 23 21 2 0.51721961D-01 0.38561464D-01 0.26817924D+05 0.26817924D+05 0.26817924D+05 0.11718812D+01  1  2  5  2  7  2        1 -.100049561614D+00 0.100000000000D+01
0.139928198743D-02 0.000000000000D+00 0.103125488997D-03 0.165077426939D-06 0.000000000000D+00  7 -1 1 23 -13 13 23 21 2 0.51721961D-01 0.38529886D-01 0.26817924D+05 0.26817924D+05 0.26817924D+05 0.11718812D+01  1  2  6  2  7  2        1 0.100160353169D+00 0.100000000000D+01
0.131023883323D-03 0.000000000000D+00 0.000000000000D+00 0.165077426939D-06 0.203813500915D-04  7 -1 1 23 -13 13 23 21 2 0.51740430D-01 0.38548898D-01 0.26854459D+05 0.26854459D+05 0.26854459D+05 0.11718256D+01  1  2 11  2  7  2        1 0.936585560569D-02 0.100000000000D+01
-.214637864258D-06 0.000000000000D+00 -.158214327112D-07 0.165077426939D-06 0.000000000000D+00  7 -1 21 23 -13 13 23 -1 2 0.51721961D-01 0.38561464D-01 0.26817924D+05 0.26817924D+05 0.26817924D+05 0.11718812D+01  1  2  5  4  7  2        1 -.869331400548D-04 0.100000000000D+01
0.195649834556D-07 0.000000000000D+00 0.000000000000D+00 0.165077426939D-06 0.188370069407D-08  7 -1 21 23 -13 13 23 -1 2 0.51740430D-01 0.38548898D-01 0.26854459D+05 0.26854459D+05 0.26854459D+05 0.11718256D+01  1  2 11  4  7  2        1 0.792329012103D-05 0.100000000000D+01
  </mgrwgt>
  </event>
  <event>
  8     66 0.58687835E-06 0.27259390E+03 0.75467711E-02 0.95890504E-01
       -1 -1    0    0    0  501 0.00000000E+00 0.00000000E+00 0.40420709E+03 0.40420722E+03 0.32000000E+00 0.0000E+00 0.9000E+01
        1 -1    0    0  501    0 0.00000000E+00 0.00000000E+00 -.20651033E+03 0.20651058E+03 0.32000000E+00 0.0000E+00 0.9000E+01
       25  2    1    2    0    0 0.13862105E+03 -.11770978E+03 0.21347613E+03 0.41019818E+03 0.29936449E+03 0.0000E+00 0.0000E+00
       23  2    1    2    0    0 -.13862105E+03 0.11770978E+03 -.15779373E+02 0.20051962E+03 0.82992417E+02 0.0000E+00 0.0000E+00
       23  1    3    3    0    0 0.59225221E+02 0.67298539E+02 0.96023926E+02 0.15991425E+03 0.91188000E+02 0.0000E+00 0.9000E+01
      -11  1    4    4    0    0 -.36183629E+02 0.78819248E+02 -.25818209E+02 0.90489275E+02 0.51099893E-03 0.0000E+00 0.9000E+01
       11  1    4    4    0    0 -.10243742E+03 0.38890530E+02 0.10038835E+02 0.11003034E+03 0.51099893E-03 0.0000E+00 0.9000E+01
       23  1    3    3    0    0 0.79395826E+02 -.18500832E+03 0.11745221E+03 0.25028393E+03 0.91188000E+02 0.0000E+00 0.9000E+01
#aMCatNLO 1  0  0  2  1 0.28306251D+03 0.00000000D+00  -5  7  0 0.00000000D+00 0.00000000D+00 0.00000000D+00 0.00000000D+00 0.00000000D+00
  <mgrwgt>
 0.1526351579D-03    5    2    0
 0.288917036874097D+03 0.000000000000000D+00 0.000000000000000D+00 0.288917036874097D+03
 0.288917036874097D+03 0.000000000000000D+00 0.000000000000000D+00 -.288917036874097D+03
 0.136161677155209D+03 0.592252210614725D+02 0.672985394835092D+02 0.467763910036419D+02
 0.104472181998811D+03 -.361836293441044D+02 0.788192484192108D+02 -.582469557806412D+02
 0.112857385141859D+03 -.102437417980604D+03 0.388905300590047D+02 -.270350041659771D+02
 0.224342829452316D+03 0.793958262632364D+02 -.185008317961725D+03 0.385055689429764D+02
 0.000000000000000D+00 0.000000000000000D+00 0.000000000000000D+00 -.000000000000000D+00
 0.350772356011203D+03 0.000000000000000D+00 0.000000000000000D+00 0.350772356011203D+03
 0.101121778985846D+04 0.000000000000000D+00 0.000000000000000D+00 -.101121778985846D+04
 0.112554854275396D+03 0.557952819234924D+01 0.461972075647517D+02 0.467763910036419D+02
 0.118695504236077D+03 -.843186893065742D+02 0.598855032688712D+02 -.582469557806412D+02
 0.165395651375653D+03 -.162453842506387D+03 0.152832947570907D+02 -.270350041659771D+02
 0.246795210468273D+03 -.222239834179412D+02 -.224980088646743D+03 0.385055689429764D+02
 0.718548925514265D+03 0.263416987038553D+03 0.103614083056029D+03 -.660445433847258D+03
0.413036402317D-05 0.000000000000D+00 0.000000000000D+00 0.185043349223D-08 0.000000000000D+00  7 -1 1 23 -11 11 23 21 0 0.62185735D-01 0.31770849D-01 0.74307432D+05 0.74307432D+05 0.74307432D+05 0.11324615D+01  1  2  2  2  7  2        1 0.195760826854D-03 0.100000000000D+01
-.228521056704D-06 0.000000000000D+00 -.158616853988D-07 0.185043349223D-08 0.000000000000D+00  7 -1 1 23 -11 11 23 21 2 0.62185735D-01 0.31770849D-01 0.74307432D+05 0.74307432D+05 0.74307432D+05 0.11324615D+01  1  2  3  2  7  2        1 -.138902671541D-04 0.100000000000D+01
0.272678698961D-06 0.000000000000D+00 0.000000000000D+00 0.185043349223D-08 0.000000000000D+00  7 -1 1 23 -11 11 23 21 2 0.62185735D-01 0.31770849D-01 0.74307432D+05 0.74307432D+05 0.74307432D+05 0.11324615D+01  1  2 15  2  7  2        1 0.165743149906D-04 0.100000000000D+01
-.383559818700D-05 0.000000000000D+00 -.153546313104D-05 0.185043349223D-08 0.000000000000D+00  7 -1 1 23 -11 11 23 21 2 0.62185735D-01 0.12518458D+00 0.74307432D+05 0.74307432D+05 0.74307432D+05 0.11324615D+01  1  2  5  2  7  2        1 -.356844243448D-04 0.100000000000D+01
-.604722550203D-06 0.000000000000D+00 -.250771726954D-06 0.185043349223D-08 0.000000000000D+00  7 -1 21 23 -11 11 23 -1 2 0.62185735D-01 0.12518458D+00 0.74307432D+05 0.74307432D+05 0.74307432D+05 0.11324615D+01  1  2  5  4  7  2        1 -.101252924646D-04 0.100000000000D+01
  </mgrwgt>
  </event>
  <event>
  8     66 0.58687835E-06 0.36487593E+03 0.75467711E-02 0.96474486E-01
       -1 -1    0    0    0  501 0.00000000E+00 0.00000000E+00 0.14034975E+03 0.14035011E+03 0.32000000E+00 0.0000E+00 0.9000E+01
        1 -1    0    0  501    0 0.00000000E+00 0.00000000E+00 -.15850400E+04 0.15850400E+04 0.32000000E+00 0.0000E+00 0.9000E+01
       25  2    1    2    0    0 -.89116713E+02 -.28708211E+03 -.13210800E+04 0.13877336E+04 0.30032342E+03 0.0000E+00 0.0000E+00
       23  2    1    2    0    0 0.89116713E+02 0.28708211E+03 -.12361021E+03 0.33765654E+03 0.91512445E+02 0.0000E+00 0.0000E+00
       23  1    3    3    0    0 0.67978785E+02 -.45586445E+02 -.36221467E+03 0.38237933E+03 0.91188000E+02 0.0000E+00 0.9000E+01
      -13  1    4    4    0    0 0.71980589E+00 -.23222421E+01 -.16465323E+02 0.16644187E+02 0.10565837E+00 0.0000E+00 0.9000E+01
       13  1    4    4    0    0 0.88396907E+02 0.28940435E+03 -.10714489E+03 0.32101235E+03 0.10565837E+00 0.0000E+00 0.9000E+01
       23  1    3    3    0    0 -.15709550E+03 -.24149566E+03 -.95886534E+03 0.10053542E+04 0.91188000E+02 0.0000E+00 0.9000E+01
#aMCatNLO 1  0  0  1  1 0.11638833D+03 0.00000000D+00  -5  7  0 0.00000000D+00 0.00000000D+00 0.00000000D+00 0.00000000D+00 0.00000000D+00
  <mgrwgt>
 0.2844655025D-03    4    2    0
 0.471656971185319D+03 0.000000000000000D+00 0.000000000000000D+00 0.471656971185319D+03
 0.471656971185319D+03 0.000000000000000D+00 0.000000000000000D+00 -.471656971185319D+03
 0.144666084524061D+03 0.679787850246075D+02 -.455864447366264D+02 -.769011411513216D+02
 0.522614839807040D+01 0.719689009151939D+00 -.232263095877407D+01 -.462601991328436D+01
 0.423062636883705D+03 0.883970241775939D+02 0.289404738772601D+03 0.295656655632005D+03
 0.370359072564801D+03 -.157095498211353D+03 -.241495663077200D+03 -.214129494567399D+03
 0.000000000000000D+00 0.000000000000000D+00 0.000000000000000D+00 -.000000000000000D+00
 0.498644786735228D+03 0.000000000000000D+00 0.000000000000000D+00 0.498644786735228D+03
 0.619888385938594D+03 0.000000000000000D+00 0.000000000000000D+00 -.619888385938594D+03
 0.138157559913296D+03 0.507375858021063D+02 -.477930109304112D+02 -.769011411513216D+02
 0.521407834399340D+01 0.832428253609817D-01 -.240408472629876D+01 -.462601991328436D+01
 0.410919320104606D+03 0.375566883315163D+02 0.282898081961153D+03 0.295656655632005D+03
 0.396175998649337D+03 -.203824207545853D+03 -.247476104980692D+03 -.214129494567399D+03
 0.168066215662589D+03 0.115446690586869D+03 0.147751186762495D+02 -.121243599203366D+03
0.264580062030D-04 0.000000000000D+00 0.000000000000D+00 0.176513054550D-05 0.000000000000D+00  7 -1 1 23 -13 13 23 21 0 0.21592299D-01 0.24385233D+00 0.13313445D+06 0.13313445D+06 0.13313445D+06 0.11116631D+01  1  2  2  1  7  1       -1 0.326041442075D-03 0.100000000000D+01
-.135212876804D-05 0.000000000000D+00 -.101605710372D-06 0.176513054550D-05 0.000000000000D+00  7 -1 1 23 -13 13 23 21 2 0.21592299D-01 0.24385233D+00 0.13313445D+06 0.13313445D+06 0.13313445D+06 0.11116631D+01  1  2  3  1  7  1       -1 -.205911259681D-04 0.100000000000D+01
0.174001944267D-05 0.000000000000D+00 0.000000000000D+00 0.176513054550D-05 0.000000000000D+00  7 -1 1 23 -13 13 23 21 2 0.21592299D-01 0.24385233D+00 0.13313445D+06 0.13313445D+06 0.13313445D+06 0.11116631D+01  1  2 15  1  7  1       -1 0.264981859552D-04 0.100000000000D+01
-.311799994888D-05 0.000000000000D+00 0.000000000000D+00 0.176513054550D-05 0.000000000000D+00  7 -1 1 23 -13 13 23 21 2 0.21592299D-01 0.24385233D+00 0.13313445D+06 0.13313445D+06 0.13313445D+06 0.11116631D+01  1  2  4  1  7  1       -1 -.474829995732D-04 0.100000000000D+01
  </mgrwgt>
  </event>
  <event>
  8     66 0.58687835E-06 0.43553823E+03 0.75467711E-02 0.87357329E-01
       -1 -1    0    0    0  501 0.00000000E+00 0.00000000E+00 0.63500963E+03 0.63500971E+03 0.32000000E+00 0.0000E+00 0.9000E+01
        1 -1    0    0  501    0 0.00000000E+00 0.00000000E+00 -.10355473E+04 0.10355473E+04 0.32000000E+00 0.0000E+00 0.9000E+01
       25  2    1    2    0    0 0.20077668E+03 -.35604235E+03 0.47825182E+03 0.69720166E+03 0.30047948E+03 0.0000E+00 0.0000E+00
       23  2    1    2    0    0 -.20077668E+03 0.35604235E+03 -.87878947E+03 0.97335537E+03 0.89846135E+02 0.0000E+00 0.0000E+00
       23  1    3    3    0    0 0.17515666E+03 -.25965595E+03 0.18672309E+03 0.37587476E+03 0.91188000E+02 0.0000E+00 0.9000E+01
      -13  1    4    4    0    0 -.13834913E+02 0.42356135E+02 -.46097327E+02 0.64112570E+02 0.10565837E+00 0.0000E+00 0.9000E+01
       13  1    4    4    0    0 -.18694176E+03 0.31368621E+03 -.83269214E+03 0.90924280E+03 0.10565837E+00 0.0000E+00 0.9000E+01
       23  1    3    3    0    0 0.25620019E+02 -.96386394E+02 0.29152874E+03 0.32132690E+03 0.91188000E+02 0.0000E+00 0.9000E+01
#aMCatNLO 1  0  0  1  1 0.82783704D+03 0.00000000D+00  -5  7  0 0.00000000D+00 0.00000000D+00 0.00000000D+00 0.00000000D+00 0.00000000D+00
  <mgrwgt>
 0.3156735441D-03    3    2    0
 0.810914666758692D+03 0.000000000000000D+00 0.000000000000000D+00 0.810914666758692D+03
 0.810914666758692D+03 0.000000000000000D+00 0.000000000000000D+00 -.810914666758692D+03
 0.433282235486717D+03 0.175156657689702D+03 -.259655954365870D+03 0.285161664453147D+03
 0.546533913719869D+02 -.138346739968994D+02 0.423557592753581D+02 -.316478220430255D+02
 0.730914715307696D+03 -.186942002755081D+03 0.313686589276293D+03 -.633158536519453D+03
 0.402978991350984D+03 0.256200190622778D+02 -.963863941857819D+02 0.379644694109332D+03
 0.000000000000000D+00 0.000000000000000D+00 0.000000000000000D+00 -.000000000000000D+00
 0.115375974785164D+04 0.000000000000000D+00 0.000000000000000D+00 0.115375974785164D+04
 0.161459090868118D+04 0.000000000000000D+00 0.000000000000000D+00 -.161459090868118D+04
 0.562322144927860D+03 0.639793104528986D+02 -.471678297457655D+03 0.285161664453147D+03
 0.454937622453177D+02 -.250179261917645D+02 0.210285789398596D+02 -.316478220430255D+02
 0.723136045913010D+03 -.349313231287500D+03 0.403422591482160D+01 -.633158536519453D+03
 0.489939190526804D+03 -.740905454084657D+02 -.286540845929105D+03 0.379644694109332D+03
 0.947459512919828D+03 0.384442392434832D+03 0.733156338532079D+03 -.460831160829535D+03
0.162367680068D-03 0.000000000000D+00 0.000000000000D+00 0.330263491754D-05 0.000000000000D+00  7 -1 1 23 -13 13 23 21 0 0.97693799D-01 0.15931497D+00 0.18969355D+06 0.18969355D+06 0.18969355D+06 0.10995945D+01  1  2  2  1  7  1       -1 0.303471411446D-03 0.100000000000D+01
-.478299218233D-05 0.000000000000D+00 -.623534643854D-06 0.330263491754D-05 0.000000000000D+00  7 -1 1 23 -13 13 23 21 2 0.97693799D-01 0.15931497D+00 0.18969355D+06 0.18969355D+06 0.18969355D+06 0.10995945D+01  1  2  3  1  7  1       -1 -.108089366931D-04 0.100000000000D+01
0.101824784464D-04 0.000000000000D+00 0.000000000000D+00 0.330263491754D-05 0.000000000000D+00  7 -1 1 23 -13 13 23 21 2 0.97693799D-01 0.15931497D+00 0.18969355D+06 0.18969355D+06 0.18969355D+06 0.10995945D+01  1  2 15  1  7  1       -1 0.230110693705D-04 0.100000000000D+01
  </mgrwgt>
  </event>
  <event>
  8     66 0.58687835E-06 0.61644835E+03 0.75467711E-02 0.87854421E-01
       -1 -1    0    0    0  501 0.00000000E+00 0.00000000E+00 0.24943167E+03 0.24943187E+03 0.32000000E+00 0.0000E+00 0.9000E+01
        1 -1    0    0  501    0 0.00000000E+00 0.00000000E+00 -.17099572E+04 0.17099572E+04 0.32000000E+00 0.0000E+00 0.9000E+01
       25  2    1    2    0    0 0.55715567E+03 0.19302831E+03 -.10266069E+04 0.12217754E+04 0.30187924E+03 0.0000E+00 0.0000E+00
       23  2    1    2    0    0 -.55715567E+03 -.19302831E+03 -.43391863E+03 0.73761368E+03 0.90034393E+02 0.0000E+00 0.0000E+00
       23  1    3    3    0    0 0.21297408E+03 -.38411210E+01 -.22575989E+03 0.32350501E+03 0.91188000E+02 0.0000E+00 0.9000E+01
      -11  1    4    4    0    0 -.50459551E+03 -.19684882E+03 -.41207402E+03 0.68056674E+03 0.51099893E-03 0.0000E+00 0.9000E+01
       11  1    4    4    0    0 -.52560163E+02 0.38205042E+01 -.21844614E+02 0.57046947E+02 0.51099893E-03 0.0000E+00 0.9000E+01
       23  1    3    3    0    0 0.34418160E+03 0.19686943E+03 -.80084701E+03 0.89827041E+03 0.91188000E+02 0.0000E+00 0.9000E+01
#aMCatNLO 1  0  0  1  2 0.55077789D+03 0.00000000D+00  -5  7  0 0.00000000D+00 0.00000000D+00 0.00000000D+00 0.00000000D+00 0.00000000D+00
  <mgrwgt>
 0.3577566169D-03    3    2    0
 0.653083228561719D+03 0.000000000000000D+00 0.000000000000000D+00 0.653083228561719D+03
 0.653083228561719D+03 0.000000000000000D+00 0.000000000000000D+00 -.653083228561719D+03
 0.232852484300593D+03 0.212974076434255D+03 -.384112097884424D+01 0.230719885913596D+02
 0.560150976959696D+03 -.504595509090072D+03 -.196848816295766D+03 0.142839184812813D+03
 0.611503597125204D+02 -.525601626308226D+02 0.382050420794101D+01 0.310193414628556D+02
 0.452012636150629D+03 0.344181595286639D+03 0.196869433066669D+03 -.196930514867028D+03
 0.000000000000000D+00 -.000000000000000D+00 -.000000000000000D+00 -.000000000000000D+00
 0.891139436241048D+03 0.000000000000000D+00 0.000000000000000D+00 0.891139436241048D+03
 0.112462837117543D+04 0.000000000000000D+00 0.000000000000000D+00 -.112462837117543D+04
 0.277234190488453D+03 0.242924493418777D+03 0.948626315861986D+02 0.230719885913596D+02
 0.466702395482008D+03 -.444302448701246D+03 0.185129920123742D+01 0.142839184812813D+03
 0.614707905515889D+02 -.453602988369868D+02 0.275481730005340D+02 0.310193414628556D+02
 0.612135250006633D+03 0.406664452610423D+03 0.402786181806124D+03 -.196930514867028D+03
 0.598225180887798D+03 -.159926198490966D+03 -.527048285594093D+03 -.233488934934385D+03
0.952643932811D-04 0.000000000000D+00 0.000000000000D+00 0.160815725841D-06 0.000000000000D+00  7 -1 1 23 -11 11 23 21 0 0.38374121D-01 0.26307036D+00 0.38000857D+06 0.38000857D+06 0.38000857D+06 0.10770365D+01  1  2  2  1  7  1       -1 0.354137660030D-03 0.100000000000D+01
-.527102044564D-05 0.000000000000D+00 -.365840353890D-06 0.160815725841D-06 0.000000000000D+00  7 -1 1 23 -11 11 23 21 2 0.38374121D-01 0.26307036D+00 0.38000857D+06 0.38000857D+06 0.38000857D+06 0.10770365D+01  1  2  3  1  7  1       -1 -.227298746781D-04 0.100000000000D+01
0.611025058069D-05 0.000000000000D+00 0.000000000000D+00 0.160815725841D-06 0.000000000000D+00  7 -1 1 23 -11 11 23 21 2 0.38374121D-01 0.26307036D+00 0.38000857D+06 0.38000857D+06 0.38000857D+06 0.10770365D+01  1  2 15  1  7  1       -1 0.263488315751D-04 0.100000000000D+01
  </mgrwgt>
  </event>
  <event>
  8     66 0.58687835E-06 0.52107583E+03 0.75467711E-02 0.89392126E-01
       -1 -1    0    0    0  501 0.00000000E+00 0.00000000E+00 0.52265340E+03 0.52265350E+03 0.32000000E+00 0.0000E+00 0.9000E+01
        1 -1    0    0  501    0 0.00000000E+00 0.00000000E+00 -.54332451E+03 0.54332461E+03 0.32000000E+00 0.0000E+00 0.9000E+01
       25  2    1    2    0    0 -.29865645E+03 0.38123730E+03 0.40351309E+02 0.57052777E+03 0.29889154E+03 0.0000E+00 0.0000E+00
       23  2    1    2    0    0 0.29865645E+03 -.38123730E+03 -.61022422E+02 0.49545034E+03 0.84910232E+02 0.0000E+00 0.0000E+00
       23  1    3    3    0    0 -.50019631E+02 0.21241857E+03 -.53997095E+02 0.24259956E+03 0.91188000E+02 0.0000E+00 0.9000E+01
      -11  1    4    4    0    0 0.28914040E+03 -.32695511E+03 -.50972209E+02 0.43943143E+03 0.51099893E-03 0.0000E+00 0.9000E+01
       11  1    4    4    0    0 0.95160496E+01 -.54282188E+02 -.10050213E+02 0.56018907E+02 0.51099893E-03 0.0000E+00 0.9000E+01
       23  1    3    3    0    0 -.24863682E+03 0.16881873E+03 0.94348404E+02 0.32792820E+03 0.91188000E+02 0.0000E+00 0.9000E+01
#aMCatNLO 1  0  0  1  2 0.48960151D+03 0.00000000D+00  -5  7  0 0.00000000D+00 0.00000000D+00 0.00000000D+00 0.00000000D+00 0.00000000D+00
  <mgrwgt>
 0.5217941223D-03    3    2    0
 0.532888829235925D+03 0.000000000000000D+00 0.000000000000000D+00 0.532888829235925D+03
 0.532888829235925D+03 0.000000000000000D+00 0.000000000000000D+00 -.532888829235925D+03
 0.241597898212793D+03 -.500196306178202D+02 0.212418566248846D+03 -.493019506965040D+02
 0.438525450753307D+03 0.289140402916533D+03 -.326955107313596D+03 -.424588761180796D+02
 0.558345154033292D+02 0.951604955837117D+01 -.542821882454702D+02 -.896559816245226D+01
 0.329819794102421D+03 -.248636821857084D+03 0.168818729310220D+03 0.100726424977036D+03
 0.000000000000000D+00 -.000000000000000D+00 0.000000000000000D+00 -.000000000000000D+00
 0.742595048209143D+03 0.000000000000000D+00 0.000000000000000D+00 0.742595048209143D+03
 0.970167481441753D+03 0.000000000000000D+00 0.000000000000000D+00 -.970167481441753D+03
 0.200148902432102D+03 0.355100793683930D+02 0.167489354054355D+03 -.493019506965040D+02
 0.670022583505286D+03 0.503774197066277D+03 -.439703382538861D+03 -.424588761180796D+02
 0.769108133812283D+02 0.352178077972374D+02 -.677834587381642D+02 -.896559816245226D+01
 0.225773895966483D+03 -.141064413607855D+03 0.112310370316823D+03 0.100726424977036D+03
 0.539906334365796D+03 -.433437670624051D+03 0.227687116905847D+03 -.227572433232609D+03
0.673545295203D-04 0.000000000000D+00 0.000000000000D+00 0.107938399278D-07 0.000000000000D+00  7 -1 1 23 -11 11 23 21 0 0.80408230D-01 0.83588401D-01 0.27152002D+06 0.27152002D+06 0.27152002D+06 0.10877714D+01  1  2  2  1  7  1       -1 0.515988241917D-03 0.100000000000D+01
-.373963196751D-05 0.000000000000D+00 -.258659128213D-06 0.107938399278D-07 0.000000000000D+00  7 -1 1 23 -11 11 23 21 2 0.80408230D-01 0.83588401D-01 0.27152002D+06 0.27152002D+06 0.27152002D+06 0.10877714D+01  1  2  3  1  7  1       -1 -.338982417264D-04 0.100000000000D+01
0.438013291647D-05 0.000000000000D+00 0.000000000000D+00 0.107938399278D-07 0.000000000000D+00  7 -1 1 23 -11 11 23 21 2 0.80408230D-01 0.83588401D-01 0.27152002D+06 0.27152002D+06 0.27152002D+06 0.10877714D+01  1  2 15  1  7  1       -1 0.397041221399D-04 0.100000000000D+01
  </mgrwgt>
  </event>
  <event>
  8     66 0.58687835E-06 0.15581007E+03 0.75467711E-02 0.98849986E-01
       -1 -1    0    0    0  501 0.00000000E+00 0.00000000E+00 0.92806089E+02 0.92806641E+02 0.32000000E+00 0.0000E+00 0.9000E+01
        1 -1    0    0  501    0 0.00000000E+00 0.00000000E+00 -.14023255E+04 0.14023255E+04 0.32000000E+00 0.0000E+00 0.9000E+01
       25  2    1    2    0    0 0.27420399E+03 -.84123803E+02 -.71345321E+03 0.82512944E+03 0.29926319E+03 0.0000E+00 0.0000E+00
       23  2    1    2    0    0 -.27420399E+03 0.84123803E+02 -.59606615E+03 0.67000270E+03 0.10650875E+03 0.0000E+00 0.0000E+00
       23  1    3    3    0    0 0.28386671E+02 -.97157959E+02 -.14484059E+03 0.19884547E+03 0.91188000E+02 0.0000E+00 0.9000E+01
      -13  1    4    4    0    0 -.23110374E+03 0.50741832E+02 -.54961236E+03 0.59837900E+03 0.10565837E+00 0.0000E+00 0.9000E+01
       13  1    4    4    0    0 -.43100253E+02 0.33381970E+02 -.46453789E+02 0.71623693E+02 0.10565837E+00 0.0000E+00 0.9000E+01
       23  1    3    3    0    0 0.24581732E+03 0.13034156E+02 -.56861262E+03 0.62628397E+03 0.91188000E+02 0.0000E+00 0.9000E+01
#aMCatNLO 1  0  0  1  2 0.10356344D+02 0.00000000D+00  -5  7  0 0.00000000D+00 0.00000000D+00 0.00000000D+00 0.00000000D+00 0.00000000D+00
  <mgrwgt>
 0.1636392611D-03    6    2    0
 0.360755847474747D+03 0.000000000000000D+00 0.000000000000000D+00 0.360755847474747D+03
 0.360755847474747D+03 0.000000000000000D+00 0.000000000000000D+00 -.360755847474747D+03
 0.149171098584988D+03 0.283866800979612D+02 -.971579613385394D+02 0.607560058809580D+02
 0.242446199519501D+03 -.231103925057837D+03 0.507418734655471D+02 -.528809773124333D+02
 0.641079148072417D+02 -.431000896367290D+02 0.333819366622983D+02 0.337320814494568D+02
 0.265786482037764D+03 0.245817334596604D+03 0.130341512106939D+02 -.416071100179815D+02
 0.000000000000000D+00 -.000000000000000D+00 -.000000000000000D+00 -.000000000000000D+00
 0.365393339527965D+03 0.000000000000000D+00 0.000000000000000D+00 0.365393339527965D+03
 0.366621603049254D+03 0.000000000000000D+00 0.000000000000000D+00 -.366621603049254D+03
 0.147834431951079D+03 0.285793528134046D+02 -.950352369832271D+02 0.607560058809580D+02
 0.242896666292352D+03 -.230789074597954D+03 0.542106611345053D+02 -.528809773124333D+02
 0.645357878099914D+02 -.430166362025009D+02 0.343013643921802D+02 0.337320814494568D+02
 0.266319130862144D+03 0.246162520873624D+03 0.168371562997316D+02 -.416071100179815D+02
 0.104289256616534D+02 -.936162886574141D+00 -.103139448431900D+02 -.122826352128860D+01
0.324895443143D-05 0.000000000000D+00 0.000000000000D+00 0.229067624165D-08 0.000000000000D+00  7 -1 1 23 -13 13 23 21 0 0.14277905D-01 0.21574242D+00 0.11898086D+06 0.11898086D+06 0.11898086D+06 0.11155804D+01  1  2  2  1  7  1       -1 0.102699181597D-03 0.100000000000D+01
-.180056171072D-06 0.000000000000D+00 -.124768404860D-07 0.229067624165D-08 0.000000000000D+00  7 -1 1 23 -13 13 23 21 2 0.14277905D-01 0.21574242D+00 0.11898086D+06 0.11898086D+06 0.11898086D+06 0.11155804D+01  1  2  3  1  7  1       -1 -.708325904043D-05 0.100000000000D+01
0.213844036988D-06 0.000000000000D+00 0.000000000000D+00 0.229067624165D-08 0.000000000000D+00  7 -1 1 23 -13 13 23 21 2 0.14277905D-01 0.21574242D+00 0.11898086D+06 0.11898086D+06 0.11898086D+06 0.11155804D+01  1  2 15  1  7  1       -1 0.841244540090D-05 0.100000000000D+01
0.241820925268D-05 0.000000000000D+00 0.000000000000D+00 0.229067624165D-08 0.000000000000D+00  7 -1 1 23 -13 13 23 21 2 0.14575852D-01 0.21574242D+00 0.12259342D+06 0.12259342D+06 0.12259342D+06 0.11145338D+01  1  2 12  1  7  1       -1 0.918626239346D-04 0.100000000000D+01
-.164874091034D-05 0.000000000000D+00 0.000000000000D+00 0.229067624165D-08 0.000000000000D+00  7 -1 1 23 -13 13 23 21 2 0.14277905D-01 0.21574242D+00 0.11898086D+06 0.11898086D+06 0.11898086D+06 0.11155804D+01  1  2  4  1  7  1       -1 -.648600872104D-04 0.100000000000D+01
0.663015242465D-07 0.000000000000D+00 0.000000000000D+00 0.229067624165D-08 0.000000000000D+00  7 21 1 23 -13 13 23 1 2 0.14575852D-01 0.21574242D+00 0.12259342D+06 0.12259342D+06 0.12259342D+06 0.11145338D+01  1  2 12  3  7  1       -1 0.326083563945D-04 0.100000000000D+01
  </mgrwgt>
  </event>
  <event>
  8     66 0.58687835E-06 0.30590019E+03 0.75467711E-02 0.96063116E-01
       -1 -1    0    0    0  501 0.00000000E+00 0.00000000E+00 0.95957380E+02 0.95957914E+02 0.32000000E+00 0.0000E+00 0.9000E+01
        1 -1    0    0  501    0 0.00000000E+00 0.00000000E+00 -.11433451E+04 0.11433452E+04 0.32000000E+00 0.0000E+00 0.9000E+01
       25  2    1    2    0    0 -.20900584E+03 0.12662364E+03 -.74658423E+03 0.84117511E+03 0.30078326E+03 0.0000E+00 0.0000E+00
       23  2    1    2    0    0 0.20900584E+03 -.12662364E+03 -.30080351E+03 0.39812797E+03 0.91138031E+02 0.0000E+00 0.0000E+00
       23  1    3    3    0    0 -.56081120E+02 -.48254390E+02 -.12572328E+03 0.17203248E+03 0.91188000E+02 0.0000E+00 0.9000E+01
      -13  1    4    4    0    0 0.32080074E+02 -.13475742E+02 -.47032833E+01 0.35112089E+02 0.10565837E+00 0.0000E+00 0.9000E+01
       13  1    4    4    0    0 0.17692576E+03 -.11314790E+03 -.29610023E+03 0.36301588E+03 0.10565837E+00 0.0000E+00 0.9000E+01
       23  1    3    3    0    0 -.15292472E+03 0.17487803E+03 -.62086096E+03 0.66914264E+03 0.91188000E+02 0.0000E+00 0.9000E+01
#aMCatNLO 1  0  0  2  2 0.23065917D+03 0.00000000D+00  -5  7  0 0.00000000D+00 0.00000000D+00 0.00000000D+00 0.00000000D+00 0.00000000D+00
  <mgrwgt>
 0.3069339839D-03    3    2    0
 0.331229167416265D+03 0.000000000000000D+00 0.000000000000000D+00 0.331229167416265D+03
 0.331229167416265D+03 0.000000000000000D+00 0.000000000000000D+00 -.331229167416265D+03
 0.123055822406021D+03 -.560811205250390D+02 -.482543903134710D+02 0.367954592328094D+02
 0.582500377886394D+02 0.320798794318146D+02 -.134756085604755D+02 0.467156955630867D+02
 0.210964340756483D+03 0.176925959471835D+03 -.113148032311303D+03 0.200170107625641D+02
 0.270188133881387D+03 -.152924718378611D+03 0.174878031185249D+03 -.103528165558460D+03
 0.000000000000000D+00 0.000000000000000D+00 -.000000000000000D+00 0.000000000000000D+00
 0.788005541990604D+03 0.000000000000000D+00 0.000000000000000D+00 0.788005541990604D+03
 0.381150957167581D+03 0.000000000000000D+00 0.000000000000000D+00 -.381150957167581D+03
 0.120917483106118D+03 -.697490595376410D+02 -.932465818030360D+01 0.367954592328094D+02
 0.535526965816333D+02 0.258164361767942D+02 0.436425507400653D+01 0.467156955630867D+02
 0.165807236117362D+03 0.155818359508865D+03 -.530282723551871D+02 0.200170107625641D+02
 0.361188689417930D+03 -.188295882845602D+03 0.275624014662977D+03 -.103528165558460D+03
 0.467690393935144D+03 0.764101466975837D+02 -.217635339201493D+03 0.406854584823023D+03
0.666977206919D-05 0.000000000000D+00 0.000000000000D+00 0.389946135658D-06 0.000000000000D+00  7 -1 1 23 -13 13 23 21 0 0.14762718D-01 0.17589929D+00 0.93574928D+05 0.93574928D+05 0.93574928D+05 0.11240965D+01  1  2  2  2  7  2        1 0.302978544133D-03 0.100000000000D+01
-.367691757280D-06 0.000000000000D+00 -.256136809370D-07 0.389946135658D-06 0.000000000000D+00  7 -1 1 23 -13 13 23 21 2 0.14762718D-01 0.17589929D+00 0.93574928D+05 0.93574928D+05 0.93574928D+05 0.11240965D+01  1  2  3  2  7  2        1 -.211053193924D-04 0.100000000000D+01
0.436602469182D-06 0.000000000000D+00 0.000000000000D+00 0.389946135658D-06 0.000000000000D+00  7 -1 1 23 -13 13 23 21 2 0.14762718D-01 0.17589929D+00 0.93574928D+05 0.93574928D+05 0.93574928D+05 0.11240965D+01  1  2 15  2  7  2        1 0.250607591200D-04 0.100000000000D+01
  </mgrwgt>
  </event>
  <event>
  7     66 0.58687835E-06 0.95371738E+03 0.75467711E-02 0.87598779E-01
       -1 -1    0    0    0  501 0.00000000E+00 0.00000000E+00 0.35851780E+03 0.35851794E+03 0.32000000E+00 0.0000E+00 0.9000E+01
        1 -1    0    0  501    0 0.00000000E+00 0.00000000E+00 -.26870206E+04 0.26870206E+04 0.32000000E+00 0.0000E+00 0.9000E+01
       25  2    1    2    0    0 -.23013085E+03 -.53127512E+03 -.51912292E+03 0.83342754E+03 0.29983228E+03 0.0000E+00 0.0000E+00
       23  1    3    3    0    0 -.12599251E+03 -.44577024E+03 -.46315147E+03 0.66136961E+03 0.91188000E+02 0.0000E+00 0.9000E+01
      -13  1    1    2    0    0 0.36237092E+03 0.85191216E+03 -.13204175E+04 0.16126281E+04 0.10565837E+00 0.0000E+00 0.9000E+01
       13  1    1    2    0    0 -.13224006E+03 -.32063704E+03 -.48896235E+03 0.59948289E+03 0.10565837E+00 0.0000E+00 0.9000E+01
       23  1    3    3    0    0 -.10413834E+03 -.85504880E+02 -.55971451E+02 0.17205794E+03 0.91188000E+02 0.0000E+00 0.9000E+01
#aMCatNLO 1  0  0  1  2 0.46869448D+02 0.00000000D+00  -5  7  0 0.00000000D+00 0.00000000D+00 0.00000000D+00 0.00000000D+00 0.00000000D+00
  <mgrwgt>
 0.2044565144D-01    4    2    0
 0.981501377669831D+03 0.000000000000000D+00 0.000000000000000D+00 0.981501377669831D+03
 0.981501377669831D+03 0.000000000000000D+00 0.000000000000000D+00 -.981501377669831D+03
 0.476735870040662D+03 -.126003909598304D+03 -.445796557676814D+03 0.659566703895260D+02
 0.935672689662573D+03 0.362371291385166D+03 0.851912127562765D+03 -.135706139403212D+03
 0.350035163150110D+03 -.132224243663130D+03 -.320599619559518D+03 -.475105121792007D+02
 0.200559032486318D+03 -.104143138123732D+03 -.855159503264334D+02 0.117259981192886D+03
 0.000000000000000D+00 -.000000000000000D+00 0.000000000000000D+00 -.000000000000000D+00
 0.983089602580127D+03 0.000000000000000D+00 0.000000000000000D+00 0.983089602580127D+03
 0.140148903896965D+04 0.000000000000000D+00 0.000000000000000D+00 -.140148903896965D+04
 0.481611647799172D+03 -.117391114237151D+03 -.453325017929875D+03 0.659566703895260D+02
 0.929067056683752D+03 0.379129953079507D+03 0.837263350578070D+03 -.135706139403212D+03
 0.352795717713889D+03 -.125907809971075D+03 -.326120825857558D+03 -.475105121792007D+02
 0.200087790360214D+03 -.100542472359969D+03 -.886632988875422D+02 0.117259981192886D+03
 0.421016428992750D+03 -.352885565113121D+02 0.308457920969047D+02 -.418399436389522D+03
0.519631325796D-01 0.000000000000D+00 0.000000000000D+00 0.794393149931D-10 0.000000000000D+00  7 -1 1 23 -13 13 23 21 0 0.55156597D-01 0.41338779D+00 0.90957684D+06 0.90957684D+06 0.90957684D+06 0.10506149D+01  1  2  2  1  7  1       -1 0.204158753069D-01 0.100000000000D+01
-.288394633385D-02 0.000000000000D+00 -.199552111313D-03 0.794393149931D-10 0.000000000000D+00  7 -1 1 23 -13 13 23 21 2 0.55156597D-01 0.41338779D+00 0.90957684D+06 0.90957684D+06 0.90957684D+06 0.10506149D+01  1  2  3  1  7  1       -1 -.125068223580D-02 0.100000000000D+01
0.340919764202D-02 0.000000000000D+00 0.000000000000D+00 0.794393149931D-10 0.000000000000D+00  7 -1 1 23 -13 13 23 21 2 0.55156597D-01 0.41338779D+00 0.90957684D+06 0.90957684D+06 0.90957684D+06 0.10506149D+01  1  2 15  1  7  1       -1 0.147846819449D-02 0.100000000000D+01
-.456590563260D-03 0.000000000000D+00 0.000000000000D+00 0.794393149931D-10 0.000000000000D+00  7 -1 1 23 -13 13 23 21 2 0.55156597D-01 0.41338779D+00 0.90957684D+06 0.90957684D+06 0.90957684D+06 0.10506149D+01  1  2  4  1  7  1       -1 -.198009824178D-03 0.100000000000D+01
  </mgrwgt>
  </event>
  <event>
  8     66 0.58687835E-06 0.17460042E+03 0.75467711E-02 0.91964493E-01
       -1 -1    0    0    0  501 0.00000000E+00 0.00000000E+00 0.29824689E+03 0.29824706E+03 0.32000000E+00 0.0000E+00 0.9000E+01
        1 -1    0    0  501    0 0.00000000E+00 0.00000000E+00 -.11794547E+04 0.11794548E+04 0.32000000E+00 0.0000E+00 0.9000E+01
       25  2    1    2    0    0 -.50335782E+02 0.51948199E+03 -.68613780E+03 0.91284029E+03 0.30016176E+03 0.0000E+00 0.0000E+00
       23  2    1    2    0    0 0.50335782E+02 -.51948199E+03 -.19507002E+03 0.56486152E+03 0.92849336E+02 0.0000E+00 0.0000E+00
       23  1    3    3    0    0 0.39406456E+02 0.24077183E+03 -.16549193E+03 0.30858836E+03 0.91188000E+02 0.0000E+00 0.9000E+01
      -11  1    4    4    0    0 0.12174994E+02 -.20751024E+03 -.12597053E+03 0.24305823E+03 0.51099893E-03 0.0000E+00 0.9000E+01
       11  1    4    4    0    0 0.38160789E+02 -.31197175E+03 -.69099488E+02 0.32180329E+03 0.51099893E-03 0.0000E+00 0.9000E+01
       23  1    3    3    0    0 -.89742239E+02 0.27871016E+03 -.52064587E+03 0.60425193E+03 0.91188000E+02 0.0000E+00 0.9000E+01
#aMCatNLO 1  0  0  2  1 0.17149061D+03 0.00000000D+00  -5  7  0 0.00000000D+00 0.00000000D+00 0.00000000D+00 0.00000000D+00 0.00000000D+00
  <mgrwgt>
 0.2591271677D-03    9    2    0
 0.593101047350414D+03 0.000000000000000D+00 0.000000000000000D+00 0.593101047350414D+03
 0.593101047350414D+03 0.000000000000000D+00 0.000000000000000D+00 -.593101047350414D+03
 0.261480560516822D+03 0.394064564656507D+02 0.240771830686454D+03 0.230843869510488D+02
 0.209206657913862D+03 0.121749938565660D+02 -.207510241306688D+03 0.236367297425103D+02
 0.349551134716131D+03 0.381607885726194D+02 -.311971745405736D+03 0.152981633098060D+03
 0.365963741554013D+03 -.897422388948361D+02 0.278710156025970D+03 -.199702749791619D+03
 0.000000000000000D+00 -.000000000000000D+00 -.000000000000000D+00 -.000000000000000D+00
 0.673781781750962D+03 0.000000000000000D+00 0.000000000000000D+00 0.673781781750962D+03
 0.697935772403322D+03 0.000000000000000D+00 0.000000000000000D+00 -.697935772403322D+03
 0.279581742610116D+03 0.767010369339557D+02 0.251862584496506D+03 0.230843869510488D+02
 0.204517421965909D+03 0.406923492509071D+02 -.199029680216554D+03 0.236367297425103D+02
 0.345617125787999D+03 0.860776522693690D+02 -.297722110956513D+03 0.152981633098060D+03
 0.368817997042703D+03 -.390948799523167D+02 0.293771791848317D+03 -.199702749791619D+03
 0.173183266747556D+03 -.164376158501915D+03 -.488825851717565D+02 -.241539906523601D+02
0.252016733873D-04 0.000000000000D+00 0.000000000000D+00 0.111220955732D-05 0.000000000000D+00  7 -1 1 23 -11 11 23 21 0 0.45884153D-01 0.18145459D+00 0.29664177D+06 0.29664177D+06 0.29664177D+06 0.10849138D+01  1  2  2  2  7  2        1 0.158916637741D-03 0.100000000000D+01
-.138772872593D-05 0.000000000000D+00 -.967810615603D-07 0.111220955732D-05 0.000000000000D+00  7 -1 1 23 -11 11 23 21 2 0.45884153D-01 0.18145459D+00 0.29664177D+06 0.29664177D+06 0.29664177D+06 0.10849138D+01  1  2  3  2  7  2        1 -.102999472287D-04 0.100000000000D+01
0.160901528378D-05 0.000000000000D+00 0.000000000000D+00 0.111220955732D-05 0.000000000000D+00  7 -1 1 23 -11 11 23 21 2 0.45884153D-01 0.18145459D+00 0.29664177D+06 0.29664177D+06 0.29664177D+06 0.10849138D+01  1  2 15  2  7  2        1 0.119423718796D-04 0.100000000000D+01
0.164603702903D-04 0.000000000000D+00 0.000000000000D+00 0.111220955732D-05 0.000000000000D+00  7 -1 1 23 -11 11 23 21 2 0.45884153D-01 0.22398636D+00 0.40529387D+06 0.40529387D+06 0.40529387D+06 0.10750162D+01  1  2 12  2  7  2        1 0.760877224907D-04 0.100000000000D+01
-.157219452119D-04 0.000000000000D+00 0.000000000000D+00 0.111220955732D-05 0.000000000000D+00  7 -1 1 23 -11 11 23 21 2 0.45884153D-01 0.18145459D+00 0.29664177D+06 0.29664177D+06 0.29664177D+06 0.10849138D+01  1  2  4  2  7  2        1 -.116690822197D-03 0.100000000000D+01
-.415123720972D-04 0.000000000000D+00 -.134876705756D-04 0.111220955732D-05 0.000000000000D+00  7 -1 1 23 -11 11 23 21 2 0.45884153D-01 0.23118831D+00 0.29664177D+06 0.29664177D+06 0.29664177D+06 0.10849138D+01  1  2  5  2  7  2        1 -.184287947262D-03 0.100000000000D+01
0.438723045703D-04 0.000000000000D+00 0.131014309646D-04 0.111220955732D-05 0.000000000000D+00  7 -1 1 23 -11 11 23 21 2 0.45884153D-01 0.18145459D+00 0.29664177D+06 0.29664177D+06 0.29664177D+06 0.10849138D+01  1  2  6  2  7  2        1 0.325627345915D-03 0.100000000000D+01
0.489946049085D-06 0.000000000000D+00 0.000000000000D+00 0.111220955732D-05 0.000000000000D+00  7 -1 21 23 -11 11 23 -1 2 0.45884153D-01 0.22398636D+00 0.40529387D+06 0.40529387D+06 0.40529387D+06 0.10750162D+01  1  2 12  4  7  2        1 0.180672781236D-05 0.100000000000D+01
-.115788477749D-05 0.000000000000D+00 -.445928099748D-06 0.111220955732D-05 0.000000000000D+00  7 -1 21 23 -11 11 23 -1 2 0.45884153D-01 0.23118831D+00 0.29664177D+06 0.29664177D+06 0.29664177D+06 0.10849138D+01  1  2  5  4  7  2        1 -.397492145736D-05 0.100000000000D+01
  </mgrwgt>
  </event>
  <event>
  8     66 0.58687835E-06 0.13159115E+03 0.75467711E-02 0.96704140E-01
       -1 -1    0    0    0  501 0.00000000E+00 0.00000000E+00 0.62718388E+02 0.62719205E+02 0.32000000E+00 0.0000E+00 0.9000E+01
        1 -1    0    0  501    0 0.00000000E+00 0.00000000E+00 -.13273305E+04 0.13273305E+04 0.32000000E+00 0.0000E+00 0.9000E+01
       25  2    1    2    0    0 -.13599825E+03 -.98098608E+02 -.54780157E+03 0.64841385E+03 0.30370232E+03 0.0000E+00 0.0000E+00
       23  2    1    2    0    0 0.13599825E+03 0.98098608E+02 -.71681054E+03 0.74163589E+03 0.89930997E+02 0.0000E+00 0.0000E+00
       23  1    3    3    0    0 0.53662765E+02 0.13345939E+02 -.20404251E+03 0.23023120E+03 0.91188000E+02 0.0000E+00 0.9000E+01
      -13  1    4    4    0    0 0.74999393E+02 0.10453325E+03 -.46595325E+03 0.48338862E+03 0.10565837E+00 0.0000E+00 0.9000E+01
       13  1    4    4    0    0 0.60998860E+02 -.64346434E+01 -.25085729E+03 0.25824728E+03 0.10565837E+00 0.0000E+00 0.9000E+01
       23  1    3    3    0    0 -.18966102E+03 -.11144455E+03 -.34375906E+03 0.41818265E+03 0.91188000E+02 0.0000E+00 0.9000E+01
#aMCatNLO 1  0  0  2  1 0.24859272D+03 0.00000000D+00  -5  7  0 0.00000000D+00 0.00000000D+00 0.00000000D+00 0.00000000D+00 0.00000000D+00
  <mgrwgt>
 0.1456370076D-03    7    2    0
 0.288528376167112D+03 0.000000000000000D+00 0.000000000000000D+00 0.288528376167112D+03
 0.288528376167112D+03 0.000000000000000D+00 0.000000000000000D+00 -.288528376167112D+03
 0.107438601777135D+03 0.536627154790621D+02 0.133459129869429D+02 0.130384577992944D+02
 0.143286024495380D+03 0.749994327083430D+02 0.104533418773311D+03 -.630772087895549D+02
 0.723314395521247D+02 0.609988507872333D+02 -.643478865533492D+01 -.383349820044392D+02
 0.254000686509585D+03 -.189660998974638D+03 -.111444543104919D+03 0.883737329946998D+02
 0.000000000000000D+00 0.000000000000000D+00 -.000000000000000D+00 -.000000000000000D+00
 0.363169067096381D+03 0.000000000000000D+00 0.000000000000000D+00 0.363169067096381D+03
 0.629419469370368D+03 0.000000000000000D+00 0.000000000000000D+00 -.629419469370368D+03
 0.104726428791740D+03 0.227584004683288D+02 0.443218610824343D+02 0.130384577992944D+02
 0.165076158589331D+03 0.300828787508156D+02 0.149554084772007D+03 -.630772087895549D+02
 0.582355205368707D+02 0.419802478922843D+02 0.126278974426452D+02 -.383349820044392D+02
 0.300287313746068D+03 -.270399520872616D+03 -.305188774575863D+02 0.883737329946998D+02
 0.364263114802739D+03 0.175577993761187D+03 -.175984965839500D+03 -.266250402273988D+03
0.226241696124D-05 0.000000000000D+00 0.000000000000D+00 0.243423324465D-08 0.000000000000D+00  7 -1 1 23 -13 13 23 21 0 0.96490486D-02 0.20420476D+00 0.71494233D+05 0.71494233D+05 0.71494233D+05 0.11338807D+01  1  2  2  2  7  2        1 0.148511287198D-03 0.100000000000D+01
-.124804643346D-06 0.000000000000D+00 -.868827683923D-08 0.243423324465D-08 0.000000000000D+00  7 -1 1 23 -13 13 23 21 2 0.96490486D-02 0.20420476D+00 0.71494233D+05 0.71494233D+05 0.71494233D+05 0.11338807D+01  1  2  3  2  7  2        1 -.105330039299D-04 0.100000000000D+01
0.148769617417D-06 0.000000000000D+00 0.000000000000D+00 0.243423324465D-08 0.000000000000D+00  7 -1 1 23 -13 13 23 21 2 0.96490486D-02 0.20420476D+00 0.71494233D+05 0.71494233D+05 0.71494233D+05 0.11338807D+01  1  2 15  2  7  2        1 0.125555502015D-04 0.100000000000D+01
0.959242352678D-08 0.000000000000D+00 0.000000000000D+00 0.243423324465D-08 0.000000000000D+00  7 -1 1 23 -13 13 23 21 2 0.96490486D-02 0.44398149D+00 0.17467434D+06 0.17467434D+06 0.17467434D+06 0.11023702D+01  1  2 12  2  7  2        1 0.665062985941D-07 0.100000000000D+01
-.901269284918D-06 0.000000000000D+00 -.594575060603D-06 0.243423324465D-08 0.000000000000D+00  7 -1 1 23 -13 13 23 21 2 0.96490486D-02 0.47501605D+00 0.71494233D+05 0.71494233D+05 0.71494233D+05 0.11338807D+01  1  2  5  2  7  2        1 -.491034563159D-05 0.100000000000D+01
0.806884405994D-09 0.000000000000D+00 0.000000000000D+00 0.243423324465D-08 0.000000000000D+00  7 -1 21 23 -13 13 23 -1 2 0.96490486D-02 0.44398149D+00 0.17467434D+06 0.17467434D+06 0.17467434D+06 0.11023702D+01  1  2 12  4  7  2        1 0.141380424640D-08 0.100000000000D+01
-.453293804266D-07 0.000000000000D+00 -.546984944470D-07 0.243423324465D-08 0.000000000000D+00  7 -1 21 23 -13 13 23 -1 2 0.96490486D-02 0.47501605D+00 0.71494233D+05 0.71494233D+05 0.71494233D+05 0.11338807D+01  1  2  5  4  7  2        1 -.544003483798D-07 0.100000000000D+01
  </mgrwgt>
  </event>
  <event>
  8     66 0.58687835E-06 0.23861284E+03 0.75467711E-02 0.91492684E-01
       -1 -1    0    0    0  501 0.00000000E+00 0.00000000E+00 0.17277112E+03 0.17277142E+03 0.32000000E+00 0.0000E+00 0.9000E+01
        1 -1    0    0  501    0 0.00000000E+00 0.00000000E+00 -.46494377E+03 0.46494388E+03 0.32000000E+00 0.0000E+00 0.9000E+01
       25  2    1    2    0    0 -.15970763E+03 0.94913953E+02 -.19820280E+03 0.41140661E+03 0.30895932E+03 0.0000E+00 0.0000E+00
       23  2    1    2    0    0 0.15970763E+03 -.94913953E+02 -.93969848E+02 0.22630868E+03 0.88713594E+02 0.0000E+00 0.0000E+00
       23  1    3    3    0    0 -.64689234E+02 0.84769954E+02 -.23552479E+03 0.27414926E+03 0.91188000E+02 0.0000E+00 0.9000E+01
      -13  1    4    4    0    0 0.49524342E+01 -.40482463E+02 -.98816023E+01 0.41964433E+02 0.10565837E+00 0.0000E+00 0.9000E+01
       13  1    4    4    0    0 0.15475520E+03 -.54431490E+02 -.84088245E+02 0.18434425E+03 0.10565837E+00 0.0000E+00 0.9000E+01
       23  1    3    3    0    0 -.95018399E+02 0.10143998E+02 0.37321989E+02 0.13725735E+03 0.91188000E+02 0.0000E+00 0.9000E+01
#aMCatNLO 1  0  0  1  2 0.56992962D+03 0.00000000D+00  -5  7  0 0.00000000D+00 0.00000000D+00 0.00000000D+00 0.00000000D+00 0.00000000D+00
  <mgrwgt>
 0.1873096126D-03    5    2    0
 0.283423685160507D+03 0.000000000000000D+00 0.000000000000000D+00 0.283423685160507D+03
 0.283423685160507D+03 0.000000000000000D+00 0.000000000000000D+00 -.283423685160507D+03
 0.187026013842423D+03 -.646894109121392D+02 0.847699446595938D+02 -.123664122153662D+03
 0.421174218094543D+02 0.495227502729658D+01 -.404824742440712D+02 0.105129192428946D+02
 0.164049617362530D+03 0.154755617130976D+03 -.544316323875064D+02 0.416315787091186D+00
 0.173654317306607D+03 -.950184812461332D+02 0.101441619719838D+02 0.112734887123676D+03
 0.000000000000000D+00 0.000000000000000D+00 -.000000000000000D+00 0.000000000000000D+00
 0.800469213664590D+03 0.000000000000000D+00 0.000000000000000D+00 0.800469213664590D+03
 0.605660528132826D+03 0.000000000000000D+00 0.000000000000000D+00 -.605660528132826D+03
 0.357758596447418D+03 -.274229819740659D+03 0.170824918688686D+03 -.123664122153662D+03
 0.396565550594124D+02 -.265004353117858D+02 -.275653372273665D+02 0.105129192428946D+02
 0.679101330646732D+02 0.655369791257313D+02 -.177909308666103D+02 0.416315787091186D+00
 0.338500387005176D+03 -.292008455077892D+03 0.910448683171569D+02 0.112734887123676D+03
 0.602304070220736D+03 0.527201731004606D+03 -.216513518911866D+03 0.194808685531764D+03
0.238812836326D-05 0.000000000000D+00 0.000000000000D+00 0.318720031387D-09 0.000000000000D+00  7 -1 1 23 -13 13 23 21 0 0.26580204D-01 0.71529842D-01 0.56936088D+05 0.56936088D+05 0.56936088D+05 0.11423657D+01  1  2  2  1  7  1       -1 0.170941477078D-03 0.100000000000D+01
-.127895961491D-06 0.000000000000D+00 -.917104172355D-08 0.318720031387D-09 0.000000000000D+00  7 -1 1 23 -13 13 23 21 2 0.26580204D-01 0.71529842D-01 0.56936088D+05 0.56936088D+05 0.56936088D+05 0.11423657D+01  1  2  3  1  7  1       -1 -.119469475453D-04 0.100000000000D+01
0.155035992467D-06 0.000000000000D+00 0.000000000000D+00 0.318720031387D-09 0.000000000000D+00  7 -1 1 23 -13 13 23 21 2 0.26580204D-01 0.71529842D-01 0.56936088D+05 0.56936088D+05 0.56936088D+05 0.11423657D+01  1  2 15  1  7  1       -1 0.144821372624D-04 0.100000000000D+01
0.182903265119D-05 0.000000000000D+00 -.106498878409D-05 0.318720031387D-09 0.000000000000D+00  7 -1 1 23 -13 13 23 21 2 0.14364432D+00 0.71529842D-01 0.56936088D+05 0.56936088D+05 0.56936088D+05 0.11423657D+01  1  2  5  1  7  1       -1 0.629030126092D-05 0.100000000000D+01
0.331234013985D-06 0.000000000000D+00 -.219782287194D-06 0.318720031387D-09 0.000000000000D+00  7 21 1 23 -13 13 23 1 2 0.14364432D+00 0.71529842D-01 0.56936088D+05 0.56936088D+05 0.56936088D+05 0.11423657D+01  1  2  5  3  7  1       -1 0.754264454190D-05 0.100000000000D+01
  </mgrwgt>
  </event>
  <event>
  9     66 0.58687835E-06 0.25471118E+03 0.75467711E-02 0.99653987E-01
       -1 -1    0    0    0  502 0.00000000E+00 0.00000000E+00 0.24306037E+03 0.24306058E+03 0.32000000E+00 0.0000E+00 0.9000E+01
        1 -1    0    0  501    0 0.00000000E+00 0.00000000E+00 -.13093033E+04 0.13093033E+04 0.32000000E+00 0.0000E+00 0.9000E+01
       25  2    1    2    0    0 -.31024787E+02 -.10236722E+03 -.10294054E+04 0.10772536E+04 0.29892840E+03 0.0000E+00 0.0000E+00
       23  2    1    2    0    0 0.11127944E+03 0.19316000E+03 0.12664574E+03 0.27161223E+03 0.89666949E+02 0.0000E+00 0.0000E+00
       23  1    3    3    0    0 0.96235682E+02 -.15623286E+02 -.34777095E+03 0.37251211E+03 0.91188000E+02 0.0000E+00 0.9000E+01
      -13  1    4    4    0    0 0.83748682E+02 0.14981720E+03 0.13653766E+03 0.21932072E+03 0.10565837E+00 0.0000E+00 0.9000E+01
       13  1    4    4    0    0 0.27530762E+02 0.43342797E+02 -.98919188E+01 0.52291511E+02 0.10565837E+00 0.0000E+00 0.9000E+01
       23  1    3    3    0    0 -.12726047E+03 -.86743933E+02 -.68163448E+03 0.70474148E+03 0.91188000E+02 0.0000E+00 0.9000E+01
       21  1    1    2  501  502 -.80254656E+02 -.90792781E+02 -.16348323E+03 0.20349808E+03 0.75000000E+00 0.0000E+00 0.9000E+01
#aMCatNLO 2  0  0  1  2 0.12117813D+03 0.00000000D+00  -5  7  0 0.00000000D+00 0.00000000D+00 0.00000000D+00 0.00000000D+00 0.00000000D+00
  <mgrwgt>
 0.6336902993D-04    1    2    0
 0.497438395253057D+03 0.000000000000000D+00 0.000000000000000D+00 0.497438395253057D+03
 0.497438395253057D+03 0.000000000000000D+00 0.000000000000000D+00 -.497438395253057D+03
 0.183148700804561D+03 0.813170425713754D+02 -.325008706888467D+02 -.132511989096498D+03
 0.400825367658227D+03 0.508373218450146D+02 0.112584359288728D+03 0.381315229317590D+03
 0.557446359770383D+02 0.228204920536903D+02 0.380139687107408D+02 0.337879825603542D+02
 0.355158086066288D+03 -.154974856470080D+03 -.118097457310622D+03 -.282591222781446D+03
 0.000000000000000D+00 -.000000000000000D+00 -.000000000000000D+00 -.000000000000000D+00
 0.546062677399758D+03 0.000000000000000D+00 0.000000000000000D+00 0.546062677399758D+03
 0.582787806469187D+03 0.000000000000000D+00 0.000000000000000D+00 -.582787806469187D+03
 0.188095912158030D+03 0.962356821044167D+02 -.156232858947238D+02 -.132511989096498D+03
 0.418163123237630D+03 0.837487598855068D+02 0.149817351278024D+03 0.381315229317590D+03
 0.614666698444117D+02 0.275306835546333D+02 0.433426487339867D+02 0.337879825603542D+02
 0.334503793018454D+03 -.127260469204932D+03 -.867439334153139D+02 -.282591222781446D+03
 0.126620985610420D+03 -.802546563396244D+02 -.907927807019735D+02 -.367251290694298D+02
0.664312136570D-05 0.000000000000D+00 0.000000000000D+00 0.337201895297D-06 0.155337781342D-09  7 -1 1 23 -13 13 23 21 2 0.37393848D-01 0.20143089D+00 0.10779367D+06 0.10779367D+06 0.10779367D+06 0.11190572D+01  1  2  1  1  7  1       -1 0.633690299251D-04 0.100000000000D+01
  </mgrwgt>
  </event>
  <event>
  8     66 0.58687835E-06 0.27721695E+03 0.75467711E-02 0.83534825E-01
       -1 -1    0    0    0  501 0.00000000E+00 0.00000000E+00 0.12782243E+04 0.12782244E+04 0.32000000E+00 0.0000E+00 0.9000E+01
        1 -1    0    0  501    0 0.00000000E+00 0.00000000E+00 -.20049740E+03 0.20049766E+03 0.32000000E+00 0.0000E+00 0.9000E+01
       25  2    1    2    0    0 -.11166382E+03 0.19961125E+03 -.56115832E+01 0.36785303E+03 0.28804670E+03 0.0000E+00 0.0000E+00
       23  2    1    2    0    0 0.11166382E+03 -.19961125E+03 0.10833385E+04 0.11108690E+04 0.89967548E+02 0.0000E+00 0.0000E+00
       23  1    3    3    0    0 -.10361512E+03 0.84766468E+02 0.96900395E+02 0.18874953E+03 0.91188000E+02 0.0000E+00 0.9000E+01
      -11  1    4    4    0    0 0.19539509E+02 -.12644826E+03 0.58608423E+03 0.59988806E+03 0.51099893E-03 0.0000E+00 0.9000E+01
       11  1    4    4    0    0 0.92124311E+02 -.73162990E+02 0.49725428E+03 0.51098095E+03 0.51099893E-03 0.0000E+00 0.9000E+01
       23  1    3    3    0    0 -.80486970E+01 0.11484478E+03 -.10251198E+03 0.17910349E+03 0.91188000E+02 0.0000E+00 0.9000E+01
#aMCatNLO 1  0  0  2  2 0.15018106D+04 0.00000000D+00  -5  7  0 0.00000000D+00 0.00000000D+00 0.00000000D+00 0.00000000D+00 0.00000000D+00
  <mgrwgt>
 0.5824620294D-03    5    2    0
 0.506241917884749D+03 0.000000000000000D+00 0.000000000000000D+00 0.506241917884749D+03
 0.506241917884749D+03 0.000000000000000D+00 0.000000000000000D+00 -.506241917884749D+03
 0.172522187265937D+03 -.103615122834714D+03 0.847664675902658D+02 -.593902857985947D+02
 0.252279511802887D+03 0.195395092173833D+02 -.126448257163479D+03 0.217425844635282D+03
 0.216985647622568D+03 0.921243106487047D+02 -.731629900450782D+02 0.182326793284339D+03
 0.370696489078106D+03 -.804869703137430D+01 0.114844779618291D+03 -.340362352121026D+03
 0.000000000000000D+00 0.000000000000000D+00 -.000000000000000D+00 -.000000000000000D+00
 0.143850650811855D+04 0.000000000000000D+00 0.000000000000000D+00 0.143850650811855D+04
 0.196372857967054D+04 0.000000000000000D+00 0.000000000000000D+00 -.196372857967054D+04
 0.499310199968110D+03 -.306072796393608D+03 0.379193435740589D+03 -.593902857985947D+02
 0.280333180469140D+03 -.140964105425667D+03 0.106966420610018D+03 0.217425844635282D+03
 0.221319268831271D+03 -.399595176704501D+02 0.118921806890929D+03 0.182326793284339D+03
 0.810268580764045D+03 -.363934249942751D+03 0.632396436269711D+03 -.340362352121026D+03
 0.159100385775652D+04 0.850930669432475D+03 -.123747809951125D+04 -.525222071551990D+03
0.178039993329D-03 0.000000000000D+00 0.000000000000D+00 0.165579266504D-08 0.000000000000D+00  7 -1 1 23 -11 11 23 21 0 0.19664992D+00 0.30845777D-01 0.76849236D+05 0.76849236D+05 0.76849236D+05 0.11312292D+01  1  2  2  2  7  2        1 0.522366443243D-03 0.100000000000D+01
-.552968358076D-05 0.000000000000D+00 -.683720453389D-06 0.165579266504D-08 0.000000000000D+00  7 -1 1 23 -11 11 23 21 2 0.19664992D+00 0.30845777D-01 0.76849236D+05 0.76849236D+05 0.76849236D+05 0.11312292D+01  1  2  3  2  7  2        1 -.207615231066D-04 0.100000000000D+01
0.111552656256D-04 0.000000000000D+00 0.000000000000D+00 0.165579266504D-08 0.000000000000D+00  7 -1 1 23 -11 11 23 21 2 0.19664992D+00 0.30845777D-01 0.76849236D+05 0.76849236D+05 0.76849236D+05 0.11312292D+01  1  2 15  2  7  2        1 0.418831026520D-04 0.100000000000D+01
0.508439903170D-03 0.000000000000D+00 -.139372396685D-03 0.165579266504D-08 0.000000000000D+00  7 -1 1 23 -11 11 23 21 2 0.19664992D+00 0.32745938D+00 0.76849236D+05 0.76849236D+05 0.76849236D+05 0.11312292D+01  1  2  5  2  7  2        1 0.349972318411D-04 0.100000000000D+01
0.118330938589D-03 0.000000000000D+00 -.389174042322D-04 0.165579266504D-08 0.000000000000D+00  7 -1 21 23 -11 11 23 -1 2 0.19664992D+00 0.32745938D+00 0.76849236D+05 0.76849236D+05 0.76849236D+05 0.11312292D+01  1  2  5  4  7  2        1 0.397677478289D-05 0.100000000000D+01
  </mgrwgt>
  </event>
  <event>
  9     66 0.58687835E-06 0.16728073E+03 0.75467711E-02 0.10659651E+00
       -1 -1    0    0    0  501 0.00000000E+00 0.00000000E+00 0.12001586E+03 0.12001629E+03 0.32000000E+00 0.0000E+00 0.9000E+01
        1 -1    0    0  502    0 0.00000000E+00 0.00000000E+00 -.51964701E+03 0.51964711E+03 0.32000000E+00 0.0000E+00 0.9000E+01
       25  2    1    2    0    0 -.54357116E+02 0.38981765E+02 -.30956427E+03 0.43694584E+03 0.30102717E+03 0.0000E+00 0.0000E+00
       23  2    1    2    0    0 0.16643813E+02 -.75182233E+02 -.91883097E+02 0.15040477E+03 0.90827892E+02 0.0000E+00 0.0000E+00
       23  1    3    3    0    0 -.49652531E+01 0.85068011E+02 -.20597899E+02 0.12649405E+03 0.91188000E+02 0.0000E+00 0.9000E+01
      -11  1    4    4    0    0 0.41433141E+02 -.32434939E+02 -.85754802E+02 0.10061121E+03 0.51099893E-03 0.0000E+00 0.9000E+01
       11  1    4    4    0    0 -.24789329E+02 -.42747294E+02 -.61282954E+01 0.49793553E+02 0.51099893E-03 0.0000E+00 0.9000E+01
       23  1    3    3    0    0 -.49391863E+02 -.46086246E+02 -.28896637E+03 0.31045178E+03 0.91188000E+02 0.0000E+00 0.9000E+01
       21  1    1    2  502  501 0.37713304E+02 0.36200468E+02 0.18162119E+01 0.52312793E+02 0.75000000E+00 0.0000E+00 0.9000E+01
#aMCatNLO 2  0  0  2  2 0.52275875D+02 0.00000000D+00  -5  7  0 0.00000000D+00 0.00000000D+00 0.00000000D+00 0.00000000D+00 0.00000000D+00
  <mgrwgt>
 0.2313907804D-04    1    2    0
 0.212772166770934D+03 0.000000000000000D+00 0.000000000000000D+00 0.212772166770934D+03
 0.212772166770934D+03 0.000000000000000D+00 0.000000000000000D+00 -.212772166770934D+03
 0.161956406379009D+03 0.898302646378147D+01 0.984567678920925D+02 0.902230364984253D+02
 0.588809140954433D+02 0.465724565971835D+02 -.275017832836530D+02 -.232727361399001D+02
 0.571120894113327D+02 -.195100109096749D+02 -.376797515363732D+02 0.382280859498565D+02
 0.147594923656083D+03 -.360454721512901D+02 -.332752330720663D+02 -.105178386308382D+03
 0.000000000000000D+00 0.000000000000000D+00 0.000000000000000D+00 0.000000000000000D+00
 0.276787403215549D+03 0.000000000000000D+00 0.000000000000000D+00 0.276787403215549D+03
 0.225317424728635D+03 0.000000000000000D+00 0.000000000000000D+00 -.225317424728635D+03
 0.154002168583909D+03 -.496525321919823D+01 0.850680112029186D+02 0.902230364984253D+02
 0.575356475725446D+02 0.414331412231142D+02 -.324349395334742D+02 -.232727361399001D+02
 0.624758233069258D+02 -.247893284705095D+02 -.427472939081504D+02 0.382280859498565D+02
 0.154729578493557D+03 -.493918632454254D+02 -.460862454047186D+02 -.105178386308382D+03
 0.733616099872470D+02 0.377133037120190D+02 0.362004676434245D+02 0.514699784869134D+02
0.156521563164D-06 0.000000000000D+00 0.000000000000D+00 0.252422134818D-07 0.670704416616D-10  7 -1 1 23 -11 11 23 21 2 0.18463867D-01 0.79945077D-01 0.38533673D+05 0.38533673D+05 0.38533673D+05 0.11573812D+01  1  2  1  2  7  2        1 0.231390780352D-04 0.100000000000D+01
  </mgrwgt>
  </event>
  <event>
  9     66 0.58687835E-06 0.21419586E+03 0.75467711E-02 0.98525109E-01
       -1 -1    0    0    0  502 0.00000000E+00 0.00000000E+00 0.16823032E+03 0.16823063E+03 0.32000000E+00 0.0000E+00 0.9000E+01
        1 -1    0    0  501    0 0.00000000E+00 0.00000000E+00 -.14314155E+04 0.14314155E+04 0.32000000E+00 0.0000E+00 0.9000E+01
       25  2    1    2    0    0 0.63459129E+02 0.25848241E+03 -.21161772E+03 0.45396557E+03 0.30076978E+03 0.0000E+00 0.0000E+00
       23  2    1    2    0    0 -.38680576E+02 -.68873209E+01 -.73315210E+03 0.73910591E+03 0.84981958E+02 0.0000E+00 0.0000E+00
       23  1    3    3    0    0 0.14315983E+03 0.10921164E+03 -.64447723E+02 0.21187421E+03 0.91188000E+02 0.0000E+00 0.9000E+01
      -13  1    4    4    0    0 -.31536252E+02 -.32607594E+02 -.19162036E+03 0.19691664E+03 0.10565837E+00 0.0000E+00 0.9000E+01
       13  1    4    4    0    0 -.71443244E+01 0.25720273E+02 -.54153173E+03 0.54218927E+03 0.10565837E+00 0.0000E+00 0.9000E+01
       23  1    3    3    0    0 -.79700705E+02 0.14927077E+03 -.14717000E+03 0.24209136E+03 0.91188000E+02 0.0000E+00 0.9000E+01
       21  1    1    2  501  502 -.24778553E+02 -.25159509E+03 -.31841535E+03 0.40657467E+03 0.75000000E+00 0.0000E+00 0.9000E+01
#aMCatNLO 2  0  0  1  2 0.25281232D+03 0.00000000D+00  -5  7  0 0.00000000D+00 0.00000000D+00 0.00000000D+00 0.00000000D+00 0.00000000D+00
  <mgrwgt>
 0.3370177368D-04    1    2    0
 0.341656071325322D+03 0.000000000000000D+00 0.000000000000000D+00 0.341656071325322D+03
 0.341656071325322D+03 0.000000000000000D+00 0.000000000000000D+00 -.341656071325322D+03
 0.235424480991268D+03 0.134405889180488D+03 0.203263326589561D+02 0.169207955073772D+03
 0.920278232517107D+02 -.344496589511394D+02 -.621892943241371D+02 -.584365717856904D+02
 0.188718658635549D+03 -.137140974737623D+02 -.409878139748966D+02 -.183702625874646D+03
 0.167141179772116D+03 -.862421327555866D+02 0.828507756400776D+02 0.729312425865640D+02
 0.000000000000000D+00 -.000000000000000D+00 -.000000000000000D+00 0.000000000000000D+00
 0.493630679825563D+03 0.000000000000000D+00 0.000000000000000D+00 0.493630679825563D+03
 0.487828709433863D+03 0.000000000000000D+00 0.000000000000000D+00 -.487828709433863D+03
 0.263379010670371D+03 0.143159832745331D+03 0.109211639241358D+03 0.169207955073772D+03
 0.739772364361402D+02 -.315362893611535D+02 -.326076837876297D+02 -.584365717856904D+02
 0.185631981746851D+03 -.714428704911251D+01 0.257203626837375D+02 -.183702625874646D+03
 0.205592275775570D+03 -.797007037376704D+02 0.149270774745353D+03 0.729312425865640D+02
 0.252878884630493D+03 -.247785525973949D+02 -.251595092882819D+03 0.580197039169989D+01
0.234447870560D-05 0.000000000000D+00 0.000000000000D+00 0.141194084432D-07 0.159581959984D-11  7 -1 1 23 -13 13 23 21 2 0.25881585D-01 0.22021754D+00 0.12921356D+06 0.12921356D+06 0.12921356D+06 0.11127008D+01  1  2  1  1  7  1       -1 0.337017736766D-04 0.100000000000D+01
  </mgrwgt>
  </event>
  <event>
  8     66 0.58687835E-06 0.69268708E+02 0.75467711E-02 0.10330743E+00
       -1 -1    0    0    0  501 0.00000000E+00 0.00000000E+00 0.56255360E+02 0.56256270E+02 0.32000000E+00 0.0000E+00 0.9000E+01
        1 -1    0    0  501    0 0.00000000E+00 0.00000000E+00 -.17444642E+04 0.17444643E+04 0.32000000E+00 0.0000E+00 0.9000E+01
       25  2    1    2    0    0 0.17934142E+01 0.58493270E+02 -.37844892E+03 0.48650358E+03 0.30006244E+03 0.0000E+00 0.0000E+00
       23  2    1    2    0    0 -.17934142E+01 -.58493270E+02 -.13097599E+04 0.13142169E+04 0.90941650E+02 0.0000E+00 0.0000E+00
       23  1    3    3    0    0 -.75555985E+02 -.59801050E+02 -.21043795E+03 0.24876546E+03 0.91188000E+02 0.0000E+00 0.9000E+01
      -13  1    4    4    0    0 -.22426239E+02 -.73282526E+01 -.84959316E+02 0.88174463E+02 0.10565837E+00 0.0000E+00 0.9000E+01
       13  1    4    4    0    0 0.20632824E+02 -.51165017E+02 -.12248006E+04 0.12260425E+04 0.10565837E+00 0.0000E+00 0.9000E+01
       23  1    3    3    0    0 0.77349399E+02 0.11829432E+03 -.16801097E+03 0.23773812E+03 0.91188000E+02 0.0000E+00 0.9000E+01
#aMCatNLO 1  0  0  1  2 0.99614314D+02 0.00000000D+00  -5  7  0 0.00000000D+00 0.00000000D+00 0.00000000D+00 0.00000000D+00 0.00000000D+00
  <mgrwgt>
 0.1783799921D-03    9    2    0
 0.313267151767888D+03 0.000000000000000D+00 0.000000000000000D+00 0.313267151767888D+03
 0.313267151767888D+03 0.000000000000000D+00 0.000000000000000D+00 -.313267151767888D+03
 0.147946980941520D+03 -.755559847621331D+02 -.598010495981061D+02 0.654842382508932D+02
 0.244971857108193D+02 -.224262965817599D+02 -.732819342776495D+01 -.659324733819176D+01
 0.223516487937301D+03 0.206328824256980D+02 -.511650766835366D+02 -.216601106808347D+03
 0.230573648946135D+03 0.773493989181950D+02 0.118294319709408D+03 0.157710115895645D+03
 0.000000000000000D+00 0.000000000000000D+00 0.000000000000000D+00 0.000000000000000D+00
 0.397736275003692D+03 0.000000000000000D+00 0.000000000000000D+00 0.397736275003692D+03
 0.348005586957554D+03 0.000000000000000D+00 0.000000000000000D+00 -.348005586957554D+03
 0.164933586623744D+03 -.922744242075084D+02 -.780069345022935D+02 0.654842382508932D+02
 0.280747644395675D+02 -.252354226708425D+02 -.103872484565723D+02 -.659324733819176D+01
 0.230096892101453D+03 -.360546476474557D+01 -.775599181792850D+02 -.216601106808347D+03
 0.211298606960062D+03 0.537384261740403D+02 0.925826703858881D+02 0.157710115895645D+03
 0.111338011836420D+03 0.673768854690561D+02 0.733714307522626D+02 0.497306880461383D+02
0.457552864689D-05 0.000000000000D+00 0.000000000000D+00 0.139349785765D-05 0.000000000000D+00  7 -1 1 23 -13 13 23 21 0 0.86547430D-02 0.26837918D+00 0.36029508D+05 0.36029508D+05 0.36029508D+05 0.11600275D+01  1  2  2  1  7  1       -1 0.190812254011D-03 0.100000000000D+01
-.176617367949D-06 0.000000000000D+00 -.175712347684D-07 0.139349785765D-05 0.000000000000D+00  7 -1 1 23 -13 13 23 21 2 0.86547430D-02 0.26837918D+00 0.36029508D+05 0.36029508D+05 0.36029508D+05 0.11600275D+01  1  2  3  1  7  1       -1 -.991139884465D-05 0.100000000000D+01
0.285712431106D-06 0.000000000000D+00 0.000000000000D+00 0.139349785765D-05 0.000000000000D+00  7 -1 1 23 -13 13 23 21 2 0.86547430D-02 0.26837918D+00 0.36029508D+05 0.36029508D+05 0.36029508D+05 0.11600275D+01  1  2 15  1  7  1       -1 0.160335865745D-04 0.100000000000D+01
0.214288659113D-05 0.000000000000D+00 0.000000000000D+00 0.139349785765D-05 0.000000000000D+00  7 -1 1 23 -13 13 23 21 2 0.11367831D-01 0.26837918D+00 0.61639614D+05 0.61639614D+05 0.61639614D+05 0.11393855D+01  1  2 12  1  7  1       -1 0.757295658440D-04 0.100000000000D+01
-.372116544856D-05 0.000000000000D+00 0.000000000000D+00 0.139349785765D-05 0.000000000000D+00  7 -1 1 23 -13 13 23 21 2 0.86547430D-02 0.26837918D+00 0.36029508D+05 0.36029508D+05 0.36029508D+05 0.11600275D+01  1  2  4  1  7  1       -1 -.208824054824D-03 0.100000000000D+01
-.421677911615D-05 0.000000000000D+00 -.215937764627D-05 0.139349785765D-05 0.000000000000D+00  7 -1 1 23 -13 13 23 21 2 0.12336563D-01 0.26837918D+00 0.36029508D+05 0.36029508D+05 0.36029508D+05 0.11600275D+01  1  2  5  1  7  1       -1 -.138110584185D-03 0.100000000000D+01
0.480599812472D-05 0.000000000000D+00 0.203047987633D-05 0.139349785765D-05 0.000000000000D+00  7 -1 1 23 -13 13 23 21 2 0.86547430D-02 0.26837918D+00 0.36029508D+05 0.36029508D+05 0.36029508D+05 0.11600275D+01  1  2  6  1  7  1       -1 0.269702605207D-03 0.100000000000D+01
0.772898810311D-07 0.000000000000D+00 0.000000000000D+00 0.139349785765D-05 0.000000000000D+00  7 21 1 23 -13 13 23 1 2 0.11367831D-01 0.26837918D+00 0.61639614D+05 0.61639614D+05 0.61639614D+05 0.11393855D+01  1  2 12  3  7  1       -1 0.377197691580D-04 0.100000000000D+01
-.121629902694D-06 0.000000000000D+00 -.941388168899D-07 0.139349785765D-05 0.000000000000D+00  7 21 1 23 -13 13 23 1 2 0.12336563D-01 0.26837918D+00 0.36029508D+05 0.36029508D+05 0.36029508D+05 0.11600275D+01  1  2  5  3  7  1       -1 -.547717508417D-04 0.100000000000D+01
  </mgrwgt>
  </event>
  <event>
  8     66 0.58687835E-06 0.26550669E+03 0.75467711E-02 0.98586947E-01
       -1 -1    0    0    0  501 0.00000000E+00 0.00000000E+00 0.11406672E+03 0.11406717E+03 0.32000000E+00 0.0000E+00 0.9000E+01
        1 -1    0    0  501    0 0.00000000E+00 0.00000000E+00 -.93119479E+03 0.93119485E+03 0.32000000E+00 0.0000E+00 0.9000E+01
       25  2    1    2    0    0 0.50597752E+02 -.16101630E+03 -.77636009E+03 0.84886683E+03 0.29892058E+03 0.0000E+00 0.0000E+00
       23  2    1    2    0    0 -.50597752E+02 0.16101630E+03 -.40767978E+02 0.19639519E+03 0.91775061E+02 0.0000E+00 0.0000E+00
       23  1    3    3    0    0 0.14297670E+03 -.64422323E+02 -.41903236E+03 0.45661356E+03 0.91188000E+02 0.0000E+00 0.9000E+01
      -13  1    4    4    0    0 -.21726442E+02 -.24013411E+01 0.82414972E+01 0.23361040E+02 0.10565837E+00 0.0000E+00 0.9000E+01
       13  1    4    4    0    0 -.28871309E+02 0.16341764E+03 -.49009475E+02 0.17303415E+03 0.10565837E+00 0.0000E+00 0.9000E+01
       23  1    3    3    0    0 -.92378944E+02 -.96593978E+02 -.35732773E+03 0.39225327E+03 0.91188000E+02 0.0000E+00 0.9000E+01
#aMCatNLO 1  0  0  2  1 0.15887870D+03 0.00000000D+00  -5  7  0 0.00000000D+00 0.00000000D+00 0.00000000D+00 0.00000000D+00 0.00000000D+00
  <mgrwgt>
 0.1338339003D-03    4    2    0
 0.325911951217482D+03 0.000000000000000D+00 0.000000000000000D+00 0.325911951217482D+03
 0.325911951217482D+03 0.000000000000000D+00 0.000000000000000D+00 -.325911951217482D+03
 0.206923532681443D+03 0.142976695024163D+03 -.644223227668296D+02 -.995466023662388D+02
 0.477930013127292D+02 -.217264326511018D+02 -.240156045455967D+01 0.425013600502239D+02
 0.216038647767694D+03 -.288713190263685D+02 0.163417860893385D+03 0.138324788118405D+03
 0.181068720673098D+03 -.923789433466931D+02 -.965939776719952D+02 -.812795458023900D+02
 0.000000000000000D+00 -.000000000000000D+00 -.000000000000000D+00 0.000000000000000D+00
 0.420055244444950D+03 0.000000000000000D+00 0.000000000000000D+00 0.420055244444950D+03
 0.410045906869294D+03 0.000000000000000D+00 0.000000000000000D+00 -.410045906869294D+03
 0.205483889160120D+03 0.154072033622270D+03 -.161449612326720D+02 -.995466023662388D+02
 0.474355892839121D+02 -.191644189701352D+02 0.874611743177219D+01 0.425013600502239D+02
 0.259607629437083D+03 -.160746131015574D+02 0.219098108315830D+03 0.138324788118405D+03
 0.158380366826397D+03 -.832464632719959D+02 -.568572865948188D+02 -.812795458023900D+02
 0.159193676606732D+03 -.355865382785816D+02 -.154841977920112D+03 0.100093375756560D+02
0.447537532811D-05 0.000000000000D+00 0.000000000000D+00 0.115215154681D-06 0.000000000000D+00  7 -1 1 23 -13 13 23 21 0 0.17548765D-01 0.14326078D+00 0.70493804D+05 0.70493804D+05 0.70493804D+05 0.11344002D+01  1  2  2  2  7  2        1 0.223167410380D-03 0.100000000000D+01
-.235929381679D-06 0.000000000000D+00 -.171866196533D-07 0.115215154681D-06 0.000000000000D+00  7 -1 1 23 -13 13 23 21 2 0.17548765D-01 0.14326078D+00 0.70493804D+05 0.70493804D+05 0.70493804D+05 0.11344002D+01  1  2  3  2  7  2        1 -.151396528465D-04 0.100000000000D+01
0.293729291745D-06 0.000000000000D+00 0.000000000000D+00 0.115215154681D-06 0.000000000000D+00  7 -1 1 23 -13 13 23 21 2 0.17548765D-01 0.14326078D+00 0.70493804D+05 0.70493804D+05 0.70493804D+05 0.11344002D+01  1  2 15  2  7  2        1 0.188486888586D-04 0.100000000000D+01
-.144993221413D-05 0.000000000000D+00 0.000000000000D+00 0.115215154681D-06 0.000000000000D+00  7 -1 1 23 -13 13 23 21 2 0.17548765D-01 0.14326078D+00 0.70493804D+05 0.70493804D+05 0.70493804D+05 0.11344002D+01  1  2  4  2  7  2        1 -.930425461069D-04 0.100000000000D+01
  </mgrwgt>
  </event>
  <event>
  8     66 0.58687835E-06 0.21362017E+03 0.75467711E-02 0.99911387E-01
       -1 -1    0    0    0  501 0.00000000E+00 0.00000000E+00 0.55574924E+02 0.55575845E+02 0.32000000E+00 0.0000E+00 0.9000E+01
        1 -1    0    0  501    0 0.00000000E+00 0.00000000E+00 -.14952691E+04 0.14952691E+04 0.32000000E+00 0.0000E+00 0.9000E+01
       25  2    1    2    0    0 0.83204988E+02 0.13629790E+03 -.12069571E+04 0.12540046E+04 0.30046956E+03 0.0000E+00 0.0000E+00
       23  2    1    2    0    0 -.83204988E+02 -.13629790E+03 -.23273709E+03 0.29684037E+03 0.91910096E+02 0.0000E+00 0.0000E+00
       23  1    3    3    0    0 0.72031536E+02 0.45635812E+02 -.10152400E+04 0.10228874E+04 0.91188000E+02 0.0000E+00 0.9000E+01
      -13  1    4    4    0    0 -.32668114E+02 -.55355399E+01 -.93744456E+02 0.99427773E+02 0.10565837E+00 0.0000E+00 0.9000E+01
       13  1    4    4    0    0 -.50536874E+02 -.13076236E+03 -.13899263E+03 0.19741260E+03 0.10565837E+00 0.0000E+00 0.9000E+01
       23  1    3    3    0    0 0.11173453E+02 0.90662090E+02 -.19171710E+03 0.23111719E+03 0.91188000E+02 0.0000E+00 0.9000E+01
#aMCatNLO 1  0  0  1  2 0.19062934D+03 0.00000000D+00  -5  7  0 0.00000000D+00 0.00000000D+00 0.00000000D+00 0.00000000D+00 0.00000000D+00
  <mgrwgt>
 0.2234303648D-03    3    2    0
 0.288271066372014D+03 0.000000000000000D+00 0.000000000000000D+00 0.288271066372014D+03
 0.288271066372014D+03 0.000000000000000D+00 0.000000000000000D+00 -.288271066372014D+03
 0.216297650193421D+03 0.720315361186367D+02 0.456358126285948D+02 -.176630270750268D+03
 0.333602681562662D+02 -.326680893931321D+02 -.553537561099585D+01 -.388111371973473D+01
 0.183940710974270D+03 -.505368995707295D+02 -.130762527650752D+03 0.119085550332038D+03
 0.142943503420070D+03 0.111734528452249D+02 0.906620906331535D+02 0.614258341379654D+02
 0.000000000000000D+00 0.000000000000000D+00 0.000000000000000D+00 -.000000000000000D+00
 0.347634265409618D+03 0.000000000000000D+00 0.000000000000000D+00 0.347634265409618D+03
 0.510027657172067D+03 0.000000000000000D+00 0.000000000000000D+00 -.510027657172067D+03
 0.200852018841501D+03 0.725461872412561D+01 0.278460067255827D+02 -.176630270750268D+03
 0.460370247790205D+02 -.449972658676465D+02 -.892136039149701D+01 -.388111371973473D+01
 0.221297575503158D+03 -.113464162749366D+03 -.148044359559144D+03 0.119085550332038D+03
 0.139053345227324D+03 -.326163135774722D+02 0.786360252300470D+02 0.614258341379654D+02
 0.250421958230681D+03 0.183823123470359D+03 0.504836879950112D+02 -.162393391762449D+03
0.356797661379D-05 0.000000000000D+00 0.000000000000D+00 0.260994871469D-06 0.000000000000D+00  7 -1 1 23 -13 13 23 21 0 0.85500618D-02 0.23004148D+00 0.45633576D+05 0.45633576D+05 0.45633576D+05 0.11508026D+01  1  2  2  1  7  1       -1 0.218929356412D-03 0.100000000000D+01
-.176573337646D-06 0.000000000000D+00 -.137019696668D-07 0.260994871469D-06 0.000000000000D+00  7 -1 1 23 -13 13 23 21 2 0.85500618D-02 0.23004148D+00 0.45633576D+05 0.45633576D+05 0.45633576D+05 0.11508026D+01  1  2  3  1  7  1       -1 -.143485745576D-04 0.100000000000D+01
0.231962678138D-06 0.000000000000D+00 0.000000000000D+00 0.260994871469D-06 0.000000000000D+00  7 -1 1 23 -13 13 23 21 2 0.85500618D-02 0.23004148D+00 0.45633576D+05 0.45633576D+05 0.45633576D+05 0.11508026D+01  1  2 15  1  7  1       -1 0.188495829905D-04 0.100000000000D+01
  </mgrwgt>
  </event>
  <event>
  8     66 0.58687835E-06 0.29271597E+03 0.75467711E-02 0.92022850E-01
       -1 -1    0    0    0  501 0.00000000E+00 0.00000000E+00 0.10005878E+03 0.10005929E+03 0.32000000E+00 0.0000E+00 0.9000E+01
        1 -1    0    0  501    0 0.00000000E+00 0.00000000E+00 -.16616525E+04 0.16616525E+04 0.32000000E+00 0.0000E+00 0.9000E+01
       25  2    1    2    0    0 -.25600399E+03 -.41804454E+02 -.13704424E+04 0.14266202E+04 0.29974523E+03 0.0000E+00 0.0000E+00
       23  2    1    2    0    0 0.25600399E+03 0.41804454E+02 -.19115128E+03 0.33509157E+03 0.91988545E+02 0.0000E+00 0.0000E+00
       23  1    3    3    0    0 -.18066300E+03 -.46415786E+02 -.12074842E+04 0.12252048E+04 0.91188000E+02 0.0000E+00 0.9000E+01
      -11  1    4    4    0    0 0.36609678E+02 0.74940236E+01 -.76591906E+02 0.85221764E+02 0.51099893E-03 0.0000E+00 0.9000E+01
       11  1    4    4    0    0 0.21939431E+03 0.34310430E+02 -.11455938E+03 0.24986981E+03 0.51099893E-03 0.0000E+00 0.9000E+01
       23  1    3    3    0    0 -.75340987E+02 0.46113322E+01 -.16295823E+03 0.20141540E+03 0.91188000E+02 0.0000E+00 0.9000E+01
#aMCatNLO 1  0  0  1  1 0.50003879D+03 0.00000000D+00  -5  7  0 0.00000000D+00 0.00000000D+00 0.00000000D+00 0.00000000D+00 0.00000000D+00
  <mgrwgt>
 0.2603166687D-03    3    2    0
 0.407754083733163D+03 0.000000000000000D+00 0.000000000000000D+00 0.407754083733163D+03
 0.407754083733163D+03 0.000000000000000D+00 0.000000000000000D+00 -.407754083733163D+03
 0.334586583756796D+03 -.180663001333777D+03 -.464157857549300D+02 -.262372608074599D+03
 0.374376981256794D+02 0.366096784399413D+02 0.749402362258219D+01 -.226986682820235D+01
 0.320417861618535D+03 0.219394310025765D+03 0.343104299503453D+02 0.230990339990952D+03
 0.123066023965315D+03 -.753409871319293D+02 0.461133218200255D+01 0.336521349118490D+02
 0.000000000000000D+00 0.000000000000000D+00 0.000000000000000D+00 -.000000000000000D+00
 0.654920730953665D+03 0.000000000000000D+00 0.000000000000000D+00 0.654920730953665D+03
 0.832227408548954D+03 0.000000000000000D+00 0.000000000000000D+00 -.832227408548954D+03
 0.458525441172423D+03 -.260373295659869D+03 -.255532170768607D+03 -.262372608074599D+03
 0.316259663606932D+02 0.296685593414906D+02 -.107156912716998D+02 -.226986682820235D+01
 0.308282664473452D+03 0.156207897006453D+03 -.131456292959053D+03 0.230990339990952D+03
 0.158170527943407D+03 -.103606159797670D+03 -.695410816262639D+02 0.336521349118490D+02
 0.530543539552644D+03 0.178102999109595D+03 0.467245236625624D+03 -.177306677595289D+03
0.133762173248D-04 0.000000000000D+00 0.000000000000D+00 0.977430185386D-06 0.000000000000D+00  7 -1 1 23 -11 11 23 21 0 0.15393700D-01 0.25563889D+00 0.85682642D+05 0.85682642D+05 0.85682642D+05 0.11272709D+01  1  2  2  1  7  1       -1 0.255221591750D-03 0.100000000000D+01
-.643855369874D-06 0.000000000000D+00 -.513681965660D-07 0.977430185386D-06 0.000000000000D+00  7 -1 1 23 -11 11 23 21 2 0.15393700D-01 0.25563889D+00 0.85682642D+05 0.85682642D+05 0.85682642D+05 0.11272709D+01  1  2  3  1  7  1       -1 -.156109388169D-04 0.100000000000D+01
0.853996007547D-06 0.000000000000D+00 0.000000000000D+00 0.977430185386D-06 0.000000000000D+00  7 -1 1 23 -11 11 23 21 2 0.15393700D-01 0.25563889D+00 0.85682642D+05 0.85682642D+05 0.85682642D+05 0.11272709D+01  1  2 15  1  7  1       -1 0.207060157412D-04 0.100000000000D+01
  </mgrwgt>
  </event>
  <event>
  8     66 0.58687835E-06 0.48019545E+03 0.75467711E-02 0.91029244E-01
       -1 -1    0    0    0  501 0.00000000E+00 0.00000000E+00 0.18675656E+04 0.18675657E+04 0.32000000E+00 0.0000E+00 0.9000E+01
        1 -1    0    0  501    0 0.00000000E+00 0.00000000E+00 -.13322307E+03 0.13322345E+03 0.32000000E+00 0.0000E+00 0.9000E+01
       25  2    1    2    0    0 -.31488502E+03 -.31017859E+03 0.78216445E+03 0.94697324E+03 0.29935558E+03 0.0000E+00 0.0000E+00
       23  2    1    2    0    0 0.31488502E+03 0.31017859E+03 0.95217811E+03 0.10538159E+04 0.92311425E+02 0.0000E+00 0.0000E+00
       23  1    3    3    0    0 -.88438688E+01 -.97468559E+02 0.31641860E+03 0.34353212E+03 0.91188000E+02 0.0000E+00 0.9000E+01
      -13  1    4    4    0    0 0.25148035E+03 0.23081093E+03 0.63730568E+03 0.72296237E+03 0.10565837E+00 0.0000E+00 0.9000E+01
       13  1    4    4    0    0 0.63404667E+02 0.79367664E+02 0.31487243E+03 0.33085350E+03 0.10565837E+00 0.0000E+00 0.9000E+01
       23  1    3    3    0    0 -.30604115E+03 -.21271003E+03 0.46574584E+03 0.60344112E+03 0.91188000E+02 0.0000E+00 0.9000E+01
#aMCatNLO 1  0  0  1  1 0.36584792D+03 0.00000000D+00  -5  7  0 0.00000000D+00 0.00000000D+00 0.00000000D+00 0.00000000D+00 0.00000000D+00
  <mgrwgt>
 0.3496486412D-03    6    2    0
 0.498801800305489D+03 0.000000000000000D+00 0.000000000000000D+00 0.498801800305489D+03
 0.498801800305489D+03 0.000000000000000D+00 0.000000000000000D+00 -.498801800305489D+03
 0.138889910668398D+03 -.884386880471595D+01 -.974685588775726D+02 0.373740813448245D+02
 0.342008758749969D+03 0.251480594877254D+03 0.230811124161599D+03 0.213008550329718D+02
 0.116149461906116D+03 0.634044206902193D+02 0.793674660686755D+02 0.563150270163795D+02
 0.400555469286496D+03 -.306041146762757D+03 -.212710031352701D+03 -.114989963394176D+03
 0.000000000000000D+00 -.000000000000000D+00 -.000000000000000D+00 0.000000000000000D+00
 0.733438028948162D+03 0.000000000000000D+00 0.000000000000000D+00 0.733438028948162D+03
 0.696810111210016D+03 0.000000000000000D+00 0.000000000000000D+00 -.696810111210016D+03
 0.112044354613431D+03 -.507048404086990D+01 -.530674504000529D+02 0.373740813448245D+02
 0.456431700706711D+03 0.263487018396849D+03 0.372089723213667D+03 0.213008550329718D+02
 0.154684135709074D+03 0.674770385514388D+02 0.127289625816620D+03 0.563150270163795D+02
 0.339411049819918D+03 -.294914015974874D+03 -.817779976279484D+02 -.114989963394176D+03
 0.367676899309044D+03 -.309795569325441D+02 -.364533901002286D+03 0.366279177381465D+02
0.258275165744D-03 0.000000000000D+00 0.000000000000D+00 0.491363917476D-06 0.000000000000D+00  7 -1 1 23 -13 13 23 21 0 0.28731782D+00 0.20495888D-01 0.23058767D+06 0.23058767D+06 0.23058767D+06 0.10931098D+01  1  2  2  1  7  1       -1 0.218628590122D-03 0.100000000000D+01
-.143234078426D-04 0.000000000000D+00 -.991844641871D-06 0.491363917476D-06 0.000000000000D+00  7 -1 1 23 -13 13 23 21 2 0.28731782D+00 0.20495888D-01 0.23058767D+06 0.23058767D+06 0.23058767D+06 0.10931098D+01  1  2  3  1  7  1       -1 -.144876605926D-04 0.100000000000D+01
0.168729002827D-04 0.000000000000D+00 0.000000000000D+00 0.491363917476D-06 0.000000000000D+00  7 -1 1 23 -13 13 23 21 2 0.28731782D+00 0.20495888D-01 0.23058767D+06 0.23058767D+06 0.23058767D+06 0.10931098D+01  1  2 15  1  7  1       -1 0.170663891718D-04 0.100000000000D+01
-.103228907831D-03 0.000000000000D+00 -.692743868880D-04 0.491363917476D-06 0.000000000000D+00  7 -1 1 23 -13 13 23 21 2 0.48158689D+00 0.20495888D-01 0.23058767D+06 0.23058767D+06 0.23058767D+06 0.10931098D+01  1  2  5  1  7  1       -1 -.161347308424D-05 0.100000000000D+01
0.129642394840D-03 0.000000000000D+00 0.609607609607D-04 0.491363917476D-06 0.000000000000D+00  7 -1 1 23 -13 13 23 21 2 0.28731782D+00 0.20495888D-01 0.23058767D+06 0.23058767D+06 0.23058767D+06 0.10931098D+01  1  2  6  1  7  1       -1 0.131129060591D-03 0.100000000000D+01
-.273431109412D-05 0.000000000000D+00 -.400848427641D-05 0.491363917476D-06 0.000000000000D+00  7 21 1 23 -13 13 23 1 2 0.48158689D+00 0.20495888D-01 0.23058767D+06 0.23058767D+06 0.23058767D+06 0.10931098D+01  1  2  5  3  7  1       -1 -.107426503129D-05 0.100000000000D+01
  </mgrwgt>
  </event>
  <event>
  8     66 0.58687835E-06 0.19288709E+03 0.75467711E-02 0.10527946E+00
       -1 -1    0    0    0  501 0.00000000E+00 0.00000000E+00 0.71260601E+03 0.71260608E+03 0.32000000E+00 0.0000E+00 0.9000E+01
        1 -1    0    0  501    0 0.00000000E+00 0.00000000E+00 -.72195991E+02 0.72196700E+02 0.32000000E+00 0.0000E+00 0.9000E+01
       25  2    1    2    0    0 0.75298519E+02 0.23964699E+02 0.56263725E+03 0.64223768E+03 0.29944013E+03 0.0000E+00 0.0000E+00
       23  2    1    2    0    0 -.75298519E+02 -.23964699E+02 0.77772772E+02 0.14256510E+03 0.89621597E+02 0.0000E+00 0.0000E+00
       23  1    3    3    0    0 -.61954430E+02 -.43691729E+02 0.31974748E+03 0.34102936E+03 0.91188000E+02 0.0000E+00 0.9000E+01
      -13  1    4    4    0    0 -.79986866E+02 -.18969396E+02 0.20286106E+02 0.84671566E+02 0.10565837E+00 0.0000E+00 0.9000E+01
       13  1    4    4    0    0 0.46883474E+01 -.49953034E+01 0.57486666E+02 0.57893537E+02 0.10565837E+00 0.0000E+00 0.9000E+01
       23  1    3    3    0    0 0.13725295E+03 0.67656428E+02 0.24288976E+03 0.30120832E+03 0.91188000E+02 0.0000E+00 0.9000E+01
#aMCatNLO 1  0  0  1  1 0.39365320D+02 0.00000000D+00  -5  7  0 0.00000000D+00 0.00000000D+00 0.00000000D+00 0.00000000D+00 0.00000000D+00
  <mgrwgt>
 0.1581089710D-03    4    2    0
 0.226820641684373D+03 0.000000000000000D+00 0.000000000000000D+00 0.226820641684373D+03
 0.226820641684373D+03 0.000000000000000D+00 0.000000000000000D+00 -.226820641684373D+03
 0.138592537529378D+03 -.619544218353836D+02 -.436917261460720D+02 0.717309054470382D+02
 0.117844479213116D+03 -.799869925693428D+02 -.189694208644762D+02 -.844367418413857D+02
 0.190015829483234D+02 0.468845595389310D+01 -.499528404166480D+01 0.177235908509959D+02
 0.178202683677930D+03 0.137252958450833D+03 0.676564310522129D+02 -.501775445664842D+01
 0.000000000000000D+00 0.000000000000000D+00 0.000000000000000D+00 -.000000000000000D+00
 0.235085220570243D+03 0.000000000000000D+00 0.000000000000000D+00 0.235085220570243D+03
 0.279939276014604D+03 0.000000000000000D+00 0.000000000000000D+00 -.279939276014604D+03
 0.145419738267236D+03 -.736081009728274D+02 -.476253462836088D+02 0.717309054470382D+02
 0.125390221926381D+03 -.899674737095370D+02 -.223382643972651D+02 -.844367418413857D+02
 0.188261427982354D+02 0.313629706529173D+01 -.551920471846134D+01 0.177235908509959D+02
 0.165709965864353D+03 0.123141428736730D+03 0.628931801680787D+02 -.501775445664842D+01
 0.596784277286415D+02 0.372978488803422D+02 0.125896352312566D+02 -.448540554443603D+02
0.337062069316D-05 0.000000000000D+00 0.000000000000D+00 0.569870213556D-07 0.000000000000D+00  7 -1 1 23 -13 13 23 21 0 0.10963175D+00 0.11107136D-01 0.37205431D+05 0.37205431D+05 0.37205431D+05 0.11587603D+01  1  2  2  1  7  1       -1 0.197602153378D-03 0.100000000000D+01
-.181277527343D-06 0.000000000000D+00 -.129440709666D-07 0.569870213556D-07 0.000000000000D+00  7 -1 1 23 -13 13 23 21 2 0.10963175D+00 0.11107136D-01 0.37205431D+05 0.37205431D+05 0.37205431D+05 0.11587603D+01  1  2  3  1  7  1       -1 -.142696392092D-04 0.100000000000D+01
0.220123237603D-06 0.000000000000D+00 0.000000000000D+00 0.569870213556D-07 0.000000000000D+00  7 -1 1 23 -13 13 23 21 2 0.10963175D+00 0.11107136D-01 0.37205431D+05 0.37205431D+05 0.37205431D+05 0.11587603D+01  1  2 15  1  7  1       -1 0.173274604315D-04 0.100000000000D+01
-.540556113819D-06 0.000000000000D+00 0.000000000000D+00 0.569870213556D-07 0.000000000000D+00  7 -1 1 23 -13 13 23 21 2 0.10963175D+00 0.11107136D-01 0.37205431D+05 0.37205431D+05 0.37205431D+05 0.11587603D+01  1  2  4  1  7  1       -1 -.425510035888D-04 0.100000000000D+01
  </mgrwgt>
  </event>
  <event>
  9     66 0.58687835E-06 0.25830365E+03 0.75467711E-02 0.10020263E+00
       -1 -1    0    0    0  501 0.00000000E+00 0.00000000E+00 0.21826538E+03 0.21826562E+03 0.32000000E+00 0.0000E+00 0.9000E+01
        1 -1    0    0  502    0 0.00000000E+00 0.00000000E+00 -.55813303E+03 0.55813313E+03 0.32000000E+00 0.0000E+00 0.9000E+01
       25  2    1    2    0    0 -.96960497E+02 -.11436449E+03 -.23242247E+03 0.40865106E+03 0.30082372E+03 0.0000E+00 0.0000E+00
       23  2    1    2    0    0 0.52416090E+02 0.20405819E+03 -.11215609E+02 0.22885975E+03 0.88678098E+02 0.0000E+00 0.0000E+00
       23  1    3    3    0    0 0.13838583E+02 -.13082784E+03 -.34697867E+02 0.16378835E+03 0.91188000E+02 0.0000E+00 0.9000E+01
      -11  1    4    4    0    0 0.61481254E+02 0.85783221E+02 0.17071366E+02 0.10691182E+03 0.51099893E-03 0.0000E+00 0.9000E+01
       11  1    4    4    0    0 -.90651637E+01 0.11827497E+03 -.28286975E+02 0.12194793E+03 0.51099893E-03 0.0000E+00 0.9000E+01
       23  1    3    3    0    0 -.11079908E+03 0.16463348E+02 -.19772461E+03 0.24486271E+03 0.91188000E+02 0.0000E+00 0.9000E+01
       21  1    1    2  502  501 0.44544407E+02 -.89693698E+02 -.96229573E+02 0.13888793E+03 0.75000000E+00 0.0000E+00 0.9000E+01
#aMCatNLO 2  0  0  2  1 0.10014571D+03 0.00000000D+00  -5  7  0 0.00000000D+00 0.00000000D+00 0.00000000D+00 0.00000000D+00 0.00000000D+00
  <mgrwgt>
 0.3122732641D-05    2    2    0
 0.290272009318306D+03 0.000000000000000D+00 0.000000000000000D+00 0.290272009318306D+03
 0.290272009318306D+03 0.000000000000000D+00 0.000000000000000D+00 -.290272009318306D+03
 0.186573250707562D+03 0.271473420267049D+02 -.157626080061117D+03 0.301888595517996D+02
 0.116031007542621D+03 0.705749360367096D+02 0.674723697938187D+02 0.626885350696315D+02
 0.103074042466961D+03 -.559648447166431D+00 0.101148436904047D+03 0.198226823604831D+02
 0.174865717919467D+03 -.971626296162481D+02 -.109947266367486D+02 -.112700076981914D+03
 0.000000000000000D+00 0.000000000000000D+00 -.000000000000000D+00 -.000000000000000D+00
 0.326460204722476D+03 0.000000000000000D+00 0.000000000000000D+00 0.326460204722476D+03
 0.373155233026667D+03 0.000000000000000D+00 0.000000000000000D+00 -.373155233026667D+03
 0.162892750028417D+03 0.138385829572635D+02 -.130827837437287D+03 0.301888595517996D+02
 0.122754054986448D+03 0.614812535042511D+02 0.857832212847336D+02 0.626885350696315D+02
 0.120266719016094D+03 -.906516365809873D+01 0.118274966813706D+03 0.198226823604831D+02
 0.183204903154827D+03 -.110799079558980D+03 0.164633475673396D+02 -.112700076981914D+03
 0.110497010563355D+03 0.445444067555644D+02 -.896936982284928D+02 -.466950283041908D+02
-.850506523815D-06 0.000000000000D+00 0.000000000000D+00 0.173524014040D-07 0.000000000000D+00  7 -1 1 23 -11 11 23 21 2 0.29856927D-01 0.89097635D-01 0.98852975D+05 0.98852975D+05 0.98852975D+05 0.11221334D+01  1  2 13  2  7  2        1 -.464662681453D-04 0.100000000000D+01
0.104909181553D-05 0.000000000000D+00 0.000000000000D+00 0.173524014040D-07 0.122461821185D-10  7 -1 1 23 -11 11 23 21 2 0.33579189D-01 0.85866324D-01 0.98852975D+05 0.98852975D+05 0.98852975D+05 0.11221334D+01  1  2  1  2  7  2        1 0.495890007859D-04 0.100000000000D+01
  </mgrwgt>
  </event>
  <event>
  8     66 0.58687835E-06 0.24516352E+03 0.75467711E-02 0.98033859E-01
       -1 -1    0    0    0  501 0.00000000E+00 0.00000000E+00 0.74298316E+02 0.74299006E+02 0.32000000E+00 0.0000E+00 0.9000E+01
        1 -1    0    0  501    0 0.00000000E+00 0.00000000E+00 -.96465660E+03 0.96465665E+03 0.32000000E+00 0.0000E+00 0.9000E+01
       25  2    1    2    0    0 -.73001595E+02 0.13289318E+03 -.71108723E+03 0.78681716E+03 0.30074301E+03 0.0000E+00 0.0000E+00
       23  2    1    2    0    0 0.73001595E+02 -.13289318E+03 -.17927105E+03 0.25213850E+03 0.91901486E+02 0.0000E+00 0.0000E+00
       23  1    3    3    0    0 0.77003734E+02 0.10452610E+03 -.35260623E+03 0.38665448E+03 0.91188000E+02 0.0000E+00 0.9000E+01
      -13  1    4    4    0    0 0.42035989E+02 -.10099586E+03 -.17642906E+03 0.20759194E+03 0.10565837E+00 0.0000E+00 0.9000E+01
       13  1    4    4    0    0 0.30965606E+02 -.31897318E+02 -.28419849E+01 0.44546557E+02 0.10565837E+00 0.0000E+00 0.9000E+01
       23  1    3    3    0    0 -.15000533E+03 0.28367084E+02 -.35848100E+03 0.40016268E+03 0.91188000E+02 0.0000E+00 0.9000E+01
#aMCatNLO 1  0  0  2  1 0.21023725D+03 0.00000000D+00  -5  7  0 0.00000000D+00 0.00000000D+00 0.00000000D+00 0.00000000D+00 0.00000000D+00
  <mgrwgt>
 0.2033511793D-03    6    2    0
 0.267717662368508D+03 0.000000000000000D+00 0.000000000000000D+00 0.267717662368508D+03
 0.267717662368508D+03 0.000000000000000D+00 0.000000000000000D+00 -.267717662368508D+03
 0.163924519736240D+03 0.770037294504874D+02 0.104526097718077D+03 -.412397547677493D+02
 0.109432012048533D+03 0.420360054026920D+02 -.100995955201151D+03 0.285596634825421D+01
 0.817120037419388D+02 0.309655921456425D+02 -.318972295595661D+02 0.685605601276470D+02
 0.180366789210304D+03 -.150005326998822D+03 0.283670870426400D+02 -.301767717081519D+02
 0.000000000000000D+00 0.000000000000000D+00 0.000000000000000D+00 -.000000000000000D+00
 0.372499200295238D+03 0.000000000000000D+00 0.000000000000000D+00 0.372499200295238D+03
 0.417792718765646D+03 0.000000000000000D+00 0.000000000000000D+00 -.417792718765646D+03
 0.130205129635230D+03 0.667632327788089D+02 0.498003796666792D+02 -.412397547677493D+02
 0.153508807898470D+03 0.328813873719370D+02 -.149918684369640D+03 0.285596634825421D+01
 0.978595045654335D+02 0.247135824040898D+02 -.653082772206684D+02 0.685605601276470D+02
 0.193657545062014D+03 -.163027458424291D+03 -.412238239909419D+02 -.301767717081519D+02
 0.215060931899738D+03 0.386692558694553D+02 0.206650405914571D+03 -.452935184704079D+02
0.148565850989D-05 0.000000000000D+00 0.000000000000D+00 0.102829990140D-06 0.000000000000D+00  7 -1 1 23 -13 13 23 21 0 0.11430567D-01 0.14840876D+00 0.60105153D+05 0.60105153D+05 0.60105153D+05 0.11403294D+01  1  2  2  2  7  2        1 0.136311369842D-03 0.100000000000D+01
-.817593220644D-07 0.000000000000D+00 -.570531986084D-08 0.102829990140D-06 0.000000000000D+00  7 -1 1 23 -13 13 23 21 2 0.11430567D-01 0.14840876D+00 0.60105153D+05 0.60105153D+05 0.60105153D+05 0.11403294D+01  1  2  3  2  7  2        1 -.975463545408D-05 0.100000000000D+01
0.972438926036D-07 0.000000000000D+00 0.000000000000D+00 0.102829990140D-06 0.000000000000D+00  7 -1 1 23 -13 13 23 21 2 0.11430567D-01 0.14840876D+00 0.60105153D+05 0.60105153D+05 0.60105153D+05 0.11403294D+01  1  2 15  2  7  2        1 0.116020864475D-04 0.100000000000D+01
-.439901257539D-06 0.000000000000D+00 -.442832108721D-06 0.102829990140D-06 0.000000000000D+00  7 -1 1 23 -13 13 23 21 2 0.11430567D-01 0.28182341D+00 0.60105153D+05 0.60105153D+05 0.60105153D+05 0.11403294D+01  1  2  5  2  7  2        1 -.135610250607D-04 0.100000000000D+01
0.660949570245D-06 0.000000000000D+00 0.365136622108D-06 0.102829990140D-06 0.000000000000D+00  7 -1 1 23 -13 13 23 21 2 0.11430567D-01 0.14840876D+00 0.60105153D+05 0.60105153D+05 0.60105153D+05 0.11403294D+01  1  2  6  2  7  2        1 0.788573333105D-04 0.100000000000D+01
-.538442756209D-08 0.000000000000D+00 -.308601638393D-07 0.102829990140D-06 0.000000000000D+00  7 -1 21 23 -13 13 23 -1 2 0.11430567D-01 0.28182341D+00 0.60105153D+05 0.60105153D+05 0.60105153D+05 0.11403294D+01  1  2  5  4  7  2        1 -.103949817126D-06 0.100000000000D+01
  </mgrwgt>
  </event>
  <event>
  8     66 0.58687835E-06 0.30333067E+03 0.75467711E-02 0.97211900E-01
       -1 -1    0    0    0  501 0.00000000E+00 0.00000000E+00 0.10803720E+04 0.10803720E+04 0.32000000E+00 0.0000E+00 0.9000E+01
        1 -1    0    0  501    0 0.00000000E+00 0.00000000E+00 -.66372372E+03 0.66372380E+03 0.32000000E+00 0.0000E+00 0.9000E+01
       25  2    1    2    0    0 -.23161507E+03 0.58569432E+02 -.59064625E+03 0.70475018E+03 0.30122071E+03 0.0000E+00 0.0000E+00
       23  2    1    2    0    0 0.23161507E+03 -.58569432E+02 0.10072945E+04 0.10393456E+04 0.92310506E+02 0.0000E+00 0.0000E+00
       23  1    3    3    0    0 -.73767622E+01 -.35332618E+02 -.29701393E+03 0.31278641E+03 0.91188000E+02 0.0000E+00 0.9000E+01
      -11  1    4    4    0    0 0.20437022E+03 -.25280811E+02 0.90928036E+03 0.93230740E+03 0.51099893E-03 0.0000E+00 0.9000E+01
       11  1    4    4    0    0 0.27244847E+02 -.33288620E+02 0.98014141E+02 0.10703824E+03 0.51099893E-03 0.0000E+00 0.9000E+01
       23  1    3    3    0    0 -.22423831E+03 0.93902050E+02 -.29363232E+03 0.39196378E+03 0.91188000E+02 0.0000E+00 0.9000E+01
#aMCatNLO 1  0  0  1  1 0.17783132D+03 0.00000000D+00  -5  7  0 0.00000000D+00 0.00000000D+00 0.00000000D+00 0.00000000D+00 0.00000000D+00
  <mgrwgt>
 0.2212316697D-03    4    2    0
 0.846799044529513D+03 0.000000000000000D+00 0.000000000000000D+00 0.846799044529513D+03
 0.846799044529513D+03 0.000000000000000D+00 0.000000000000000D+00 -.846799044529513D+03
 0.395182190496876D+03 -.737676218843261D+01 -.353326183309113D+02 -.382819672696436D+03
 0.736410470899712D+03 0.204370223139339D+03 -.252808112114621D+02 0.707031876317612D+03
 0.861169695339914D+02 0.272448472537231D+02 -.332886204680577D+02 0.746037431177104D+02
 0.475888458128447D+03 -.224238308204630D+03 0.939020500104311D+02 -.398815946738887D+03
 0.000000000000000D+00 -.000000000000000D+00 -.000000000000000D+00 -.000000000000000D+00
 0.889804456944166D+03 0.000000000000000D+00 0.000000000000000D+00 0.889804456944166D+03
 0.105760786896914D+04 0.000000000000000D+00 0.000000000000000D+00 -.105760786896914D+04
 0.393605474310778D+03 -.493739769189544D+01 0.589392602922931D+01 -.382819672696436D+03
 0.739076587168755D+03 0.208933239151297D+03 0.518365618994704D+02 0.707031876317612D+03
 0.832701104339418D+02 0.277686850968855D+02 -.244354851087014D+02 0.746037431177104D+02
 0.486956652540453D+03 -.221260662529601D+03 0.144225829701656D+03 -.398815946738887D+03
 0.244503501459374D+03 -.105038640266857D+02 -.177520832521654D+03 -.167803412024970D+03
0.246223725501D-03 0.000000000000D+00 0.000000000000D+00 0.131002883885D-05 0.000000000000D+00  7 -1 1 23 -11 11 23 21 0 0.16621108D+00 0.10211135D+00 0.92009496D+05 0.92009496D+05 0.92009496D+05 0.11247021D+01  1  2  2  1  7  1       -1 0.250919877130D-03 0.100000000000D+01
0.385063109039D-05 0.000000000000D+00 -.945563938120D-06 0.131002883885D-05 0.000000000000D+00  7 -1 1 23 -11 11 23 21 2 0.16621108D+00 0.10211135D+00 0.92009496D+05 0.92009496D+05 0.92009496D+05 0.11247021D+01  1  2  3  1  7  1       -1 0.496377533143D-05 0.100000000000D+01
0.152392765657D-04 0.000000000000D+00 0.000000000000D+00 0.131002883885D-05 0.000000000000D+00  7 -1 1 23 -11 11 23 21 2 0.16621108D+00 0.10211135D+00 0.92009496D+05 0.92009496D+05 0.92009496D+05 0.11247021D+01  1  2 15  1  7  1       -1 0.196446616957D-04 0.100000000000D+01
-.421204292010D-04 0.000000000000D+00 0.000000000000D+00 0.131002883885D-05 0.000000000000D+00  7 -1 1 23 -11 11 23 21 2 0.16621108D+00 0.10211135D+00 0.92009496D+05 0.92009496D+05 0.92009496D+05 0.11247021D+01  1  2  4  1  7  1       -1 -.542966445003D-04 0.100000000000D+01
  </mgrwgt>
  </event>
  <event>
  8     66 0.58687835E-06 0.18796665E+03 0.75467711E-02 0.10589682E+00
       -1 -1    0    0    0  501 0.00000000E+00 0.00000000E+00 0.65041039E+03 0.65041047E+03 0.32000000E+00 0.0000E+00 0.9000E+01
        1 -1    0    0  501    0 0.00000000E+00 0.00000000E+00 -.36877441E+03 0.36877455E+03 0.32000000E+00 0.0000E+00 0.9000E+01
       25  2    1    2    0    0 0.13097622E+02 0.56015557E+02 -.29844925E+03 0.42889226E+03 0.30260094E+03 0.0000E+00 0.0000E+00
       23  2    1    2    0    0 -.13097622E+02 -.56015557E+02 0.58008524E+03 0.59029276E+03 0.92937429E+02 0.0000E+00 0.0000E+00
       23  1    3    3    0    0 -.91060217E+02 0.96285412E+02 -.12751470E+03 0.20527565E+03 0.91188000E+02 0.0000E+00 0.9000E+01
      -13  1    4    4    0    0 -.18919839E+02 -.60599015E+02 0.19372968E+03 0.20386614E+03 0.10565837E+00 0.0000E+00 0.9000E+01
       13  1    4    4    0    0 0.58222169E+01 0.45834576E+01 0.38635555E+03 0.38642662E+03 0.10565837E+00 0.0000E+00 0.9000E+01
       23  1    3    3    0    0 0.10415784E+03 -.40269855E+02 -.17093455E+03 0.22361661E+03 0.91188000E+02 0.0000E+00 0.9000E+01
#aMCatNLO 1  0  0  1  1 0.28719413D+02 0.00000000D+00  -5  7  0 0.00000000D+00 0.00000000D+00 0.00000000D+00 0.00000000D+00 0.00000000D+00
  <mgrwgt>
 0.1566990112D-03    4    2    0
 0.489749751329843D+03 0.000000000000000D+00 0.000000000000000D+00 0.489749751329843D+03
 0.489749751329843D+03 0.000000000000000D+00 0.000000000000000D+00 -.489749751329843D+03
 0.250256988241425D+03 -.910602174537299D+02 0.962854121695974D+02 -.191704107990097D+03
 0.156422633653725D+03 -.189198709223411D+02 -.605990983967334D+02 0.142960931995257D+03
 0.290994291778647D+03 0.582224870493668D+01 0.458354142299630D+01 0.290899931962519D+03
 0.281825588985889D+03 0.104157839671134D+03 -.402698551958603D+02 -.242156755967678D+03
 0.000000000000000D+00 -.000000000000000D+00 0.000000000000000D+00 -.000000000000000D+00
 0.491878012242962D+03 0.000000000000000D+00 0.000000000000000D+00 0.491878012242962D+03
 0.597480464779165D+03 0.000000000000000D+00 0.000000000000000D+00 -.597480464779165D+03
 0.246576447503287D+03 -.850038110783903D+02 0.922419655103441D+02 -.191704107990097D+03
 0.157015066335121D+03 -.150990610735860D+02 -.631499907677436D+02 0.142960931995257D+03
 0.291186702921165D+03 0.129190429909663D+02 -.154500803512242D+00 0.290899931962519D+03
 0.285142229182628D+03 0.111069185127225D+03 -.448840859729041D+02 -.242156755967678D+03
 0.109438031079926D+03 -.238853559662154D+02 0.159466120338159D+02 -.105602452536203D+03
0.175177950574D-04 0.000000000000D+00 0.000000000000D+00 0.309994159025D-07 0.000000000000D+00  7 -1 1 23 -13 13 23 21 0 0.10006315D+00 0.56734541D-01 0.35331463D+05 0.35331463D+05 0.35331463D+05 0.11608015D+01  1  2  2  1  7  1       -1 0.153422775308D-03 0.100000000000D+01
0.111924470815D-06 0.000000000000D+00 -.672729455617D-07 0.309994159025D-07 0.000000000000D+00  7 -1 1 23 -13 13 23 21 2 0.10006315D+00 0.56734541D-01 0.35331463D+05 0.35331463D+05 0.35331463D+05 0.11608015D+01  1  2  3  1  7  1       -1 0.132084351345D-05 0.100000000000D+01
0.109468592614D-05 0.000000000000D+00 0.000000000000D+00 0.309994159025D-07 0.000000000000D+00  7 -1 1 23 -13 13 23 21 2 0.10006315D+00 0.56734541D-01 0.35331463D+05 0.35331463D+05 0.35331463D+05 0.11608015D+01  1  2 15  1  7  1       -1 0.129186119378D-04 0.100000000000D+01
-.928991617901D-06 0.000000000000D+00 0.000000000000D+00 0.309994159025D-07 0.000000000000D+00  7 -1 1 23 -13 13 23 21 2 0.10006315D+00 0.56734541D-01 0.35331463D+05 0.35331463D+05 0.35331463D+05 0.11608015D+01  1  2  4  1  7  1       -1 -.109632196035D-04 0.100000000000D+01
  </mgrwgt>
  </event>
  <event>
  8     66 0.58687835E-06 0.91259045E+02 0.75467711E-02 0.10171752E+00
       -1 -1    0    0    0  501 0.00000000E+00 0.00000000E+00 0.13709391E+03 0.13709428E+03 0.32000000E+00 0.0000E+00 0.9000E+01
        1 -1    0    0  501    0 0.00000000E+00 0.00000000E+00 -.54525590E+03 0.54525600E+03 0.32000000E+00 0.0000E+00 0.9000E+01
       25  2    1    2    0    0 -.12902236E+03 -.56419522E+02 -.12959661E+03 0.35628068E+03 0.30051740E+03 0.0000E+00 0.0000E+00
       23  2    1    2    0    0 0.12902236E+03 0.56419522E+02 -.27856538E+03 0.32606960E+03 0.94301528E+02 0.0000E+00 0.0000E+00
       23  1    3    3    0    0 -.10262163E+03 0.68207050E+02 -.12784251E+03 0.19960551E+03 0.91188000E+02 0.0000E+00 0.9000E+01
      -11  1    4    4    0    0 0.48925330E+02 0.70279703E+02 -.17100897E+03 0.19125113E+03 0.51099893E-03 0.0000E+00 0.9000E+01
       11  1    4    4    0    0 0.80097028E+02 -.13860182E+02 -.10755641E+03 0.13481847E+03 0.51099893E-03 0.0000E+00 0.9000E+01
       23  1    3    3    0    0 -.26400727E+02 -.12462657E+03 -.17541033E+01 0.15667517E+03 0.91188000E+02 0.0000E+00 0.9000E+01
#aMCatNLO 1  0  0  2  1 0.76792942D+02 0.00000000D+00  -5  7  0 0.00000000D+00 0.00000000D+00 0.00000000D+00 0.00000000D+00 0.00000000D+00
  <mgrwgt>
 0.8935495382D-04    9    2    0
 0.273407062213020D+03 0.000000000000000D+00 0.000000000000000D+00 0.273407062213020D+03
 0.273407062213020D+03 0.000000000000000D+00 0.000000000000000D+00 -.273407062213020D+03
 0.153654445677980D+03 -.102621631646967D+03 0.682070501302779D+02 -.105373793348861D+02
 0.111008281009571D+03 0.489253300313538D+02 0.702797033712711D+02 -.706393221093549D+02
 0.879512426314734D+02 0.800970284214465D+02 -.138601815737145D+02 -.335824728871767D+02
 0.194200155107015D+03 -.264007268058338D+02 -.124626571927835D+03 0.114759174331418D+03
 0.000000000000000D+00 -.000000000000000D+00 -.000000000000000D+00 -.000000000000000D+00
 0.285935103868082D+03 0.000000000000000D+00 0.000000000000000D+00 0.285935103868082D+03
 0.425839104200304D+03 0.000000000000000D+00 0.000000000000000D+00 -.425839104200304D+03
 0.152019613775523D+03 -.877646863398077D+02 0.835525888102043D+02 -.105373793348861D+02
 0.123967903715254D+03 0.603460843183972D+02 0.820760466331200D+02 -.706393221093549D+02
 0.952401210591489D+02 0.890008394807209D+02 -.466355506779229D+01 -.335824728871767D+02
 0.180952443085396D+03 -.816685493869553D+01 -.105793051292394D+03 0.114759174331418D+03
 0.159594126433064D+03 -.534153825206149D+02 -.551720290831385D+02 -.139904000332222D+03
0.995087687609D-06 0.000000000000D+00 0.000000000000D+00 0.173935404158D-07 0.000000000000D+00  7 -1 1 23 -11 11 23 21 0 0.21091406D-01 0.83885560D-01 0.56853141D+05 0.56853141D+05 0.56853141D+05 0.11424207D+01  1  2  2  2  7  2        1 0.831912748022D-04 0.100000000000D+01
-.540238697122D-07 0.000000000000D+00 -.382139873303D-08 0.173935404158D-07 0.000000000000D+00  7 -1 1 23 -11 11 23 21 2 0.21091406D-01 0.83885560D-01 0.56853141D+05 0.56853141D+05 0.56853141D+05 0.11424207D+01  1  2  3  2  7  2        1 -.589459872459D-05 0.100000000000D+01
0.658948266526D-07 0.000000000000D+00 0.000000000000D+00 0.173935404158D-07 0.000000000000D+00  7 -1 1 23 -11 11 23 21 2 0.21091406D-01 0.83885560D-01 0.56853141D+05 0.56853141D+05 0.56853141D+05 0.11424207D+01  1  2 15  2  7  2        1 0.718985076805D-05 0.100000000000D+01
0.192255111595D-05 0.000000000000D+00 0.000000000000D+00 0.173935404158D-07 0.000000000000D+00  7 -1 1 23 -11 11 23 21 2 0.21091406D-01 0.13169550D+00 0.78218240D+05 0.78218240D+05 0.78218240D+05 0.11305839D+01  1  2 12  2  7  2        1 0.104781128919D-03 0.100000000000D+01
-.200149493784D-05 0.000000000000D+00 0.000000000000D+00 0.173935404158D-07 0.000000000000D+00  7 -1 1 23 -11 11 23 21 2 0.21091406D-01 0.83885560D-01 0.56853141D+05 0.56853141D+05 0.56853141D+05 0.11424207D+01  1  2  4  2  7  2        1 -.218385124403D-03 0.100000000000D+01
-.225236786402D-05 0.000000000000D+00 -.371947136208D-06 0.173935404158D-07 0.000000000000D+00  7 -1 1 23 -11 11 23 21 2 0.21091406D-01 0.13350502D+00 0.56853141D+05 0.56853141D+05 0.56853141D+05 0.11424207D+01  1  2  5  2  7  2        1 -.123144271052D-03 0.100000000000D+01
0.221821007578D-05 0.000000000000D+00 0.335110703516D-06 0.173935404158D-07 0.000000000000D+00  7 -1 1 23 -11 11 23 21 2 0.21091406D-01 0.83885560D-01 0.56853141D+05 0.56853141D+05 0.56853141D+05 0.11424207D+01  1  2  6  2  7  2        1 0.242031130928D-03 0.100000000000D+01
0.100080610006D-06 0.000000000000D+00 0.000000000000D+00 0.173935404158D-07 0.000000000000D+00  7 -1 21 23 -11 11 23 -1 2 0.21091406D-01 0.13169550D+00 0.78218240D+05 0.78218240D+05 0.78218240D+05 0.11305839D+01  1  2 12  4  7  2        1 0.922848004940D-05 0.100000000000D+01
-.104549591704D-06 0.000000000000D+00 -.198075843222D-07 0.173935404158D-07 0.000000000000D+00  7 -1 21 23 -11 11 23 -1 2 0.21091406D-01 0.13350502D+00 0.56853141D+05 0.56853141D+05 0.56853141D+05 0.11424207D+01  1  2  5  4  7  2        1 -.964291746917D-05 0.100000000000D+01
  </mgrwgt>
  </event>
  <event>
  8     66 0.58687835E-06 0.12475601E+03 0.75467711E-02 0.10636072E+00
       -1 -1    0    0    0  501 0.00000000E+00 0.00000000E+00 0.24890369E+02 0.24892426E+02 0.32000000E+00 0.0000E+00 0.9000E+01
        1 -1    0    0  501    0 0.00000000E+00 0.00000000E+00 -.16182040E+04 0.16182040E+04 0.32000000E+00 0.0000E+00 0.9000E+01
       25  2    1    2    0    0 0.19328704E+02 -.24239242E+02 -.11519100E+04 0.11917345E+04 0.30392990E+03 0.0000E+00 0.0000E+00
       23  2    1    2    0    0 -.19328704E+02 0.24239242E+02 -.44140361E+03 0.45136191E+03 0.89046557E+02 0.0000E+00 0.0000E+00
       23  1    3    3    0    0 0.12863325E+03 -.38777125E+02 -.62251231E+03 0.64334050E+03 0.91188000E+02 0.0000E+00 0.9000E+01
      -11  1    4    4    0    0 -.41572032E+02 -.15241735E+02 -.14806869E+03 0.15454734E+03 0.51099893E-03 0.0000E+00 0.9000E+01
       11  1    4    4    0    0 0.22243328E+02 0.39480976E+02 -.29333492E+03 0.29681457E+03 0.51099893E-03 0.0000E+00 0.9000E+01
       23  1    3    3    0    0 -.10930454E+03 0.14537884E+02 -.52939767E+03 0.54839400E+03 0.91188000E+02 0.0000E+00 0.9000E+01
#aMCatNLO 1  0  0  2  1 0.39784290D+01 0.00000000D+00  -5  7  0 0.00000000D+00 0.00000000D+00 0.00000000D+00 0.00000000D+00 0.00000000D+00
  <mgrwgt>
 0.4800178937D-03   11    2    0
 0.200697307469676D+03 0.000000000000000D+00 0.000000000000000D+00 0.200697307469676D+03
 0.200697307469676D+03 0.000000000000000D+00 0.000000000000000D+00 -.200697307469676D+03
 0.162466458602059D+03 0.128633263468747D+03 -.387771439334784D+02 0.546950312522817D+01
 0.448843267456220D+02 -.415720362571649D+02 -.152417107351740D+02 0.735247187726735D+01
 0.506245974141935D+02 0.222433042682546D+02 0.394809874171493D+02 -.225684937722017D+02
 0.143419232177477D+03 -.109304531479837D+03 0.145378672515031D+02 0.974651876970619D+01
 0.000000000000000D+00 -.000000000000000D+00 0.000000000000000D+00 -.000000000000000D+00
 0.201786511646684D+03 0.000000000000000D+00 0.000000000000000D+00 0.201786511646684D+03
 0.204373249143183D+03 0.000000000000000D+00 0.000000000000000D+00 -.204373249143183D+03
 0.163769345788404D+03 0.130247304596738D+03 -.388699299820479D+02 0.546950312522817D+01
 0.444838387728487D+02 -.411298901385025D+02 -.152671282976695D+02 0.735247187726735D+01
 0.508247270064396D+02 0.227452215312226D+02 0.394521338032407D+02 -.225684937722017D+02
 0.142336419017629D+03 -.107890764605147D+03 0.144565943275200D+02 0.974651876970619D+01
 0.474543020454659D+01 -.397187138431088D+01 0.228330148956733D+00 -.258673749649880D+01
0.870733105540D-06 0.000000000000D+00 0.000000000000D+00 0.502097583758D-09 0.000000000000D+00  7 -1 1 23 -11 11 23 21 0 0.38294482D-02 0.24895462D+00 0.39017265D+05 0.39017265D+05 0.39017265D+05 0.11568921D+01  1  2  2  2  7  2        1 0.146041149476D-03 0.100000000000D+01
-.483591583674D-07 0.000000000000D+00 -.334384439457D-08 0.502097583758D-09 0.000000000000D+00  7 -1 1 23 -11 11 23 21 2 0.38294482D-02 0.24895462D+00 0.39017265D+05 0.39017265D+05 0.39017265D+05 0.11568921D+01  1  2  3  2  7  2        1 -.108556190895D-04 0.100000000000D+01
0.564471164967D-07 0.000000000000D+00 0.000000000000D+00 0.502097583758D-09 0.000000000000D+00  7 -1 1 23 -11 11 23 21 2 0.38294482D-02 0.24895462D+00 0.39017265D+05 0.39017265D+05 0.39017265D+05 0.11568921D+01  1  2 15  2  7  2        1 0.126711964409D-04 0.100000000000D+01
0.904785163097D-07 0.000000000000D+00 0.000000000000D+00 0.502097583758D-09 0.000000000000D+00  7 -1 1 23 -11 11 23 21 2 0.38294482D-02 0.25418185D+00 0.39814201D+05 0.39814201D+05 0.39814201D+05 0.11561004D+01  1  2 12  2  7  2        1 0.192817721854D-04 0.100000000000D+01
-.963302682036D-05 0.000000000000D+00 0.000000000000D+00 0.502097583758D-09 0.000000000000D+00  7 -1 1 23 -11 11 23 21 2 0.38294482D-02 0.24895462D+00 0.39017265D+05 0.39017265D+05 0.39017265D+05 0.11568921D+01  1  2  4  2  7  2        1 -.216241294040D-02 0.100000000000D+01
-.401961966404D-04 0.000000000000D+00 -.436522924573D-05 0.502097583758D-09 0.000000000000D+00  7 -1 1 23 -11 11 23 21 2 0.38294482D-02 0.25415784D+00 0.39017265D+05 0.39017265D+05 0.39017265D+05 0.11568921D+01  1  2  5  2  7  2        1 -.858034249515D-02 0.100000000000D+01
0.402788072816D-04 0.000000000000D+00 0.436429555089D-05 0.502097583758D-09 0.000000000000D+00  7 -1 1 23 -11 11 23 21 2 0.38294482D-02 0.24895462D+00 0.39017265D+05 0.39017265D+05 0.39017265D+05 0.11568921D+01  1  2  6  2  7  2        1 0.904174936020D-02 0.100000000000D+01
0.954465883862D-05 0.000000000000D+00 0.000000000000D+00 0.502097583758D-09 0.226158879345D-09  7 -1 1 23 -11 11 23 21 2 0.38502310D-02 0.25351443D+00 0.39814201D+05 0.39814201D+05 0.39814201D+05 0.11561004D+01  1  2 11  2  7  2        1 0.203126482144D-02 0.100000000000D+01
0.405074227798D-08 0.000000000000D+00 0.000000000000D+00 0.502097583758D-09 0.000000000000D+00  7 -1 21 23 -11 11 23 -1 2 0.38294482D-02 0.25418185D+00 0.39814201D+05 0.39814201D+05 0.39814201D+05 0.11561004D+01  1  2 12  4  7  2        1 0.641749202739D-06 0.100000000000D+01
-.150488552521D-06 0.000000000000D+00 -.164168757371D-07 0.502097583758D-09 0.000000000000D+00  7 -1 21 23 -11 11 23 -1 2 0.38294482D-02 0.25415784D+00 0.39017265D+05 0.39017265D+05 0.39017265D+05 0.11568921D+01  1  2  5  4  7  2        1 -.239088291149D-04 0.100000000000D+01
0.370759560456D-07 0.000000000000D+00 0.000000000000D+00 0.502097583758D-09 0.755490852089D-12  7 -1 21 23 -11 11 23 -1 2 0.38502310D-02 0.25351443D+00 0.39814201D+05 0.39814201D+05 0.39814201D+05 0.11561004D+01  1  2 11  4  7  2        1 0.588772856174D-05 0.100000000000D+01
  </mgrwgt>
  </event>
  <event>
  8     66 0.58687835E-06 0.15971897E+03 0.75467711E-02 0.10936654E+00
       -1 -1    0    0    0  501 0.00000000E+00 0.00000000E+00 0.13975174E+03 0.13975211E+03 0.32000000E+00 0.0000E+00 0.9000E+01
        1 -1    0    0  501    0 0.00000000E+00 0.00000000E+00 -.67768386E+03 0.67768393E+03 0.32000000E+00 0.0000E+00 0.9000E+01
       25  2    1    2    0    0 0.36500487E+02 -.79786957E+01 -.61996707E+03 0.68933858E+03 0.29905278E+03 0.0000E+00 0.0000E+00
       23  2    1    2    0    0 -.36500487E+02 0.79786957E+01 0.82034957E+02 0.12809745E+03 0.91012518E+02 0.0000E+00 0.0000E+00
       23  1    3    3    0    0 -.14630346E+02 0.96511405E+02 -.41960918E+03 0.44035850E+03 0.91188000E+02 0.0000E+00 0.9000E+01
      -11  1    4    4    0    0 -.11640141E+02 0.60340562E+01 -.19526265E+02 0.23519731E+02 0.51099893E-03 0.0000E+00 0.9000E+01
       11  1    4    4    0    0 -.24860346E+02 0.19446395E+01 0.10156122E+03 0.10457772E+03 0.51099893E-03 0.0000E+00 0.9000E+01
       23  1    3    3    0    0 0.51130833E+02 -.10449010E+03 -.20035789E+03 0.24898008E+03 0.91188000E+02 0.0000E+00 0.9000E+01
#aMCatNLO 1  0  0  2  1 0.85086874D+01 0.00000000D+00  -5  7  0 0.00000000D+00 0.00000000D+00 0.00000000D+00 0.00000000D+00 0.00000000D+00
  <mgrwgt>
 0.7367644268D-04    6    2    0
 0.307746127946666D+03 0.000000000000000D+00 0.000000000000000D+00 0.307746127946666D+03
 0.307746127946666D+03 0.000000000000000D+00 0.000000000000000D+00 -.307746127946666D+03
 0.218107794721518D+03 -.146303464333275D+02 0.965114050387005D+02 -.172415951799654D+03
 0.141708863142832D+02 -.116401414837815D+02 0.603405616621333D+01 -.537692210775548D+01
 0.227652974702310D+03 -.248603455751367D+02 0.194463949139894D+01 0.226283137873647D+03
 0.155560600155221D+03 0.511308334922457D+02 -.104490100696313D+03 -.484902639662367D+02
 0.000000000000000D+00 -.000000000000000D+00 0.000000000000000D+00 0.000000000000000D+00
 0.314888238658918D+03 0.000000000000000D+00 0.000000000000000D+00 0.314888238658918D+03
 0.310320196156557D+03 0.000000000000000D+00 0.000000000000000D+00 -.310320196156557D+03
 0.216887881367218D+03 -.130472313817110D+02 0.939553673733009D+02 -.172415951799654D+03
 0.140165947665906D+02 -.115375564972650D+02 0.586842632827269D+01 -.537692210775548D+01
 0.227470911157196D+03 -.232039762968651D+02 -.729671676794485D+00 0.226283137873647D+03
 0.157175678685852D+03 0.522690000015580D+02 -.106327741279875D+03 -.484902639662367D+02
 0.965736883861794D+01 -.448023582571689D+01 0.723361925509586D+01 0.456804250236117D+01
0.210231479160D-05 0.000000000000D+00 0.000000000000D+00 0.236819757696D-06 0.000000000000D+00  7 -1 1 23 -11 11 23 21 0 0.21500302D-01 0.10425909D+00 0.25510151D+05 0.25510151D+05 0.25510151D+05 0.11739254D+01  1  2  2  2  7  2        1 0.125558682518D-03 0.100000000000D+01
-.557111727203D-07 0.000000000000D+00 -.807344235192D-08 0.236819757696D-06 0.000000000000D+00  7 -1 1 23 -11 11 23 21 2 0.21500302D-01 0.10425909D+00 0.25510151D+05 0.25510151D+05 0.25510151D+05 0.11739254D+01  1  2  3  2  7  2        1 -.458534813257D-05 0.100000000000D+01
0.129596905237D-06 0.000000000000D+00 0.000000000000D+00 0.236819757696D-06 0.000000000000D+00  7 -1 1 23 -11 11 23 21 2 0.21500302D-01 0.10425909D+00 0.25510151D+05 0.25510151D+05 0.25510151D+05 0.11739254D+01  1  2 15  2  7  2        1 0.106665664785D-04 0.100000000000D+01
-.709210837270D-06 0.000000000000D+00 0.000000000000D+00 0.236819757696D-06 0.000000000000D+00  7 -1 1 23 -11 11 23 21 2 0.21500302D-01 0.10425909D+00 0.25510151D+05 0.25510151D+05 0.25510151D+05 0.11739254D+01  1  2  4  2  7  2        1 -.583721079540D-04 0.100000000000D+01
0.512569584098D-08 0.000000000000D+00 0.000000000000D+00 0.236819757696D-06 0.239814676422D-07  7 -1 1 23 -11 11 23 21 2 0.21999277D-01 0.10513114D+00 0.26529314D+05 0.26529314D+05 0.26529314D+05 0.11723227D+01  1  2 11  2  7  2        1 0.400678203370D-06 0.100000000000D+01
0.446027753926D-10 0.000000000000D+00 0.000000000000D+00 0.236819757696D-06 0.374532325822D-10  7 -1 21 23 -11 11 23 -1 2 0.21999277D-01 0.10513114D+00 0.26529314D+05 0.26529314D+05 0.26529314D+05 0.11723227D+01  1  2 11  4  7  2        1 0.797156921616D-08 0.100000000000D+01
  </mgrwgt>
  </event>
  <event>
  8     66 0.58687835E-06 0.24469152E+03 0.75467711E-02 0.98633309E-01
       -1 -1    0    0    0  501 0.00000000E+00 0.00000000E+00 0.63731329E+03 0.63731337E+03 0.32000000E+00 0.0000E+00 0.9000E+01
        1 -1    0    0  501    0 0.00000000E+00 0.00000000E+00 -.10427523E+03 0.10427573E+03 0.32000000E+00 0.0000E+00 0.9000E+01
       25  2    1    2    0    0 -.28878549E+02 0.15238748E+03 0.34341418E+03 0.47998477E+03 0.29731491E+03 0.0000E+00 0.0000E+00
       23  2    1    2    0    0 0.28878549E+02 -.15238748E+03 0.18962387E+03 0.26160433E+03 0.91780699E+02 0.0000E+00 0.0000E+00
       23  1    3    3    0    0 0.88036493E+02 0.11705792E+03 0.12253931E+03 0.21162257E+03 0.91188000E+02 0.0000E+00 0.9000E+01
      -11  1    4    4    0    0 0.13987299E+02 -.30092085E+01 -.55757776E+01 0.15355428E+02 0.51099893E-03 0.0000E+00 0.9000E+01
       11  1    4    4    0    0 0.14891250E+02 -.14937828E+03 0.19519965E+03 0.24624890E+03 0.51099893E-03 0.0000E+00 0.9000E+01
       23  1    3    3    0    0 -.11691504E+03 0.35329569E+02 0.22087487E+03 0.26836219E+03 0.91188000E+02 0.0000E+00 0.9000E+01
#aMCatNLO 1  0  0  2  1 0.18913775D+03 0.00000000D+00  -5  7  0 0.00000000D+00 0.00000000D+00 0.00000000D+00 0.00000000D+00 0.00000000D+00
  <mgrwgt>
 0.2833297569D-03    3    2    0
 0.257791009974128D+03 0.000000000000000D+00 0.000000000000000D+00 0.257791009974128D+03
 0.257791009974128D+03 0.000000000000000D+00 0.000000000000000D+00 -.257791009974128D+03
 0.177699907582633D+03 0.880364929577336D+02 0.117057915408277D+03 -.425326481523044D+02
 0.278510868265920D+02 0.139872991260845D+02 -.300920850108199D+01 -.238952540220190D+02
 0.152384404998375D+03 0.148912496100134D+02 -.149378276299470D+03 0.261799186698549D+02
 0.157646620540657D+03 -.116915041693831D+03 0.353295693922747D+02 0.402479835044686D+02
 0.000000000000000D+00 0.000000000000000D+00 0.000000000000000D+00 0.000000000000000D+00
 0.604502954655357D+03 0.000000000000000D+00 0.000000000000000D+00 0.604502954655357D+03
 0.301697598989933D+03 0.000000000000000D+00 0.000000000000000D+00 -.301697598989933D+03
 0.138334777462851D+03 0.703035788464315D+02 0.637937297407218D+02 -.425326481523044D+02
 0.290925408275470D+02 0.107921547126430D+02 -.126064334244087D+02 -.238952540220190D+02
 0.212581502611971D+03 -.558722759345004D+01 -.210889283746288D+03 0.261799186698549D+02
 0.169170483445579D+03 -.135252964426136D+03 -.197518749230871D+02 0.402479835044686D+02
 0.357021249297343D+03 0.597444584605119D+02 0.179453862353062D+03 0.302805355665424D+03
0.603551816420D-05 0.000000000000D+00 0.000000000000D+00 0.368058126819D-07 0.000000000000D+00  7 -1 1 23 -11 11 23 21 0 0.98048242D-01 0.16042388D-01 0.59873940D+05 0.59873940D+05 0.59873940D+05 0.11404740D+01  1  2  2  2  7  2        1 0.279429677559D-03 0.100000000000D+01
-.334197780008D-06 0.000000000000D+00 -.231779789390D-07 0.368058126819D-07 0.000000000000D+00  7 -1 1 23 -11 11 23 21 2 0.98048242D-01 0.16042388D-01 0.59873940D+05 0.59873940D+05 0.59873940D+05 0.11404740D+01  1  2  3  2  7  2        1 -.201248328192D-04 0.100000000000D+01
0.398963429762D-06 0.000000000000D+00 0.000000000000D+00 0.368058126819D-07 0.000000000000D+00  7 -1 1 23 -11 11 23 21 2 0.98048242D-01 0.16042388D-01 0.59873940D+05 0.59873940D+05 0.59873940D+05 0.11404740D+01  1  2 15  2  7  2        1 0.240249122084D-04 0.100000000000D+01
  </mgrwgt>
  </event>
  <event>
  8     66 0.58687835E-06 0.11972067E+04 0.75467711E-02 0.80297710E-01
       -1 -1    0    0    0  501 0.00000000E+00 0.00000000E+00 0.12662732E+04 0.12662733E+04 0.32000000E+00 0.0000E+00 0.9000E+01
        1 -1    0    0  501    0 0.00000000E+00 0.00000000E+00 -.26216590E+04 0.26216590E+04 0.32000000E+00 0.0000E+00 0.9000E+01
       25  2    1    2    0    0 -.17367204E+04 -.12517387E+03 -.12035750E+04 0.21378571E+04 0.29995611E+03 0.0000E+00 0.0000E+00
       23  2    1    2    0    0 0.17367204E+04 0.12517387E+03 -.15181075E+03 0.17500752E+04 0.88602469E+02 0.0000E+00 0.0000E+00
       23  1    3    3    0    0 -.73787766E+03 0.20966095E+02 -.40099341E+03 0.84499349E+03 0.91188000E+02 0.0000E+00 0.9000E+01
      -13  1    4    4    0    0 0.16682315E+04 0.11985907E+03 -.12820761E+03 0.16774384E+04 0.10565837E+00 0.0000E+00 0.9000E+01
       13  1    4    4    0    0 0.68488939E+02 0.53148078E+01 -.23603143E+02 0.72636778E+02 0.10565837E+00 0.0000E+00 0.9000E+01
       23  1    3    3    0    0 -.99884277E+03 -.14613997E+03 -.80258157E+03 0.12928636E+04 0.91188000E+02 0.0000E+00 0.9000E+01
#aMCatNLO 1  0  0  2  1 0.85095104D+03 0.00000000D+00  -5  7  0 0.00000000D+00 0.00000000D+00 0.00000000D+00 0.00000000D+00 0.00000000D+00
  <mgrwgt>
 0.1321892723D-03    9    2    0
 0.182201446975369D+04 0.000000000000000D+00 0.000000000000000D+00 0.182201446975369D+04
 0.182201446975369D+04 0.000000000000000D+00 0.000000000000000D+00 -.182201446975369D+04
 0.752402559786308D+03 -.737877664633863D+03 0.209660954284252D+02 -.113540017200766D+03
 0.174202924437639D+04 0.166823377435902D+04 0.119859229564691D+03 0.487130092930613D+03
 0.687170282003597D+02 0.684866644413333D+02 0.531464490743712D+01 0.183338700145161D+01
 0.108088010714432D+04 -.998842774166492D+03 -.146139969900554D+03 -.375423462731299D+03
 0.000000000000000D+00 0.000000000000000D+00 0.000000000000000D+00 -.000000000000000D+00
 0.202221269018123D+04 0.000000000000000D+00 0.000000000000000D+00 0.202221269018123D+04
 0.306848230931179D+04 0.000000000000000D+00 0.000000000000000D+00 -.306848230931179D+04
 0.828468626731422D+03 -.801730440417695D+03 -.149606081213119D+03 -.113540017200766D+03
 0.162610767652801D+04 0.153219176571600D+04 -.243554596131579D+03 0.487130092930613D+03
 0.637965747432459D+02 0.631343236249357D+02 -.898325227828695D+01 0.183338700145161D+01
 0.122369400851372D+04 -.109192654692376D+04 -.394797941841612D+03 -.375423462731299D+03
 0.134862811297662D+04 0.298330898000526D+03 0.796941871464597D+03 -.104626961913055D+04
0.669663340886D-02 0.000000000000D+00 0.000000000000D+00 0.779293202112D-05 0.000000000000D+00  7 -1 1 23 -13 13 23 21 0 0.19481127D+00 0.40333216D+00 0.30600510D+07 0.30600510D+07 0.30600510D+07 0.10169838D+01  1  2  2  2  7  2        1 0.116111930050D-03 0.100000000000D+01
-.371284898988D-03 0.000000000000D+00 -.257168355541D-04 0.779293202112D-05 0.000000000000D+00  7 -1 1 23 -13 13 23 21 2 0.19481127D+00 0.40333216D+00 0.30600510D+07 0.30600510D+07 0.30600510D+07 0.10169838D+01  1  2  3  2  7  2        1 -.665818244457D-05 0.100000000000D+01
0.433018757834D-03 0.000000000000D+00 0.000000000000D+00 0.779293202112D-05 0.000000000000D+00  7 -1 1 23 -13 13 23 21 2 0.19481127D+00 0.40333216D+00 0.30600510D+07 0.30600510D+07 0.30600510D+07 0.10169838D+01  1  2 15  2  7  2        1 0.776524415466D-05 0.100000000000D+01
0.310917633516D-02 0.000000000000D+00 0.000000000000D+00 0.779293202112D-05 0.000000000000D+00  7 -1 1 23 -13 13 23 21 2 0.19481127D+00 0.68853428D+00 0.49539260D+07 0.49539260D+07 0.49539260D+07 0.10045152D+01  1  2 12  2  7  2        1 0.124188860348D-05 0.100000000000D+01
-.450042945756D-02 0.000000000000D+00 0.000000000000D+00 0.779293202112D-05 0.000000000000D+00  7 -1 1 23 -13 13 23 21 2 0.19481127D+00 0.40333216D+00 0.30600510D+07 0.30600510D+07 0.30600510D+07 0.10169838D+01  1  2  4  2  7  2        1 -.807053572312D-04 0.100000000000D+01
-.518091766271D-02 0.000000000000D+00 -.150969544225D-02 0.779293202112D-05 0.000000000000D+00  7 -1 1 23 -13 13 23 21 2 0.19481127D+00 0.68915120D+00 0.30600510D+07 0.30600510D+07 0.30600510D+07 0.10169838D+01  1  2  5  2  7  2        1 -.223856623577D-05 0.100000000000D+01
0.539088889576D-02 0.000000000000D+00 0.131626753712D-02 0.779293202112D-05 0.000000000000D+00  7 -1 1 23 -13 13 23 21 2 0.19481127D+00 0.40333216D+00 0.30600510D+07 0.30600510D+07 0.30600510D+07 0.10169838D+01  1  2  6  2  7  2        1 0.966737992960D-04 0.100000000000D+01
0.185076296118D-03 0.000000000000D+00 0.000000000000D+00 0.779293202112D-05 0.000000000000D+00  7 -1 21 23 -13 13 23 -1 2 0.19481127D+00 0.68853428D+00 0.49539260D+07 0.49539260D+07 0.49539260D+07 0.10045152D+01  1  2 12  4  7  2        1 0.385485786754D-08 0.100000000000D+01
-.235448083476D-03 0.000000000000D+00 -.899894216814D-04 0.779293202112D-05 0.000000000000D+00  7 -1 21 23 -13 13 23 -1 2 0.19481127D+00 0.68915120D+00 0.30600510D+07 0.30600510D+07 0.30600510D+07 0.10169838D+01  1  2  5  4  7  2        1 -.533870230725D-08 0.100000000000D+01
  </mgrwgt>
  </event>
  <event>
  8     66 0.58687835E-06 0.23471924E+03 0.75467711E-02 0.98879926E-01
       -1 -1    0    0    0  501 0.00000000E+00 0.00000000E+00 0.72643892E+02 0.72644596E+02 0.32000000E+00 0.0000E+00 0.9000E+01
        1 -1    0    0  501    0 0.00000000E+00 0.00000000E+00 -.98585419E+03 0.98585424E+03 0.32000000E+00 0.0000E+00 0.9000E+01
       25  2    1    2    0    0 -.29413979E+02 0.12803739E+03 -.78961965E+03 0.85491201E+03 0.30019425E+03 0.0000E+00 0.0000E+00
       23  2    1    2    0    0 0.29413979E+02 -.12803739E+03 -.12359064E+03 0.20358683E+03 0.94415014E+02 0.0000E+00 0.0000E+00
       23  1    3    3    0    0 -.11817679E+03 0.34366457E+02 -.25537443E+03 0.29778878E+03 0.91188000E+02 0.0000E+00 0.9000E+01
      -13  1    4    4    0    0 0.29064942E+02 -.14166660E+03 -.12314662E+03 0.18994551E+03 0.10565837E+00 0.0000E+00 0.9000E+01
       13  1    4    4    0    0 0.34903708E+00 0.13629212E+02 -.44402557E+00 0.13641318E+02 0.10565837E+00 0.0000E+00 0.9000E+01
       23  1    3    3    0    0 0.88762812E+02 0.93670929E+02 -.53424523E+03 0.55712323E+03 0.91188000E+02 0.0000E+00 0.9000E+01
#aMCatNLO 1  0  0  1  1 0.18684158D+03 0.00000000D+00  -5  7  0 0.00000000D+00 0.00000000D+00 0.00000000D+00 0.00000000D+00 0.00000000D+00
  <mgrwgt>
 0.1973462209D-03    5    2    0
 0.267612938936127D+03 0.000000000000000D+00 0.000000000000000D+00 0.267612938936127D+03
 0.267612938936127D+03 0.000000000000000D+00 0.000000000000000D+00 -.267612938936127D+03
 0.153203577890202D+03 -.118176790615002D+03 0.343664604334052D+02 0.304589749930661D+01
 0.165534664561278D+03 0.290649781922545D+02 -.141666791371504D+03 0.805448473622066D+02
 0.262202099461570D+02 0.349002157516463D+00 0.136293985905903D+02 0.223968100669139D+02
 0.190267425474618D+03 0.887628102652309D+02 0.936709323475088D+02 -.105987554928427D+03
 0.000000000000000D+00 -.000000000000000D+00 -.000000000000000D+00 0.000000000000000D+00
 0.407035674130086D+03 0.000000000000000D+00 0.000000000000000D+00 0.407035674130086D+03
 0.354069196468187D+03 0.000000000000000D+00 0.000000000000000D+00 -.354069196468187D+03
 0.122060471660827D+03 -.716498900086983D+02 0.379542246427034D+02 0.304589749930661D+01
 0.181645105419353D+03 0.877475365457879D+02 -.137141684823953D+03 0.805448473622066D+02
 0.282592081249394D+02 0.955746390113135D+01 0.143394779003210D+02 0.223968100669139D+02
 0.234936012551113D+03 0.160633430968333D+03 0.992129916142656D+02 -.105987554928427D+03
 0.194204072842040D+03 -.186288541406553D+03 -.143650093333372D+02 0.529664776618983D+02
0.236867430000D-05 0.000000000000D+00 0.000000000000D+00 0.636231061621D-07 0.000000000000D+00  7 -1 1 23 -13 13 23 21 0 0.11176042D-01 0.15166993D+00 0.55093121D+05 0.55093121D+05 0.55093121D+05 0.11436082D+01  1  2  2  1  7  1       -1 0.216904595118D-03 0.100000000000D+01
-.128840933359D-06 0.000000000000D+00 -.909633299828D-08 0.636231061621D-07 0.000000000000D+00  7 -1 1 23 -13 13 23 21 2 0.11176042D-01 0.15166993D+00 0.55093121D+05 0.55093121D+05 0.55093121D+05 0.11436082D+01  1  2  3  1  7  1       -1 -.154302087841D-04 0.100000000000D+01
0.155332661689D-06 0.000000000000D+00 0.000000000000D+00 0.636231061621D-07 0.000000000000D+00  7 -1 1 23 -13 13 23 21 2 0.11176042D-01 0.15166993D+00 0.55093121D+05 0.55093121D+05 0.55093121D+05 0.11436082D+01  1  2 15  1  7  1       -1 0.186029031174D-04 0.100000000000D+01
-.594319580263D-06 0.000000000000D+00 -.779141857886D-06 0.636231061621D-07 0.000000000000D+00  7 -1 1 23 -13 13 23 21 2 0.22586236D-01 0.15166993D+00 0.55093121D+05 0.55093121D+05 0.55093121D+05 0.11436082D+01  1  2  5  1  7  1       -1 -.236303600113D-04 0.100000000000D+01
0.189638517056D-08 0.000000000000D+00 -.592923910998D-07 0.636231061621D-07 0.000000000000D+00  7 21 1 23 -13 13 23 1 2 0.22586236D-01 0.15166993D+00 0.55093121D+05 0.55093121D+05 0.55093121D+05 0.11436082D+01  1  2  5  3  7  1       -1 0.899291454257D-06 0.100000000000D+01
  </mgrwgt>
  </event>
  <event>
  8     66 0.58687835E-06 0.59127008E+03 0.75467711E-02 0.88986608E-01
       -1 -1    0    0    0  501 0.00000000E+00 0.00000000E+00 0.69571716E+03 0.69571723E+03 0.32000000E+00 0.0000E+00 0.9000E+01
        1 -1    0    0  501    0 0.00000000E+00 0.00000000E+00 -.74639801E+03 0.74639808E+03 0.32000000E+00 0.0000E+00 0.9000E+01
       25  2    1    2    0    0 -.35434978E+03 0.45223114E+03 -.40602911E+03 0.76046006E+03 0.28872666E+03 0.0000E+00 0.0000E+00
       23  2    1    2    0    0 0.35434978E+03 -.45223114E+03 0.35534826E+03 0.68165525E+03 0.91130282E+02 0.0000E+00 0.0000E+00
       23  1    3    3    0    0 -.18351013E+03 0.25890920E+03 -.34996092E+03 0.48114222E+03 0.91188000E+02 0.0000E+00 0.9000E+01
      -13  1    4    4    0    0 0.99613245E+01 -.41655546E+02 0.95437132E+01 0.43880589E+02 0.10565837E+00 0.0000E+00 0.9000E+01
       13  1    4    4    0    0 0.34438845E+03 -.41057560E+03 0.34580455E+03 0.63777467E+03 0.10565837E+00 0.0000E+00 0.9000E+01
       23  1    3    3    0    0 -.17083965E+03 0.19332194E+03 -.56068191E+02 0.27931783E+03 0.91188000E+02 0.0000E+00 0.9000E+01
#aMCatNLO 1  0  0  2  1 0.45727604D+03 0.00000000D+00  -5  7  0 0.00000000D+00 0.00000000D+00 0.00000000D+00 0.00000000D+00 0.00000000D+00
  <mgrwgt>
 0.6791075803D-03    3    2    0
 0.720612243397076D+03 0.000000000000000D+00 0.000000000000000D+00 0.720612243397076D+03
 0.720612243397076D+03 0.000000000000000D+00 0.000000000000000D+00 -.720612243397076D+03
 0.469133196850308D+03 -.183510127317458D+03 0.258909204964401D+03 -.333257800808356D+03
 0.442425032680631D+02 0.996087492618276D+01 -.416550500719842D+02 0.110921985931558D+02
 0.650329952795582D+03 0.344388902713248D+03 -.410576093396673D+03 0.368446200580485D+03
 0.277518833880200D+03 -.170839650321973D+03 0.193321938504256D+03 -.462805983652857D+02
 0.000000000000000D+00 -.000000000000000D+00 0.000000000000000D+00 0.000000000000000D+00
 0.291230360326001D+04 0.000000000000000D+00 0.000000000000000D+00 0.291230360326001D+04
 0.780257314407486D+03 0.000000000000000D+00 0.000000000000000D+00 -.780257314407486D+03
 0.397473555914651D+03 -.733547484360751D+02 0.182286300608948D+03 -.333257800808356D+03
 0.565574851898775D+02 0.227736771394088D+02 -.505674983652857D+02 0.110921985931558D+02
 0.846368328807519D+03 0.534635938932479D+03 -.542909898683036D+03 0.368446200580485D+03
 0.211628870540691D+03 -.108663524256110D+03 0.150072889668726D+03 -.462805983652857D+02
 0.218053267721476D+04 -.375391343379703D+03 0.261118206770648D+03 0.213204628885252D+04
0.263919255538D-03 0.000000000000D+00 0.000000000000D+00 0.954588390019D-08 0.000000000000D+00  7 -1 1 23 -13 13 23 21 0 0.10703342D+00 0.11483047D+00 0.34960031D+06 0.34960031D+06 0.34960031D+06 0.10796695D+01  1  2  2  2  7  2        1 0.670166442998D-03 0.100000000000D+01
-.139644999860D-04 0.000000000000D+00 -.101351943280D-05 0.954588390019D-08 0.000000000000D+00  7 -1 1 23 -13 13 23 21 2 0.10703342D+00 0.11483047D+00 0.34960031D+06 0.34960031D+06 0.34960031D+06 0.10796695D+01  1  2  3  2  7  2        1 -.413350705827D-04 0.100000000000D+01
0.169851434829D-04 0.000000000000D+00 0.000000000000D+00 0.954588390019D-08 0.000000000000D+00  7 -1 1 23 -13 13 23 21 2 0.10703342D+00 0.11483047D+00 0.34960031D+06 0.34960031D+06 0.34960031D+06 0.10796695D+01  1  2 15  2  7  2        1 0.502762079147D-04 0.100000000000D+01
  </mgrwgt>
  </event>
  <event>
  8     66 0.58687835E-06 0.15892954E+03 0.75467711E-02 0.99740866E-01
       -1 -1    0    0    0  501 0.00000000E+00 0.00000000E+00 0.12768285E+04 0.12768286E+04 0.32000000E+00 0.0000E+00 0.9000E+01
        1 -1    0    0  501    0 0.00000000E+00 0.00000000E+00 -.71946343E+02 0.71947054E+02 0.32000000E+00 0.0000E+00 0.9000E+01
       25  2    1    2    0    0 -.90892718E+02 0.17451331E+03 0.94274525E+03 0.10085351E+04 0.29942947E+03 0.0000E+00 0.0000E+00
       23  2    1    2    0    0 0.90892718E+02 -.17451331E+03 0.26213694E+03 0.34024055E+03 0.91276924E+02 0.0000E+00 0.0000E+00
       23  1    3    3    0    0 0.42563080E+02 0.16649345E+03 0.56605842E+03 0.59855582E+03 0.91188000E+02 0.0000E+00 0.9000E+01
      -13  1    4    4    0    0 0.10166805E+03 -.17538690E+03 0.25915383E+03 0.32902534E+03 0.10565837E+00 0.0000E+00 0.9000E+01
       13  1    4    4    0    0 -.10775330E+02 0.87358413E+00 0.29831062E+01 0.11215211E+02 0.10565837E+00 0.0000E+00 0.9000E+01
       23  1    3    3    0    0 -.13345580E+03 0.80198628E+01 0.37668683E+03 0.40997926E+03 0.91188000E+02 0.0000E+00 0.9000E+01
#aMCatNLO 1  0  0  1  2 0.77285061D+02 0.00000000D+00  -5  7  0 0.00000000D+00 0.00000000D+00 0.00000000D+00 0.00000000D+00 0.00000000D+00
  <mgrwgt>
 0.3241965511D-03    9    2    0
 0.303090168581597D+03 0.000000000000000D+00 0.000000000000000D+00 0.303090168581597D+03
 0.303090168581597D+03 0.000000000000000D+00 0.000000000000000D+00 -.303090168581597D+03
 0.206677429480987D+03 0.425630798514802D+02 0.166493448951905D+03 0.697755272464780D+02
 0.216984413770850D+03 0.101668198294210D+03 -.175387131813482D+03 -.773638628128732D+02
 0.190246208703715D+02 -.107754798740987D+02 0.873819862101911D+00 -.156544457453104D+02
 0.163493873040986D+03 -.133455798271592D+03 0.801986299947455D+01 0.232427813117056D+02
 0.000000000000000D+00 -.000000000000000D+00 -.000000000000000D+00 0.000000000000000D+00
 0.362986463466068D+03 0.000000000000000D+00 0.000000000000000D+00 0.362986463466068D+03
 0.331538921835292D+03 0.000000000000000D+00 0.000000000000000D+00 -.331538921835292D+03
 0.229192334567997D+03 0.573514921535900D+02 0.189884325382485D+03 0.697755272464780D+02
 0.206767241512222D+03 0.116045461203696D+03 -.152646571619759D+03 -.773638628128732D+02
 0.185386353282328D+02 -.950101450418074D+01 0.288964558928634D+01 -.156544457453104D+02
 0.156589001586903D+03 -.122595862778774D+03 0.251970557884751D+02 0.232427813117056D+02
 0.834381723060045D+02 -.413000760743313D+02 -.653244551404875D+02 0.314475416307758D+02
0.154991456264D-04 0.000000000000D+00 0.000000000000D+00 0.278907038988D-06 0.000000000000D+00  7 -1 1 23 -13 13 23 21 0 0.19643522D+00 0.11068726D-01 0.81199685D+05 0.81199685D+05 0.81199685D+05 0.11292206D+01  1  2  2  1  7  1       -1 0.173865442384D-03 0.100000000000D+01
-.857078491274D-06 0.000000000000D+00 -.595208002242D-07 0.278907038988D-06 0.000000000000D+00  7 -1 1 23 -13 13 23 21 2 0.19643522D+00 0.11068726D-01 0.81199685D+05 0.81199685D+05 0.81199685D+05 0.11292206D+01  1  2  3  1  7  1       -1 -.122598084836D-04 0.100000000000D+01
0.101746797858D-05 0.000000000000D+00 0.000000000000D+00 0.278907038988D-06 0.000000000000D+00  7 -1 1 23 -13 13 23 21 2 0.19643522D+00 0.11068726D-01 0.81199685D+05 0.81199685D+05 0.81199685D+05 0.11292206D+01  1  2 15  1  7  1       -1 0.145540492295D-04 0.100000000000D+01
0.135527144750D-04 0.000000000000D+00 0.000000000000D+00 0.278907038988D-06 0.000000000000D+00  7 -1 1 23 -13 13 23 21 2 0.24305200D+00 0.11068726D-01 0.10631892D+06 0.10631892D+06 0.10631892D+06 0.11195449D+01  1  2 12  1  7  1       -1 0.796239818606D-04 0.100000000000D+01
-.136077100965D-04 0.000000000000D+00 0.000000000000D+00 0.278907038988D-06 0.000000000000D+00  7 -1 1 23 -13 13 23 21 2 0.19643522D+00 0.11068726D-01 0.81199685D+05 0.81199685D+05 0.81199685D+05 0.11292206D+01  1  2  4  1  7  1       -1 -.194647189705D-03 0.100000000000D+01
-.301414499811D-04 0.000000000000D+00 -.834624385576D-05 0.278907038988D-06 0.000000000000D+00  7 -1 1 23 -13 13 23 21 2 0.24696612D+00 0.11068726D-01 0.81199685D+05 0.81199685D+05 0.81199685D+05 0.11292206D+01  1  2  5  1  7  1       -1 -.169186632369D-03 0.100000000000D+01
0.314387153775D-04 0.000000000000D+00 0.813223229202D-05 0.278907038988D-06 0.000000000000D+00  7 -1 1 23 -13 13 23 21 2 0.19643522D+00 0.11068726D-01 0.81199685D+05 0.81199685D+05 0.81199685D+05 0.11292206D+01  1  2  6  1  7  1       -1 0.449705171023D-03 0.100000000000D+01
0.406829546715D-06 0.000000000000D+00 0.000000000000D+00 0.278907038988D-06 0.000000000000D+00  7 21 1 23 -13 13 23 1 2 0.24305200D+00 0.11068726D-01 0.10631892D+06 0.10631892D+06 0.10631892D+06 0.11195449D+01  1  2 12  3  7  1       -1 0.174356127766D-04 0.100000000000D+01
-.834577868277D-06 0.000000000000D+00 -.264569680808D-06 0.278907038988D-06 0.000000000000D+00  7 21 1 23 -13 13 23 1 2 0.24696612D+00 0.11068726D-01 0.81199685D+05 0.81199685D+05 0.81199685D+05 0.11292206D+01  1  2  5  3  7  1       -1 -.348940756066D-04 0.100000000000D+01
  </mgrwgt>
  </event>
  <event>
  8     66 0.58687835E-06 0.12764789E+03 0.75467711E-02 0.10251597E+00
       -1 -1    0    0    0  501 0.00000000E+00 0.00000000E+00 0.34625759E+03 0.34625774E+03 0.32000000E+00 0.0000E+00 0.9000E+01
        1 -1    0    0  501    0 0.00000000E+00 0.00000000E+00 -.16919997E+04 0.16919997E+04 0.32000000E+00 0.0000E+00 0.9000E+01
       25  2    1    2    0    0 0.13947174E+03 0.11096344E+03 -.16430960E+04 0.16797749E+04 0.30019008E+03 0.0000E+00 0.0000E+00
       23  2    1    2    0    0 -.13947174E+03 -.11096344E+03 0.29735390E+03 0.35848253E+03 0.91242192E+02 0.0000E+00 0.0000E+00
       23  1    3    3    0    0 0.16559938E+03 0.13117716E+03 -.13864523E+04 0.14054166E+04 0.91188000E+02 0.0000E+00 0.9000E+01
      -13  1    4    4    0    0 -.79750927E+02 -.46291054E+02 0.73430786E+02 0.11787775E+03 0.10565837E+00 0.0000E+00 0.9000E+01
       13  1    4    4    0    0 -.59720810E+02 -.64672384E+02 0.22392311E+03 0.24060479E+03 0.10565837E+00 0.0000E+00 0.9000E+01
       23  1    3    3    0    0 -.26127642E+02 -.20213722E+02 -.25664370E+03 0.27435832E+03 0.91188000E+02 0.0000E+00 0.9000E+01
#aMCatNLO 1  0  0  2  1 0.19218267D+02 0.00000000D+00  -5  7  0 0.00000000D+00 0.00000000D+00 0.00000000D+00 0.00000000D+00 0.00000000D+00
  <mgrwgt>
 0.2290305736D-03    9    2    0
 0.765420096647885D+03 0.000000000000000D+00 0.000000000000000D+00 0.765420096647885D+03
 0.765420096647885D+03 0.000000000000000D+00 0.000000000000000D+00 -.765420096647885D+03
 0.652448025048652D+03 0.165599379120473D+03 0.131177159622733D+03 -.610526471558861D+03
 0.221501564757245D+03 -.797509540544206D+02 -.462910292142561D+02 0.201394809097958D+03
 0.517204786784304D+03 -.597207830185476D+02 -.646724084304238D+02 0.509658414171744D+03
 0.139685816705568D+03 -.261276420475051D+02 -.202137219780535D+02 -.100526751710841D+03
 0.000000000000000D+00 0.000000000000000D+00 -.000000000000000D+00 -.000000000000000D+00
 0.767168654073014D+03 0.000000000000000D+00 0.000000000000000D+00 0.767168654073014D+03
 0.820173632042622D+03 0.000000000000000D+00 0.000000000000000D+00 -.820173632042622D+03
 0.652219544613039D+03 0.159865475231111D+03 0.137023867943723D+03 -.610526471558861D+03
 0.221805132412472D+03 -.816992495851671D+02 -.443044044100813D+02 0.201394809097958D+03
 0.517190832545029D+03 -.642668644899754D+02 -.600368908354737D+02 0.509658414171744D+03
 0.139745312655365D+03 -.273557182844786D+02 -.189614855101833D+02 -.100526751710841D+03
 0.563814638897299D+02 0.134563571285100D+02 -.137210871879843D+02 -.530049779696082D+02
0.471725740755D-04 0.000000000000D+00 0.000000000000D+00 0.557917765004D-05 0.000000000000D+00  7 -1 1 23 -13 13 23 21 0 0.53270412D-01 0.26030766D+00 0.64345377D+05 0.64345377D+05 0.64345377D+05 0.11377825D+01  1  2  2  2  7  2        1 0.110164991276D-03 0.100000000000D+01
0.126583911684D-05 0.000000000000D+00 -.181155105274D-06 0.557917765004D-05 0.000000000000D+00  7 -1 1 23 -13 13 23 21 2 0.53270412D-01 0.26030766D+00 0.64345377D+05 0.64345377D+05 0.64345377D+05 0.11377825D+01  1  2  3  2  7  2        1 0.382693477532D-05 0.100000000000D+01
0.291923107076D-05 0.000000000000D+00 0.000000000000D+00 0.557917765004D-05 0.000000000000D+00  7 -1 1 23 -13 13 23 21 2 0.53270412D-01 0.26030766D+00 0.64345377D+05 0.64345377D+05 0.64345377D+05 0.11377825D+01  1  2 15  2  7  2        1 0.882553458273D-05 0.100000000000D+01
0.933932984355D-03 0.000000000000D+00 0.000000000000D+00 0.557917765004D-05 0.000000000000D+00  7 -1 1 23 -13 13 23 21 2 0.53270412D-01 0.27921379D+00 0.69334236D+05 0.69334236D+05 0.69334236D+05 0.11350126D+01  1  2 12  2  7  2        1 0.232794187963D-02 0.100000000000D+01
-.942426207512D-03 0.000000000000D+00 0.000000000000D+00 0.557917765004D-05 0.000000000000D+00  7 -1 1 23 -13 13 23 21 2 0.53270412D-01 0.26030766D+00 0.64345377D+05 0.64345377D+05 0.64345377D+05 0.11377825D+01  1  2  4  2  7  2        1 -.284918010410D-02 0.100000000000D+01
-.123330897091D-02 0.000000000000D+00 -.707753558300D-04 0.557917765004D-05 0.000000000000D+00  7 -1 1 23 -13 13 23 21 2 0.53270412D-01 0.27915715D+00 0.64345377D+05 0.64345377D+05 0.64345377D+05 0.11377825D+01  1  2  5  2  7  2        1 -.310452434706D-02 0.100000000000D+01
0.123540926741D-02 0.000000000000D+00 0.706027502287D-04 0.557917765004D-05 0.000000000000D+00  7 -1 1 23 -13 13 23 21 2 0.53270412D-01 0.26030766D+00 0.64345377D+05 0.64345377D+05 0.64345377D+05 0.11377825D+01  1  2  6  2  7  2        1 0.373493805359D-02 0.100000000000D+01
0.133470146313D-04 0.000000000000D+00 0.000000000000D+00 0.557917765004D-05 0.000000000000D+00  7 -1 21 23 -13 13 23 -1 2 0.53270412D-01 0.27921379D+00 0.69334236D+05 0.69334236D+05 0.69334236D+05 0.11350126D+01  1  2 12  4  7  2        1 0.209675052438D-04 0.100000000000D+01
-.150199247861D-04 0.000000000000D+00 -.837882493213D-06 0.557917765004D-05 0.000000000000D+00  7 -1 21 23 -13 13 23 -1 2 0.53270412D-01 0.27915715D+00 0.64345377D+05 0.64345377D+05 0.64345377D+05 0.11377825D+01  1  2  5  4  7  2        1 -.239298743354D-04 0.100000000000D+01
  </mgrwgt>
  </event>
  <event>
  8     66 0.58687835E-06 0.89981958E+02 0.75467711E-02 0.10453647E+00
       -1 -1    0    0    0  501 0.00000000E+00 0.00000000E+00 0.10976704E+03 0.10976750E+03 0.32000000E+00 0.0000E+00 0.9000E+01
        1 -1    0    0  501    0 0.00000000E+00 0.00000000E+00 -.52010242E+03 0.52010252E+03 0.32000000E+00 0.0000E+00 0.9000E+01
       25  2    1    2    0    0 -.87310594E+02 0.45811635E+02 -.37774060E+03 0.49263967E+03 0.30047303E+03 0.0000E+00 0.0000E+00
       23  2    1    2    0    0 0.87310594E+02 -.45811635E+02 -.32594783E+02 0.13723034E+03 0.89710099E+02 0.0000E+00 0.0000E+00
       23  1    3    3    0    0 0.26057940E+02 -.64173280E+02 -.67965013E+02 0.13316051E+03 0.91188000E+02 0.0000E+00 0.9000E+01
      -13  1    4    4    0    0 0.71458792E+02 -.46660546E+02 0.15361042E+02 0.86715271E+02 0.10565837E+00 0.0000E+00 0.9000E+01
       13  1    4    4    0    0 0.15851802E+02 0.84891118E+00 -.47955825E+02 0.50515073E+02 0.10565837E+00 0.0000E+00 0.9000E+01
       23  1    3    3    0    0 -.11336853E+03 0.10998492E+03 -.30977559E+03 0.35947917E+03 0.91188000E+02 0.0000E+00 0.9000E+01
#aMCatNLO 1  0  0  1  2 0.51386698D+02 0.00000000D+00  -5  7  0 0.00000000D+00 0.00000000D+00 0.00000000D+00 0.00000000D+00 0.00000000D+00
  <mgrwgt>
 0.1658726187D-03    9    2    0
 0.238935719672573D+03 0.000000000000000D+00 0.000000000000000D+00 0.238935719672573D+03
 0.238935719672573D+03 0.000000000000000D+00 0.000000000000000D+00 -.238935719672573D+03
 0.117155693598713D+03 0.260579371152719D+02 -.641732786476058D+02 0.247584211836860D+02
 0.127487420819799D+03 0.714588748032479D+02 -.466606135009308D+02 0.947072268987692D+02
 0.254040868554053D+02 0.158517256939353D+02 0.848974609066069D+00 -.198335489409831D+02
 0.207824238071229D+03 -.113368537612455D+03 0.109984917539471D+03 -.996320991414721D+02
 0.000000000000000D+00 -.000000000000000D+00 0.000000000000000D+00 0.000000000000000D+00
 0.284093023156342D+03 0.000000000000000D+00 0.000000000000000D+00 0.284093023156342D+03
 0.255392000483130D+03 0.000000000000000D+00 0.000000000000000D+00 -.255392000483130D+03
 0.125200361408480D+03 0.291497291974328D+02 -.767931834280986D+02 0.247584211836860D+02
 0.134924282959804D+03 0.748065214217243D+02 -.603248510826457D+02 0.947072268987692D+02
 0.258674853965543D+02 0.165058089646167D+02 -.182082606806857D+01 -.198335489409831D+02
 0.194634237833045D+03 -.108234282026547D+03 0.890281989468056D+02 -.996320991414721D+02
 0.588586560415882D+02 -.122277775572268D+02 0.499106616320073D+02 0.287010226732122D+02
0.101365485959D-05 0.000000000000D+00 0.000000000000D+00 0.111996236414D-06 0.000000000000D+00  7 -1 1 23 -13 13 23 21 0 0.16887280D-01 0.80015800D-01 0.39623545D+05 0.39623545D+05 0.39623545D+05 0.11562882D+01  1  2  2  1  7  1       -1 0.128556542112D-03 0.100000000000D+01
-.540310574277D-07 0.000000000000D+00 -.389270156230D-08 0.111996236414D-06 0.000000000000D+00  7 -1 1 23 -13 13 23 21 2 0.16887280D-01 0.80015800D-01 0.39623545D+05 0.39623545D+05 0.39623545D+05 0.11562882D+01  1  2  3  1  7  1       -1 -.916177736163D-05 0.100000000000D+01
0.662483395075D-07 0.000000000000D+00 0.000000000000D+00 0.111996236414D-06 0.000000000000D+00  7 -1 1 23 -13 13 23 21 2 0.16887280D-01 0.80015800D-01 0.39623545D+05 0.39623545D+05 0.39623545D+05 0.11562882D+01  1  2 15  1  7  1       -1 0.112334010482D-04 0.100000000000D+01
0.124891778065D-05 0.000000000000D+00 0.000000000000D+00 0.111996236414D-06 0.000000000000D+00  7 -1 1 23 -13 13 23 21 2 0.20578422D-01 0.80015800D-01 0.51533610D+05 0.51533610D+05 0.51533610D+05 0.11461431D+01  1  2 12  1  7  1       -1 0.152333328452D-03 0.100000000000D+01
-.127899799595D-05 0.000000000000D+00 0.000000000000D+00 0.111996236414D-06 0.000000000000D+00  7 -1 1 23 -13 13 23 21 2 0.16887280D-01 0.80015800D-01 0.39623545D+05 0.39623545D+05 0.39623545D+05 0.11562882D+01  1  2  4  1  7  1       -1 -.216873321432D-03 0.100000000000D+01
-.234821170824D-05 0.000000000000D+00 -.651486866732D-06 0.111996236414D-06 0.000000000000D+00  7 -1 1 23 -13 13 23 21 2 0.21378046D-01 0.80015800D-01 0.39623545D+05 0.39623545D+05 0.39623545D+05 0.11562882D+01  1  2  5  1  7  1       -1 -.274358052535D-03 0.100000000000D+01
0.245107643079D-05 0.000000000000D+00 0.633784756447D-06 0.111996236414D-06 0.000000000000D+00  7 -1 1 23 -13 13 23 21 2 0.16887280D-01 0.80015800D-01 0.39623545D+05 0.39623545D+05 0.39623545D+05 0.11562882D+01  1  2  6  1  7  1       -1 0.415616825291D-03 0.100000000000D+01
0.354216299825D-07 0.000000000000D+00 0.000000000000D+00 0.111996236414D-06 0.000000000000D+00  7 21 1 23 -13 13 23 1 2 0.20578422D-01 0.80015800D-01 0.51533610D+05 0.51533610D+05 0.51533610D+05 0.11461431D+01  1  2 12  3  7  1       -1 0.527981870717D-04 0.100000000000D+01
-.661875721902D-07 0.000000000000D+00 -.211135742957D-07 0.111996236414D-06 0.000000000000D+00  7 21 1 23 -13 13 23 1 2 0.21378046D-01 0.80015800D-01 0.39623545D+05 0.39623545D+05 0.39623545D+05 0.11562882D+01  1  2  5  3  7  1       -1 -.942725139330D-04 0.100000000000D+01
  </mgrwgt>
  </event>
  <event>
  8     66 0.58687835E-06 0.15264025E+03 0.75467711E-02 0.98682271E-01
       -1 -1    0    0    0  501 0.00000000E+00 0.00000000E+00 0.55956559E+02 0.55957474E+02 0.32000000E+00 0.0000E+00 0.9000E+01
        1 -1    0    0  501    0 0.00000000E+00 0.00000000E+00 -.22188385E+04 0.22188385E+04 0.32000000E+00 0.0000E+00 0.9000E+01
       25  2    1    2    0    0 -.11338809E+03 0.22808649E+03 -.88525271E+03 0.96932697E+03 0.30173184E+03 0.0000E+00 0.0000E+00
       23  2    1    2    0    0 0.11338809E+03 -.22808649E+03 -.12776292E+04 0.13054690E+04 0.83860793E+02 0.0000E+00 0.0000E+00
       23  1    3    3    0    0 0.31649340E+02 0.19861206E+03 -.47970556E+03 0.52809195E+03 0.91188000E+02 0.0000E+00 0.9000E+01
      -13  1    4    4    0    0 0.10558604E+03 -.18779694E+03 -.11809383E+04 0.12004297E+04 0.10565837E+00 0.0000E+00 0.9000E+01
       13  1    4    4    0    0 0.78020577E+01 -.40289551E+02 -.96690845E+02 0.10503928E+03 0.10565837E+00 0.0000E+00 0.9000E+01
       23  1    3    3    0    0 -.14503743E+03 0.29474431E+02 -.40554715E+03 0.44123502E+03 0.91188000E+02 0.0000E+00 0.9000E+01
#aMCatNLO 1  0  0  1  2 0.54837102D+02 0.00000000D+00  -5  7  0 0.00000000D+00 0.00000000D+00 0.00000000D+00 0.00000000D+00 0.00000000D+00
  <mgrwgt>
 0.4735361922D-03    9    2    0
 0.352362926988516D+03 0.000000000000000D+00 0.000000000000000D+00 0.352362926988516D+03
 0.352362926988516D+03 0.000000000000000D+00 0.000000000000000D+00 -.352362926988516D+03
 0.232366888428774D+03 0.316493399560716D+02 0.198612055696999D+03 0.723235100519014D+02
 0.250455844643409D+03 0.105586190965585D+03 -.187797171005175D+03 -.127718083903085D+03
 0.423027210785545D+02 0.780190277638253D+01 -.402893163224094D+02 0.102674979420836D+02
 0.179600399826294D+03 -.145037433698039D+03 0.294744316305851D+02 0.451270759091000D+02
 0.000000000000000D+00 -.000000000000000D+00 0.000000000000000D+00 0.000000000000000D+00
 0.533534261938048D+03 0.000000000000000D+00 0.000000000000000D+00 0.533534261938048D+03
 0.357602158559089D+03 0.000000000000000D+00 0.000000000000000D+00 -.357602158559089D+03
 0.227954977126283D+03 0.474197950101143D+02 0.190181211447439D+03 0.723235100519014D+02
 0.265348015302989D+03 0.123257438409323D+03 -.197244173921898D+03 -.127718083903085D+03
 0.444440230698530D+02 0.107738138065645D+02 -.418780922285677D+02 0.102674979420836D+02
 0.169109148845473D+03 -.133090774901780D+03 0.230877789139230D+02 0.451270759091000D+02
 0.184280256152538D+03 -.483602723242213D+02 0.258532757891042D+02 0.175932103378959D+03
0.205489213856D-04 0.000000000000D+00 0.000000000000D+00 0.208617063362D-08 0.000000000000D+00  7 -1 1 23 -13 13 23 21 0 0.86087736D-02 0.34135984D+00 0.10599764D+06 0.10599764D+06 0.10599764D+06 0.11196521D+01  1  2  2  1  7  1       -1 0.412380885330D-03 0.100000000000D+01
-.113292747497D-05 0.000000000000D+00 -.789132687758D-07 0.208617063362D-08 0.000000000000D+00  7 -1 1 23 -13 13 23 21 2 0.86087736D-02 0.34135984D+00 0.10599764D+06 0.10599764D+06 0.10599764D+06 0.11196521D+01  1  2  3  1  7  1       -1 -.285021614256D-04 0.100000000000D+01
0.133802619498D-05 0.000000000000D+00 0.000000000000D+00 0.208617063362D-08 0.000000000000D+00  7 -1 1 23 -13 13 23 21 2 0.86087736D-02 0.34135984D+00 0.10599764D+06 0.10599764D+06 0.10599764D+06 0.11196521D+01  1  2 15  1  7  1       -1 0.336620299564D-04 0.100000000000D+01
0.127941223723D-03 0.000000000000D+00 0.000000000000D+00 0.208617063362D-08 0.000000000000D+00  7 -1 1 23 -13 13 23 21 2 0.13072539D-01 0.34135984D+00 0.12596196D+06 0.12596196D+06 0.12596196D+06 0.11135879D+01  1  2 12  1  7  1       -1 0.166204218600D-02 0.100000000000D+01
-.120335666999D-03 0.000000000000D+00 0.000000000000D+00 0.208617063362D-08 0.000000000000D+00  7 -1 1 23 -13 13 23 21 2 0.86087736D-02 0.34135984D+00 0.10599764D+06 0.10599764D+06 0.10599764D+06 0.11196521D+01  1  2  4  1  7  1       -1 -.302740173739D-02 0.100000000000D+01
-.134319536873D-03 0.000000000000D+00 -.855061434277D-05 0.208617063362D-08 0.000000000000D+00  7 -1 1 23 -13 13 23 21 2 0.13200072D-01 0.34135984D+00 0.10599764D+06 0.10599764D+06 0.10599764D+06 0.11196521D+01  1  2  5  1  7  1       -1 -.174893461934D-02 0.100000000000D+01
0.126927408073D-03 0.000000000000D+00 0.782484400371D-05 0.208617063362D-08 0.000000000000D+00  7 -1 1 23 -13 13 23 21 2 0.86087736D-02 0.34135984D+00 0.10599764D+06 0.10599764D+06 0.10599764D+06 0.11196521D+01  1  2  6  1  7  1       -1 0.319323659648D-02 0.100000000000D+01
0.628793572610D-05 0.000000000000D+00 0.000000000000D+00 0.208617063362D-08 0.000000000000D+00  7 21 1 23 -13 13 23 1 2 0.13072539D-01 0.34135984D+00 0.12596196D+06 0.12596196D+06 0.12596196D+06 0.11135879D+01  1  2 12  3  7  1       -1 0.108133672978D-02 0.100000000000D+01
-.639644700013D-05 0.000000000000D+00 -.427478751081D-06 0.208617063362D-08 0.000000000000D+00  7 21 1 23 -13 13 23 1 2 0.13200072D-01 0.34135984D+00 0.10599764D+06 0.10599764D+06 0.10599764D+06 0.11196521D+01  1  2  5  3  7  1       -1 -.110428371719D-02 0.100000000000D+01
  </mgrwgt>
  </event>
  <event>
  8     66 0.58687835E-06 0.29543720E+03 0.75467711E-02 0.93618046E-01
       -1 -1    0    0    0  501 0.00000000E+00 0.00000000E+00 0.21759653E+03 0.21759677E+03 0.32000000E+00 0.0000E+00 0.9000E+01
        1 -1    0    0  501    0 0.00000000E+00 0.00000000E+00 -.61479916E+03 0.61479924E+03 0.32000000E+00 0.0000E+00 0.9000E+01
       25  2    1    2    0    0 0.11646306E+03 0.20142517E+03 -.22323096E+02 0.38103235E+03 0.30091791E+03 0.0000E+00 0.0000E+00
       23  2    1    2    0    0 -.11646306E+03 -.20142517E+03 -.37487953E+03 0.45136366E+03 0.95177474E+02 0.0000E+00 0.0000E+00
       23  1    3    3    0    0 0.13472615E+03 0.20903070E+03 -.73129823E+02 0.27478754E+03 0.91188000E+02 0.0000E+00 0.9000E+01
      -13  1    4    4    0    0 -.97058656E+02 -.16988368E+03 -.36317572E+03 0.41252571E+03 0.10565837E+00 0.0000E+00 0.9000E+01
       13  1    4    4    0    0 -.19404399E+02 -.31541488E+02 -.11703812E+02 0.38837952E+02 0.10565837E+00 0.0000E+00 0.9000E+01
       23  1    3    3    0    0 -.18263095E+02 -.76055352E+01 0.50806727E+02 0.10624481E+03 0.91188000E+02 0.0000E+00 0.9000E+01
#aMCatNLO 1  0  0  1  1 0.39797039D+03 0.00000000D+00  -5  7  0 0.00000000D+00 0.00000000D+00 0.00000000D+00 0.00000000D+00 0.00000000D+00
  <mgrwgt>
 0.1697801646D-03    5    2    0
 0.365757159345824D+03 0.000000000000000D+00 0.000000000000000D+00 0.365757159345824D+03
 0.365757159345824D+03 0.000000000000000D+00 0.000000000000000D+00 -.365757159345824D+03
 0.272974422196929D+03 0.134726150616054D+03 0.209030706300340D+03 0.659909993370962D+02
 0.272216980705078D+03 -.970587539124109D+02 -.169883855265687D+03 -.189264784345177D+03
 0.378387111083633D+02 -.194043025536011D+02 -.315413165617864D+02 0.777087191373445D+01
 0.148484204681277D+03 -.182630941500418D+02 -.760553447286659D+01 0.115502913094346D+03
 0.000000000000000D+00 -.000000000000000D+00 0.000000000000000D+00 0.000000000000000D+00
 0.625383555823446D+03 0.000000000000000D+00 0.000000000000000D+00 0.625383555823446D+03
 0.605829583210570D+03 0.000000000000000D+00 0.000000000000000D+00 -.605829583210570D+03
 0.376965687902921D+03 0.299769459468523D+03 0.198925457618082D+03 0.659909993370962D+02
 0.262837814498011D+03 0.388110169256002D+02 -.178202870633627D+03 -.189264784345177D+03
 0.335877069705510D+02 -.126655078842258D+01 -.326518522957011D+02 0.777087191373445D+01
 0.159371441271129D+03 0.599125926053018D+02 -.123920645119317D+02 0.115502913094346D+03
 0.398450488391404D+03 -.397226518211002D+03 0.243213298231788D+02 0.195539726128770D+02
0.467054287550D-05 0.000000000000D+00 0.000000000000D+00 0.291498187602D-07 0.000000000000D+00  7 -1 1 23 -13 13 23 21 0 0.33476414D-01 0.94584511D-01 0.87283139D+05 0.87283139D+05 0.87283139D+05 0.11266019D+01  1  2  2  1  7  1       -1 0.153809006202D-03 0.100000000000D+01
-.245092371148D-06 0.000000000000D+00 -.179361144241D-07 0.291498187602D-07 0.000000000000D+00  7 -1 1 23 -13 13 23 21 2 0.33476414D-01 0.94584511D-01 0.87283139D+05 0.87283139D+05 0.87283139D+05 0.11266019D+01  1  2  3  1  7  1       -1 -.102443669385D-04 0.100000000000D+01
0.308456638077D-06 0.000000000000D+00 0.000000000000D+00 0.291498187602D-07 0.000000000000D+00  7 -1 1 23 -13 13 23 21 2 0.33476414D-01 0.94584511D-01 0.87283139D+05 0.87283139D+05 0.87283139D+05 0.11266019D+01  1  2 15  1  7  1       -1 0.128928655359D-04 0.100000000000D+01
0.748730366158D-06 0.000000000000D+00 -.147109023003D-05 0.291498187602D-07 0.000000000000D+00  7 -1 1 23 -13 13 23 21 2 0.90607857D-01 0.94584511D-01 0.87283139D+05 0.87283139D+05 0.87283139D+05 0.11266019D+01  1  2  5  1  7  1       -1 0.496097513596D-05 0.100000000000D+01
0.168613841653D-06 0.000000000000D+00 -.163461035959D-06 0.291498187602D-07 0.000000000000D+00  7 21 1 23 -13 13 23 1 2 0.90607857D-01 0.94584511D-01 0.87283139D+05 0.87283139D+05 0.87283139D+05 0.11266019D+01  1  2  5  3  7  1       -1 0.836168467534D-05 0.100000000000D+01
  </mgrwgt>
  </event>
  <event>
  9     66 0.58687835E-06 0.16036262E+03 0.75467711E-02 0.10675594E+00
       21 -1    0    0  502  501 0.00000000E+00 0.00000000E+00 0.69553782E+02 0.69557826E+02 0.75000000E+00 0.0000E+00 0.9000E+01
        1 -1    0    0  501    0 0.00000000E+00 0.00000000E+00 -.11697107E+04 0.11697108E+04 0.32000000E+00 0.0000E+00 0.9000E+01
       25  2    1    2    0    0 0.36145069E+02 -.66524769E+02 -.40397846E+03 0.50939595E+03 0.30092131E+03 0.0000E+00 0.0000E+00
       23  2    1    2    0    0 0.11688920E+02 0.27940015E+02 -.63828734E+03 0.64544302E+03 0.90932298E+02 0.0000E+00 0.0000E+00
       23  1    3    3    0    0 0.72246631E+02 -.48549720E+01 -.33408399E+02 0.12113843E+03 0.91188000E+02 0.0000E+00 0.9000E+01
      -11  1    4    4    0    0 0.50456397E+02 0.84438869E+01 -.29201976E+03 0.29646701E+03 0.51099893E-03 0.0000E+00 0.9000E+01
       11  1    4    4    0    0 -.38767477E+02 0.19496128E+02 -.34626759E+03 0.34897601E+03 0.51099893E-03 0.0000E+00 0.9000E+01
       23  1    3    3    0    0 -.36101562E+02 -.61669797E+02 -.37057006E+03 0.38825753E+03 0.91188000E+02 0.0000E+00 0.9000E+01
        1  1    1    2  502    0 -.47833990E+02 0.38584754E+02 -.57891133E+02 0.84429613E+02 0.32000000E+00 0.0000E+00 0.9000E+01
#aMCatNLO 2  0  0  1  2 0.61456276D+02 0.00000000D+00  -5  7  0 0.00000000D+00 0.00000000D+00 0.00000000D+00 0.00000000D+00 0.00000000D+00
  <mgrwgt>
 0.2371181269D-04    2    2    0
 0.246758069770697D+03 0.000000000000000D+00 0.000000000000000D+00 0.246758069770697D+03
 0.246758069770697D+03 0.000000000000000D+00 0.000000000000000D+00 -.246758069770697D+03
 0.205528787860467D+03 0.521248169017329D+02 0.113760645887036D+02 0.176296397900885D+03
 0.727873286111593D+02 0.432529096562850D+02 0.142544996575167D+02 -.567801924277119D+02
 0.906047238146327D+02 -.472289893773727D+02 0.263215126852650D+02 -.727036210231466D+02
 0.124595299255135D+03 -.481487371806452D+02 -.519520769314853D+02 -.468125844500269D+02
 0.000000000000000D+00 -.000000000000000D+00 0.000000000000000D+00 0.000000000000000D+00
 0.307284674114697D+03 0.000000000000000D+00 0.000000000000000D+00 0.307284674114697D+03
 0.264771205304316D+03 0.000000000000000D+00 0.000000000000000D+00 -.264771205304316D+03
 0.211279004351468D+03 0.722466308526995D+02 -.485497202403610D+01 0.176296397900885D+03
 0.764273346773677D+02 0.504563970899393D+02 0.844388692846720D+01 -.567801924277119D+02
 0.846689598083902D+02 -.387674766171464D+02 0.194961278693101D+02 -.727036210231466D+02
 0.124952614926454D+03 -.361015614923834D+02 -.616697967231889D+02 -.468125844500269D+02
 0.747279656553332D+02 -.478339898331091D+02 0.385847539494477D+02 0.425134688103811D+02
-.413342714851D-07 0.000000000000D+00 0.000000000000D+00 0.748251406893D-07 0.000000000000D+00  7 21 1 23 -11 11 23 1 2 0.10957330D-01 0.16771270D+00 0.37694384D+05 0.37694384D+05 0.37694384D+05 0.11582464D+01  1  2 13  3  7  1       -1 -.617911411370D-04 0.100000000000D+01
0.624847971913D-07 0.000000000000D+00 0.000000000000D+00 0.748251406893D-07 0.501978208025D-11  7 21 1 23 -11 11 23 1 2 0.10700883D-01 0.17995558D+00 0.37694384D+05 0.37694384D+05 0.37694384D+05 0.11582464D+01  1  2  1  3  7  1       -1 0.855029538269D-04 0.100000000000D+01
  </mgrwgt>
  </event>
  <event>
  8     66 0.58687835E-06 0.75763495E+02 0.75467711E-02 0.10446546E+00
       -1 -1    0    0    0  501 0.00000000E+00 0.00000000E+00 0.14221676E+03 0.14221712E+03 0.32000000E+00 0.0000E+00 0.9000E+01
        1 -1    0    0  501    0 0.00000000E+00 0.00000000E+00 -.60541536E+03 0.60541545E+03 0.32000000E+00 0.0000E+00 0.9000E+01
       25  2    1    2    0    0 -.16346850E+03 0.13883280E+02 -.13131298E+03 0.36637885E+03 0.30012609E+03 0.0000E+00 0.0000E+00
       23  2    1    2    0    0 0.16346850E+03 -.13883280E+02 -.33188562E+03 0.38125372E+03 0.91058437E+02 0.0000E+00 0.0000E+00
       23  1    3    3    0    0 -.19681145E+02 -.29276556E+01 0.59036967E+02 0.11043792E+03 0.91188000E+02 0.0000E+00 0.9000E+01
      -13  1    4    4    0    0 0.12148436E+03 0.20374644E+02 -.28145281E+03 0.30722837E+03 0.10565837E+00 0.0000E+00 0.9000E+01
       13  1    4    4    0    0 0.41984136E+02 -.34257923E+02 -.50432815E+02 0.74025354E+02 0.10565837E+00 0.0000E+00 0.9000E+01
       23  1    3    3    0    0 -.14378735E+03 0.16810935E+02 -.19034994E+03 0.25594093E+03 0.91188000E+02 0.0000E+00 0.9000E+01
#aMCatNLO 1  0  0  1  2 0.14247795D+02 0.00000000D+00  -5  7  0 0.00000000D+00 0.00000000D+00 0.00000000D+00 0.00000000D+00 0.00000000D+00
  <mgrwgt>
 0.1254093463D-03    6    2    0
 0.293428663574345D+03 0.000000000000000D+00 0.000000000000000D+00 0.293428663574345D+03
 0.293428663574345D+03 0.000000000000000D+00 0.000000000000000D+00 -.293428663574345D+03
 0.187290537536027D+03 -.196811453319577D+02 -.292765553842014D+01 0.162377878598055D+03
 0.169249790742645D+03 0.121484466995021D+03 0.203747168106046D+02 -.116068457645703D+03
 0.544992187293139D+02 0.419840294523529D+02 -.342579966164434D+02 -.582200831992774D+01
 0.175817780140705D+03 -.143787351115417D+03 0.168109353442589D+02 -.404874126324245D+02
 0.000000000000000D+00 -.000000000000000D+00 0.000000000000000D+00 -.000000000000000D+00
 0.299810900615636D+03 0.000000000000000D+00 0.000000000000000D+00 0.299810900615636D+03
 0.301576079276321D+03 0.000000000000000D+00 0.000000000000000D+00 -.301576079276321D+03
 0.187258174017175D+03 -.182084024455915D+02 -.722848632987670D+01 0.162377878598055D+03
 0.169787186985408D+03 0.122817576098757D+03 0.164816566337094D+02 -.116068457645703D+03
 0.556323575353309D+02 0.424170719125324D+02 -.355226045558125D+02 -.582200831992774D+01
 0.174352537989106D+03 -.142410465201422D+03 0.127900343505763D+02 -.404874126324245D+02
 0.143567233649370D+02 -.461578036427569D+01 0.134793999014035D+02 -.176517866068576D+01
0.997138604116D-06 0.000000000000D+00 0.000000000000D+00 0.428509623060D-06 0.000000000000D+00  7 -1 1 23 -13 13 23 21 0 0.21879536D-01 0.93140859D-01 0.48795648D+05 0.48795648D+05 0.48795648D+05 0.11482279D+01  1  2  2  1  7  1       -1 0.678805650088D-04 0.100000000000D+01
-.499665053752D-07 0.000000000000D+00 -.382927479243D-08 0.428509623060D-06 0.000000000000D+00  7 -1 1 23 -13 13 23 21 2 0.21879536D-01 0.93140859D-01 0.48795648D+05 0.48795648D+05 0.48795648D+05 0.11482279D+01  1  2  3  1  7  1       -1 -.448461456258D-05 0.100000000000D+01
0.643247866237D-07 0.000000000000D+00 0.000000000000D+00 0.428509623060D-06 0.000000000000D+00  7 -1 1 23 -13 13 23 21 2 0.21879536D-01 0.93140859D-01 0.48795648D+05 0.48795648D+05 0.48795648D+05 0.11482279D+01  1  2 15  1  7  1       -1 0.577330499024D-05 0.100000000000D+01
0.152822462976D-05 0.000000000000D+00 0.000000000000D+00 0.428509623060D-06 0.000000000000D+00  7 -1 1 23 -13 13 23 21 2 0.22651806D-01 0.93140859D-01 0.52063461D+05 0.52063461D+05 0.52063461D+05 0.11457538D+01  1  2 12  1  7  1       -1 0.129130390326D-03 0.100000000000D+01
-.104547762851D-05 0.000000000000D+00 0.000000000000D+00 0.428509623060D-06 0.000000000000D+00  7 -1 1 23 -13 13 23 21 2 0.21879536D-01 0.93140859D-01 0.48795648D+05 0.48795648D+05 0.48795648D+05 0.11482279D+01  1  2  4  1  7  1       -1 -.938341427415D-04 0.100000000000D+01
0.207671979030D-07 0.000000000000D+00 0.000000000000D+00 0.428509623060D-06 0.000000000000D+00  7 21 1 23 -13 13 23 1 2 0.22651806D-01 0.93140859D-01 0.52063461D+05 0.52063461D+05 0.52063461D+05 0.11457538D+01  1  2 12  3  7  1       -1 0.209438432701D-04 0.100000000000D+01
  </mgrwgt>
  </event>
  <event>
  9     66 -.58687835E-06 0.20257095E+03 0.75467711E-02 0.10589608E+00
       -1 -1    0    0    0  501 0.00000000E+00 0.00000000E+00 0.11825363E+03 0.11825406E+03 0.32000000E+00 0.0000E+00 0.9000E+01
        1 -1    0    0  502    0 0.00000000E+00 0.00000000E+00 -.48429686E+03 0.48429697E+03 0.32000000E+00 0.0000E+00 0.9000E+01
       25  2    1    2    0    0 0.60916249E+02 0.61511454E+02 -.14817836E+03 0.34543025E+03 0.29978456E+03 0.0000E+00 0.0000E+00
       23  2    1    2    0    0 -.65477368E+02 -.66005207E+02 -.21191622E+03 0.24834886E+03 0.90137103E+02 0.0000E+00 0.0000E+00
       23  1    3    3    0    0 0.10953013E+03 -.55212434E+02 -.98416733E+02 0.18178659E+03 0.91188000E+02 0.0000E+00 0.9000E+01
      -13  1    4    4    0    0 -.53049753E+02 -.65972814E+02 -.21846999E+03 0.23429860E+03 0.10565837E+00 0.0000E+00 0.9000E+01
       13  1    4    4    0    0 -.12427614E+02 -.32392587E-01 0.65537664E+01 0.14050255E+02 0.10565837E+00 0.0000E+00 0.9000E+01
       23  1    3    3    0    0 -.48613877E+02 0.11672389E+03 -.49761628E+02 0.16364366E+03 0.91188000E+02 0.0000E+00 0.9000E+01
       21  1    1    2  502  501 0.45611190E+01 0.44937532E+01 -.59486550E+01 0.87719223E+01 0.75000000E+00 0.0000E+00 0.9000E+01
#aMCatNLO 2  0  0  2  1 0.64029387D+01 0.00000000D+00  -5  7  0 0.00000000D+00 0.00000000D+00 0.00000000D+00 0.00000000D+00 0.00000000D+00
  <mgrwgt>
 -.3491726644D-04    3    2    0
 0.236042646001790D+03 0.000000000000000D+00 0.000000000000000D+00 0.236042646001790D+03
 0.236042646001790D+03 0.000000000000000D+00 0.000000000000000D+00 -.236042646001790D+03
 0.154110327577189D+03 0.111016377148219D+03 -.537481333536938D+02 0.148742693207560D+02
 0.126912222461747D+03 -.518182378135483D+02 -.647595205950275D+02 -.960613706563709D+02
 0.225506359885921D+02 -.122091213047263D+02 0.182906354680327D+00 0.189587733179623D+02
 0.168512105976053D+03 -.469890180299444D+02 0.118324747594041D+03 0.622283280176526D+02
 0.000000000000000D+00 0.000000000000000D+00 0.000000000000000D+00 -.000000000000000D+00
 0.238894682965957D+03 0.000000000000000D+00 0.000000000000000D+00 0.238894682965957D+03
 0.239685635646567D+03 0.000000000000000D+00 0.000000000000000D+00 -.239685635646567D+03
 0.153563526778874D+03 0.109530128215325D+03 -.552124310103622D+02 0.148742693207560D+02
 0.128040986618331D+03 -.530498144638496D+02 -.659729073723908D+02 -.960613706563709D+02
 0.226689291548442D+02 -.124275588790890D+02 -.323049879073638D-01 0.189587733179623D+02
 0.167855269294441D+03 -.486138738487867D+02 0.116723890217261D+03 0.622283280176526D+02
 0.645160676603363D+01 0.456111897640032D+01 0.449375315339954D+01 -.790952680609543D+00
-.477109042546D-06 0.000000000000D+00 0.000000000000D+00 0.163441987642D-06 0.000000000000D+00  7 -1 1 23 -13 13 23 21 2 0.17974080D-01 0.74937647D-01 0.42481887D+05 0.42481887D+05 0.42481887D+05 0.11535725D+01  1  2 13  2  7  2        1 -.798677316763D-04 0.100000000000D+01
-.289964430551D-05 0.000000000000D+00 0.000000000000D+00 0.163441987642D-06 0.000000000000D+00  7 -1 1 23 -13 13 23 21 2 0.17974080D-01 0.73368151D-01 0.41034992D+05 0.41034992D+05 0.41034992D+05 0.11549211D+01  1  2  8  2  7  2        1 -.500613583051D-03 0.100000000000D+01
0.329502165248D-05 0.000000000000D+00 0.000000000000D+00 0.163441987642D-06 0.282980280562D-07  7 -1 1 23 -13 13 23 21 2 0.18191255D-01 0.74500487D-01 0.42481887D+05 0.42481887D+05 0.42481887D+05 0.11535725D+01  1  2  1  2  7  2        1 0.545564048289D-03 0.100000000000D+01
  </mgrwgt>
  </event>
  <event>
  8     66 0.58687835E-06 0.13161039E+03 0.75467711E-02 0.99441267E-01
       -1 -1    0    0    0  501 0.00000000E+00 0.00000000E+00 0.34805060E+03 0.34805075E+03 0.32000000E+00 0.0000E+00 0.9000E+01
        1 -1    0    0  501    0 0.00000000E+00 0.00000000E+00 -.29868031E+03 0.29868048E+03 0.32000000E+00 0.0000E+00 0.9000E+01
       25  2    1    2    0    0 0.20662171E+03 0.37570994E+02 -.96205169E+02 0.37778838E+03 0.29893898E+03 0.0000E+00 0.0000E+00
       23  2    1    2    0    0 -.20662171E+03 -.37570994E+02 0.14557547E+03 0.26894285E+03 0.83868532E+02 0.0000E+00 0.0000E+00
       23  1    3    3    0    0 0.21900168E+03 0.59269430E+02 -.13055944E+03 0.27719239E+03 0.91188000E+02 0.0000E+00 0.9000E+01
      -13  1    4    4    0    0 0.46214735E+01 0.59863176E+01 -.17234427E+01 0.77572827E+01 0.10565837E+00 0.0000E+00 0.9000E+01
       13  1    4    4    0    0 -.21124318E+03 -.43557312E+02 0.14729891E+03 0.26118557E+03 0.10565837E+00 0.0000E+00 0.9000E+01
       23  1    3    3    0    0 -.12379966E+02 -.21698436E+02 0.34354274E+02 0.10059599E+03 0.91188000E+02 0.0000E+00 0.9000E+01
#aMCatNLO 1  0  0  2  1 0.98974521D+02 0.00000000D+00  -5  7  0 0.00000000D+00 0.00000000D+00 0.00000000D+00 0.00000000D+00 0.00000000D+00
  <mgrwgt>
 0.6706843194D-03    9    2    0
 0.322422027816490D+03 0.000000000000000D+00 0.000000000000000D+00 0.322422027816490D+03
 0.322422027816490D+03 0.000000000000000D+00 0.000000000000000D+00 -.322422027816490D+03
 0.287999446865630D+03 0.219001676576168D+03 0.592694304025428D+02 -.152163827263561D+03
 0.791154870634905D+01 0.462181582059785D+01 0.598639607852505D+01 -.232260273065044D+01
 0.250672888854012D+03 -.211243526815989D+03 -.435573904303353D+02 0.127733407234199D+03
 0.982601712069885D+02 -.123799655807767D+02 -.216984360507326D+02 0.267530227600125D+02
 0.000000000000000D+00 0.000000000000000D+00 -.000000000000000D+00 -.000000000000000D+00
 0.364167229772724D+03 0.000000000000000D+00 0.000000000000000D+00 0.364167229772724D+03
 0.390696552254300D+03 0.000000000000000D+00 0.000000000000000D+00 -.390696552254300D+03
 0.259652371583174D+03 0.177758731738687D+03 0.659704910389890D+02 -.152163827263561D+03
 0.745135105481470D+01 0.346485585799223D+01 0.617437632324111D+01 -.232260273065044D+01
 0.284539437766239D+03 -.251549669732964D+03 -.370085392565836D+02 0.127733407234199D+03
 0.100752280999226D+03 -.273673340360866D+02 -.192633222344048D+02 0.267530227600125D+02
 0.102468340623571D+03 0.976934161723720D+02 -.158730058712417D+02 -.265293224815758D+02
0.124588747004D-04 0.000000000000D+00 0.000000000000D+00 0.398007358174D-08 0.000000000000D+00  7 -1 1 23 -13 13 23 21 0 0.53546271D-01 0.45950841D-01 0.79050408D+05 0.79050408D+05 0.79050408D+05 0.11301977D+01  1  2  2  2  7  2        1 0.481470463517D-03 0.100000000000D+01
-.676378008053D-06 0.000000000000D+00 -.478453593468D-07 0.398007358174D-08 0.000000000000D+00  7 -1 1 23 -13 13 23 21 2 0.53546271D-01 0.45950841D-01 0.79050408D+05 0.79050408D+05 0.79050408D+05 0.11301977D+01  1  2  3  2  7  2        1 -.333879054246D-04 0.100000000000D+01
0.802564192575D-06 0.000000000000D+00 0.000000000000D+00 0.398007358174D-08 0.000000000000D+00  7 -1 1 23 -13 13 23 21 2 0.53546271D-01 0.45950841D-01 0.79050408D+05 0.79050408D+05 0.79050408D+05 0.11301977D+01  1  2 15  2  7  2        1 0.396168075245D-04 0.100000000000D+01
0.838555869964D-05 0.000000000000D+00 0.000000000000D+00 0.398007358174D-08 0.000000000000D+00  7 -1 1 23 -13 13 23 21 2 0.53546271D-01 0.58140253D-01 0.11150301D+06 0.11150301D+06 0.11150301D+06 0.11178622D+01  1  2 12  2  7  2        1 0.295416928342D-03 0.100000000000D+01
-.883804494295D-05 0.000000000000D+00 0.000000000000D+00 0.398007358174D-08 0.000000000000D+00  7 -1 1 23 -13 13 23 21 2 0.53546271D-01 0.45950841D-01 0.79050408D+05 0.79050408D+05 0.79050408D+05 0.11301977D+01  1  2  4  2  7  2        1 -.436270554601D-03 0.100000000000D+01
-.177315243962D-04 0.000000000000D+00 -.658066932715D-05 0.398007358174D-08 0.000000000000D+00  7 -1 1 23 -13 13 23 21 2 0.53546271D-01 0.61914429D-01 0.79050408D+05 0.79050408D+05 0.79050408D+05 0.11301977D+01  1  2  5  2  7  2        1 -.590586579457D-03 0.100000000000D+01
0.191195510877D-04 0.000000000000D+00 0.629857893679D-05 0.398007358174D-08 0.000000000000D+00  7 -1 1 23 -13 13 23 21 2 0.53546271D-01 0.45950841D-01 0.79050408D+05 0.79050408D+05 0.79050408D+05 0.11301977D+01  1  2  6  2  7  2        1 0.943794381064D-03 0.100000000000D+01
0.271317074482D-06 0.000000000000D+00 0.000000000000D+00 0.398007358174D-08 0.000000000000D+00  7 -1 21 23 -13 13 23 -1 2 0.53546271D-01 0.58140253D-01 0.11150301D+06 0.11150301D+06 0.11150301D+06 0.11178622D+01  1  2 12  4  7  2        1 0.373250570816D-04 0.100000000000D+01
-.536248645781D-06 0.000000000000D+00 -.253261916379D-06 0.398007358174D-08 0.000000000000D+00  7 -1 21 23 -13 13 23 -1 2 0.53546271D-01 0.61914429D-01 0.79050408D+05 0.79050408D+05 0.79050408D+05 0.11301977D+01  1  2  5  4  7  2        1 -.666942786170D-04 0.100000000000D+01
  </mgrwgt>
  </event>
  <event>
  8     66 0.58687835E-06 0.24903378E+03 0.75467711E-02 0.94123565E-01
       -1 -1    0    0    0  501 0.00000000E+00 0.00000000E+00 0.15324708E+04 0.15324708E+04 0.32000000E+00 0.0000E+00 0.9000E+01
        1 -1    0    0  501    0 0.00000000E+00 0.00000000E+00 -.67868606E+03 0.67868613E+03 0.32000000E+00 0.0000E+00 0.9000E+01
       25  2    1    2    0    0 -.18771229E+02 -.37915424E+03 -.56216847E+03 0.74229673E+03 0.30143116E+03 0.0000E+00 0.0000E+00
       23  2    1    2    0    0 0.18771229E+02 0.37915424E+03 0.14159532E+04 0.14688602E+04 0.92285400E+02 0.0000E+00 0.0000E+00
       23  1    3    3    0    0 -.11223527E+02 -.33136902E+03 -.28530990E+03 0.44682030E+03 0.91188000E+02 0.0000E+00 0.9000E+01
      -11  1    4    4    0    0 -.18814479E+02 0.47228114E+02 0.28912660E+03 0.29356203E+03 0.51099893E-03 0.0000E+00 0.9000E+01
       11  1    4    4    0    0 0.37585708E+02 0.33192613E+03 0.11268266E+04 0.11752982E+04 0.51099893E-03 0.0000E+00 0.9000E+01
       23  1    3    3    0    0 -.75477023E+01 -.47785221E+02 -.27685858E+03 0.29547643E+03 0.91188000E+02 0.0000E+00 0.9000E+01
#aMCatNLO 1  0  0  1  2 0.19513417D+03 0.00000000D+00  -5  7  0 0.00000000D+00 0.00000000D+00 0.00000000D+00 0.00000000D+00 0.00000000D+00
  <mgrwgt>
 0.9697306101D-04    9    2    0
 0.101983659464251D+04 0.000000000000000D+00 0.000000000000000D+00 0.101983659464251D+04
 0.101983659464251D+04 0.000000000000000D+00 0.000000000000000D+00 -.101983659464251D+04
 0.603813915383855D+03 -.112235271402105D+02 -.331369020930009D+03 -.496331136917282D+03
 0.197217800879280D+03 -.188144789569942D+02 0.472281143305164D+02 0.190552831472061D+03
 0.802433170547337D+03 0.375857083847739D+02 0.331926127864305D+03 0.729596705969041D+03
 0.436208302474538D+03 -.754770228756925D+01 -.477852212648130D+02 -.423818400523820D+03
 0.000000000000000D+00 -.000000000000000D+00 0.000000000000000D+00 0.000000000000000D+00
 0.185765143343423D+04 0.000000000000000D+00 0.000000000000000D+00 0.185765143343423D+04
 0.103591865587132D+04 0.000000000000000D+00 0.000000000000000D+00 -.103591865587132D+04
 0.610611525757621D+03 0.459807432858678D+02 -.340693935692032D+03 -.496331136917282D+03
 0.195614821022692D+03 -.310499400749134D+00 0.442117655363616D+02 0.190552831472061D+03
 0.804536947530843D+03 0.113280395013512D+03 0.319587075281453D+03 0.729596705969041D+03
 0.438222812318178D+03 0.336414825442004D+02 -.544995038666654D+02 -.423818400523820D+03
 0.844583982676211D+03 -.192592121442831D+03 0.313945987408826D+02 0.821732777562913D+03
0.589010213866D-03 0.000000000000D+00 0.000000000000D+00 0.832350973305D-06 0.000000000000D+00  7 -1 1 23 -11 11 23 21 0 0.23576475D+00 0.10441325D+00 0.17304827D+06 0.17304827D+06 0.17304827D+06 0.11026863D+01  1  2  2  1  7  1       -1 0.153015911508D-03 0.100000000000D+01
-.729431880554D-06 0.000000000000D+00 -.226195431120D-05 0.832350973305D-06 0.000000000000D+00  7 -1 1 23 -11 11 23 21 2 0.23576475D+00 0.10441325D+00 0.17304827D+06 0.17304827D+06 0.17304827D+06 0.11026863D+01  1  2  3  1  7  1       -1 -.230410601119D-06 0.100000000000D+01
0.364973347073D-04 0.000000000000D+00 0.000000000000D+00 0.832350973305D-06 0.000000000000D+00  7 -1 1 23 -11 11 23 21 2 0.23576475D+00 0.10441325D+00 0.17304827D+06 0.17304827D+06 0.17304827D+06 0.11026863D+01  1  2 15  1  7  1       -1 0.115286609392D-04 0.100000000000D+01
0.222608402179D-02 0.000000000000D+00 0.000000000000D+00 0.832350973305D-06 0.000000000000D+00  7 -1 1 23 -11 11 23 21 2 0.42989024D+00 0.10441325D+00 0.27327817D+06 0.27327817D+06 0.27327817D+06 0.10875622D+01  1  2 12  1  7  1       -1 0.123736501502D-04 0.100000000000D+01
-.282381293632D-02 0.000000000000D+00 0.000000000000D+00 0.832350973305D-06 0.000000000000D+00  7 -1 1 23 -11 11 23 21 2 0.23576475D+00 0.10441325D+00 0.17304827D+06 0.17304827D+06 0.17304827D+06 0.11026863D+01  1  2  4  1  7  1       -1 -.891976966527D-03 0.100000000000D+01
-.302282104677D-02 0.000000000000D+00 -.157692194206D-03 0.832350973305D-06 0.000000000000D+00  7 -1 1 23 -11 11 23 21 2 0.43087174D+00 0.10441325D+00 0.17304827D+06 0.17304827D+06 0.17304827D+06 0.11026863D+01  1  2  5  1  7  1       -1 -.177808739659D-04 0.100000000000D+01
0.264686002488D-02 0.000000000000D+00 0.132808508622D-03 0.832350973305D-06 0.000000000000D+00  7 -1 1 23 -11 11 23 21 2 0.23576475D+00 0.10441325D+00 0.17304827D+06 0.17304827D+06 0.17304827D+06 0.11026863D+01  1  2  6  1  7  1       -1 0.836081648839D-03 0.100000000000D+01
0.146258446551D-03 0.000000000000D+00 0.000000000000D+00 0.832350973305D-06 0.000000000000D+00  7 21 1 23 -11 11 23 1 2 0.42989024D+00 0.10441325D+00 0.27327817D+06 0.27327817D+06 0.27327817D+06 0.10875622D+01  1  2 12  3  7  1       -1 0.148425587312D-04 0.100000000000D+01
-.190699103014D-03 0.000000000000D+00 -.103953961056D-04 0.832350973305D-06 0.000000000000D+00  7 21 1 23 -11 11 23 1 2 0.43087174D+00 0.10441325D+00 0.17304827D+06 0.17304827D+06 0.17304827D+06 0.11026863D+01  1  2  5  3  7  1       -1 -.208811180647D-04 0.100000000000D+01
  </mgrwgt>
  </event>
  <event>
  8     66 0.58687835E-06 0.23100748E+03 0.75467711E-02 0.10145269E+00
       -3 -1    0    0    0  501 0.00000000E+00 0.00000000E+00 0.19181594E+03 0.19181660E+03 0.50000000E+00 0.0000E+00 0.9000E+01
        3 -1    0    0  501    0 0.00000000E+00 0.00000000E+00 -.38867266E+03 0.38867298E+03 0.50000000E+00 0.0000E+00 0.9000E+01
       25  2    1    2    0    0 -.97277827E+02 0.91654856E+02 -.24669719E+03 0.41077687E+03 0.30002425E+03 0.0000E+00 0.0000E+00
       23  2    1    2    0    0 0.97277827E+02 -.91654856E+02 0.49840476E+02 0.16971270E+03 0.91949658E+02 0.0000E+00 0.0000E+00
       23  1    3    3    0    0 0.65402693E+02 0.37822169E+02 -.15776905E+03 0.19726722E+03 0.91188000E+02 0.0000E+00 0.9000E+01
      -13  1    4    4    0    0 0.93372119E+02 -.46768055E+02 0.64003132E+02 0.12248272E+03 0.10565837E+00 0.0000E+00 0.9000E+01
       13  1    4    4    0    0 0.39057075E+01 -.44886801E+02 -.14162656E+02 0.47229985E+02 0.10565837E+00 0.0000E+00 0.9000E+01
       23  1    3    3    0    0 -.16268052E+03 0.53832688E+02 -.88928136E+02 0.21350966E+03 0.91188000E+02 0.0000E+00 0.9000E+01
#aMCatNLO 1  0  0  1  2 0.11042922D+03 0.00000000D+00  -5  7  0 0.00000000D+00 0.00000000D+00 0.00000000D+00 0.00000000D+00 0.00000000D+00
  <mgrwgt>
 0.1321199215D-04    4    2    0
 0.273045592072104D+03 0.000000000000000D+00 0.000000000000000D+00 0.273045592072104D+03
 0.273045592072104D+03 0.000000000000000D+00 0.000000000000000D+00 -.273045592072104D+03
 0.152820017910171D+03 0.654026914211904D+02 0.378221689424557D+02 -.965954347855943D+02
 0.153270126056350D+03 0.933722376976767D+02 -.467680590569232D+02 0.112187813155913D+03
 0.450994675514085D+02 0.390559011558672D+01 -.448867981623269D+02 0.197070799564553D+01
 0.194901572626278D+03 -.162680519234454D+03 0.538326882767944D+02 -.175630863659646D+02
 0.000000000000000D+00 0.000000000000000D+00 -.000000000000000D+00 -.000000000000000D+00
 0.331841625790128D+03 0.000000000000000D+00 0.000000000000000D+00 0.331841625790128D+03
 0.335803312452513D+03 0.000000000000000D+00 0.000000000000000D+00 -.335803312452513D+03
 0.143889593198234D+03 0.359962055288940D+02 0.419828399808398D+02 -.965954347855943D+02
 0.136352278689870D+03 0.646681551860017D+02 -.427067698152529D+02 0.112187813155913D+03
 0.439587317695648D+02 -.492084685806660D+01 -.436379613981210D+02 0.197070799564553D+01
 0.232944075637017D+03 -.205083719362468D+03 0.598322411425671D+02 -.175630863659646D+02
 0.110500258947955D+03 0.109340205505639D+03 -.154703499100330D+02 -.396168666238475D+01
0.198434985661D-05 0.000000000000D+00 0.000000000000D+00 0.460588364007D-06 0.000000000000D+00  7 -3 3 23 -13 13 23 21 0 0.29510220D-01 0.59795868D-01 0.53364455D+05 0.53364455D+05 0.53364455D+05 0.11448160D+01  1  2  2  1  7  1       -3 0.259120998189D-04 0.100000000000D+01
-.106495026392D-06 0.000000000000D+00 -.762042594071D-08 0.460588364007D-06 0.000000000000D+00  7 -3 3 23 -13 13 23 21 2 0.29510220D-01 0.59795868D-01 0.53364455D+05 0.53364455D+05 0.53364455D+05 0.11448160D+01  1  2  3  1  7  1       -3 -.182257354487D-05 0.100000000000D+01
0.127280316084D-06 0.000000000000D+00 0.000000000000D+00 0.460588364007D-06 0.000000000000D+00  7 -3 3 23 -13 13 23 21 2 0.29510220D-01 0.59795868D-01 0.53364455D+05 0.53364455D+05 0.53364455D+05 0.11448160D+01  1  2 15  1  7  1       -3 0.217829644010D-05 0.100000000000D+01
-.762866894616D-06 0.000000000000D+00 0.000000000000D+00 0.460588364007D-06 0.000000000000D+00  7 -3 3 23 -13 13 23 21 2 0.29510220D-01 0.59795868D-01 0.53364455D+05 0.53364455D+05 0.53364455D+05 0.11448160D+01  1  2  4  1  7  1       -3 -.130558305631D-04 0.100000000000D+01
  </mgrwgt>
  </event>
  <event>
  8     66 0.58687835E-06 0.55099926E+03 0.75467711E-02 0.86475049E-01
       -1 -1    0    0    0  501 0.00000000E+00 0.00000000E+00 0.49383537E+03 0.49383548E+03 0.32000000E+00 0.0000E+00 0.9000E+01
        1 -1    0    0  501    0 0.00000000E+00 0.00000000E+00 -.12475257E+04 0.12475257E+04 0.32000000E+00 0.0000E+00 0.9000E+01
       25  2    1    2    0    0 -.21637511E+03 0.46498486E+03 -.10015168E+04 0.11646039E+04 0.30039504E+03 0.0000E+00 0.0000E+00
       23  2    1    2    0    0 0.21637511E+03 -.46498486E+03 0.24782651E+03 0.57675731E+03 0.90564365E+02 0.0000E+00 0.0000E+00
       23  1    3    3    0    0 -.55651701E+02 0.36213768E+03 -.56484011E+03 0.67941181E+03 0.91188000E+02 0.0000E+00 0.9000E+01
      -13  1    4    4    0    0 0.19900290E+03 -.42120675E+03 0.19239186E+03 0.50401579E+03 0.10565837E+00 0.0000E+00 0.9000E+01
       13  1    4    4    0    0 0.17372209E+02 -.43778115E+02 0.55434647E+02 0.72741517E+02 0.10565837E+00 0.0000E+00 0.9000E+01
       23  1    3    3    0    0 -.16072341E+03 0.10284719E+03 -.43667670E+03 0.48519208E+03 0.91188000E+02 0.0000E+00 0.9000E+01
#aMCatNLO 1  0  0  2  1 0.90756527D+03 0.00000000D+00  -5  7  0 0.00000000D+00 0.00000000D+00 0.00000000D+00 0.00000000D+00 0.00000000D+00
  <mgrwgt>
 0.5868058591D-03    3    2    0
 0.784902817230835D+03 0.000000000000000D+00 0.000000000000000D+00 0.784902817230835D+03
 0.784902817230835D+03 0.000000000000000D+00 0.000000000000000D+00 -.784902817230835D+03
 0.482471734512227D+03 -.556517007956042D+02 0.362137677156960D+03 -.300371293969905D+03
 0.651468281537630D+03 0.199003146361203D+03 -.421207261748661D+03 0.455404339283378D+03
 0.107305416500365D+03 0.173719612875776D+02 -.437776011894449D+02 0.964167464989233D+02
 0.328560201911447D+03 -.160723406853177D+03 0.102847185781146D+03 -.251449791812396D+03
 0.000000000000000D+00 0.000000000000000D+00 -.000000000000000D+00 0.000000000000000D+00
 0.310127749812392D+04 0.000000000000000D+00 0.000000000000000D+00 0.310127749812392D+04
 0.100046524338538D+04 0.000000000000000D+00 0.000000000000000D+00 -.100046524338538D+04
 0.740247491690288D+03 -.262098894429251D+03 0.617035131015709D+03 -.300371293969905D+03
 0.490861225372643D+03 0.612916854785902D+01 -.183068467052942D+03 0.455404339283378D+03
 0.979589103065780D+02 -.172854181943857D+02 -.986620930127287D+00 0.964167464989233D+02
 0.484206882428077D+03 -.297953181313192D+03 0.272282863194818D+03 -.251449791812396D+03
 0.228846823171171D+04 0.571208325388970D+03 -.705262906227457D+03 0.210081225473854D+04
0.264464353794D-03 0.000000000000D+00 0.000000000000D+00 0.481072927168D-05 0.000000000000D+00  7 -1 1 23 -13 13 23 21 0 0.75974684D-01 0.19192704D+00 0.30360019D+06 0.30360019D+06 0.30360019D+06 0.10841688D+01  1  2  2  2  7  2        1 0.574718968938D-03 0.100000000000D+01
-.124560268893D-04 0.000000000000D+00 -.101561275363D-05 0.481072927168D-05 0.000000000000D+00  7 -1 1 23 -13 13 23 21 2 0.75974684D-01 0.19192704D+00 0.30360019D+06 0.30360019D+06 0.30360019D+06 0.10841688D+01  1  2  3  2  7  2        1 -.318171823823D-04 0.100000000000D+01
0.171878924447D-04 0.000000000000D+00 0.000000000000D+00 0.481072927168D-05 0.000000000000D+00  7 -1 1 23 -13 13 23 21 2 0.75974684D-01 0.19192704D+00 0.30360019D+06 0.30360019D+06 0.30360019D+06 0.10841688D+01  1  2 15  2  7  2        1 0.439040725862D-04 0.100000000000D+01
  </mgrwgt>
  </event>
  <event>
  8     66 0.58687835E-06 0.99022718E+02 0.75467711E-02 0.10175828E+00
       -1 -1    0    0    0  501 0.00000000E+00 0.00000000E+00 0.51518191E+03 0.51518201E+03 0.32000000E+00 0.0000E+00 0.9000E+01
        1 -1    0    0  501    0 0.00000000E+00 0.00000000E+00 -.16334248E+03 0.16334279E+03 0.32000000E+00 0.0000E+00 0.9000E+01
       25  2    1    2    0    0 0.15003640E+03 0.98845268E+02 0.32247322E+03 0.47555440E+03 0.29980277E+03 0.0000E+00 0.0000E+00
       23  2    1    2    0    0 -.15003640E+03 -.98845268E+02 0.29366221E+02 0.20297040E+03 0.89740188E+02 0.0000E+00 0.0000E+00
       23  1    3    3    0    0 0.11373715E+03 -.32348619E+02 0.49740321E+02 0.15739099E+03 0.91188000E+02 0.0000E+00 0.9000E+01
      -13  1    4    4    0    0 -.89749259E+02 -.86064544E+02 0.55325438E+02 0.13609905E+03 0.10565837E+00 0.0000E+00 0.9000E+01
       13  1    4    4    0    0 -.60287141E+02 -.12780725E+02 -.25959217E+02 0.66871357E+02 0.10565837E+00 0.0000E+00 0.9000E+01
       23  1    3    3    0    0 0.36299252E+02 0.13119389E+03 0.27273290E+03 0.31816341E+03 0.91188000E+02 0.0000E+00 0.9000E+01
#aMCatNLO 1  0  0  1  2 0.53297893D+02 0.00000000D+00  -5  7  0 0.00000000D+00 0.00000000D+00 0.00000000D+00 0.00000000D+00 0.00000000D+00
  <mgrwgt>
 0.1516050379D-03    9    2    0
 0.290088312480703D+03 0.000000000000000D+00 0.000000000000000D+00 0.290088312480703D+03
 0.290088312480703D+03 0.000000000000000D+00 0.000000000000000D+00 -.290088312480703D+03
 0.153906720988955D+03 0.113737148578473D+03 -.323486189119657D+02 -.372753981776007D+02
 0.125618527081549D+03 -.897493002374919D+02 -.860646451678004D+02 -.178312732343787D+02
 0.939495367672075D+02 -.602871003311557D+02 -.127806235352033D+02 -.709128807374615D+02
 0.206701840123694D+03 0.362992519901747D+02 0.131193887614969D+03 0.126019552149441D+03
 0.000000000000000D+00 0.000000000000000D+00 -.000000000000000D+00 0.000000000000000D+00
 0.338024867557967D+03 0.000000000000000D+00 0.000000000000000D+00 0.338024867557967D+03
 0.306511873518160D+03 0.000000000000000D+00 0.000000000000000D+00 -.306511873518160D+03
 0.143758619208581D+03 0.101107312239516D+03 -.271872277946840D+02 -.372753981776007D+02
 0.130788635940120D+03 -.100628566540216D+03 -.816186533947939D+02 -.178312732343787D+02
 0.990276695346643D+02 -.684750557414980D+02 -.943448038738724D+01 -.709128807374615D+02
 0.209044660897856D+03 0.186592732714173D+02 0.138402756124785D+03 0.126019552149441D+03
 0.619171554949053D+02 0.493370367707808D+02 -.201623945479200D+02 0.315129940398070D+02
0.241261224451D-05 0.000000000000D+00 0.000000000000D+00 0.195262459967D-06 0.000000000000D+00  7 -1 1 23 -13 13 23 21 0 0.79258788D-01 0.25129643D-01 0.62285588D+05 0.62285588D+05 0.62285588D+05 0.11389959D+01  1  2  2  1  7  1       -1 0.970828629740D-04 0.100000000000D+01
-.130345605829D-06 0.000000000000D+00 -.926506627430D-08 0.195262459967D-06 0.000000000000D+00  7 -1 1 23 -13 13 23 21 2 0.79258788D-01 0.25129643D-01 0.62285588D+05 0.62285588D+05 0.62285588D+05 0.11389959D+01  1  2  3  1  7  1       -1 -.680449283321D-05 0.100000000000D+01
0.156608711409D-06 0.000000000000D+00 0.000000000000D+00 0.195262459967D-06 0.000000000000D+00  7 -1 1 23 -13 13 23 21 2 0.79258788D-01 0.25129643D-01 0.62285588D+05 0.62285588D+05 0.62285588D+05 0.11389959D+01  1  2 15  1  7  1       -1 0.817551805925D-05 0.100000000000D+01
0.355238273007D-05 0.000000000000D+00 0.000000000000D+00 0.195262459967D-06 0.000000000000D+00  7 -1 1 23 -13 13 23 21 2 0.94328332D-01 0.25129643D-01 0.77734654D+05 0.77734654D+05 0.77734654D+05 0.11308104D+01  1  2 12  1  7  1       -1 0.127161315367D-03 0.100000000000D+01
-.357307694673D-05 0.000000000000D+00 0.000000000000D+00 0.195262459967D-06 0.000000000000D+00  7 -1 1 23 -13 13 23 21 2 0.79258788D-01 0.25129643D-01 0.62285588D+05 0.62285588D+05 0.62285588D+05 0.11389959D+01  1  2  4  1  7  1       -1 -.186527012720D-03 0.100000000000D+01
-.715730778645D-05 0.000000000000D+00 -.171911914739D-05 0.195262459967D-06 0.000000000000D+00  7 -1 1 23 -13 13 23 21 2 0.96172794D-01 0.25129643D-01 0.62285588D+05 0.62285588D+05 0.62285588D+05 0.11389959D+01  1  2  5  1  7  1       -1 -.250246648317D-03 0.100000000000D+01
0.738295422966D-05 0.000000000000D+00 0.168745301593D-05 0.195262459967D-06 0.000000000000D+00  7 -1 1 23 -13 13 23 21 2 0.79258788D-01 0.25129643D-01 0.62285588D+05 0.62285588D+05 0.62285588D+05 0.11389959D+01  1  2  6  1  7  1       -1 0.385415824523D-03 0.100000000000D+01
0.912558286279D-07 0.000000000000D+00 0.000000000000D+00 0.195262459967D-06 0.000000000000D+00  7 21 1 23 -13 13 23 1 2 0.94328332D-01 0.25129643D-01 0.77734654D+05 0.77734654D+05 0.77734654D+05 0.11308104D+01  1  2 12  3  7  1       -1 0.241786609463D-04 0.100000000000D+01
-.180931808371D-06 0.000000000000D+00 -.479472035495D-07 0.195262459967D-06 0.000000000000D+00  7 21 1 23 -13 13 23 1 2 0.96172794D-01 0.25129643D-01 0.62285588D+05 0.62285588D+05 0.62285588D+05 0.11389959D+01  1  2  5  3  7  1       -1 -.468309901154D-04 0.100000000000D+01
  </mgrwgt>
  </event>
  <event>
  9     66 0.58687835E-06 0.31482413E+03 0.75467711E-02 0.96405814E-01
       -3 -1    0    0    0  501 0.00000000E+00 0.00000000E+00 0.31392501E+03 0.31392541E+03 0.50000000E+00 0.0000E+00 0.9000E+01
       21 -1    0    0  501  502 0.00000000E+00 0.00000000E+00 -.71146580E+03 0.71146620E+03 0.75000000E+00 0.0000E+00 0.9000E+01
       25  2    1    2    0    0 -.24492245E+03 0.28455731E+03 -.35987301E+03 0.60024225E+03 0.29970369E+03 0.0000E+00 0.0000E+00
       23  2    1    2    0    0 0.18663858E+03 -.10175457E+03 -.28003307E+02 0.23303611E+03 0.91289055E+02 0.0000E+00 0.0000E+00
       23  1    3    3    0    0 -.49177003E+02 0.14111595E+03 -.27772264E+03 0.32829439E+03 0.91188000E+02 0.0000E+00 0.9000E+01
      -11  1    4    4    0    0 -.21507732E+01 0.10980442E+02 0.10458779E+01 0.11237873E+02 0.51099893E-03 0.0000E+00 0.9000E+01
       11  1    4    4    0    0 0.18878935E+03 -.11273501E+03 -.29049185E+02 0.22179824E+03 0.51099893E-03 0.0000E+00 0.9000E+01
       23  1    3    3    0    0 -.19574545E+03 0.14344135E+03 -.82150371E+02 0.27194786E+03 0.91188000E+02 0.0000E+00 0.9000E+01
       -3  1    1    2    0  502 0.58283877E+02 -.18280274E+03 -.96644738E+01 0.19211326E+03 0.50000000E+00 0.0000E+00 0.9000E+01
#aMCatNLO 2  0  0  2  1 0.19186936D+03 0.00000000D+00  -5  7  0 0.00000000D+00 0.00000000D+00 0.00000000D+00 0.00000000D+00 0.00000000D+00
  <mgrwgt>
 0.6661361664D-05    1    2    0
 0.356051587155595D+03 0.000000000000000D+00 0.000000000000000D+00 0.356051587155595D+03
 0.356051587155595D+03 0.000000000000000D+00 0.000000000000000D+00 -.356051587155595D+03
 0.192634957596141D+03 -.323906154570831D+02 0.884667860277672D+02 -.141129200891579D+03
 0.107250436917340D+02 -.118691752752365D+01 0.795738588862944D+01 0.709209410483964D+01
 0.288109686268904D+03 0.209835000519998D+03 -.178743019196641D+03 0.838295709592244D+02
 0.220633486754411D+03 -.176257467535391D+03 0.823188472802449D+02 0.502075358275153D+02
 0.000000000000000D+00 0.000000000000000D+00 -.000000000000000D+00 0.000000000000000D+00
 0.519798984361826D+03 0.000000000000000D+00 0.000000000000000D+00 0.519798984361826D+03
 0.429679619691404D+03 0.000000000000000D+00 0.000000000000000D+00 -.429679619691404D+03
 0.224866166090760D+03 -.491770032060861D+02 0.141115953455766D+03 -.141129200891579D+03
 0.132474049487003D+02 -.215077318045639D+01 0.109804423321274D+02 0.709209410483964D+01
 0.235325304575596D+03 0.188789350055352D+03 -.112735013691698D+03 0.838295709592244D+02
 0.264060128865844D+03 -.195745450943478D+03 0.143441354196443D+03 0.502075358275153D+02
 0.211979599572329D+03 0.582838772746688D+02 -.182802736292639D+03 0.901193646704219D+02
0.327382209967D-06 0.000000000000D+00 0.000000000000D+00 0.743860912077D-06 0.727591674235D-11  7 -3 21 23 -11 11 23 -3 2 0.48296186D-01 0.10945627D+00 0.18372069D+06 0.18372069D+06 0.18372069D+06 0.11006685D+01  1  2  1  4  7  2        3 0.666136166438D-05 0.100000000000D+01
  </mgrwgt>
  </event>
  <event>
  8     66 0.58687835E-06 0.47425092E+03 0.75467711E-02 0.94202835E-01
       -1 -1    0    0    0  501 0.00000000E+00 0.00000000E+00 0.80098258E+02 0.80098897E+02 0.32000000E+00 0.0000E+00 0.9000E+01
        1 -1    0    0  501    0 0.00000000E+00 0.00000000E+00 -.29525125E+04 0.29525125E+04 0.32000000E+00 0.0000E+00 0.9000E+01
       25  2    1    2    0    0 -.17355723E+03 -.39780357E+03 -.16534310E+04 0.17355126E+04 0.29966677E+03 0.0000E+00 0.0000E+00
       23  2    1    2    0    0 0.17355723E+03 0.39780357E+03 -.12189832E+04 0.12970988E+04 0.90417618E+02 0.0000E+00 0.0000E+00
       23  1    3    3    0    0 -.17065023E+03 -.36605584E+03 -.11351098E+04 0.12082665E+04 0.91188000E+02 0.0000E+00 0.9000E+01
      -11  1    4    4    0    0 0.15629125E+03 0.38730031E+03 -.11941685E+04 0.12650956E+04 0.51099893E-03 0.0000E+00 0.9000E+01
       11  1    4    4    0    0 0.17265980E+02 0.10503266E+02 -.24814731E+02 0.32003180E+02 0.51099893E-03 0.0000E+00 0.9000E+01
       23  1    3    3    0    0 -.29070018E+01 -.31747730E+02 -.51832119E+03 0.52724612E+03 0.91188000E+02 0.0000E+00 0.9000E+01
#aMCatNLO 1  0  0  1  1 0.85917870D+02 0.00000000D+00  -5  7  0 0.00000000D+00 0.00000000D+00 0.00000000D+00 0.00000000D+00 0.00000000D+00
  <mgrwgt>
 0.4050776218D-03    4    2    0
 0.486304533559638D+03 0.000000000000000D+00 0.000000000000000D+00 0.486304533559638D+03
 0.486304533559638D+03 0.000000000000000D+00 0.000000000000000D+00 -.486304533559638D+03
 0.415066215642937D+03 -.170650230054843D+03 -.366055842740558D+03 0.290917686275356D+02
 0.417841839128435D+03 0.156291251534728D+03 0.387300306875982D+03 0.127796523313989D+02
 0.265009077271302D+02 0.172659803332263D+02 0.105032662955658D+02 0.171425036275027D+02
 0.113200104620773D+03 -.290700181311155D+01 -.317477304309896D+02 -.590139245864372D+02
 0.000000000000000D+00 0.000000000000000D+00 0.000000000000000D+00 -.000000000000000D+00
 0.492184625682210D+03 0.000000000000000D+00 0.000000000000000D+00 0.492184625682210D+03
 0.951147172427487D+03 0.000000000000000D+00 0.000000000000000D+00 -.951147172427487D+03
 0.450691859774059D+03 -.196476153608894D+03 -.394155668719576D+03 0.290917686275356D+02
 0.384936278097876D+03 0.132344046333823D+03 0.361244615298450D+03 0.127796523313989D+02
 0.248888639448131D+02 0.157330020655728D+02 0.883531345505949D+01 0.171425036275027D+02
 0.115879576313678D+03 -.974054399491562D+01 -.391829474418001D+02 -.590139245864372D+02
 0.466935219979271D+03 0.581396492044143D+02 0.632586874078665D+02 -.458962546745278D+03
0.117665604672D-03 0.000000000000D+00 0.000000000000D+00 0.107312811031D-05 0.000000000000D+00  7 -1 1 23 -11 11 23 21 0 0.12322859D-01 0.45423274D+00 0.22491393D+06 0.22491393D+06 0.22491393D+06 0.10939308D+01  1  2  2  1  7  1       -1 0.405338242385D-03 0.100000000000D+01
-.653197131148D-05 0.000000000000D+00 -.451866904006D-06 0.107312811031D-05 0.000000000000D+00  7 -1 1 23 -11 11 23 21 2 0.12322859D-01 0.45423274D+00 0.22491393D+06 0.22491393D+06 0.22491393D+06 0.10939308D+01  1  2  3  1  7  1       -1 -.269272527758D-04 0.100000000000D+01
0.763594786924D-05 0.000000000000D+00 0.000000000000D+00 0.107312811031D-05 0.000000000000D+00  7 -1 1 23 -11 11 23 21 2 0.12322859D-01 0.45423274D+00 0.22491393D+06 0.22491393D+06 0.22491393D+06 0.10939308D+01  1  2 15  1  7  1       -1 0.314782611026D-04 0.100000000000D+01
-.116719749918D-05 0.000000000000D+00 0.000000000000D+00 0.107312811031D-05 0.000000000000D+00  7 -1 1 23 -11 11 23 21 2 0.12322859D-01 0.45423274D+00 0.22491393D+06 0.22491393D+06 0.22491393D+06 0.10939308D+01  1  2  4  1  7  1       -1 -.481162892500D-05 0.100000000000D+01
  </mgrwgt>
  </event>
  <event>
  9     66 0.58687835E-06 0.36165343E+03 0.75467711E-02 0.97211309E-01
       -1 -1    0    0    0  501 0.00000000E+00 0.00000000E+00 0.15401415E+04 0.15401416E+04 0.32000000E+00 0.0000E+00 0.9000E+01
        1 -1    0    0  502    0 0.00000000E+00 0.00000000E+00 -.21418390E+03 0.21418414E+03 0.32000000E+00 0.0000E+00 0.9000E+01
       25  2    1    2    0    0 0.18685028E+03 0.17969541E+03 0.37948511E+02 0.39840883E+03 0.30014336E+03 0.0000E+00 0.0000E+00
       23  2    1    2    0    0 -.21191274E+03 -.24539873E+03 0.11779938E+04 0.12253451E+04 0.93132847E+02 0.0000E+00 0.0000E+00
       23  1    3    3    0    0 0.56722002E+02 -.48947502E+02 0.16195641E+02 0.11912512E+03 0.91188000E+02 0.0000E+00 0.9000E+01
      -13  1    4    4    0    0 -.19256953E+03 -.24882100E+03 0.11393443E+04 0.11819900E+04 0.10565837E+00 0.0000E+00 0.9000E+01
       13  1    4    4    0    0 -.19343207E+02 0.34222728E+01 0.38649520E+02 0.43355140E+02 0.10565837E+00 0.0000E+00 0.9000E+01
       23  1    3    3    0    0 0.13012828E+03 0.22864292E+03 0.21752870E+02 0.27928371E+03 0.91188000E+02 0.0000E+00 0.9000E+01
       21  1    1    2  502  501 0.25062459E+02 0.65703313E+02 0.11001532E+03 0.13057176E+03 0.75000000E+00 0.0000E+00 0.9000E+01
#aMCatNLO 2  0  0  2  1 0.70321065D+02 0.00000000D+00  -5  7  0 0.00000000D+00 0.00000000D+00 0.00000000D+00 0.00000000D+00 0.00000000D+00
  <mgrwgt>
 0.9818091006D-04    1    2    0
 0.536916221278176D+03 0.000000000000000D+00 0.000000000000000D+00 0.536916221278176D+03
 0.536916221278176D+03 0.000000000000000D+00 0.000000000000000D+00 -.536916221278176D+03
 0.160120412521615D+03 0.604705456618816D+02 -.391203854322349D+02 -.110164439421621D+03
 0.477458078350490D+03 -.181220677172898D+03 -.219068781693711D+03 0.383580697682211D+03
 0.215507820298165D+02 -.188382637491195D+02 0.474576210345802D+01 0.932918898257778D+01
 0.414703169654431D+03 0.139588395260136D+03 0.253443405022488D+03 -.282745447243168D+03
 0.000000000000000D+00 0.000000000000000D+00 0.000000000000000D+00 0.000000000000000D+00
 0.583650770035085D+03 0.000000000000000D+00 0.000000000000000D+00 0.583650770035085D+03
 0.565186492102546D+03 0.000000000000000D+00 0.000000000000000D+00 -.565186492102546D+03
 0.161445652039380D+03 0.567220024841980D+02 -.489475018721423D+02 -.110164439421621D+03
 0.496114214024082D+03 -.192569753386971D+03 -.248821325056438D+03 0.383580697682211D+03
 0.217462399506159D+02 -.193429835384429D+02 0.342259736875937D+01 0.932918898257778D+01
 0.396826398341722D+03 0.130128275052011D+03 0.228642916295503D+03 -.282745447243168D+03
 0.727047577818309D+02 0.250624593892050D+02 0.657033132643180D+02 0.184642779325389D+02
0.654480395436D-04 0.000000000000D+00 0.000000000000D+00 0.143008810773D-05 0.188867286983D-08  7 -1 1 23 -13 13 23 21 2 0.23694407D+00 0.32951279D-01 0.16042180D+06 0.16042180D+06 0.16042180D+06 0.11052571D+01  1  2  1  2  7  2        1 0.981809100597D-04 0.100000000000D+01
  </mgrwgt>
  </event>
  <event>
  8     66 0.58687835E-06 0.24709311E+03 0.75467711E-02 0.90079513E-01
       -1 -1    0    0    0  501 0.00000000E+00 0.00000000E+00 0.47685899E+03 0.47685910E+03 0.32000000E+00 0.0000E+00 0.9000E+01
        1 -1    0    0  501    0 0.00000000E+00 0.00000000E+00 -.75773495E+03 0.75773502E+03 0.32000000E+00 0.0000E+00 0.9000E+01
       25  2    1    2    0    0 -.23469494E+03 0.46977332E+03 -.34730993E+03 0.69752756E+03 0.30025293E+03 0.0000E+00 0.0000E+00
       23  2    1    2    0    0 0.23469494E+03 -.46977332E+03 0.66433974E+02 0.53706657E+03 0.90875394E+02 0.0000E+00 0.0000E+00
       23  1    3    3    0    0 -.24339166E+03 0.32416412E+03 -.16553374E+03 0.44725669E+03 0.91188000E+02 0.0000E+00 0.9000E+01
      -13  1    4    4    0    0 0.79657425E+02 -.14909225E+03 0.64338454E+02 0.18086805E+03 0.10565837E+00 0.0000E+00 0.9000E+01
       13  1    4    4    0    0 0.15503752E+03 -.32068107E+03 0.20955207E+01 0.35619852E+03 0.10565837E+00 0.0000E+00 0.9000E+01
       23  1    3    3    0    0 0.86967180E+01 0.14560920E+03 -.18177620E+03 0.25027087E+03 0.91188000E+02 0.0000E+00 0.9000E+01
#aMCatNLO 1  0  0  1  2 0.35494489D+03 0.00000000D+00  -5  7  0 0.00000000D+00 0.00000000D+00 0.00000000D+00 0.00000000D+00 0.00000000D+00
  <mgrwgt>
 0.1518503575D-03    7    2    0
 0.601109670988946D+03 0.000000000000000D+00 0.000000000000000D+00 0.601109670988946D+03
 0.601109670988946D+03 0.000000000000000D+00 0.000000000000000D+00 -.601109670988946D+03
 0.420627096240472D+03 -.243391660886258D+03 0.324164116187260D+03 -.654983048273163D+02
 0.200769925166846D+03 0.796573228100765D+02 -.149092015873300D+03 0.108327487633878D+03
 0.366280452529552D+03 0.155037620050295D+03 -.320681301057348D+03 0.853710104576504D+02
 0.214541868041022D+03 0.869671802588660D+01 0.145609200743388D+03 -.128200193264212D+03
 0.000000000000000D+00 -.000000000000000D+00 -.000000000000000D+00 0.000000000000000D+00
 0.117943382886095D+04 0.000000000000000D+00 0.000000000000000D+00 0.117943382886095D+04
 0.683750313857503D+03 0.000000000000000D+00 0.000000000000000D+00 -.683750313857503D+03
 0.477407024921154D+03 -.170494724712342D+03 0.431559656374502D+03 -.654983048273163D+02
 0.186124981430967D+03 0.111063093089487D+03 -.102823409246173D+03 0.108327487633878D+03
 0.329281062923434D+03 0.211499064222841D+03 -.237499378538743D+03 0.853710104576504D+02
 0.260708856378501D+03 0.472746750413774D+02 0.202444244168454D+03 -.128200193264212D+03
 0.609662217064394D+03 -.199342107641363D+03 -.293681112758040D+03 0.495683515003445D+03
0.308166372815D-04 0.000000000000D+00 0.000000000000D+00 0.284115154729D-05 0.000000000000D+00  7 -1 1 23 -13 13 23 21 0 0.73362936D-01 0.11657462D+00 0.30955447D+06 0.30955447D+06 0.30955447D+06 0.10835459D+01  1  2  2  1  7  1       -1 0.172366653387D-03 0.100000000000D+01
-.169958679544D-05 0.000000000000D+00 -.118344001368D-06 0.284115154729D-05 0.000000000000D+00  7 -1 1 23 -13 13 23 21 2 0.73362936D-01 0.11657462D+00 0.30955447D+06 0.30955447D+06 0.30955447D+06 0.10835459D+01  1  2  3  1  7  1       -1 -.111610746269D-04 0.100000000000D+01
0.200964720113D-05 0.000000000000D+00 0.000000000000D+00 0.284115154729D-05 0.000000000000D+00  7 -1 1 23 -13 13 23 21 2 0.73362936D-01 0.11657462D+00 0.30955447D+06 0.30955447D+06 0.30955447D+06 0.10835459D+01  1  2 15  1  7  1       -1 0.131972209044D-04 0.100000000000D+01
0.950924677546D-05 0.000000000000D+00 0.000000000000D+00 0.284115154729D-05 0.000000000000D+00  7 -1 1 23 -13 13 23 21 2 0.14456974D+00 0.11657462D+00 0.58081365D+06 0.58081365D+06 0.58081365D+06 0.10639420D+01  1  2 12  1  7  1       -1 0.120976852300D-04 0.100000000000D+01
-.260589777750D-04 0.000000000000D+00 -.937309811894D-05 0.284115154729D-05 0.000000000000D+00  7 -1 1 23 -13 13 23 21 2 0.15456242D+00 0.11657462D+00 0.30955447D+06 0.30955447D+06 0.30955447D+06 0.10835459D+01  1  2  5  1  7  1       -1 -.294355636975D-04 0.100000000000D+01
0.698514946032D-06 0.000000000000D+00 0.000000000000D+00 0.284115154729D-05 0.000000000000D+00  7 21 1 23 -13 13 23 1 2 0.14456974D+00 0.11657462D+00 0.58081365D+06 0.58081365D+06 0.58081365D+06 0.10639420D+01  1  2 12  3  7  1       -1 0.549302770253D-05 0.100000000000D+01
-.151889234693D-05 0.000000000000D+00 -.755456054097D-06 0.284115154729D-05 0.000000000000D+00  7 21 1 23 -13 13 23 1 2 0.15456242D+00 0.11657462D+00 0.30955447D+06 0.30955447D+06 0.30955447D+06 0.10835459D+01  1  2  5  3  7  1       -1 -.107075914472D-04 0.100000000000D+01
  </mgrwgt>
  </event>
  <event>
  8     66 0.58687835E-06 0.17420217E+03 0.75467711E-02 0.92861583E-01
       -1 -1    0    0    0  501 0.00000000E+00 0.00000000E+00 0.61525654E+03 0.61525662E+03 0.32000000E+00 0.0000E+00 0.9000E+01
        1 -1    0    0  501    0 0.00000000E+00 0.00000000E+00 -.49299809E+03 0.49299819E+03 0.32000000E+00 0.0000E+00 0.9000E+01
       25  2    1    2    0    0 0.20815757E+03 -.38621627E+03 -.18741382E+03 0.56341493E+03 0.29969962E+03 0.0000E+00 0.0000E+00
       23  2    1    2    0    0 -.20815757E+03 0.38621627E+03 0.30967227E+03 0.54483989E+03 0.91983779E+02 0.0000E+00 0.0000E+00
       23  1    3    3    0    0 -.24164543E+02 -.18733563E+03 -.10098260E+03 0.23279025E+03 0.91188000E+02 0.0000E+00 0.9000E+01
      -13  1    4    4    0    0 -.15305041E+02 0.55220544E+02 0.79262239E+02 0.97806270E+02 0.10565837E+00 0.0000E+00 0.9000E+01
       13  1    4    4    0    0 -.19285253E+03 0.33099572E+03 0.23041003E+03 0.44703362E+03 0.10565837E+00 0.0000E+00 0.9000E+01
       23  1    3    3    0    0 0.23232211E+03 -.19888064E+03 -.86431219E+02 0.33062468E+03 0.91188000E+02 0.0000E+00 0.9000E+01
#aMCatNLO 1  0  0  1  2 0.18482567D+03 0.00000000D+00  -5  7  0 0.00000000D+00 0.00000000D+00 0.00000000D+00 0.00000000D+00 0.00000000D+00
  <mgrwgt>
 0.2486122192D-03    9    2    0
 0.550745314763178D+03 0.000000000000000D+00 0.000000000000000D+00 0.550745314763178D+03
 0.550745314763178D+03 0.000000000000000D+00 0.000000000000000D+00 -.550745314763178D+03
 0.245428222271493D+03 -.241645424973386D+02 -.187335627612943D+03 -.127440960668477D+03
 0.896088466084298D+02 -.153048072660070D+02 0.552201797771953D+02 0.688929605287631D+02
 0.424205220394141D+03 -.192852760834025D+03 0.330996086869983D+03 0.182207223032169D+03
 0.342248340252292D+03 0.232322110597371D+03 -.198880639034235D+03 -.123659222892455D+03
 0.000000000000000D+00 -.000000000000000D+00 -.000000000000000D+00 0.000000000000000D+00
 0.706954815809380D+03 0.000000000000000D+00 0.000000000000000D+00 0.706954815809380D+03
 0.615950151617236D+03 0.000000000000000D+00 0.000000000000000D+00 -.615950151617236D+03
 0.217574717534216D+03 -.131596091554109D+02 -.150363335281133D+03 -.127440960668477D+03
 0.990096141062067D+02 -.108216098416177D+02 0.702819780276427D+02 0.688929605287631D+02
 0.474135592230059D+03 -.171500454160959D+03 0.402731525854184D+03 0.182207223032169D+03
 0.326169566921903D+03 0.248209470872210D+03 -.145505292704401D+03 -.123659222892455D+03
 0.206015476634231D+03 -.527277977142218D+02 -.177144875896292D+03 0.910046641921440D+02
0.289455049861D-04 0.000000000000D+00 0.000000000000D+00 0.147989328354D-05 0.000000000000D+00  7 -1 1 23 -13 13 23 21 0 0.94654867D-01 0.75845874D-01 0.23486466D+06 0.23486466D+06 0.23486466D+06 0.10925054D+01  1  2  2  1  7  1       -1 0.181100612868D-03 0.100000000000D+01
-.157610466628D-05 0.000000000000D+00 -.111158360673D-06 0.147989328354D-05 0.000000000000D+00  7 -1 1 23 -13 13 23 21 2 0.94654867D-01 0.75845874D-01 0.23486466D+06 0.23486466D+06 0.23486466D+06 0.10925054D+01  1  2  3  1  7  1       -1 -.117698526267D-04 0.100000000000D+01
0.182659528057D-05 0.000000000000D+00 0.000000000000D+00 0.147989328354D-05 0.000000000000D+00  7 -1 1 23 -13 13 23 21 2 0.94654867D-01 0.75845874D-01 0.23486466D+06 0.23486466D+06 0.23486466D+06 0.10925054D+01  1  2 15  1  7  1       -1 0.136404375426D-04 0.100000000000D+01
0.194686684461D-04 0.000000000000D+00 0.000000000000D+00 0.147989328354D-05 0.000000000000D+00  7 -1 1 23 -13 13 23 21 2 0.12586583D+00 0.75845874D-01 0.34329494D+06 0.34329494D+06 0.34329494D+06 0.10802468D+01  1  2 12  1  7  1       -1 0.717270620786D-04 0.100000000000D+01
-.226277992925D-04 0.000000000000D+00 0.000000000000D+00 0.147989328354D-05 0.000000000000D+00  7 -1 1 23 -13 13 23 21 2 0.94654867D-01 0.75845874D-01 0.23486466D+06 0.23486466D+06 0.23486466D+06 0.10925054D+01  1  2  4  1  7  1       -1 -.168977269491D-03 0.100000000000D+01
-.374297493034D-04 0.000000000000D+00 -.131775462839D-04 0.147989328354D-05 0.000000000000D+00  7 -1 1 23 -13 13 23 21 2 0.13149563D+00 0.75845874D-01 0.23486466D+06 0.23486466D+06 0.23486466D+06 0.10925054D+01  1  2  5  1  7  1       -1 -.128245955087D-03 0.100000000000D+01
0.402485699046D-04 0.000000000000D+00 0.124962252455D-04 0.147989328354D-05 0.000000000000D+00  7 -1 1 23 -13 13 23 21 2 0.94654867D-01 0.75845874D-01 0.23486466D+06 0.23486466D+06 0.23486466D+06 0.10925054D+01  1  2  6  1  7  1       -1 0.300563627751D-03 0.100000000000D+01
0.725093657042D-06 0.000000000000D+00 0.000000000000D+00 0.147989328354D-05 0.000000000000D+00  7 21 1 23 -13 13 23 1 2 0.12586583D+00 0.75845874D-01 0.34329494D+06 0.34329494D+06 0.34329494D+06 0.10802468D+01  1  2 12  3  7  1       -1 0.172349780474D-04 0.100000000000D+01
-.120580756867D-05 0.000000000000D+00 -.544111050553D-06 0.147989328354D-05 0.000000000000D+00  7 21 1 23 -13 13 23 1 2 0.13149563D+00 0.75845874D-01 0.23486466D+06 0.23486466D+06 0.23486466D+06 0.10925054D+01  1  2  5  3  7  1       -1 -.266614219153D-04 0.100000000000D+01
  </mgrwgt>
  </event>
  <event>
  8     66 0.58687835E-06 0.10163657E+03 0.75467711E-02 0.98001989E-01
       -1 -1    0    0    0  501 0.00000000E+00 0.00000000E+00 0.35352929E+03 0.35352944E+03 0.32000000E+00 0.0000E+00 0.9000E+01
        1 -1    0    0  501    0 0.00000000E+00 0.00000000E+00 -.41106304E+03 0.41106317E+03 0.32000000E+00 0.0000E+00 0.9000E+01
       25  2    1    2    0    0 0.17035973E+03 0.63284156E+02 -.29051651E+03 0.45529438E+03 0.29977627E+03 0.0000E+00 0.0000E+00
       23  2    1    2    0    0 -.17035973E+03 -.63284156E+02 0.23298275E+03 0.30929822E+03 0.91417202E+02 0.0000E+00 0.0000E+00
       23  1    3    3    0    0 0.27168944E+02 0.99639699E+02 -.23609540E+03 0.27335418E+03 0.91188000E+02 0.0000E+00 0.9000E+01
      -13  1    4    4    0    0 0.83504232E+01 0.72530003E+01 0.94832458E+01 0.14569787E+02 0.10565837E+00 0.0000E+00 0.9000E+01
       13  1    4    4    0    0 -.17871016E+03 -.70537157E+02 0.22349951E+03 0.29472844E+03 0.10565837E+00 0.0000E+00 0.9000E+01
       23  1    3    3    0    0 0.14319079E+03 -.36355542E+02 -.54421110E+02 0.18194020E+03 0.91188000E+02 0.0000E+00 0.9000E+01
#aMCatNLO 1  0  0  2  1 0.18940888D+03 0.00000000D+00  -5  7  0 0.00000000D+00 0.00000000D+00 0.00000000D+00 0.00000000D+00 0.00000000D+00
  <mgrwgt>
 0.1361246572D-03    9    2    0
 0.381212446410683D+03 0.000000000000000D+00 0.000000000000000D+00 0.381212446410683D+03
 0.381212446410683D+03 0.000000000000000D+00 0.000000000000000D+00 -.381212446410683D+03
 0.256315254895060D+03 0.271689439228750D+02 0.996396987934559D+02 -.216138930918020D+03
 0.153264349724982D+02 0.835067299996192D+01 0.725310416371573D+01 0.106093519785242D+02
 0.312432415067707D+03 -.178710406597192D+03 -.705372605684634D+02 0.246375931110169D+03
 0.178350787886101D+03 0.143190789674355D+03 -.363555423887082D+02 -.408463521706733D+02
 0.000000000000000D+00 0.000000000000000D+00 0.000000000000000D+00 -.000000000000000D+00
 0.425246836171574D+03 0.000000000000000D+00 0.000000000000000D+00 0.425246836171574D+03
 0.669219519071541D+03 0.000000000000000D+00 0.000000000000000D+00 -.669219519071541D+03
 0.255729590011612D+03 -.353443914059534D+02 0.954835504223904D+02 -.216138930918020D+03
 0.136027899314461D+02 0.481882934366461D+01 0.701829240424449D+01 0.106093519785242D+02
 0.367390935215807D+03 -.261707092304255D+03 -.760552278676130D+02 0.246375931110169D+03
 0.148876736278729D+03 0.103240999826032D+03 -.390115717483502D+02 -.408463521706733D+02
 0.308866303805522D+03 0.188991654540511D+03 0.125649567893283D+02 -.243972682899967D+03
0.988935029193D-05 0.000000000000D+00 0.000000000000D+00 0.125809833785D-05 0.000000000000D+00  7 -1 1 23 -13 13 23 21 0 0.54389142D-01 0.63240489D-01 0.66196041D+05 0.66196041D+05 0.66196041D+05 0.11367283D+01  1  2  2  2  7  2        1 0.244427955209D-03 0.100000000000D+01
-.446147672155D-06 0.000000000000D+00 -.379777090467D-07 0.125809833785D-05 0.000000000000D+00  7 -1 1 23 -13 13 23 21 2 0.54389142D-01 0.63240489D-01 0.66196041D+05 0.66196041D+05 0.66196041D+05 0.11367283D+01  1  2  3  2  7  2        1 -.142486941336D-04 0.100000000000D+01
0.625559889666D-06 0.000000000000D+00 0.000000000000D+00 0.125809833785D-05 0.000000000000D+00  7 -1 1 23 -13 13 23 21 2 0.54389142D-01 0.63240489D-01 0.66196041D+05 0.66196041D+05 0.66196041D+05 0.11367283D+01  1  2 15  2  7  2        1 0.199786126577D-04 0.100000000000D+01
0.153918158498D-05 0.000000000000D+00 0.000000000000D+00 0.125809833785D-05 0.000000000000D+00  7 -1 1 23 -13 13 23 21 2 0.54389142D-01 0.11227769D+00 0.14073790D+06 0.14073790D+06 0.14073790D+06 0.11097429D+01  1  2 12  2  7  2        1 0.204289237473D-04 0.100000000000D+01
-.952711960274D-05 0.000000000000D+00 0.000000000000D+00 0.125809833785D-05 0.000000000000D+00  7 -1 1 23 -13 13 23 21 2 0.54389142D-01 0.63240489D-01 0.66196041D+05 0.66196041D+05 0.66196041D+05 0.11367283D+01  1  2  4  2  7  2        1 -.304269240133D-03 0.100000000000D+01
-.798329333240D-05 0.000000000000D+00 -.326265130158D-05 0.125809833785D-05 0.000000000000D+00  7 -1 1 23 -13 13 23 21 2 0.54389142D-01 0.11878058D+00 0.66196041D+05 0.66196041D+05 0.66196041D+05 0.11367283D+01  1  2  5  2  7  2        1 -.104365883995D-03 0.100000000000D+01
0.879068757591D-05 0.000000000000D+00 0.270686363501D-05 0.125809833785D-05 0.000000000000D+00  7 -1 1 23 -13 13 23 21 2 0.54389142D-01 0.63240489D-01 0.66196041D+05 0.66196041D+05 0.66196041D+05 0.11367283D+01  1  2  6  2  7  2        1 0.280749685162D-03 0.100000000000D+01
0.972186322946D-07 0.000000000000D+00 0.000000000000D+00 0.125809833785D-05 0.000000000000D+00  7 -1 21 23 -13 13 23 -1 2 0.54389142D-01 0.11227769D+00 0.14073790D+06 0.14073790D+06 0.14073790D+06 0.11097429D+01  1  2 12  4  7  2        1 0.256693596969D-05 0.100000000000D+01
-.363816126838D-06 0.000000000000D+00 -.223805338758D-06 0.125809833785D-05 0.000000000000D+00  7 -1 21 23 -13 13 23 -1 2 0.54389142D-01 0.11878058D+00 0.66196041D+05 0.66196041D+05 0.66196041D+05 0.11367283D+01  1  2  5  4  7  2        1 -.914363728363D-05 0.100000000000D+01
  </mgrwgt>
  </event>
  <event>
  8     66 0.58687835E-06 0.54167237E+03 0.75467711E-02 0.92040327E-01
       -3 -1    0    0    0  501 0.00000000E+00 0.00000000E+00 0.48109426E+03 0.48109452E+03 0.50000000E+00 0.0000E+00 0.9000E+01
        3 -1    0    0  501    0 0.00000000E+00 0.00000000E+00 -.64783792E+03 0.64783811E+03 0.50000000E+00 0.0000E+00 0.9000E+01
       25  2    1    2    0    0 0.28691791E+03 0.41487138E+03 -.18009126E+03 0.61430993E+03 0.30083831E+03 0.0000E+00 0.0000E+00
       23  2    1    2    0    0 -.28691791E+03 -.41487138E+03 0.13347603E+02 0.51462270E+03 0.10108521E+03 0.0000E+00 0.0000E+00
       23  1    3    3    0    0 0.28319669E+03 0.26824620E+03 -.18563938E+03 0.44151288E+03 0.91188000E+02 0.0000E+00 0.9000E+01
      -13  1    4    4    0    0 -.17461966E+03 -.18607817E+03 -.26910768E+02 0.25659562E+03 0.10565837E+00 0.0000E+00 0.9000E+01
       13  1    4    4    0    0 -.11229825E+03 -.22879320E+03 0.40258371E+02 0.25802708E+03 0.10565837E+00 0.0000E+00 0.9000E+01
       23  1    3    3    0    0 0.37212219E+01 0.14662518E+03 0.55481266E+01 0.17279706E+03 0.91188000E+02 0.0000E+00 0.9000E+01
#aMCatNLO 1  0  0  1  1 0.16787438D+03 0.00000000D+00  -5  7  0 0.00000000D+00 0.00000000D+00 0.00000000D+00 0.00000000D+00 0.00000000D+00
  <mgrwgt>
 0.1038505816D-04    4    2    0
 0.558275345885850D+03 0.000000000000000D+00 0.000000000000000D+00 0.558275345885850D+03
 0.558275345885850D+03 0.000000000000000D+00 0.000000000000000D+00 -.558275345885850D+03
 0.418685966296977D+03 0.283196687168133D+03 0.268246200923054D+03 -.121763291255520D+03
 0.255422309763963D+03 -.174619724398855D+03 -.186078129602797D+03 0.111102592026569D+02
 0.266900585060643D+03 -.112298184960212D+03 -.228793248602538D+03 0.792381811644665D+02
 0.175541830650118D+03 0.372122219093526D+01 0.146625177282281D+03 0.314148508883964D+02
 0.000000000000000D+00 -.000000000000000D+00 0.000000000000000D+00 -.000000000000000D+00
 0.590087264722612D+03 0.000000000000000D+00 0.000000000000000D+00 0.590087264722612D+03
 0.840440228958558D+03 0.000000000000000D+00 0.000000000000000D+00 -.840440228958558D+03
 0.415541715532468D+03 0.319636460694689D+03 0.217637083009452D+03 -.121763291255520D+03
 0.265656379148978D+03 -.151858564793288D+03 -.217689802751341D+03 0.111102592026569D+02
 0.287950599456012D+03 -.880618140687681D+02 -.262453758357051D+03 0.792381811644665D+02
 0.159951503181731D+03 0.183758558967984D+02 0.126272194444443D+03 0.314148508883964D+02
 0.301427296361981D+03 -.980919377294306D+02 0.136234283654498D+03 -.250352964235946D+03
0.180625086611D-04 0.000000000000D+00 0.000000000000D+00 0.665954409230D-08 0.000000000000D+00  7 -3 3 23 -13 13 23 21 0 0.74014537D-01 0.99667407D-01 0.29340895D+06 0.29340895D+06 0.29340895D+06 0.10852664D+01  1  2  2  1  7  1       -3 0.112629018071D-04 0.100000000000D+01
-.100236061048D-05 0.000000000000D+00 -.693647892264D-07 0.665954409230D-08 0.000000000000D+00  7 -3 3 23 -13 13 23 21 2 0.74014537D-01 0.99667407D-01 0.29340895D+06 0.29340895D+06 0.29340895D+06 0.10852664D+01  1  2  3  1  7  1       -3 -.736154416064D-06 0.100000000000D+01
0.117090199597D-05 0.000000000000D+00 0.000000000000D+00 0.665954409230D-08 0.000000000000D+00  7 -3 3 23 -13 13 23 21 2 0.74014537D-01 0.99667407D-01 0.29340895D+06 0.29340895D+06 0.29340895D+06 0.10852664D+01  1  2 15  1  7  1       -3 0.859934704235D-06 0.100000000000D+01
-.136382850746D-05 0.000000000000D+00 0.000000000000D+00 0.665954409230D-08 0.000000000000D+00  7 -3 3 23 -13 13 23 21 2 0.74014537D-01 0.99667407D-01 0.29340895D+06 0.29340895D+06 0.29340895D+06 0.10852664D+01  1  2  4  1  7  1       -3 -.100162393456D-05 0.100000000000D+01
  </mgrwgt>
  </event>
  <event>
  8     66 0.58687835E-06 0.64700528E+03 0.75467711E-02 0.87298734E-01
       -1 -1    0    0    0  501 0.00000000E+00 0.00000000E+00 0.42748884E+03 0.42748896E+03 0.32000000E+00 0.0000E+00 0.9000E+01
        1 -1    0    0  501    0 0.00000000E+00 0.00000000E+00 -.19069529E+04 0.19069530E+04 0.32000000E+00 0.0000E+00 0.9000E+01
       25  2    1    2    0    0 -.45201734E+03 0.43355006E+03 -.15492884E+04 0.16977158E+04 0.29943151E+03 0.0000E+00 0.0000E+00
       23  2    1    2    0    0 0.45201734E+03 -.43355006E+03 0.69824257E+02 0.63672612E+03 0.90881188E+02 0.0000E+00 0.0000E+00
       23  1    3    3    0    0 -.19532117E+03 0.11386816E+03 -.82705624E+03 0.86223755E+03 0.91188000E+02 0.0000E+00 0.9000E+01
      -13  1    4    4    0    0 0.71922265E+02 -.36836954E+02 -.10452478E+02 0.81480297E+02 0.10565837E+00 0.0000E+00 0.9000E+01
       13  1    4    4    0    0 0.38009507E+03 -.39671311E+03 0.80276735E+02 0.55524582E+03 0.10565837E+00 0.0000E+00 0.9000E+01
       23  1    3    3    0    0 -.25669617E+03 0.31968190E+03 -.72223211E+03 0.83547825E+03 0.91188000E+02 0.0000E+00 0.9000E+01
#aMCatNLO 1  0  0  2  1 0.61361802D+03 0.00000000D+00  -5  7  0 0.00000000D+00 0.00000000D+00 0.00000000D+00 0.00000000D+00 0.00000000D+00
  <mgrwgt>
 0.1663751962D-03    4    2    0
 0.902884971221088D+03 0.000000000000000D+00 0.000000000000000D+00 0.902884971221088D+03
 0.902884971221088D+03 0.000000000000000D+00 0.000000000000000D+00 -.902884971221088D+03
 0.437067566540339D+03 -.195321165062701D+03 0.113868162380561D+03 -.362762305721138D+03
 0.967705112919903D+02 0.719218486305289D+02 -.368364677750582D+02 0.532433487596115D+02
 0.783575641961261D+03 0.380095490666470D+03 -.396713593186881D+03 0.558691802007843D+03
 0.488356222648585D+03 -.256696174234298D+03 0.319681898581377D+03 -.249172845046317D+03
 0.000000000000000D+00 -.000000000000000D+00 -.000000000000000D+00 0.000000000000000D+00
 0.139274173195821D+04 0.000000000000000D+00 0.000000000000000D+00 0.139274173195821D+04
 0.116793841220849D+04 0.000000000000000D+00 0.000000000000000D+00 -.116793841220849D+04
 0.399937334392280D+03 -.578461182724814D+02 0.129197353864126D+03 -.362762305721138D+03
 0.125107035923692D+03 0.108364438334828D+03 -.327729271633089D+02 0.532433487596115D+02
 0.941005455026254D+03 0.663351737717971D+03 -.365129030378226D+03 0.558691802007843D+03
 0.441129283973125D+03 -.104031520334096D+03 0.336704811226604D+03 -.249172845046317D+03
 0.653501034851341D+03 -.609838537446221D+03 -.680002075491945D+02 0.224803319749719D+03
0.199310710170D-03 0.000000000000D+00 0.000000000000D+00 0.369607513184D-05 0.000000000000D+00  7 -1 1 23 -13 13 23 21 0 0.65767525D-01 0.29337739D+00 0.41861583D+06 0.41861583D+06 0.41861583D+06 0.10740063D+01  1  2  2  2  7  2        1 0.202772262826D-03 0.100000000000D+01
-.957776722045D-05 0.000000000000D+00 -.765405606768D-06 0.369607513184D-05 0.000000000000D+00  7 -1 1 23 -13 13 23 21 2 0.65767525D-01 0.29337739D+00 0.41861583D+06 0.41861583D+06 0.41861583D+06 0.10740063D+01  1  2  3  2  7  2        1 -.112397301440D-04 0.100000000000D+01
0.127400938539D-04 0.000000000000D+00 0.000000000000D+00 0.369607513184D-05 0.000000000000D+00  7 -1 1 23 -13 13 23 21 2 0.65767525D-01 0.29337739D+00 0.41861583D+06 0.41861583D+06 0.41861583D+06 0.10740063D+01  1  2 15  2  7  2        1 0.149507931892D-04 0.100000000000D+01
-.341775402502D-04 0.000000000000D+00 0.000000000000D+00 0.369607513184D-05 0.000000000000D+00  7 -1 1 23 -13 13 23 21 2 0.65767525D-01 0.29337739D+00 0.41861583D+06 0.41861583D+06 0.41861583D+06 0.10740063D+01  1  2  4  2  7  2        1 -.401081296460D-04 0.100000000000D+01
  </mgrwgt>
  </event>
  <event>
  8     66 0.58687835E-06 0.21762558E+03 0.75467711E-02 0.97223470E-01
       -1 -1    0    0    0  501 0.00000000E+00 0.00000000E+00 0.20821880E+03 0.20821905E+03 0.32000000E+00 0.0000E+00 0.9000E+01
        1 -1    0    0  501    0 0.00000000E+00 0.00000000E+00 -.79469050E+03 0.79469057E+03 0.32000000E+00 0.0000E+00 0.9000E+01
       25  2    1    2    0    0 -.30149462E+03 -.56213797E+02 -.52324736E+03 0.67688850E+03 0.30055157E+03 0.0000E+00 0.0000E+00
       23  2    1    2    0    0 0.30149462E+03 0.56213797E+02 -.63224335E+02 0.32602111E+03 0.90738388E+02 0.0000E+00 0.0000E+00
       23  1    3    3    0    0 -.11784615E+03 -.83409103E+02 -.81709236E+02 0.18930516E+03 0.91188000E+02 0.0000E+00 0.9000E+01
      -13  1    4    4    0    0 0.23924104E+03 0.39611097E+02 -.10427120E+02 0.24272217E+03 0.10565837E+00 0.0000E+00 0.9000E+01
       13  1    4    4    0    0 0.62253576E+02 0.16602700E+02 -.52797215E+02 0.83298946E+02 0.10565837E+00 0.0000E+00 0.9000E+01
       23  1    3    3    0    0 -.18364847E+03 0.27195306E+02 -.44153813E+03 0.48758334E+03 0.91188000E+02 0.0000E+00 0.9000E+01
#aMCatNLO 1  0  0  1  2 0.10807952D+03 0.00000000D+00  -5  7  0 0.00000000D+00 0.00000000D+00 0.00000000D+00 0.00000000D+00 0.00000000D+00
  <mgrwgt>
 0.2561684437D-03    9    2    0
 0.406779622474890D+03 0.000000000000000D+00 0.000000000000000D+00 0.406779622474890D+03
 0.406779622474890D+03 0.000000000000000D+00 0.000000000000000D+00 -.406779622474890D+03
 0.174462783413042D+03 -.117846146782824D+03 -.834091031682555D+02 0.357381959440399D+02
 0.291697793540670D+03 0.239241281709913D+03 0.396111286274718D+02 0.162117766981756D+03
 0.646258915201739D+02 0.622533362967740D+02 0.166026685341073D+02 -.503779438292384D+01
 0.282772776475895D+03 -.183648471223864D+03 0.271953060066765D+02 -.192818168542872D+03
 0.000000000000000D+00 0.000000000000000D+00 0.000000000000000D+00 0.000000000000000D+00
 0.486139838296870D+03 0.000000000000000D+00 0.000000000000000D+00 0.486139838296870D+03
 0.448886704900084D+03 0.000000000000000D+00 0.000000000000000D+00 -.448886704900084D+03
 0.193948059231814D+03 -.131505298058557D+03 -.103584440284161D+03 0.357381959440399D+02
 0.272084950405095D+03 0.218338547873639D+03 0.873661136957166D+01 0.162117766981756D+03
 0.587307854711606D+02 0.576797805897812D+02 0.984726870403982D+01 -.503779438292384D+01
 0.295943112489814D+03 -.205104864353621D+03 -.449699726646457D+01 -.192818168542872D+03
 0.114319635599069D+03 0.605918339487573D+02 0.894975574770143D+02 0.372531333967856D+02
0.771365502148D-05 0.000000000000D+00 0.000000000000D+00 0.865962907241D-06 0.000000000000D+00  7 -1 1 23 -13 13 23 21 0 0.32033686D-01 0.12226010D+00 0.11714458D+06 0.11714458D+06 0.11714458D+06 0.11161258D+01  1  2  2  1  7  1       -1 0.185040726611D-03 0.100000000000D+01
-.412998178188D-06 0.000000000000D+00 -.296224663345D-07 0.865962907241D-06 0.000000000000D+00  7 -1 1 23 -13 13 23 21 2 0.32033686D-01 0.12226010D+00 0.11714458D+06 0.11714458D+06 0.11714458D+06 0.11161258D+01  1  2  3  1  7  1       -1 -.123418873362D-04 0.100000000000D+01
0.500103907176D-06 0.000000000000D+00 0.000000000000D+00 0.865962907241D-06 0.000000000000D+00  7 -1 1 23 -13 13 23 21 2 0.32033686D-01 0.12226010D+00 0.11714458D+06 0.11714458D+06 0.11714458D+06 0.11161258D+01  1  2 15  1  7  1       -1 0.149449232581D-04 0.100000000000D+01
0.636382463749D-05 0.000000000000D+00 0.000000000000D+00 0.865962907241D-06 0.000000000000D+00  7 -1 1 23 -13 13 23 21 2 0.39683857D-01 0.12226010D+00 0.16009651D+06 0.16009651D+06 0.16009651D+06 0.11053263D+01  1  2 12  1  7  1       -1 0.128377116299D-03 0.100000000000D+01
-.655280555232D-05 0.000000000000D+00 0.000000000000D+00 0.865962907241D-06 0.000000000000D+00  7 -1 1 23 -13 13 23 21 2 0.32033686D-01 0.12226010D+00 0.11714458D+06 0.11714458D+06 0.11714458D+06 0.11161258D+01  1  2  4  1  7  1       -1 -.195821657658D-03 0.100000000000D+01
-.129409016552D-04 0.000000000000D+00 -.438161545395D-05 0.865962907241D-06 0.000000000000D+00  7 -1 1 23 -13 13 23 21 2 0.41926425D-01 0.12226010D+00 0.11714458D+06 0.11714458D+06 0.11714458D+06 0.11161258D+01  1  2  5  1  7  1       -1 -.243806255697D-03 0.100000000000D+01
0.137723626561D-04 0.000000000000D+00 0.422758700134D-05 0.865962907241D-06 0.000000000000D+00  7 -1 1 23 -13 13 23 21 2 0.32033686D-01 0.12226010D+00 0.11714458D+06 0.11714458D+06 0.11714458D+06 0.11161258D+01  1  2  6  1  7  1       -1 0.411568276161D-03 0.100000000000D+01
0.191855671594D-06 0.000000000000D+00 0.000000000000D+00 0.865962907241D-06 0.000000000000D+00  7 21 1 23 -13 13 23 1 2 0.39683857D-01 0.12226010D+00 0.16009651D+06 0.16009651D+06 0.16009651D+06 0.11053263D+01  1  2 12  3  7  1       -1 0.382493086465D-04 0.100000000000D+01
-.379549228070D-06 0.000000000000D+00 -.156532000817D-06 0.865962907241D-06 0.000000000000D+00  7 21 1 23 -13 13 23 1 2 0.41926425D-01 0.12226010D+00 0.11714458D+06 0.11714458D+06 0.11714458D+06 0.11161258D+01  1  2  5  3  7  1       -1 -.700421066345D-04 0.100000000000D+01
  </mgrwgt>
  </event>
  <event>
  8     66 0.58687835E-06 0.34513047E+03 0.75467711E-02 0.92264860E-01
       -1 -1    0    0    0  501 0.00000000E+00 0.00000000E+00 0.14120778E+03 0.14120814E+03 0.32000000E+00 0.0000E+00 0.9000E+01
        1 -1    0    0  501    0 0.00000000E+00 0.00000000E+00 -.39242722E+04 0.39242722E+04 0.32000000E+00 0.0000E+00 0.9000E+01
       25  2    1    2    0    0 0.29904025E+03 -.50771327E+03 -.30524828E+04 0.31223782E+04 0.29051083E+03 0.0000E+00 0.0000E+00
       23  2    1    2    0    0 -.29904025E+03 0.50771327E+03 -.73058165E+03 0.94310218E+03 0.92164758E+02 0.0000E+00 0.0000E+00
       23  1    3    3    0    0 0.21268537E+03 -.41893524E+03 -.18850158E+04 0.19448243E+04 0.91188000E+02 0.0000E+00 0.9000E+01
      -13  1    4    4    0    0 -.39931186E+02 0.43333427E+02 -.11806458E+03 0.13195280E+03 0.10565837E+00 0.0000E+00 0.9000E+01
       13  1    4    4    0    0 -.25910906E+03 0.46437984E+03 -.61251707E+03 0.81114938E+03 0.10565837E+00 0.0000E+00 0.9000E+01
       23  1    3    3    0    0 0.86354875E+02 -.88778028E+02 -.11674669E+04 0.11775538E+04 0.91188000E+02 0.0000E+00 0.9000E+01
#aMCatNLO 1  0  0  2  1 0.15157557D+02 0.00000000D+00  -5  7  0 0.00000000D+00 0.00000000D+00 0.00000000D+00 0.00000000D+00 0.00000000D+00
  <mgrwgt>
 0.1406130971D-02    9    2    0
 0.744404808631876D+03 0.000000000000000D+00 0.000000000000000D+00 0.744404808631876D+03
 0.744404808631876D+03 0.000000000000000D+00 0.000000000000000D+00 -.744404808631876D+03
 0.520891882735914D+03 0.212685372265629D+03 -.418935241080645D+03 -.205599850099893D+03
 0.603196243389050D+02 -.399308976483400D+02 0.433328732562551D+02 0.128935095587568D+02
 0.658594282320186D+03 -.259109349440295D+03 0.464380395913187D+03 0.388535225724746D+03
 0.249003827868746D+03 0.863548748230059D+02 -.887780280887980D+02 -.195828885183610D+03
 0.000000000000000D+00 0.000000000000000D+00 0.000000000000000D+00 -.000000000000000D+00
 0.745973661725813D+03 0.000000000000000D+00 0.000000000000000D+00 0.745973661725813D+03
 0.781977755040545D+03 0.000000000000000D+00 0.000000000000000D+00 -.781977755040545D+03
 0.523424796770281D+03 0.209908518204023D+03 -.423468277624550D+03 -.205599850099893D+03
 0.601589122823335D+02 -.402512519243161D+02 0.428099154025909D+02 0.128935095587568D+02
 0.655974850340287D+03 -.262604808918177D+03 0.458674282016149D+03 0.388535225724746D+03
 0.249328215341402D+03 0.850298022800002D+02 -.909411242139491D+02 -.195828885183610D+03
 0.390646420320551D+02 0.791774035847029D+01 0.129252044197588D+02 -.360040933147316D+02
0.111552081377D-02 0.000000000000D+00 0.000000000000D+00 0.987837865456D-08 0.000000000000D+00  7 -1 1 23 -13 13 23 21 0 0.21724302D-01 0.60373421D+00 0.37399340D+06 0.37399340D+06 0.37399340D+06 0.10775387D+01  1  2  2  2  7  2        1 0.242169969432D-03 0.100000000000D+01
-.590613082547D-04 0.000000000000D+00 -.428389364824D-05 0.987837865456D-08 0.000000000000D+00  7 -1 1 23 -13 13 23 21 2 0.21724302D-01 0.60373421D+00 0.37399340D+06 0.37399340D+06 0.37399340D+06 0.10775387D+01  1  2  3  2  7  2        1 -.148871447687D-04 0.100000000000D+01
0.720149781081D-04 0.000000000000D+00 0.000000000000D+00 0.987837865456D-08 0.000000000000D+00  7 -1 1 23 -13 13 23 21 2 0.21724302D-01 0.60373421D+00 0.37399340D+06 0.37399340D+06 0.37399340D+06 0.10775387D+01  1  2 15  2  7  2        1 0.181522800000D-04 0.100000000000D+01
0.778619947650D-02 0.000000000000D+00 0.000000000000D+00 0.987837865456D-08 0.000000000000D+00  7 -1 1 23 -13 13 23 21 2 0.21724302D-01 0.63482531D+00 0.38323876D+06 0.38323876D+06 0.38323876D+06 0.10767704D+01  1  2 12  2  7  2        1 0.126351312714D-02 0.100000000000D+01
-.826408172571D-02 0.000000000000D+00 0.000000000000D+00 0.987837865456D-08 0.000000000000D+00  7 -1 1 23 -13 13 23 21 2 0.21724302D-01 0.60373421D+00 0.37399340D+06 0.37399340D+06 0.37399340D+06 0.10775387D+01  1  2  4  2  7  2        1 -.208306562564D-02 0.100000000000D+01
-.210312988691D-01 0.000000000000D+00 -.124908688439D-02 0.987837865456D-08 0.000000000000D+00  7 -1 1 23 -13 13 23 21 2 0.21724302D-01 0.63444803D+00 0.37399340D+06 0.37399340D+06 0.37399340D+06 0.10775387D+01  1  2  5  2  7  2        1 -.344356257206D-02 0.100000000000D+01
0.215200669352D-01 0.000000000000D+00 0.128298914500D-02 0.987837865456D-08 0.000000000000D+00  7 -1 1 23 -13 13 23 21 2 0.21724302D-01 0.60373421D+00 0.37399340D+06 0.37399340D+06 0.37399340D+06 0.10775387D+01  1  2  6  2  7  2        1 0.542440324069D-02 0.100000000000D+01
0.135910815076D-03 0.000000000000D+00 0.000000000000D+00 0.987837865456D-08 0.000000000000D+00  7 -1 21 23 -13 13 23 -1 2 0.21724302D-01 0.63482531D+00 0.38323876D+06 0.38323876D+06 0.38323876D+06 0.10767704D+01  1  2 12  4  7  2        1 0.160590823711D-05 0.100000000000D+01
-.183855321998D-03 0.000000000000D+00 -.108036237946D-04 0.987837865456D-08 0.000000000000D+00  7 -1 21 23 -13 13 23 -1 2 0.21724302D-01 0.63444803D+00 0.37399340D+06 0.37399340D+06 0.37399340D+06 0.10775387D+01  1  2  5  4  7  2        1 -.219821227496D-05 0.100000000000D+01
  </mgrwgt>
  </event>
  <event>
  9     66 0.58687835E-06 0.18637711E+03 0.75467711E-02 0.10390331E+00
       21 -1    0    0  502  501 0.00000000E+00 0.00000000E+00 0.40346502E+02 0.40353472E+02 0.75000000E+00 0.0000E+00 0.9000E+01
        1 -1    0    0  501    0 0.00000000E+00 0.00000000E+00 -.22839229E+04 0.22839229E+04 0.32000000E+00 0.0000E+00 0.9000E+01
       25  2    1    2    0    0 -.69080702E+01 0.73893349E+02 -.16575525E+04 0.16862487E+04 0.30074321E+03 0.0000E+00 0.0000E+00
       23  2    1    2    0    0 0.93175809E+02 -.96695045E+02 -.40125431E+03 0.43284011E+03 0.91180427E+02 0.0000E+00 0.0000E+00
       23  1    3    3    0    0 0.47130846E+02 0.13448521E+02 -.13696351E+04 0.13735420E+04 0.91188000E+02 0.0000E+00 0.9000E+01
      -11  1    4    4    0    0 -.11615827E+02 0.66379009E+01 -.55070602E+02 0.56672395E+02 0.51099893E-03 0.0000E+00 0.9000E+01
       11  1    4    4    0    0 0.10479164E+03 -.10333295E+03 -.34618371E+03 0.37616771E+03 0.51099893E-03 0.0000E+00 0.9000E+01
       23  1    3    3    0    0 -.54038916E+02 0.60444827E+02 -.28791739E+03 0.31270666E+03 0.91188000E+02 0.0000E+00 0.9000E+01
        1  1    1    2  502    0 -.86267738E+02 0.22801697E+02 -.18476960E+03 0.20518759E+03 0.32000000E+00 0.0000E+00 0.9000E+01
#aMCatNLO 2  0  0  1  2 0.89230264D+02 0.00000000D+00  -5  7  0 0.00000000D+00 0.00000000D+00 0.00000000D+00 0.00000000D+00 0.00000000D+00
  <mgrwgt>
 0.4197075615D-04    2    2    0
 0.246926042934663D+03 0.000000000000000D+00 0.000000000000000D+00 0.246926042934663D+03
 0.246926042934663D+03 0.000000000000000D+00 0.000000000000000D+00 -.246926042934663D+03
 0.176336769153255D+03 0.161695613872492D+02 0.216319956998475D+02 -.148492447141240D+03
 0.159309535517641D+02 -.141552270331658D+02 0.730909774012329D+01 -.438056311648971D-01
 0.147840018507415D+03 0.774104589173187D+02 -.960957416207083D+02 0.814242001179556D+02
 0.153744344656892D+03 -.794247932714021D+02 0.671546481807375D+02 0.671120526544498D+02
 0.000000000000000D+00 -.000000000000000D+00 0.000000000000000D+00 0.000000000000000D+00
 0.335914002039374D+03 0.000000000000000D+00 0.000000000000000D+00 0.335914002039374D+03
 0.274344842242154D+03 0.000000000000000D+00 0.000000000000000D+00 -.274344842242154D+03
 0.181017782372135D+03 0.471308455446154D+02 0.134485215239836D+02 -.148492447141240D+03
 0.133787548403812D+02 -.116158268597941D+02 0.663790091135649D+01 -.438056311648971D-01
 0.168192999336024D+03 0.104791635473749D+03 -.103332946321761D+03 0.814242001179556D+02
 0.139258969247638D+03 -.540389157944686D+02 0.604448272408749D+02 0.671120526544498D+02
 0.108410338485350D+03 -.862677383641017D+02 0.228016966455461D+02 0.615691597972203D+02
-.767650955799D-07 0.000000000000D+00 0.000000000000D+00 0.113924176767D-06 0.000000000000D+00  7 21 1 23 -11 11 23 1 2 0.63902039D-02 0.31625579D+00 0.56483348D+05 0.56483348D+05 0.56483348D+05 0.11426668D+01  1  2 13  3  7  1       -1 -.626978328861D-04 0.100000000000D+01
0.172572958384D-06 0.000000000000D+00 0.000000000000D+00 0.113924176767D-06 0.527586245194D-11  7 21 1 23 -11 11 23 1 2 0.62076869D-02 0.35137300D+00 0.56483348D+05 0.56483348D+05 0.56483348D+05 0.11426668D+01  1  2  1  3  7  1       -1 0.104668589035D-03 0.100000000000D+01
  </mgrwgt>
  </event>
  <event>
  8     66 0.58687835E-06 0.25866722E+03 0.75467711E-02 0.96614755E-01
       -3 -1    0    0    0  501 0.00000000E+00 0.00000000E+00 0.73422160E+03 0.73422177E+03 0.50000000E+00 0.0000E+00 0.9000E+01
        3 -1    0    0  501    0 0.00000000E+00 0.00000000E+00 -.10777993E+03 0.10778109E+03 0.50000000E+00 0.0000E+00 0.9000E+01
       25  2    1    2    0    0 -.87253209E+02 -.16674898E+03 0.37418708E+03 0.51485200E+03 0.29939649E+03 0.0000E+00 0.0000E+00
       23  2    1    2    0    0 0.87253209E+02 0.16674898E+03 0.25225459E+03 0.32715087E+03 0.89313881E+02 0.0000E+00 0.0000E+00
       23  1    3    3    0    0 0.57508703E+02 -.71891343E+02 0.25430644E+03 0.28541660E+03 0.91188000E+02 0.0000E+00 0.9000E+01
      -13  1    4    4    0    0 0.44990638E+02 0.46644659E+02 0.15151987E+03 0.16479734E+03 0.10565837E+00 0.0000E+00 0.9000E+01
       13  1    4    4    0    0 0.42262571E+02 0.12010433E+03 0.10073472E+03 0.16235353E+03 0.10565837E+00 0.0000E+00 0.9000E+01
       23  1    3    3    0    0 -.14476191E+03 -.94857641E+02 0.11988064E+03 0.22943540E+03 0.91188000E+02 0.0000E+00 0.9000E+01
#aMCatNLO 1  0  0  2  2 0.26330958D+03 0.00000000D+00  -5  7  0 0.00000000D+00 0.00000000D+00 0.00000000D+00 0.00000000D+00 0.00000000D+00
  <mgrwgt>
 0.4204870561D-04    3    2    0
 0.281309287564796D+03 0.000000000000000D+00 0.000000000000000D+00 0.281309287564796D+03
 0.281309287564796D+03 0.000000000000000D+00 0.000000000000000D+00 -.281309287564796D+03
 0.143993540253481D+03 0.575087022393024D+02 -.718913438354846D+02 0.627954786510160D+02
 0.779238970923966D+02 0.449906409755251D+02 0.466445572780036D+02 0.432696341447078D+02
 0.130812875548812D+03 0.422625686163212D+02 0.120104427937604D+03 -.300134985145106D+02
 0.209888262234904D+03 -.144761911831149D+03 -.948576413801230D+02 -.760516142812132D+02
 0.000000000000000D+00 -.000000000000000D+00 -.000000000000000D+00 0.000000000000000D+00
 0.502879377511937D+03 0.000000000000000D+00 0.000000000000000D+00 0.502879377511937D+03
 0.400734236750412D+03 0.000000000000000D+00 0.000000000000000D+00 -.400734236750412D+03
 0.180346016927674D+03 0.128775295543029D+03 -.606884304993311D+02 0.627954786510160D+02
 0.110226062363810D+03 0.863325197066132D+02 0.531433874185756D+02 0.432696341447078D+02
 0.172698211743093D+03 0.108952556754656D+03 0.130587911472712D+03 -.300134985145106D+02
 0.157915344872627D+03 -.639450348791470D+02 -.821534496035742D+02 -.760516142812132D+02
 0.282427978355146D+03 -.260115337125152D+03 -.408894187883824D+02 0.102145140761526D+03
0.541540166893D-05 0.000000000000D+00 0.000000000000D+00 0.927981069809D-07 0.000000000000D+00  7 -3 3 23 -13 13 23 21 0 0.11295727D+00 0.16581630D-01 0.66908733D+05 0.66908733D+05 0.66908733D+05 0.11363309D+01  1  2  2  2  7  2        3 0.415135923879D-04 0.100000000000D+01
-.298279971260D-06 0.000000000000D+00 -.207965683167D-07 0.927981069809D-07 0.000000000000D+00  7 -3 3 23 -13 13 23 21 2 0.11295727D+00 0.16581630D-01 0.66908733D+05 0.66908733D+05 0.66908733D+05 0.11363309D+01  1  2  3  2  7  2        3 -.295252349521D-05 0.100000000000D+01
0.352340017561D-06 0.000000000000D+00 0.000000000000D+00 0.927981069809D-07 0.000000000000D+00  7 -3 3 23 -13 13 23 21 2 0.11295727D+00 0.16581630D-01 0.66908733D+05 0.66908733D+05 0.66908733D+05 0.11363309D+01  1  2 15  2  7  2        3 0.348763671847D-05 0.100000000000D+01
  </mgrwgt>
  </event>
  <event>
  9     66 0.58687835E-06 0.24151600E+03 0.75467711E-02 0.98871498E-01
       -3 -1    0    0    0  501 0.00000000E+00 0.00000000E+00 0.24841293E+03 0.24841343E+03 0.50000000E+00 0.0000E+00 0.9000E+01
       21 -1    0    0  501  502 0.00000000E+00 0.00000000E+00 -.17174284E+04 0.17174286E+04 0.75000000E+00 0.0000E+00 0.9000E+01
       25  2    1    2    0    0 -.19456296E+02 0.26579641E+03 -.13405116E+03 0.42269004E+03 0.29945096E+03 0.0000E+00 0.0000E+00
       23  2    1    2    0    0 -.11844040E+03 -.15217658E+03 -.18001399E+02 0.21412353E+03 0.91318104E+02 0.0000E+00 0.0000E+00
       23  1    3    3    0    0 -.12362738E+02 0.11635309E+03 -.18789122E+03 0.23939348E+03 0.91188000E+02 0.0000E+00 0.9000E+01
      -11  1    4    4    0    0 -.10036749E+03 -.14704704E+03 0.12312416E+02 0.17846025E+03 0.51099893E-03 0.0000E+00 0.9000E+01
       11  1    4    4    0    0 -.18072910E+02 -.51295393E+01 -.30313815E+02 0.35663281E+02 0.51099893E-03 0.0000E+00 0.9000E+01
       23  1    3    3    0    0 -.70935572E+01 0.14944332E+03 0.53840061E+02 0.18329656E+03 0.91188000E+02 0.0000E+00 0.9000E+01
       -3  1    1    2    0  502 0.13789670E+03 -.11361983E+03 -.13169629E+04 0.13290284E+04 0.50000000E+00 0.0000E+00 0.9000E+01
#aMCatNLO 2  0  0  2  1 0.17867559D+03 0.00000000D+00  -5  7  0 0.00000000D+00 0.00000000D+00 0.00000000D+00 0.00000000D+00 0.00000000D+00
  <mgrwgt>
 0.7284404787D-05    2    2    0
 0.296009535200943D+03 0.000000000000000D+00 0.000000000000000D+00 0.296009535200943D+03
 0.296009535200943D+03 0.000000000000000D+00 0.000000000000000D+00 -.296009535200943D+03
 0.184039476489609D+03 0.314260659417384D+02 0.802733504607980D+02 -.134624920233190D+03
 0.199968485243828D+03 -.563044159139037D+02 -.183352761399441D+03 0.565594618654112D+02
 0.273507929461070D+02 -.116221544689826D+02 -.104446319691544D+02 -.224477407172491D+02
 0.180660315722342D+03 0.365005044411479D+02 0.113524042907797D+03 0.100513199085028D+03
 0.000000000000000D+00 0.000000000000000D+00 -.000000000000000D+00 -.000000000000000D+00
 0.316892896689861D+03 0.000000000000000D+00 0.000000000000000D+00 0.316892896689861D+03
 0.134629686027098D+04 0.000000000000000D+00 0.000000000000000D+00 -.134629686027098D+04
 0.200324733694130D+03 -.123627384724989D+02 0.116353088206940D+03 -.134624920233190D+03
 0.186803205150600D+03 -.100367493211214D+03 -.147047036809755D+03 0.565594618654112D+02
 0.292718858024407D+02 -.180729096106881D+02 -.512953928985661D+01 -.224477407172491D+02
 0.201994504242051D+03 -.709355719527766D+01 0.149443322554080D+03 0.100513199085028D+03
 0.104479542807162D+04 0.137896698489678D+03 -.113619834661409D+03 -.102940396358112D+04
-.638597385764D-06 0.000000000000D+00 0.000000000000D+00 0.346963546279D-06 0.000000000000D+00  7 -3 21 23 -11 11 23 -3 2 0.35698875D-01 0.25633968D+00 0.12216875D+06 0.12216875D+06 0.12216875D+06 0.11146551D+01  1  2 13  4  7  2        3 -.169025586058D-05 0.100000000000D+01
0.437449661219D-05 0.000000000000D+00 0.000000000000D+00 0.346963546279D-06 0.282220905567D-10  7 -3 21 23 -11 11 23 -3 2 0.38217417D-01 0.26421976D+00 0.12216875D+06 0.12216875D+06 0.12216875D+06 0.11146551D+01  1  2  1  4  7  2        3 0.897466064800D-05 0.100000000000D+01
  </mgrwgt>
  </event>
  <event>
  9     66 -.58687835E-06 0.23908212E+03 0.75467711E-02 0.10258051E+00
       -1 -1    0    0    0  501 0.00000000E+00 0.00000000E+00 0.10149688E+03 0.10149738E+03 0.32000000E+00 0.0000E+00 0.9000E+01
        1 -1    0    0  502    0 0.00000000E+00 0.00000000E+00 -.98130142E+03 0.98130147E+03 0.32000000E+00 0.0000E+00 0.9000E+01
       25  2    1    2    0    0 0.19385224E+03 -.69793698E+02 -.69089088E+03 0.78092660E+03 0.30011047E+03 0.0000E+00 0.0000E+00
       23  2    1    2    0    0 -.15207475E+03 0.71228941E+02 -.13437731E+03 0.23315403E+03 0.90018043E+02 0.0000E+00 0.0000E+00
       23  1    3    3    0    0 0.16392553E+03 -.23278117E+01 -.61059933E+03 0.63876740E+03 0.91188000E+02 0.0000E+00 0.9000E+01
      -11  1    4    4    0    0 -.75149090E+01 0.24231977E+02 0.61895888E+01 0.26114624E+02 0.51099893E-03 0.0000E+00 0.9000E+01
       11  1    4    4    0    0 -.14455984E+03 0.46996964E+02 -.14056689E+03 0.20703940E+03 0.51099893E-03 0.0000E+00 0.9000E+01
       23  1    3    3    0    0 0.29926713E+02 -.67465886E+02 -.80291553E+02 0.14215920E+03 0.91188000E+02 0.0000E+00 0.9000E+01
       21  1    1    2  502  501 -.41777488E+02 -.14352432E+01 -.54536352E+02 0.68718226E+02 0.75000000E+00 0.0000E+00 0.9000E+01
#aMCatNLO 2  0  0  2  1 0.41802134D+02 0.00000000D+00  -5  7  0 0.00000000D+00 0.00000000D+00 0.00000000D+00 0.00000000D+00 0.00000000D+00
  <mgrwgt>
 -.4567199217D-04    2    2    0
 0.293915175427618D+03 0.000000000000000D+00 0.000000000000000D+00 0.293915175427618D+03
 0.293915175427618D+03 0.000000000000000D+00 0.000000000000000D+00 -.293915175427618D+03
 0.233074708220386D+03 0.146990249735963D+03 -.290961414735904D+01 -.156185687231868D+03
 0.542156083478415D+02 -.113415290508761D+02 0.241005155780024D+02 0.472214681706228D+02
 0.169982985721467D+03 -.156250567598628D+03 0.465953356850220D+02 0.480504968995250D+02
 0.130557048565542D+03 0.206018469135411D+02 -.677862371156654D+02 0.609137221617199D+02
 0.000000000000000D+00 -.000000000000000D+00 -.000000000000000D+00 0.000000000000000D+00
 0.316786016882238D+03 0.000000000000000D+00 0.000000000000000D+00 0.316786016882238D+03
 0.314399019021948D+03 0.000000000000000D+00 0.000000000000000D+00 -.314399019021948D+03
 0.244102883643504D+03 0.163925528382542D+03 -.232781173805323D+01 -.156185687231868D+03
 0.536053134041630D+02 -.751490897286935D+01 0.242319770571633D+02 0.472214681706228D+02
 0.159421182319175D+03 -.144559843917906D+03 0.469969642230530D+02 0.480504968995250D+02
 0.132185426006731D+03 0.299267127392660D+02 -.674658863545661D+02 0.609137221617199D+02
 0.418702305306130D+02 -.417774882310330D+02 -.143524318759699D+01 0.238699786029023D+01
-.214456138392D-05 0.000000000000D+00 0.000000000000D+00 0.252018049043D-06 0.000000000000D+00  7 -1 1 23 -11 11 23 21 2 0.14487449D-01 0.15607105D+00 0.68667520D+05 0.68667520D+05 0.68667520D+05 0.11353699D+01  1  2 13  2  7  2        1 -.161073808831D-03 0.100000000000D+01
0.163137682815D-05 0.000000000000D+00 0.000000000000D+00 0.252018049043D-06 0.999220515530D-09  7 -1 1 23 -11 11 23 21 2 0.15614781D-01 0.15096788D+00 0.68667520D+05 0.68667520D+05 0.68667520D+05 0.11353699D+01  1  2  1  2  7  2        1 0.115401816664D-03 0.100000000000D+01
  </mgrwgt>
  </event>
  <event>
  8     66 0.58687835E-06 0.14414386E+03 0.75467711E-02 0.10839344E+00
       -1 -1    0    0    0  501 0.00000000E+00 0.00000000E+00 0.84052667E+03 0.84052673E+03 0.32000000E+00 0.0000E+00 0.9000E+01
        1 -1    0    0  501    0 0.00000000E+00 0.00000000E+00 -.15156913E+03 0.15156947E+03 0.32000000E+00 0.0000E+00 0.9000E+01
       25  2    1    2    0    0 0.15488973E+02 -.17582087E+02 0.79404533E+03 0.84932002E+03 0.30047874E+03 0.0000E+00 0.0000E+00
       23  2    1    2    0    0 -.15488973E+02 0.17582087E+02 -.10508779E+03 0.14277618E+03 0.93768629E+02 0.0000E+00 0.0000E+00
       23  1    3    3    0    0 0.24522956E+02 -.31421844E+02 0.75742296E+02 0.12506340E+03 0.91188000E+02 0.0000E+00 0.9000E+01
      -13  1    4    4    0    0 -.49864394E+02 0.31531383E+02 -.56930297E+02 0.81986314E+02 0.10565837E+00 0.0000E+00 0.9000E+01
       13  1    4    4    0    0 0.34375421E+02 -.13949296E+02 -.48157496E+02 0.60789868E+02 0.10565837E+00 0.0000E+00 0.9000E+01
       23  1    3    3    0    0 -.90339833E+01 0.13839757E+02 0.71830303E+03 0.72425662E+03 0.91188000E+02 0.0000E+00 0.9000E+01
#aMCatNLO 1  0  0  1  1 0.56551151D+02 0.00000000D+00  -5  7  0 0.00000000D+00 0.00000000D+00 0.00000000D+00 0.00000000D+00 0.00000000D+00
  <mgrwgt>
 0.1387841470D-03    4    2    0
 0.356928700234607D+03 0.000000000000000D+00 0.000000000000000D+00 0.356928700234607D+03
 0.356928700234607D+03 0.000000000000000D+00 0.000000000000000D+00 -.356928700234607D+03
 0.100708768895508D+03 0.245229563583893D+02 -.314218436071999D+02 -.154368761159103D+02
 0.168886533466626D+03 -.498644970658538D+02 0.315314384811813D+02 -.158246521307897D+03
 0.130961494726924D+03 0.343755239744977D+02 -.139493517564644D+02 -.125597181648965D+03
 0.313300603380156D+03 -.903398326703319D+01 0.138397568824829D+02 0.299280579072773D+03
 0.000000000000000D+00 -.000000000000000D+00 -.000000000000000D+00 -.000000000000000D+00
 0.367109319699080D+03 0.000000000000000D+00 0.000000000000000D+00 0.367109319699080D+03
 0.446269611526732D+03 0.000000000000000D+00 0.000000000000000D+00 -.446269611526732D+03
 0.102889209559609D+03 0.325709326260326D+02 -.311733107554144D+02 -.154368761159103D+02
 0.165544405194145D+03 -.366448557023669D+02 0.319396796412427D+02 -.158246521307897D+03
 0.134059579027156D+03 0.448514792279944D+02 -.136258394910521D+02 -.125597181648965D+03
 0.313600669388667D+03 0.157466486610541D+02 0.146050177278580D+02 0.299280579072773D+03
 0.972850680562337D+02 -.565242048127142D+02 -.174554712263414D+01 -.791602918276519D+02
0.997590148520D-05 0.000000000000D+00 0.000000000000D+00 0.105132720264D-06 0.000000000000D+00  7 -1 1 23 -13 13 23 21 0 0.12931183D+00 0.23318359D-01 0.20777453D+05 0.20777453D+05 0.20777453D+05 0.11824331D+01  1  2  2  1  7  1       -1 0.152959980952D-03 0.100000000000D+01
-.214446197047D-09 0.000000000000D+00 -.383100884184D-07 0.105132720264D-06 0.000000000000D+00  7 -1 1 23 -13 13 23 21 2 0.12931183D+00 0.23318359D-01 0.20777453D+05 0.20777453D+05 0.20777453D+05 0.11824331D+01  1  2  3  1  7  1       -1 -.459724020788D-08 0.100000000000D+01
0.616832285172D-06 0.000000000000D+00 0.000000000000D+00 0.105132720264D-06 0.000000000000D+00  7 -1 1 23 -13 13 23 21 2 0.12931183D+00 0.23318359D-01 0.20777453D+05 0.20777453D+05 0.20777453D+05 0.11824331D+01  1  2 15  1  7  1       -1 0.132234855267D-04 0.100000000000D+01
-.127787405722D-05 0.000000000000D+00 0.000000000000D+00 0.105132720264D-06 0.000000000000D+00  7 -1 1 23 -13 13 23 21 2 0.12931183D+00 0.23318359D-01 0.20777453D+05 0.20777453D+05 0.20777453D+05 0.11824331D+01  1  2  4  1  7  1       -1 -.273947222071D-04 0.100000000000D+01
  </mgrwgt>
  </event>
  <event>
  8     66 0.58687835E-06 0.28209633E+03 0.75467711E-02 0.96912570E-01
       -1 -1    0    0    0  501 0.00000000E+00 0.00000000E+00 0.18198702E+03 0.18198731E+03 0.32000000E+00 0.0000E+00 0.9000E+01
        1 -1    0    0  501    0 0.00000000E+00 0.00000000E+00 -.83066091E+03 0.83066097E+03 0.32000000E+00 0.0000E+00 0.9000E+01
       25  2    1    2    0    0 -.20638089E+03 -.13216884E+02 -.43895385E+02 0.36708321E+03 0.30009252E+03 0.0000E+00 0.0000E+00
       23  2    1    2    0    0 0.20638089E+03 0.13216884E+02 -.60477850E+03 0.64556507E+03 0.90716380E+02 0.0000E+00 0.0000E+00
       23  1    3    3    0    0 -.11074600E+03 0.96509584E+02 0.37648113E+02 0.17695030E+03 0.91188000E+02 0.0000E+00 0.9000E+01
      -11  1    4    4    0    0 0.99918047E+01 0.20718881E+02 -.28082809E+02 0.36300859E+02 0.51099893E-03 0.0000E+00 0.9000E+01
       11  1    4    4    0    0 0.19638909E+03 -.75019973E+01 -.57669569E+03 0.60926421E+03 0.51099893E-03 0.0000E+00 0.9000E+01
       23  1    3    3    0    0 -.95634889E+02 -.10972647E+03 -.81543499E+02 0.19013291E+03 0.91188000E+02 0.0000E+00 0.9000E+01
#aMCatNLO 1  0  0  2  1 0.22873341D+03 0.00000000D+00  -5  7  0 0.00000000D+00 0.00000000D+00 0.00000000D+00 0.00000000D+00 0.00000000D+00
  <mgrwgt>
 0.2351424913D-03    7    2    0
 0.388805453717827D+03 0.000000000000000D+00 0.000000000000000D+00 0.388805453717827D+03
 0.388805453717827D+03 0.000000000000000D+00 0.000000000000000D+00 -.388805453717827D+03
 0.261840161657048D+03 -.110746004219275D+03 0.965095843387715D+02 0.196637335195560D+03
 0.238466530678493D+02 0.999180469059921D+01 0.207188814552745D+02 -.628924898581450D+01
 0.312345046422557D+03 0.196389088097545D+03 -.750199732642475D+01 -.242764235704187D+03
 0.179579046288200D+03 -.956348885688688D+02 -.109726468467621D+03 0.524161494944418D+02
 0.000000000000000D+00 0.000000000000000D+00 0.000000000000000D+00 -.000000000000000D+00
 0.507269358481371D+03 0.000000000000000D+00 0.000000000000000D+00 0.507269358481371D+03
 0.533519316347700D+03 0.000000000000000D+00 0.000000000000000D+00 -.533519316347700D+03
 0.260205568006446D+03 -.141255472301483D+03 0.277909379048485D+02 0.196637335195560D+03
 0.180941461643426D+02 0.754069475365619D+01 0.151980720896832D+02 -.628924898581450D+01
 0.304153196114211D+03 0.160359613312765D+03 -.886537477359667D+02 -.242764235704187D+03
 0.228101032860310D+03 -.119460583629244D+03 -.163390777215475D+03 0.524161494944418D+02
 0.230234731683761D+03 0.928157478643066D+02 0.209055514956910D+03 -.262499578663284D+02
0.812515814556D-05 0.000000000000D+00 0.000000000000D+00 0.188473815170D-05 0.000000000000D+00  7 -1 1 23 -11 11 23 21 0 0.27998030D-01 0.12779401D+00 0.79578337D+05 0.79578337D+05 0.79578337D+05 0.11299550D+01  1  2  2  2  7  2        1 0.229198840099D-03 0.100000000000D+01
-.394905000517D-06 0.000000000000D+00 -.312027466822D-07 0.188473815170D-05 0.000000000000D+00  7 -1 1 23 -11 11 23 21 2 0.27998030D-01 0.12779401D+00 0.79578337D+05 0.79578337D+05 0.79578337D+05 0.11299550D+01  1  2  3  2  7  2        1 -.142231421215D-04 0.100000000000D+01
0.514496786880D-06 0.000000000000D+00 0.000000000000D+00 0.188473815170D-05 0.000000000000D+00  7 -1 1 23 -11 11 23 21 2 0.27998030D-01 0.12779401D+00 0.79578337D+05 0.79578337D+05 0.79578337D+05 0.11299550D+01  1  2 15  2  7  2        1 0.185304336771D-04 0.100000000000D+01
-.281665453097D-05 0.000000000000D+00 0.000000000000D+00 0.188473815170D-05 0.000000000000D+00  7 -1 1 23 -11 11 23 21 2 0.27998030D-01 0.12779401D+00 0.79578337D+05 0.79578337D+05 0.79578337D+05 0.11299550D+01  1  2  4  2  7  2        1 -.101446367224D-03 0.100000000000D+01
-.283861685991D-05 0.000000000000D+00 -.277897232297D-05 0.188473815170D-05 0.000000000000D+00  7 -1 1 23 -11 11 23 21 2 0.27998030D-01 0.21040674D+00 0.79578337D+05 0.79578337D+05 0.79578337D+05 0.11299550D+01  1  2  5  2  7  2        1 -.414560944894D-04 0.100000000000D+01
0.402626515466D-05 0.000000000000D+00 0.246601219237D-05 0.188473815170D-05 0.000000000000D+00  7 -1 1 23 -11 11 23 21 2 0.27998030D-01 0.12779401D+00 0.79578337D+05 0.79578337D+05 0.79578337D+05 0.11299550D+01  1  2  6  2  7  2        1 0.145012449674D-03 0.100000000000D+01
-.347451565476D-07 0.000000000000D+00 -.156343718159D-06 0.188473815170D-05 0.000000000000D+00  7 -1 21 23 -11 11 23 -1 2 0.27998030D-01 0.21040674D+00 0.79578337D+05 0.79578337D+05 0.79578337D+05 0.11299550D+01  1  2  5  4  7  2        1 -.473628324122D-06 0.100000000000D+01
  </mgrwgt>
  </event>
  <event>
  8     66 0.58687835E-06 0.14023684E+03 0.75467711E-02 0.10313505E+00
       -1 -1    0    0    0  501 0.00000000E+00 0.00000000E+00 0.72228620E+02 0.72229329E+02 0.32000000E+00 0.0000E+00 0.9000E+01
        1 -1    0    0  501    0 0.00000000E+00 0.00000000E+00 -.13024165E+04 0.13024166E+04 0.32000000E+00 0.0000E+00 0.9000E+01
       25  2    1    2    0    0 0.12877462E+02 0.18631849E+03 -.10174986E+04 0.10774738E+04 0.30127382E+03 0.0000E+00 0.0000E+00
       23  2    1    2    0    0 -.12877462E+02 -.18631849E+03 -.21268930E+03 0.29717212E+03 0.90521374E+02 0.0000E+00 0.0000E+00
       23  1    3    3    0    0 0.29129509E+02 0.12638136E+03 -.21343709E+03 0.26587858E+03 0.91188000E+02 0.0000E+00 0.9000E+01
      -11  1    4    4    0    0 -.32975234E+01 -.18016224E+03 -.15293928E+03 0.23634663E+03 0.51099893E-03 0.0000E+00 0.9000E+01
       11  1    4    4    0    0 -.95799386E+01 -.61562509E+01 -.59750022E+02 0.60825487E+02 0.51099893E-03 0.0000E+00 0.9000E+01
       23  1    3    3    0    0 -.16252047E+02 0.59937134E+02 -.80406152E+03 0.81159520E+03 0.91188000E+02 0.0000E+00 0.9000E+01
#aMCatNLO 1  0  0  1  2 0.42212238D+02 0.00000000D+00  -5  7  0 0.00000000D+00 0.00000000D+00 0.00000000D+00 0.00000000D+00 0.00000000D+00
  <mgrwgt>
 0.2404667729D-03    9    2    0
 0.306712018952422D+03 0.000000000000000D+00 0.000000000000000D+00 0.306712018952422D+03
 0.306712018952422D+03 0.000000000000000D+00 0.000000000000000D+00 -.306712018952422D+03
 0.167781444956160D+03 0.291295093560729D+02 0.126381359908397D+03 0.549052409151930D+02
 0.222927157135061D+03 -.329752342107779D+01 -.180162243061780D+03 0.131252466272278D+03
 0.164808515969724D+02 -.957993862061701D+01 -.615625094247187D+01 -.119140177824255D+02
 0.206234584216652D+03 -.162520473143781D+02 0.599371340958549D+02 -.174243689405045D+03
 0.000000000000000D+00 -.000000000000000D+00 0.000000000000000D+00 0.000000000000000D+00
 0.346657878985019D+03 0.000000000000000D+00 0.000000000000000D+00 0.346657878985019D+03
 0.318795402203682D+03 0.000000000000000D+00 0.000000000000000D+00 -.318795402203682D+03
 0.162097276550617D+03 0.354806317184453D+02 0.116990662080492D+03 0.549052409151930D+02
 0.233596762615402D+03 0.549188640336119D+01 -.193158165205548D+03 0.131252466272278D+03
 0.165014236283600D+02 -.894493414142928D+01 -.709516139690547D+01 -.119140177824255D+02
 0.202679258876613D+03 -.837926958172924D+01 0.482965338152532D+02 -.174243689405045D+03
 0.505785595177086D+02 -.236483143986479D+02 0.349661307067077D+02 0.278624767813366D+02
0.386342184944D-05 0.000000000000D+00 0.000000000000D+00 0.122463044757D-06 0.000000000000D+00  7 -1 1 23 -11 11 23 21 0 0.11112153D-01 0.20037183D+00 0.53003416D+05 0.53003416D+05 0.53003416D+05 0.11450737D+01  1  2  2  1  7  1       -1 0.213244062338D-03 0.100000000000D+01
-.193161126593D-06 0.000000000000D+00 -.148365571642D-07 0.122463044757D-06 0.000000000000D+00  7 -1 1 23 -11 11 23 21 2 0.11112153D-01 0.20037183D+00 0.53003416D+05 0.53003416D+05 0.53003416D+05 0.11450737D+01  1  2  3  1  7  1       -1 -.139794926387D-04 0.100000000000D+01
0.249207239290D-06 0.000000000000D+00 0.000000000000D+00 0.122463044757D-06 0.000000000000D+00  7 -1 1 23 -11 11 23 21 2 0.11112153D-01 0.20037183D+00 0.53003416D+05 0.53003416D+05 0.53003416D+05 0.11450737D+01  1  2 15  1  7  1       -1 0.180356722319D-04 0.100000000000D+01
0.794628154447D-05 0.000000000000D+00 0.000000000000D+00 0.122463044757D-06 0.000000000000D+00  7 -1 1 23 -11 11 23 21 2 0.12758141D-01 0.20037183D+00 0.63229350D+05 0.63229350D+05 0.63229350D+05 0.11384346D+01  1  2 12  1  7  1       -1 0.458423220838D-03 0.100000000000D+01
-.798806532088D-05 0.000000000000D+00 0.000000000000D+00 0.122463044757D-06 0.000000000000D+00  7 -1 1 23 -11 11 23 21 2 0.11112153D-01 0.20037183D+00 0.53003416D+05 0.53003416D+05 0.53003416D+05 0.11450737D+01  1  2  4  1  7  1       -1 -.578113734996D-03 0.100000000000D+01
-.154471871275D-04 0.000000000000D+00 -.346870003091D-05 0.122463044757D-06 0.000000000000D+00  7 -1 1 23 -11 11 23 21 2 0.13058817D-01 0.20037183D+00 0.53003416D+05 0.53003416D+05 0.53003416D+05 0.11450737D+01  1  2  5  1  7  1       -1 -.872151556268D-03 0.100000000000D+01
0.158449364551D-04 0.000000000000D+00 0.342399227478D-05 0.122463044757D-06 0.000000000000D+00  7 -1 1 23 -11 11 23 21 2 0.11112153D-01 0.20037183D+00 0.53003416D+05 0.53003416D+05 0.53003416D+05 0.11450737D+01  1  2  6  1  7  1       -1 0.114673266014D-02 0.100000000000D+01
0.169477144892D-06 0.000000000000D+00 0.000000000000D+00 0.122463044757D-06 0.000000000000D+00  7 21 1 23 -11 11 23 1 2 0.12758141D-01 0.20037183D+00 0.63229350D+05 0.63229350D+05 0.63229350D+05 0.11384346D+01  1  2 12  3  7  1       -1 0.131954854654D-03 0.100000000000D+01
-.346338003900D-06 0.000000000000D+00 -.839350535475D-07 0.122463044757D-06 0.000000000000D+00  7 21 1 23 -11 11 23 1 2 0.13058817D-01 0.20037183D+00 0.53003416D+05 0.53003416D+05 0.53003416D+05 0.11450737D+01  1  2  5  3  7  1       -1 -.263678913441D-03 0.100000000000D+01
  </mgrwgt>
  </event>
  <event>
  8     66 0.58687835E-06 0.21296937E+03 0.75467711E-02 0.98560335E-01
       -1 -1    0    0    0  501 0.00000000E+00 0.00000000E+00 0.69863049E+02 0.69863782E+02 0.32000000E+00 0.0000E+00 0.9000E+01
        1 -1    0    0  501    0 0.00000000E+00 0.00000000E+00 -.18563253E+04 0.18563254E+04 0.32000000E+00 0.0000E+00 0.9000E+01
       25  2    1    2    0    0 0.27592763E+03 0.18115983E+02 -.88487347E+03 0.97773550E+03 0.31064674E+03 0.0000E+00 0.0000E+00
       23  2    1    2    0    0 -.27592763E+03 -.18115983E+02 -.90158882E+03 0.94845365E+03 0.10118143E+03 0.0000E+00 0.0000E+00
       23  1    3    3    0    0 0.30419795E+03 -.33080865E+01 -.65646216E+03 0.72924972E+03 0.91188000E+02 0.0000E+00 0.9000E+01
      -13  1    4    4    0    0 -.45020831E+01 -.84680064E+01 -.35231567E+01 0.10217616E+02 0.10565837E+00 0.0000E+00 0.9000E+01
       13  1    4    4    0    0 -.27142555E+03 -.96479770E+01 -.89806566E+03 0.93823604E+03 0.10565837E+00 0.0000E+00 0.9000E+01
       23  1    3    3    0    0 -.28270324E+02 0.21424070E+02 -.22841132E+03 0.24848578E+03 0.91188000E+02 0.0000E+00 0.9000E+01
#aMCatNLO 1  0  0  2  1 0.19672187D+02 0.00000000D+00  -5  7  0 0.00000000D+00 0.00000000D+00 0.00000000D+00 0.00000000D+00 0.00000000D+00
  <mgrwgt>
 0.3550706572D-03    9    2    0
 0.360123979212687D+03 0.000000000000000D+00 0.000000000000000D+00 0.360123979212687D+03
 0.360123979212687D+03 0.000000000000000D+00 0.000000000000000D+00 -.360123979212687D+03
 0.322011356671548D+03 0.304197973688071D+03 -.330808523346255D+01 0.531856358203100D+02
 0.185864514764297D+02 -.450180861055276D+01 -.846799640329402D+01 0.159211474031688D+02
 0.281652776711794D+03 -.271425846722155D+03 -.964798860725266D+01 -.745869470916940D+02
 0.979973735656029D+02 -.282703183553636D+02 0.214240702440092D+02 0.548016386821512D+01
 0.000000000000000D+00 0.000000000000000D+00 0.000000000000000D+00 -.000000000000000D+00
 0.364126648452875D+03 0.000000000000000D+00 0.000000000000000D+00 0.364126648452875D+03
 0.385268506232145D+03 0.000000000000000D+00 0.000000000000000D+00 -.385268506232145D+03
 0.313996436135102D+03 0.295677123297732D+03 -.498371972651840D+01 0.531856358203100D+02
 0.187586586259981D+02 -.500213596438799D+01 -.856638632137733D+01 0.159211474031688D+02
 0.289082818162957D+03 -.279072219410307D+03 -.111516561094488D+02 -.745869470916940D+02
 0.986786493860115D+02 -.309052655775387D+02 0.209059050080764D+02 0.548016386821512D+01
 0.288785923749510D+02 0.193024976545022D+02 0.379585714926815D+01 -.211418577792697D+02
0.587507690065D-05 0.000000000000D+00 0.000000000000D+00 0.521581496887D-10 0.000000000000D+00  7 -1 1 23 -13 13 23 21 0 0.10748220D-01 0.28558857D+00 0.12131996D+06 0.12131996D+06 0.12131996D+06 0.11148988D+01  1  2  2  2  7  2        1 0.144820482381D-03 0.100000000000D+01
-.325951645634D-06 0.000000000000D+00 -.225618422418D-07 0.521581496887D-10 0.000000000000D+00  7 -1 1 23 -13 13 23 21 2 0.10748220D-01 0.28558857D+00 0.12131996D+06 0.12131996D+06 0.12131996D+06 0.11148988D+01  1  2  3  2  7  2        1 -.998712591854D-05 0.100000000000D+01
0.380481034230D-06 0.000000000000D+00 0.000000000000D+00 0.521581496887D-10 0.000000000000D+00  7 -1 1 23 -13 13 23 21 2 0.10748220D-01 0.28558857D+00 0.12131996D+06 0.12131996D+06 0.12131996D+06 0.11148988D+01  1  2 15  2  7  2        1 0.116579009475D-04 0.100000000000D+01
0.285920240539D-04 0.000000000000D+00 0.000000000000D+00 0.521581496887D-10 0.000000000000D+00  7 -1 1 23 -13 13 23 21 2 0.10748220D-01 0.30704724D+00 0.12847661D+06 0.12847661D+06 0.12847661D+06 0.11128997D+01  1  2 12  2  7  2        1 0.705790421298D-03 0.100000000000D+01
-.291022610956D-04 0.000000000000D+00 0.000000000000D+00 0.521581496887D-10 0.000000000000D+00  7 -1 1 23 -13 13 23 21 2 0.10748220D-01 0.28558857D+00 0.12131996D+06 0.12131996D+06 0.12131996D+06 0.11148988D+01  1  2  4  2  7  2        1 -.891690377910D-03 0.100000000000D+01
-.669828579251D-04 0.000000000000D+00 -.830787354996D-05 0.521581496887D-10 0.000000000000D+00  7 -1 1 23 -13 13 23 21 2 0.10748220D-01 0.30682126D+00 0.12131996D+06 0.12131996D+06 0.12131996D+06 0.11148988D+01  1  2  5  2  7  2        1 -.166599272642D-02 0.100000000000D+01
0.674265047489D-04 0.000000000000D+00 0.828655646878D-05 0.521581496887D-10 0.000000000000D+00  7 -1 1 23 -13 13 23 21 2 0.10748220D-01 0.28558857D+00 0.12131996D+06 0.12131996D+06 0.12131996D+06 0.11148988D+01  1  2  6  2  7  2        1 0.206594138178D-02 0.100000000000D+01
0.386178228536D-06 0.000000000000D+00 0.000000000000D+00 0.521581496887D-10 0.000000000000D+00  7 -1 21 23 -13 13 23 -1 2 0.10748220D-01 0.30704724D+00 0.12847661D+06 0.12847661D+06 0.12847661D+06 0.11128997D+01  1  2 12  4  7  2        1 0.503008456688D-05 0.100000000000D+01
-.796745024341D-06 0.000000000000D+00 -.100633876476D-06 0.521581496887D-10 0.000000000000D+00  7 -1 21 23 -13 13 23 -1 2 0.10748220D-01 0.30682126D+00 0.12131996D+06 0.12131996D+06 0.12131996D+06 0.11148988D+01  1  2  5  4  7  2        1 -.104993835083D-04 0.100000000000D+01
  </mgrwgt>
  </event>
  <event>
  8     66 0.58687835E-06 0.35850985E+03 0.75467711E-02 0.91763043E-01
       -1 -1    0    0    0  501 0.00000000E+00 0.00000000E+00 0.15509246E+03 0.15509279E+03 0.32000000E+00 0.0000E+00 0.9000E+01
        1 -1    0    0  501    0 0.00000000E+00 0.00000000E+00 -.35842427E+04 0.35842427E+04 0.32000000E+00 0.0000E+00 0.9000E+01
       25  2    1    2    0    0 0.22599209E+03 0.51450135E+03 -.28709294E+04 0.29407841E+04 0.30031801E+03 0.0000E+00 0.0000E+00
       23  2    1    2    0    0 -.22599209E+03 -.51450135E+03 -.55822074E+03 0.79855140E+03 0.10143911E+03 0.0000E+00 0.0000E+00
       23  1    3    3    0    0 0.58854701E+02 0.17921826E+03 -.56003686E+03 0.59794615E+03 0.91188000E+02 0.0000E+00 0.9000E+01
      -13  1    4    4    0    0 -.30525439E+02 -.18546474E+03 -.17080194E+03 0.25397300E+03 0.10565837E+00 0.0000E+00 0.9000E+01
       13  1    4    4    0    0 -.19546665E+03 -.32903661E+03 -.38741880E+03 0.54457840E+03 0.10565837E+00 0.0000E+00 0.9000E+01
       23  1    3    3    0    0 0.16713739E+03 0.33528308E+03 -.23108926E+04 0.23428379E+04 0.91188000E+02 0.0000E+00 0.9000E+01
#aMCatNLO 1  0  0  1  2 0.12533038D+03 0.00000000D+00  -5  7  0 0.00000000D+00 0.00000000D+00 0.00000000D+00 0.00000000D+00 0.00000000D+00
  <mgrwgt>
 0.7089543651D-04    9    2    0
 0.745580089658595D+03 0.000000000000000D+00 0.000000000000000D+00 0.745580089658595D+03
 0.745580089658595D+03 0.000000000000000D+00 0.000000000000000D+00 -.745580089658595D+03
 0.211560596591987D+03 0.588547013047741D+02 0.179218263188594D+03 -.293184747275003D+02
 0.244094746478252D+03 -.305252621861965D+02 -.185464581142384D+03 0.155734847636699D+03
 0.474693782704220D+03 -.195466825738384D+03 -.329036765990882D+03 0.280823278949704D+03
 0.560811053542732D+03 0.167137386619806D+03 0.335283083944672D+03 -.407239651858902D+03
 0.000000000000000D+00 0.000000000000000D+00 -.000000000000000D+00 0.000000000000000D+00
 0.815196087819225D+03 0.000000000000000D+00 0.000000000000000D+00 0.815196087819225D+03
 0.806830989983171D+03 0.000000000000000D+00 0.000000000000000D+00 -.806830989983171D+03
 0.225564553135473D+03 0.540850758984834D+02 0.196924726461443D+03 -.293184747275003D+02
 0.230571140591984D+03 -.357045077086316D+02 -.166237469406710D+03 0.155734847636699D+03
 0.453937306451625D+03 -.205599444368702D+03 -.291421057344480D+03 0.280823278949704D+03
 0.586344850385014D+03 0.154620367299912D+03 0.381750494693726D+03 -.407239651858902D+03
 0.125609227238300D+03 0.325985088789382D+02 -.121016694403978D+03 0.836509783605452D+01
0.123964312712D-03 0.000000000000D+00 0.000000000000D+00 0.301192237402D-07 0.000000000000D+00  7 -1 1 23 -13 13 23 21 0 0.23860406D-01 0.55142197D+00 0.33975329D+06 0.33975329D+06 0.33975329D+06 0.10805761D+01  1  2  2  1  7  1       -1 0.460766997665D-04 0.100000000000D+01
-.637945565866D-05 0.000000000000D+00 -.476055601367D-06 0.301192237402D-07 0.000000000000D+00  7 -1 1 23 -13 13 23 21 2 0.23860406D-01 0.55142197D+00 0.33975329D+06 0.33975329D+06 0.33975329D+06 0.10805761D+01  1  2  3  1  7  1       -1 -.276871979586D-05 0.100000000000D+01
0.801041546750D-05 0.000000000000D+00 0.000000000000D+00 0.301192237402D-07 0.000000000000D+00  7 -1 1 23 -13 13 23 21 2 0.23860406D-01 0.55142197D+00 0.33975329D+06 0.33975329D+06 0.33975329D+06 0.10805761D+01  1  2 15  1  7  1       -1 0.347656556681D-05 0.100000000000D+01
0.100049649311D-03 0.000000000000D+00 0.000000000000D+00 0.301192237402D-07 0.000000000000D+00  7 -1 1 23 -13 13 23 21 2 0.26984686D-01 0.55142197D+00 0.42088037D+06 0.42088037D+06 0.42088037D+06 0.10738382D+01  1  2 12  1  7  1       -1 0.343805657112D-04 0.100000000000D+01
-.839639580968D-04 0.000000000000D+00 0.000000000000D+00 0.301192237402D-07 0.000000000000D+00  7 -1 1 23 -13 13 23 21 2 0.23860406D-01 0.55142197D+00 0.33975329D+06 0.33975329D+06 0.33975329D+06 0.10805761D+01  1  2  4  1  7  1       -1 -.364408321587D-04 0.100000000000D+01
-.214753278915D-03 0.000000000000D+00 -.787588507602D-04 0.301192237402D-07 0.000000000000D+00  7 -1 1 23 -13 13 23 21 2 0.30243529D-01 0.55142197D+00 0.33975329D+06 0.33975329D+06 0.33975329D+06 0.10805761D+01  1  2  5  1  7  1       -1 -.627117262818D-04 0.100000000000D+01
0.229118156249D-03 0.000000000000D+00 0.765964566801D-04 0.301192237402D-07 0.000000000000D+00  7 -1 1 23 -13 13 23 21 2 0.23860406D-01 0.55142197D+00 0.33975329D+06 0.33975329D+06 0.33975329D+06 0.10805761D+01  1  2  6  1  7  1       -1 0.994385741888D-04 0.100000000000D+01
0.193871190040D-05 0.000000000000D+00 0.000000000000D+00 0.301192237402D-07 0.000000000000D+00  7 21 1 23 -13 13 23 1 2 0.26984686D-01 0.55142197D+00 0.42088037D+06 0.42088037D+06 0.42088037D+06 0.10738382D+01  1  2 12  3  7  1       -1 0.720898862484D-05 0.100000000000D+01
-.577825562213D-05 0.000000000000D+00 -.256256722781D-05 0.301192237402D-07 0.000000000000D+00  7 21 1 23 -13 13 23 1 2 0.30243529D-01 0.55142197D+00 0.33975329D+06 0.33975329D+06 0.33975329D+06 0.10805761D+01  1  2  5  3  7  1       -1 -.177646791138D-04 0.100000000000D+01
  </mgrwgt>
  </event>
  <event>
  9     66 0.58687835E-06 0.36929461E+03 0.75467711E-02 0.96906045E-01
       -1 -1    0    0    0  502 0.00000000E+00 0.00000000E+00 0.10386320E+04 0.10386320E+04 0.32000000E+00 0.0000E+00 0.9000E+01
        1 -1    0    0  501    0 0.00000000E+00 0.00000000E+00 -.24999647E+03 0.24999668E+03 0.32000000E+00 0.0000E+00 0.9000E+01
       25  2    1    2    0    0 0.29379593E+03 0.21599589E+03 0.77038793E+03 0.90376715E+03 0.30054489E+03 0.0000E+00 0.0000E+00
       23  2    1    2    0    0 -.23010888E+03 -.16325559E+03 -.13902650E+02 0.29613849E+03 0.88894538E+02 0.0000E+00 0.0000E+00
       23  1    3    3    0    0 0.19510264E+03 0.16553534E+02 0.24924950E+03 0.32981756E+03 0.91188000E+02 0.0000E+00 0.9000E+01
      -13  1    4    4    0    0 -.12786862E+03 -.80604899E+02 0.36229182E+02 0.15543519E+03 0.10565837E+00 0.0000E+00 0.9000E+01
       13  1    4    4    0    0 -.10224026E+03 -.82650690E+02 -.50131832E+02 0.14070330E+03 0.10565837E+00 0.0000E+00 0.9000E+01
       23  1    3    3    0    0 0.98693293E+02 0.19944236E+03 0.52113843E+03 0.57394959E+03 0.91188000E+02 0.0000E+00 0.9000E+01
       21  1    1    2  501  502 -.63687051E+02 -.52740302E+02 0.32150200E+02 0.88723040E+02 0.75000000E+00 0.0000E+00 0.9000E+01
#aMCatNLO 2  0  0  1  1 0.82689660D+02 0.00000000D+00  -5  7  0 0.00000000D+00 0.00000000D+00 0.00000000D+00 0.00000000D+00 0.00000000D+00
  <mgrwgt>
 0.4251121423D-04    1    2    0
 0.463860430175462D+03 0.000000000000000D+00 0.000000000000000D+00 0.463860430175462D+03
 0.463860430175462D+03 0.000000000000000D+00 0.000000000000000D+00 -.463860430175462D+03
 0.209004489296749D+03 0.180322241529583D+03 0.431364352455149D+01 0.532250588678367D+02
 0.184856633180190D+03 -.140052882331730D+03 -.906948563801085D+02 -.795714019449293D+02
 0.234580417841300D+03 -.117880521372437D+03 -.956026816699103D+02 -.178863865476187D+03
 0.299279320032685D+03 0.776111621745838D+02 0.181983894525467D+03 0.205210208553279D+03
 0.000000000000000D+00 -.000000000000000D+00 -.000000000000000D+00 -.000000000000000D+00
 0.494470466682897D+03 0.000000000000000D+00 0.000000000000000D+00 0.494470466682897D+03
 0.525112957707746D+03 0.000000000000000D+00 0.000000000000000D+00 -.525112957707746D+03
 0.222457225277090D+03 0.195102637959677D+03 0.165535344767303D+02 0.532250588678367D+02
 0.170819056694685D+03 -.127868654810893D+03 -.806048958775657D+02 -.795714019449293D+02
 0.221983068949482D+03 -.102240224441481D+03 -.826506928785401D+02 -.178863865476187D+03
 0.316139368561315D+03 0.986932927105285D+02 0.199442355806936D+03 0.205210208553279D+03
 0.881847049080704D+02 -.636870514178314D+02 -.527403015275605D+02 -.306424910248492D+02
0.830174019817D-05 0.000000000000D+00 0.000000000000D+00 0.239998174273D-06 0.230062769160D-09  7 -1 1 23 -13 13 23 21 2 0.15978905D+00 0.38460894D-01 0.16883628D+06 0.16883628D+06 0.16883628D+06 0.11035204D+01  1  2  1  1  7  1       -1 0.425112142264D-04 0.100000000000D+01
  </mgrwgt>
  </event>
  <event>
  8     66 0.58687835E-06 0.22849915E+03 0.75467711E-02 0.10347057E+00
       -1 -1    0    0    0  501 0.00000000E+00 0.00000000E+00 0.21323145E+03 0.21323169E+03 0.32000000E+00 0.0000E+00 0.9000E+01
        1 -1    0    0  501    0 0.00000000E+00 0.00000000E+00 -.38965996E+03 0.38966009E+03 0.32000000E+00 0.0000E+00 0.9000E+01
       25  2    1    2    0    0 -.16678962E+03 0.85409161E+01 0.66711355E+01 0.33852047E+03 0.29438050E+03 0.0000E+00 0.0000E+00
       23  2    1    2    0    0 0.16678962E+03 -.85409161E+01 -.18309964E+03 0.26437131E+03 0.92059676E+02 0.0000E+00 0.0000E+00
       23  1    3    3    0    0 -.88928343E+02 0.79473812E+02 0.91107547E+02 0.17561371E+03 0.91188000E+02 0.0000E+00 0.9000E+01
      -13  1    4    4    0    0 0.16499250E+03 -.69326056E+01 -.12727234E+03 0.20849184E+03 0.10565837E+00 0.0000E+00 0.9000E+01
       13  1    4    4    0    0 0.17971202E+01 -.16083105E+01 -.55827303E+02 0.55879470E+02 0.10565837E+00 0.0000E+00 0.9000E+01
       23  1    3    3    0    0 -.77861279E+02 -.70932896E+02 -.84436412E+02 0.16290676E+03 0.91188000E+02 0.0000E+00 0.9000E+01
#aMCatNLO 1  0  0  1  1 0.31925148D+02 0.00000000D+00  -5  7  0 0.00000000D+00 0.00000000D+00 0.00000000D+00 0.00000000D+00 0.00000000D+00
  <mgrwgt>
 0.3219832646D-03    4    2    0
 0.288249664199137D+03 0.000000000000000D+00 0.000000000000000D+00 0.288249664199137D+03
 0.288249664199137D+03 0.000000000000000D+00 0.000000000000000D+00 -.288249664199137D+03
 0.211535418798341D+03 -.889283446180707D+02 0.794738103759445D+02 0.149022297157196D+03
 0.179087201085420D+03 0.164992717910142D+03 -.693261278003864D+01 -.692933439031174D+02
 0.413524172472787D+02 0.179690646074763D+01 -.160830348828337D+01 -.412820408804353D+02
 0.144524291267235D+03 -.778612797528194D+02 -.709328941076225D+02 -.384469123736438D+02
 0.000000000000000D+00 0.000000000000000D+00 0.000000000000000D+00 -.000000000000000D+00
 0.294188255294492D+03 0.000000000000000D+00 0.000000000000000D+00 0.294188255294492D+03
 0.335045015982146D+03 0.000000000000000D+00 0.000000000000000D+00 -.335045015982146D+03
 0.213315891646172D+03 -.985009850435123D+02 0.726521106386557D+02 0.149022297157196D+03
 0.172143549400304D+03 0.157078877001331D+03 -.125722110569259D+02 -.692933439031174D+02
 0.413864266705195D+02 -.673438841863030D-01 -.293681427768655D+01 -.412820408804353D+02
 0.150536753005726D+03 -.845095192920246D+02 -.756705936244135D+02 -.384469123736438D+02
 0.518506505539170D+02 0.259989712183919D+02 0.185275083203702D+02 -.408567606876543D+02
0.652313909363D-05 0.000000000000D+00 0.000000000000D+00 0.342847116795D-08 0.000000000000D+00  7 -1 1 23 -13 13 23 21 0 0.32804867D-01 0.59947714D-01 0.52211863D+05 0.52211863D+05 0.52211863D+05 0.11456455D+01  1  2  2  1  7  1       -1 0.417811527736D-03 0.100000000000D+01
-.338620361533D-06 0.000000000000D+00 -.250505717015D-07 0.342847116795D-08 0.000000000000D+00  7 -1 1 23 -13 13 23 21 2 0.32804867D-01 0.59947714D-01 0.52211863D+05 0.52211863D+05 0.52211863D+05 0.11456455D+01  1  2  3  1  7  1       -1 -.284667143095D-04 0.100000000000D+01
0.421787952166D-06 0.000000000000D+00 0.000000000000D+00 0.342847116795D-08 0.000000000000D+00  7 -1 1 23 -13 13 23 21 2 0.32804867D-01 0.59947714D-01 0.52211863D+05 0.52211863D+05 0.52211863D+05 0.11456455D+01  1  2 15  1  7  1       -1 0.354583436128D-04 0.100000000000D+01
-.122307438639D-05 0.000000000000D+00 0.000000000000D+00 0.342847116795D-08 0.000000000000D+00  7 -1 1 23 -13 13 23 21 2 0.32804867D-01 0.59947714D-01 0.52211863D+05 0.52211863D+05 0.52211863D+05 0.11456455D+01  1  2  4  1  7  1       -1 -.102819892399D-03 0.100000000000D+01
  </mgrwgt>
  </event>
  <event>
  8     66 0.58687835E-06 0.20044983E+03 0.75467711E-02 0.92434874E-01
       -1 -1    0    0    0  501 0.00000000E+00 0.00000000E+00 0.74192624E+03 0.74192631E+03 0.32000000E+00 0.0000E+00 0.9000E+01
        1 -1    0    0  501    0 0.00000000E+00 0.00000000E+00 -.44810878E+03 0.44810889E+03 0.32000000E+00 0.0000E+00 0.9000E+01
       25  2    1    2    0    0 0.32899338E+03 0.41945163E+03 0.18171722E+03 0.63794563E+03 0.29962838E+03 0.0000E+00 0.0000E+00
       23  2    1    2    0    0 -.32899338E+03 -.41945163E+03 0.11210023E+03 0.55208957E+03 0.89778115E+02 0.0000E+00 0.0000E+00
       23  1    3    3    0    0 0.24618381E+03 0.38362292E+03 0.20416826E+03 0.50771345E+03 0.91188000E+02 0.0000E+00 0.9000E+01
      -11  1    4    4    0    0 -.32425959E+03 -.41836551E+03 0.12006474E+03 0.54276102E+03 0.51099893E-03 0.0000E+00 0.9000E+01
       11  1    4    4    0    0 -.47337912E+01 -.10861242E+01 -.79645072E+01 0.93285487E+01 0.51099893E-03 0.0000E+00 0.9000E+01
       23  1    3    3    0    0 0.82809577E+02 0.35828706E+02 -.22451036E+02 0.13023219E+03 0.91188000E+02 0.0000E+00 0.9000E+01
#aMCatNLO 1  0  0  2  1 0.87628808D+02 0.00000000D+00  -5  7  0 0.00000000D+00 0.00000000D+00 0.00000000D+00 0.00000000D+00 0.00000000D+00
  <mgrwgt>
 0.3052270875D-03    9    2    0
 0.576596712864772D+03 0.000000000000000D+00 0.000000000000000D+00 0.576596712864772D+03
 0.576596712864772D+03 0.000000000000000D+00 0.000000000000000D+00 -.576596712864772D+03
 0.471914478241027D+03 0.246183805369388D+03 0.383622924873819D+03 0.813327050736906D+02
 0.529510127456509D+03 -.324259591305330D+03 -.418365506208944D+03 -.143873465254184D+02
 0.116558178263177D+02 -.473379119456044D+01 -.108612418853114D+01 -.105957370849646D+02
 0.140113002205690D+03 0.828095771305022D+02 0.358287055236569D+02 -.563496214633076D+02
 0.000000000000000D+00 0.000000000000000D+00 -.000000000000000D+00 -.000000000000000D+00
 0.597676354042069D+03 0.000000000000000D+00 0.000000000000000D+00 0.597676354042069D+03
 0.677124272623232D+03 0.000000000000000D+00 0.000000000000000D+00 -.677124272623232D+03
 0.495098868583564D+03 0.234691712658899D+03 0.418464370554238D+03 0.813327050736906D+02
 0.508564014432210D+03 -.336596178300867D+03 -.380963743404295D+03 -.143873465254184D+02
 0.117237178671127D+02 -.501163616185005D+01 -.243760610436873D+00 -.105957370849646D+02
 0.141131399441008D+03 0.794672378043252D+02 0.459619281674523D+02 -.563496214633076D+02
 0.118282626341406D+03 0.274488639994926D+02 -.832187947069578D+02 -.794479185811636D+02
0.454275458412D-04 0.000000000000D+00 0.000000000000D+00 0.937599746103D-06 0.000000000000D+00  7 -1 1 23 -11 11 23 21 0 0.11414251D+00 0.68939826D-01 0.31770514D+06 0.31770514D+06 0.31770514D+06 0.10827142D+01  1  2  2  2  7  2        1 0.209137151931D-03 0.100000000000D+01
-.252217087225D-05 0.000000000000D+00 -.174453737378D-06 0.937599746103D-06 0.000000000000D+00  7 -1 1 23 -11 11 23 21 2 0.11414251D+00 0.68939826D-01 0.31770514D+06 0.31770514D+06 0.31770514D+06 0.10827142D+01  1  2  3  2  7  2        1 -.136117545269D-04 0.100000000000D+01
0.297986716609D-05 0.000000000000D+00 0.000000000000D+00 0.937599746103D-06 0.000000000000D+00  7 -1 1 23 -11 11 23 21 2 0.11414251D+00 0.68939826D-01 0.31770514D+06 0.31770514D+06 0.31770514D+06 0.10827142D+01  1  2 15  2  7  2        1 0.160818685340D-04 0.100000000000D+01
0.102227523991D-03 0.000000000000D+00 0.000000000000D+00 0.937599746103D-06 0.000000000000D+00  7 -1 1 23 -11 11 23 21 2 0.11414251D+00 0.82067418D-01 0.37135219D+06 0.37135219D+06 0.37135219D+06 0.10777620D+01  1  2 12  2  7  2        1 0.425553491530D-03 0.100000000000D+01
-.103599662508D-03 0.000000000000D+00 0.000000000000D+00 0.937599746103D-06 0.000000000000D+00  7 -1 1 23 -11 11 23 21 2 0.11414251D+00 0.68939826D-01 0.31770514D+06 0.31770514D+06 0.31770514D+06 0.10827142D+01  1  2  4  2  7  2        1 -.559110879701D-03 0.100000000000D+01
-.185697255799D-03 0.000000000000D+00 -.346760517364D-04 0.937599746103D-06 0.000000000000D+00  7 -1 1 23 -11 11 23 21 2 0.11414251D+00 0.83013150D-01 0.31770514D+06 0.31770514D+06 0.31770514D+06 0.10827142D+01  1  2  5  2  7  2        1 -.772705661700D-03 0.100000000000D+01
0.189450431286D-03 0.000000000000D+00 0.340862240143D-04 0.937599746103D-06 0.000000000000D+00  7 -1 1 23 -11 11 23 21 2 0.11414251D+00 0.68939826D-01 0.31770514D+06 0.31770514D+06 0.31770514D+06 0.10827142D+01  1  2  6  2  7  2        1 0.102243380655D-02 0.100000000000D+01
0.262897945788D-05 0.000000000000D+00 0.000000000000D+00 0.937599746103D-06 0.000000000000D+00  7 -1 21 23 -11 11 23 -1 2 0.11414251D+00 0.82067418D-01 0.37135219D+06 0.37135219D+06 0.37135219D+06 0.10777620D+01  1  2 12  4  7  2        1 0.295460929094D-04 0.100000000000D+01
-.466806784178D-05 0.000000000000D+00 -.937312867684D-06 0.937599746103D-06 0.000000000000D+00  7 -1 21 23 -11 11 23 -1 2 0.11414251D+00 0.83013150D-01 0.31770514D+06 0.31770514D+06 0.31770514D+06 0.10827142D+01  1  2  5  4  7  2        1 -.520970280654D-04 0.100000000000D+01
  </mgrwgt>
  </event>
  <event>
  9     66 0.58687835E-06 0.24149461E+03 0.75467711E-02 0.10119271E+00
       21 -1    0    0  502  501 0.00000000E+00 0.00000000E+00 0.21064780E+03 0.21064914E+03 0.75000000E+00 0.0000E+00 0.9000E+01
        1 -1    0    0  501    0 0.00000000E+00 0.00000000E+00 -.55462183E+03 0.55462192E+03 0.32000000E+00 0.0000E+00 0.9000E+01
       25  2    1    2    0    0 0.68136087E+02 0.67475218E+02 -.30317235E+03 0.43771551E+03 0.30080884E+03 0.0000E+00 0.0000E+00
       23  2    1    2    0    0 -.15171938E+03 -.45515616E+02 0.62985854E+02 0.19249873E+03 0.89432108E+02 0.0000E+00 0.0000E+00
       23  1    3    3    0    0 0.13945340E+03 -.23757753E+02 -.16431634E+03 0.23521648E+03 0.91188000E+02 0.0000E+00 0.9000E+01
      -13  1    4    4    0    0 -.16168174E+03 -.34552306E+02 0.64792227E+02 0.17757503E+03 0.10565837E+00 0.0000E+00 0.9000E+01
       13  1    4    4    0    0 0.99623589E+01 -.10963310E+02 -.18063733E+01 0.14923703E+02 0.10565837E+00 0.0000E+00 0.9000E+01
       23  1    3    3    0    0 -.71317310E+02 0.91232971E+02 -.13885601E+03 0.20249903E+03 0.91188000E+02 0.0000E+00 0.9000E+01
        1  1    1    2  502    0 0.83583292E+02 -.21959601E+02 -.10378753E+03 0.13505682E+03 0.32000000E+00 0.0000E+00 0.9000E+01
#aMCatNLO 2  0  0  1  2 0.86419852D+02 0.00000000D+00  -5  7  0 0.00000000D+00 0.00000000D+00 0.00000000D+00 0.00000000D+00 0.00000000D+00
  <mgrwgt>
 0.4744467262D-04    1    2    0
 0.288102430741532D+03 0.000000000000000D+00 0.000000000000000D+00 0.288102430741532D+03
 0.288102430741532D+03 0.000000000000000D+00 0.000000000000000D+00 -.288102430741532D+03
 0.209904325635196D+03 0.168057504761803D+03 -.312728276813438D+02 -.807667005542242D+02
 0.199091585157097D+03 -.131542580051201D+03 -.424707787809133D+02 0.143283780881095D+03
 0.174322619691458D+02 0.123304401595253D+02 -.115853735867721D+02 0.419799019629819D+01
 0.149776688721626D+03 -.488453648701274D+02 0.853289800490292D+02 -.667150705231686D+02
 0.000000000000000D+00 0.000000000000000D+00 -.000000000000000D+00 -.000000000000000D+00
 0.314680586900122D+03 0.000000000000000D+00 0.000000000000000D+00 0.314680586900122D+03
 0.371266112457864D+03 0.000000000000000D+00 0.000000000000000D+00 -.371266112457864D+03
 0.186682060477884D+03 0.139453396123387D+03 -.237577513983600D+02 -.807667005542242D+02
 0.218781097520499D+03 -.161681979765563D+03 -.345523398307628D+02 0.143283780881095D+03
 0.153970753198134D+02 0.996259808722363D+01 -.109632771591454D+02 0.419799019629819D+01
 0.161789261024677D+03 -.713173068899261D+02 0.912329695996340D+02 -.667150705231686D+02
 0.103297205015113D+03 0.835832924448789D+02 -.219596012113657D+02 -.565855255577425D+02
0.865565201749D-07 0.000000000000D+00 0.000000000000D+00 0.895546583138D-07 0.160254941951D-11  7 21 1 23 -13 13 23 1 2 0.32407439D-01 0.85326480D-01 0.84758424D+05 0.84758424D+05 0.84758424D+05 0.11276635D+01  1  2  1  3  7  1       -1 0.474446726239D-04 0.100000000000D+01
  </mgrwgt>
  </event>
  <event>
  8     66 0.58687835E-06 0.22385203E+03 0.75467711E-02 0.88556730E-01
       -3 -1    0    0    0  501 0.00000000E+00 0.00000000E+00 0.43164944E+03 0.43164973E+03 0.50000000E+00 0.0000E+00 0.9000E+01
        3 -1    0    0  501    0 0.00000000E+00 0.00000000E+00 -.13473843E+03 0.13473936E+03 0.50000000E+00 0.0000E+00 0.9000E+01
       25  2    1    2    0    0 -.53880185E+02 0.86474781E+02 0.11253499E+03 0.33633926E+03 0.30013166E+03 0.0000E+00 0.0000E+00
       23  2    1    2    0    0 0.53880185E+02 -.86474781E+02 0.18437602E+03 0.23004983E+03 0.92452393E+02 0.0000E+00 0.0000E+00
       23  1    3    3    0    0 -.13034683E+03 0.10409099E+03 0.35239276E+02 0.19334500E+03 0.91188000E+02 0.0000E+00 0.9000E+01
      -13  1    4    4    0    0 0.75098293E+02 -.88395989E+02 0.15012630E+03 0.18971432E+03 0.10565837E+00 0.0000E+00 0.9000E+01
       13  1    4    4    0    0 -.21218108E+02 0.19212081E+01 0.34249721E+02 0.40335514E+02 0.10565837E+00 0.0000E+00 0.9000E+01
       23  1    3    3    0    0 0.76466649E+02 -.17616212E+02 0.77295711E+02 0.14299426E+03 0.91188000E+02 0.0000E+00 0.9000E+01
#aMCatNLO 1  0  0  2  1 0.83705837D+03 0.00000000D+00  -5  7  0 0.00000000D+00 0.00000000D+00 0.00000000D+00 0.00000000D+00 0.00000000D+00
  <mgrwgt>
 0.4458239945D-04    5    2    0
 0.241164079926245D+03 0.000000000000000D+00 0.000000000000000D+00 0.241164079926245D+03
 0.241164079926245D+03 0.000000000000000D+00 0.000000000000000D+00 -.241164079926245D+03
 0.205348929829879D+03 -.130346833931820D+03 0.104090994623147D+03 -.776382596442698D+02
 0.130363599292262D+03 0.750984188720832D+02 -.883961099969443D+02 0.595064974667018D+02
 0.262817104683316D+02 -.212182304089544D+02 0.192132380921523D+01 0.153890713908889D+02
 0.120333920262019D+03 0.764666454686914D+02 -.176162084354176D+02 0.274269078667910D+01
 0.000000000000000D+00 -.000000000000000D+00 0.000000000000000D+00 -.000000000000000D+00
 0.779704172267841D+03 0.000000000000000D+00 0.000000000000000D+00 0.779704172267841D+03
 0.107349181486237D+04 0.000000000000000D+00 0.000000000000000D+00 -.107349181486237D+04
 0.144657933942732D+03 -.339042210605055D+02 -.737120813860870D+02 -.776382596442698D+02
 0.458099224842580D+03 0.237246359988083D+03 -.387334534005197D+03 0.595064974667018D+02
 0.321529696787836D+02 -.511685121043500D+01 -.277634251233737D+02 0.153890713908889D+02
 0.331168113240345D+03 0.200875736645741D+03 -.246978711547068D+03 0.274269078667910D+01
 0.887117745425773D+03 -.399101024362883D+03 0.735788752061726D+03 -.293787642594532D+03
0.224941225267D-05 0.000000000000D+00 0.000000000000D+00 0.153018164600D-06 0.000000000000D+00  7 -3 3 23 -13 13 23 21 0 0.66407700D-01 0.20729083D-01 0.50109730D+05 0.50109730D+05 0.50109730D+05 0.11472117D+01  1  2  2  2  7  2        3 0.424574122249D-04 0.100000000000D+01
-.124124205433D-06 0.000000000000D+00 -.863833533412D-08 0.153018164600D-06 0.000000000000D+00  7 -3 3 23 -13 13 23 21 2 0.66407700D-01 0.20729083D-01 0.50109730D+05 0.50109730D+05 0.50109730D+05 0.11472117D+01  1  2  3  2  7  2        3 -.308338706580D-05 0.100000000000D+01
0.145397522228D-06 0.000000000000D+00 0.000000000000D+00 0.153018164600D-06 0.000000000000D+00  7 -3 3 23 -13 13 23 21 2 0.66407700D-01 0.20729083D-01 0.50109730D+05 0.50109730D+05 0.50109730D+05 0.11472117D+01  1  2 15  2  7  2        3 0.361184055820D-05 0.100000000000D+01
0.525149011758D-05 0.000000000000D+00 -.192894474059D-05 0.153018164600D-06 0.000000000000D+00  7 -3 3 23 -13 13 23 21 2 0.66407700D-01 0.24109230D+00 0.50109730D+05 0.50109730D+05 0.50109730D+05 0.11472117D+01  1  2  5  2  7  2        3 0.369047072135D-06 0.100000000000D+01
0.115036635149D-05 0.000000000000D+00 -.553153515051D-06 0.153018164600D-06 0.000000000000D+00  7 -3 21 23 -13 13 23 -3 2 0.66407700D-01 0.24109230D+00 0.50109730D+05 0.50109730D+05 0.50109730D+05 0.11472117D+01  1  2  5  4  7  2        3 0.122748666278D-05 0.100000000000D+01
  </mgrwgt>
  </event>
  <event>
  8     66 0.58687835E-06 0.98945992E+02 0.75467711E-02 0.10744464E+00
       -1 -1    0    0    0  501 0.00000000E+00 0.00000000E+00 0.37193627E+02 0.37195004E+02 0.32000000E+00 0.0000E+00 0.9000E+01
        1 -1    0    0  501    0 0.00000000E+00 0.00000000E+00 -.13968500E+04 0.13968500E+04 0.32000000E+00 0.0000E+00 0.9000E+01
       25  2    1    2    0    0 0.10289315E+03 -.11212079E+02 -.93042171E+03 0.98297618E+03 0.29974140E+03 0.0000E+00 0.0000E+00
       23  2    1    2    0    0 -.10289315E+03 0.11212079E+02 -.42923465E+03 0.45106885E+03 0.92238874E+02 0.0000E+00 0.0000E+00
       23  1    3    3    0    0 0.13588360E+03 -.36563957E+01 -.81845023E+03 0.83465787E+03 0.91188000E+02 0.0000E+00 0.9000E+01
      -11  1    4    4    0    0 -.67120787E+02 -.52945220E+01 -.10690506E+03 0.12634051E+03 0.51099893E-03 0.0000E+00 0.9000E+01
       11  1    4    4    0    0 -.35772359E+02 0.16506601E+02 -.32232959E+03 0.32472834E+03 0.51099893E-03 0.0000E+00 0.9000E+01
       23  1    3    3    0    0 -.32990458E+02 -.75556834E+01 -.11197148E+03 0.14831831E+03 0.91188000E+02 0.0000E+00 0.9000E+01
#aMCatNLO 1  0  0  2  1 0.25813088D+01 0.00000000D+00  -5  7  0 0.00000000D+00 0.00000000D+00 0.00000000D+00 0.00000000D+00 0.00000000D+00
  <mgrwgt>
 0.2797638704D-03   11    2    0
 0.227936244343413D+03 0.000000000000000D+00 0.000000000000000D+00 0.227936244343413D+03
 0.227936244343413D+03 0.000000000000000D+00 0.000000000000000D+00 -.227936244343413D+03
 0.184538231415345D+03 0.135883604439538D+03 -.365639569748167D+01 -.852137566647902D+02
 0.785830104862180D+02 -.671207871594638D+02 -.529452203989178D+01 0.405223087266768D+02
 0.601430970528038D+02 -.357723593582042D+02 0.165066011030249D+02 -.454429592904785D+02
 0.132608149732459D+03 -.329904579218699D+02 -.755568336565149D+01 0.901344072285919D+02
 0.000000000000000D+00 0.000000000000000D+00 -.000000000000000D+00 -.000000000000000D+00
 0.228583184385878D+03 0.000000000000000D+00 0.000000000000000D+00 0.228583184385878D+03
 0.230529397866575D+03 0.000000000000000D+00 0.000000000000000D+00 -.230529397866575D+03
 0.183819646902295D+03 0.134916095023745D+03 -.326714277343779D+01 -.852137566647902D+02
 0.789256751319313D+02 -.675344911831178D+02 -.512807869756613D+01 0.405223087266768D+02
 0.603668644543980D+02 -.360888844804238D+02 0.166339469741309D+02 -.454429592904785D+02
 0.132767610274326D+03 -.336874799258577D+02 -.727525420522524D+01 0.901344072285919D+02
 0.323278548950244D+01 0.239476056565399D+01 -.963471297901713D+00 -.194621348069674D+01
0.680339721968D-06 0.000000000000D+00 0.000000000000D+00 0.162383422241D-06 0.000000000000D+00  7 -1 1 23 -11 11 23 21 0 0.57222052D-02 0.21490011D+00 0.33796803D+05 0.33796803D+05 0.33796803D+05 0.11625643D+01  1  2  2  2  7  2        1 0.884791445867D-04 0.100000000000D+01
-.356722681431D-07 0.000000000000D+00 -.261268366992D-08 0.162383422241D-06 0.000000000000D+00  7 -1 1 23 -11 11 23 21 2 0.57222052D-02 0.21490011D+00 0.33796803D+05 0.33796803D+05 0.33796803D+05 0.11625643D+01  1  2  3  2  7  2        1 -.627017671397D-05 0.100000000000D+01
0.439107414513D-07 0.000000000000D+00 0.000000000000D+00 0.162383422241D-06 0.000000000000D+00  7 -1 1 23 -11 11 23 21 2 0.57222052D-02 0.21490011D+00 0.33796803D+05 0.33796803D+05 0.33796803D+05 0.11625643D+01  1  2 15  2  7  2        1 0.771826751909D-05 0.100000000000D+01
0.256408861488D-08 0.000000000000D+00 0.000000000000D+00 0.162383422241D-06 0.000000000000D+00  7 -1 1 23 -11 11 23 21 2 0.57222052D-02 0.21764773D+00 0.34300255D+05 0.34300255D+05 0.34300255D+05 0.11619764D+01  1  2 12  2  7  2        1 0.438195598067D-06 0.100000000000D+01
-.159351724724D-04 0.000000000000D+00 0.000000000000D+00 0.162383422241D-06 0.000000000000D+00  7 -1 1 23 -11 11 23 21 2 0.57222052D-02 0.21490011D+00 0.33796803D+05 0.33796803D+05 0.33796803D+05 0.11625643D+01  1  2  4  2  7  2        1 -.280095302515D-02 0.100000000000D+01
-.584139500527D-04 0.000000000000D+00 -.578122132390D-05 0.162383422241D-06 0.000000000000D+00  7 -1 1 23 -11 11 23 21 2 0.57222052D-02 0.21764770D+00 0.33796803D+05 0.33796803D+05 0.33796803D+05 0.11625643D+01  1  2  5  2  7  2        1 -.999340355569D-02 0.100000000000D+01
0.584831437384D-04 0.000000000000D+00 0.578075480666D-05 0.162383422241D-06 0.000000000000D+00  7 -1 1 23 -11 11 23 21 2 0.57222052D-02 0.21490011D+00 0.33796803D+05 0.33796803D+05 0.33796803D+05 0.11625643D+01  1  2  6  2  7  2        1 0.102796840548D-01 0.100000000000D+01
0.159336143892D-04 0.000000000000D+00 0.000000000000D+00 0.162383422241D-06 0.175502231952D-06  7 -1 1 23 -11 11 23 21 2 0.57384463D-02 0.21734495D+00 0.34300255D+05 0.34300255D+05 0.34300255D+05 0.11619764D+01  1  2 11  2  7  2        1 0.271972907291D-02 0.100000000000D+01
0.230384623950D-09 0.000000000000D+00 0.000000000000D+00 0.162383422241D-06 0.000000000000D+00  7 -1 21 23 -11 11 23 -1 2 0.57222052D-02 0.21764773D+00 0.34300255D+05 0.34300255D+05 0.34300255D+05 0.11619764D+01  1  2 12  4  7  2        1 0.365341577210D-07 0.100000000000D+01
-.136187538684D-06 0.000000000000D+00 -.135125469534D-07 0.162383422241D-06 0.000000000000D+00  7 -1 21 23 -11 11 23 -1 2 0.57222052D-02 0.21764770D+00 0.33796803D+05 0.33796803D+05 0.33796803D+05 0.11625643D+01  1  2  5  4  7  2        1 -.216346296337D-04 0.100000000000D+01
0.374323927837D-07 0.000000000000D+00 0.000000000000D+00 0.162383422241D-06 0.366360072493D-09  7 -1 21 23 -11 11 23 -1 2 0.57384463D-02 0.21734495D+00 0.34300255D+05 0.34300255D+05 0.34300255D+05 0.11619764D+01  1  2 11  4  7  2        1 0.593998801301D-05 0.100000000000D+01
  </mgrwgt>
  </event>
  <event>
  9     66 0.58687835E-06 0.20140401E+03 0.75467711E-02 0.91307461E-01
       -1 -1    0    0    0  502 0.00000000E+00 0.00000000E+00 0.13891061E+04 0.13891061E+04 0.32000000E+00 0.0000E+00 0.9000E+01
        1 -1    0    0  501    0 0.00000000E+00 0.00000000E+00 -.71429828E+03 0.71429835E+03 0.32000000E+00 0.0000E+00 0.9000E+01
       25  2    1    2    0    0 -.28846778E+03 0.20206220E+03 0.67801486E+03 0.82014047E+03 0.29813326E+03 0.0000E+00 0.0000E+00
       23  2    1    2    0    0 -.27833442E+03 0.36382913E+01 -.44689454E+03 0.53464089E+03 0.92967017E+02 0.0000E+00 0.0000E+00
       23  1    3    3    0    0 -.12815440E+02 -.21826354E+02 0.13044123E+03 0.16115455E+03 0.91188000E+02 0.0000E+00 0.9000E+01
      -13  1    4    4    0    0 0.59271728E+01 0.66594748E+00 -.26423667E+02 0.27088673E+02 0.10565837E+00 0.0000E+00 0.9000E+01
       13  1    4    4    0    0 -.28426160E+03 0.29723438E+01 -.42047087E+03 0.50755222E+03 0.10565837E+00 0.0000E+00 0.9000E+01
       23  1    3    3    0    0 -.27565234E+03 0.22388856E+03 0.54757363E+03 0.65898591E+03 0.91188000E+02 0.0000E+00 0.9000E+01
       21  1    1    2  501  502 0.56680220E+03 -.20570049E+03 0.44368749E+03 0.74862312E+03 0.75000000E+00 0.0000E+00 0.9000E+01
#aMCatNLO 2  0  0  1  2 0.60297382D+03 0.00000000D+00  -5  7  0 0.00000000D+00 0.00000000D+00 0.00000000D+00 0.00000000D+00 0.00000000D+00
  <mgrwgt>
 0.6326470944D-05    1    2    0
 0.595491080310579D+03 0.000000000000000D+00 0.000000000000000D+00 0.595491080310579D+03
 0.595491080310579D+03 0.000000000000000D+00 0.000000000000000D+00 -.595491080310579D+03
 0.155676084129521D+03 0.537502989914809D+02 -.459839975666895D+02 0.104480472587057D+03
 0.386471612350850D+02 0.217952360824097D+02 -.509266301352306D+01 -.315061190734972D+02
 0.523157195114272D+03 -.349450492606870D+02 -.875082726223252D+02 -.514601395795481D+03
 0.473501720142280D+03 -.406004858132036D+02 0.138584933202538D+03 0.441627042281921D+03
 0.000000000000000D+00 0.000000000000000D+00 -.000000000000000D+00 0.000000000000000D+00
 0.116927016962035D+04 0.000000000000000D+00 0.000000000000000D+00 0.116927016962035D+04
 0.848594103732701D+03 0.000000000000000D+00 0.000000000000000D+00 -.848594103732701D+03
 0.140968243695297D+03 -.128154401382043D+02 -.218263539920409D+02 0.104480472587057D+03
 0.320657892534203D+02 0.592754749445218D+01 0.665944496484316D+00 -.315061190734972D+02
 0.587901606519720D+03 -.284261969930024D+03 0.297234676845174D+01 -.514601395795481D+03
 0.573986055836465D+03 -.275652335779849D+03 0.223888557669073D+03 0.441627042281921D+03
 0.682942578048151D+03 0.566802198353625D+03 -.205700494941968D+03 0.320676065887652D+03
0.163003262810D-04 0.000000000000D+00 0.000000000000D+00 0.181504374273D-06 0.367354261809D-11  7 -1 1 23 -13 13 23 21 2 0.21370859D+00 0.10989203D+00 0.45866252D+06 0.45866252D+06 0.45866252D+06 0.10711692D+01  1  2  1  1  7  1       -1 0.632647094436D-05 0.100000000000D+01
  </mgrwgt>
  </event>
  <event>
  8     66 0.58687835E-06 0.38241384E+03 0.75467711E-02 0.80767198E-01
       -1 -1    0    0    0  501 0.00000000E+00 0.00000000E+00 0.23376684E+03 0.23376706E+03 0.32000000E+00 0.0000E+00 0.9000E+01
        1 -1    0    0  501    0 0.00000000E+00 0.00000000E+00 -.15893632E+04 0.15893632E+04 0.32000000E+00 0.0000E+00 0.9000E+01
       25  2    1    2    0    0 0.24977238E+03 -.23298958E+03 -.38886703E+02 0.45990998E+03 0.30550717E+03 0.0000E+00 0.0000E+00
       23  2    1    2    0    0 -.24977238E+03 0.23298958E+03 -.13167096E+04 0.13632203E+04 0.89302408E+02 0.0000E+00 0.0000E+00
       23  1    3    3    0    0 0.86208089E+02 -.18091306E+02 -.10806660E+03 0.16659163E+03 0.91188000E+02 0.0000E+00 0.9000E+01
      -11  1    4    4    0    0 -.47081515E+02 0.10012764E+03 -.42363898E+03 0.43784951E+03 0.51099893E-03 0.0000E+00 0.9000E+01
       11  1    4    4    0    0 -.20269086E+03 0.13286194E+03 -.89307064E+03 0.92537077E+03 0.51099893E-03 0.0000E+00 0.9000E+01
       23  1    3    3    0    0 0.16356429E+03 -.21489827E+03 0.69179897E+02 0.29331835E+03 0.91188000E+02 0.0000E+00 0.9000E+01
#aMCatNLO 1  0  0  1  2 0.20442039D+04 0.00000000D+00  -5  7  0 0.00000000D+00 0.00000000D+00 0.00000000D+00 0.00000000D+00 0.00000000D+00
  <mgrwgt>
 0.2071445946D-03    5    2    0
 0.609541330678551D+03 0.000000000000000D+00 0.000000000000000D+00 0.609541330678551D+03
 0.609541330678551D+03 0.000000000000000D+00 0.000000000000000D+00 -.609541330678551D+03
 0.128968740794670D+03 0.862080886238394D+02 -.180913062722095D+02 0.236337650693243D+02
 0.183722778307089D+03 -.470815146002183D+02 0.100127635364229D+03 -.146669174976180D+03
 0.390808740930257D+03 -.202690862613680D+03 0.132861940187176D+03 -.306587004046346D+03
 0.515582401325086D+03 0.163564288590059D+03 -.214898269279196D+03 0.429622413953201D+03
 0.000000000000000D+00 0.000000000000000D+00 0.000000000000000D+00 0.000000000000000D+00
 0.250328471524561D+04 0.000000000000000D+00 0.000000000000000D+00 0.250328471524561D+04
 0.198557022458015D+04 0.000000000000000D+00 0.000000000000000D+00 -.198557022458015D+04
 0.262345049515580D+03 0.562129465082026D+02 -.238309092262226D+03 0.236337650693243D+02
 0.202989725060291D+03 -.767239570175982D+02 -.117500706429456D+03 -.146669174976180D+03
 0.588127625452472D+03 -.277728686883902D+03 -.418049386139954D+03 -.306587004046346D+03
 0.132664936551292D+04 0.223527979026592D+02 -.125164220986941D+04 0.429622413953201D+03
 0.210874317428450D+04 0.275886899490639D+03 0.202550139470105D+04 0.517714490665464D+03
0.386202935408D-04 0.000000000000D+00 0.000000000000D+00 0.100149369233D-07 0.000000000000D+00  7 -1 1 23 -11 11 23 21 0 0.35964149D-01 0.24451743D+00 0.14624034D+06 0.14624034D+06 0.14624034D+06 0.11084229D+01  1  2  2  1  7  1       -1 0.201694409617D-03 0.100000000000D+01
-.157858183509D-05 0.000000000000D+00 -.148312096154D-06 0.100149369233D-07 0.000000000000D+00  7 -1 1 23 -11 11 23 21 2 0.35964149D-01 0.24451743D+00 0.14624034D+06 0.14624034D+06 0.14624034D+06 0.11084229D+01  1  2  3  1  7  1       -1 -.101287621745D-04 0.100000000000D+01
0.241111671233D-05 0.000000000000D+00 0.000000000000D+00 0.100149369233D-07 0.000000000000D+00  7 -1 1 23 -11 11 23 21 2 0.35964149D-01 0.24451743D+00 0.14624034D+06 0.14624034D+06 0.14624034D+06 0.11084229D+01  1  2 15  1  7  1       -1 0.154706124265D-04 0.100000000000D+01
0.164299150657D-03 0.000000000000D+00 -.415404451364D-04 0.100149369233D-07 0.000000000000D+00  7 -1 1 23 -11 11 23 21 2 0.55980274D+00 0.24451743D+00 0.14624034D+06 0.14624034D+06 0.14624034D+06 0.11084229D+01  1  2  5  1  7  1       -1 0.149391465780D-07 0.100000000000D+01
0.411216447992D-04 0.000000000000D+00 -.127715402706D-04 0.100149369233D-07 0.000000000000D+00  7 21 1 23 -11 11 23 1 2 0.55980274D+00 0.24451743D+00 0.14624034D+06 0.14624034D+06 0.14624034D+06 0.11084229D+01  1  2  5  3  7  1       -1 0.933955457322D-07 0.100000000000D+01
  </mgrwgt>
  </event>
  <event>
  8     66 0.58687835E-06 0.98028701E+03 0.75467711E-02 0.86383103E-01
       -1 -1    0    0    0  501 0.00000000E+00 0.00000000E+00 0.14506268E+04 0.14506268E+04 0.32000000E+00 0.0000E+00 0.9000E+01
        1 -1    0    0  501    0 0.00000000E+00 0.00000000E+00 -.11069118E+04 0.11069118E+04 0.32000000E+00 0.0000E+00 0.9000E+01
       25  2    1    2    0    0 0.95383734E+03 -.75979930E+02 0.98268611E+03 0.14039869E+04 0.29988096E+03 0.0000E+00 0.0000E+00
       23  2    1    2    0    0 -.95383734E+03 0.75979930E+02 -.63897112E+03 0.11535517E+04 0.82576600E+02 0.0000E+00 0.0000E+00
       23  1    3    3    0    0 0.35759920E+03 -.14318256E+03 0.38898715E+03 0.55498170E+03 0.91188000E+02 0.0000E+00 0.9000E+01
      -13  1    4    4    0    0 -.31862952E+03 0.45764761E+02 -.17530268E+03 0.36653817E+03 0.10565837E+00 0.0000E+00 0.9000E+01
       13  1    4    4    0    0 -.63520782E+03 0.30215169E+02 -.46366844E+03 0.78701358E+03 0.10565837E+00 0.0000E+00 0.9000E+01
       23  1    3    3    0    0 0.59623815E+03 0.67202632E+02 0.59369897E+03 0.84900520E+03 0.91188000E+02 0.0000E+00 0.9000E+01
#aMCatNLO 1  0  0  1  2 0.24479540D+03 0.00000000D+00  -5  7  0 0.00000000D+00 0.00000000D+00 0.00000000D+00 0.00000000D+00 0.00000000D+00
  <mgrwgt>
 0.3394464267D-03    4    2    0
 0.126716848719025D+04 0.000000000000000D+00 0.000000000000000D+00 0.126716848719025D+04
 0.126716848719025D+04 0.000000000000000D+00 0.000000000000000D+00 -.126716848719025D+04
 0.507306816000797D+03 0.357599197344782D+03 -.143182562495978D+03 0.317279879715559D+03
 0.393668153773947D+03 -.318629001940076D+03 0.457647865462246D+02 -.226618090034395D+03
 0.857103600041551D+03 -.635208340810076D+03 0.302151438911700D+02 -.574651189896213D+03
 0.776258404564201D+03 0.596238145405370D+03 0.672026320585832D+02 0.483989400215049D+03
 0.000000000000000D+00 0.000000000000000D+00 -.000000000000000D+00 -.000000000000000D+00
 0.132124349246287D+04 0.000000000000000D+00 0.000000000000000D+00 0.132124349246287D+04
 0.158402479477921D+04 0.000000000000000D+00 0.000000000000000D+00 -.158402479477921D+04
 0.481896800257545D+03 0.336363236652021D+03 -.100511321308188D+03 0.317279879715559D+03
 0.413170152698968D+03 -.335949992563303D+03 0.805693418563642D+02 -.226618090034395D+03
 0.891041949274831D+03 -.672737065493603D+03 0.105624836233782D+03 -.574651189896213D+03
 0.760023200729034D+03 0.563257659642063D+03 0.133473156988318D+03 0.483989400215049D+03
 0.359136184281707D+03 0.109066161762823D+03 -.219156013770276D+03 -.262781302316342D+03
0.312332496795D-02 0.000000000000D+00 0.000000000000D+00 0.318513786236D-06 0.000000000000D+00  7 -1 1 23 -13 13 23 21 0 0.22317336D+00 0.17029413D+00 0.96096262D+06 0.96096262D+06 0.96096262D+06 0.10490171D+01  1  2  2  1  7  1       -1 0.397139783153D-03 0.100000000000D+01
-.159616601765D-03 0.000000000000D+00 -.119943902673D-04 0.318513786236D-06 0.000000000000D+00  7 -1 1 23 -13 13 23 21 2 0.22317336D+00 0.17029413D+00 0.96096262D+06 0.96096262D+06 0.96096262D+06 0.10490171D+01  1  2  3  1  7  1       -1 -.223341481767D-04 0.100000000000D+01
0.198611203095D-03 0.000000000000D+00 0.000000000000D+00 0.318513786236D-06 0.000000000000D+00  7 -1 1 23 -13 13 23 21 2 0.22317336D+00 0.17029413D+00 0.96096262D+06 0.96096262D+06 0.96096262D+06 0.10490171D+01  1  2 15  1  7  1       -1 0.277904177286D-04 0.100000000000D+01
-.451314669687D-03 0.000000000000D+00 0.000000000000D+00 0.318513786236D-06 0.000000000000D+00  7 -1 1 23 -13 13 23 21 2 0.22317336D+00 0.17029413D+00 0.96096262D+06 0.96096262D+06 0.96096262D+06 0.10490171D+01  1  2  4  1  7  1       -1 -.631496260141D-04 0.100000000000D+01
  </mgrwgt>
  </event>
  <event>
  7     66 0.58687835E-06 0.10129129E+04 0.75467711E-02 0.82516419E-01
       -1 -1    0    0    0  501 0.00000000E+00 0.00000000E+00 0.15785055E+04 0.15785055E+04 0.32000000E+00 0.0000E+00 0.9000E+01
        1 -1    0    0  501    0 0.00000000E+00 0.00000000E+00 -.12807386E+04 0.12807386E+04 0.32000000E+00 0.0000E+00 0.9000E+01
       23  2    1    2    0    0 0.54630356E+03 0.81608614E+03 -.85256374E+03 0.13033707E+04 0.86406798E+02 0.0000E+00 0.0000E+00
       23  1    1    2    0    0 -.45863171E+03 -.43400599E+03 0.79199802E+03 0.10169958E+04 0.91188000E+02 0.0000E+00 0.9000E+01
      -13  1    3    3    0    0 0.23627191E+02 0.74066292E+02 -.56574988E+02 0.96149884E+02 0.10565837E+00 0.0000E+00 0.9000E+01
       13  1    3    3    0    0 0.52267637E+03 0.74201985E+03 -.79598875E+03 0.12072208E+04 0.10565837E+00 0.0000E+00 0.9000E+01
       23  1    1    2    0    0 -.87671852E+02 -.38208015E+03 0.35833264E+03 0.53887766E+03 0.91188000E+02 0.0000E+00 0.9000E+01
#aMCatNLO 1  0  0  2  1 0.11569121D+04 0.00000000D+00  -5  7  0 0.00000000D+00 0.00000000D+00 0.00000000D+00 0.00000000D+00 0.00000000D+00
  <mgrwgt>
 0.7125439143D-03    3    2    0
 0.142184843057901D+04 0.000000000000000D+00 0.000000000000000D+00 0.142184843057901D+04
 0.142184843057901D+04 0.000000000000000D+00 0.000000000000000D+00 -.142184843057901D+04
 0.939624866018711D+03 -.458631690172627D+03 -.434006005416806D+03 0.689837225385981D+03
 0.102597810921416D+03 0.236264452668101D+02 0.740652936798780D+02 -.669509832790713D+02
 0.129717177419473D+04 0.522677121628509D+03 0.742020848603194D+03 -.926751476142244D+03
 0.504302410023165D+03 -.876718767226924D+02 -.382080136866266D+03 0.303865234035334D+03
 0.000000000000000D+00 0.000000000000000D+00 0.000000000000000D+00 0.000000000000000D+00
 0.218006043971474D+04 0.000000000000000D+00 0.000000000000000D+00 0.218006043971474D+04
 0.205375192764384D+04 0.000000000000000D+00 0.000000000000000D+00 -.205375192764384D+04
 0.124296065320634D+04 -.868546859441889D+03 -.553522257457208D+03 0.689837225385981D+03
 0.931014394569085D+02 -.131281701368427D+02 0.633489938023647D+02 -.669509832790713D+02
 0.111177191329267D+04 0.702492324491073D+02 0.610109444276135D+03 -.926751476142244D+03
 0.622191647561093D+03 -.299240678141032D+03 -.443765851594209D+03 0.303865234035334D+03
 0.116378671384156D+04 0.111066647527066D+04 0.323829670972918D+03 0.126308512070901D+03
0.107608618436D-01 0.000000000000D+00 0.000000000000D+00 0.288864751653D-09 0.000000000000D+00  7 -1 1 23 -13 13 23 21 0 0.24284700D+00 0.19703671D+00 0.10259925D+07 0.10259925D+07 0.10259925D+07 0.10471229D+01  1  2  2  2  7  2        1 0.699044597730D-03 0.100000000000D+01
-.514230319699D-03 0.000000000000D+00 -.413245428795D-04 0.288864751653D-09 0.000000000000D+00  7 -1 1 23 -13 13 23 21 2 0.24284700D+00 0.19703671D+00 0.10259925D+07 0.10259925D+07 0.10259925D+07 0.10471229D+01  1  2  3  2  7  2        1 -.366278011419D-04 0.100000000000D+01
0.703751876655D-03 0.000000000000D+00 0.000000000000D+00 0.288864751653D-09 0.000000000000D+00  7 -1 1 23 -13 13 23 21 2 0.24284700D+00 0.19703671D+00 0.10259925D+07 0.10259925D+07 0.10259925D+07 0.10471229D+01  1  2 15  2  7  2        1 0.501271177601D-04 0.100000000000D+01
  </mgrwgt>
  </event>
  <event>
  8     66 0.58687835E-06 0.55481744E+03 0.75467711E-02 0.89072419E-01
       -1 -1    0    0    0  501 0.00000000E+00 0.00000000E+00 0.61027591E+03 0.61027600E+03 0.32000000E+00 0.0000E+00 0.9000E+01
        1 -1    0    0  501    0 0.00000000E+00 0.00000000E+00 -.63917434E+03 0.63917442E+03 0.32000000E+00 0.0000E+00 0.9000E+01
       25  2    1    2    0    0 0.47320808E+03 -.24960989E+03 -.25146830E+03 0.66303389E+03 0.30024431E+03 0.0000E+00 0.0000E+00
       23  2    1    2    0    0 -.47320808E+03 0.24960989E+03 0.22256987E+03 0.58641653E+03 0.90088916E+02 0.0000E+00 0.0000E+00
       23  1    3    3    0    0 0.32772421E+03 -.12794516E+03 -.26856923E+03 0.45190464E+03 0.91188000E+02 0.0000E+00 0.9000E+01
      -11  1    4    4    0    0 -.66617662E+02 0.46652497E+02 0.21679860E+01 0.81357658E+02 0.51099893E-03 0.0000E+00 0.9000E+01
       11  1    4    4    0    0 -.40659042E+03 0.20295739E+03 0.22040188E+03 0.50505887E+03 0.51099893E-03 0.0000E+00 0.9000E+01
       23  1    3    3    0    0 0.14548387E+03 -.12166473E+03 0.17100937E+02 0.21112925E+03 0.91188000E+02 0.0000E+00 0.9000E+01
#aMCatNLO 1  0  0  2  1 0.47782686D+03 0.00000000D+00  -5  7  0 0.00000000D+00 0.00000000D+00 0.00000000D+00 0.00000000D+00 0.00000000D+00
  <mgrwgt>
 0.2123061725D-03    3    2    0
 0.624558088806988D+03 0.000000000000000D+00 0.000000000000000D+00 0.624558088806988D+03
 0.624558088806988D+03 0.000000000000000D+00 0.000000000000000D+00 -.624558088806988D+03
 0.445812186459813D+03 0.327724208878622D+03 -.127945156507070D+03 -.258186239163403D+03
 0.814295844359394D+02 -.666176621595106D+02 0.466524968395943D+02 0.405078368254096D+01
 0.510293035577846D+03 -.406590421591834D+03 0.202957391384597D+03 0.232145446889201D+03
 0.211581371140378D+03 0.145483874872723D+03 -.121664731717121D+03 0.219900085916609D+02
 0.000000000000000D+00 -.000000000000000D+00 0.000000000000000D+00 0.000000000000000D+00
 0.980625901343966D+03 0.000000000000000D+00 0.000000000000000D+00 0.980625901343966D+03
 0.851682372496342D+03 0.000000000000000D+00 0.000000000000000D+00 -.851682372496342D+03
 0.552720551328253D+03 0.368434932637333D+03 -.307864130479324D+03 -.258186239163403D+03
 0.641540188628154D+02 -.606821393334664D+02 0.204207554640252D+02 0.405078368254096D+01
 0.436305915313191D+03 -.367997066620441D+03 0.323960211236710D+02 0.232145446889201D+03
 0.284208662353745D+03 0.165697504663783D+03 -.210997840944497D+03 0.219900085916609D+02
 0.494919125982303D+03 -.105453231347209D+03 0.466045194836125D+03 0.128943528847623D+03
0.484080882586D-04 0.000000000000D+00 0.000000000000D+00 0.171973832205D-05 0.000000000000D+00  7 -1 1 23 -11 11 23 21 0 0.93888615D-01 0.98334526D-01 0.30782239D+06 0.30782239D+06 0.30782239D+06 0.10837258D+01  1  2  2  2  7  2        1 0.210159200531D-03 0.100000000000D+01
-.264349570204D-05 0.000000000000D+00 -.185899805055D-06 0.171973832205D-05 0.000000000000D+00  7 -1 1 23 -11 11 23 21 2 0.93888615D-01 0.98334526D-01 0.30782239D+06 0.30782239D+06 0.30782239D+06 0.10837258D+01  1  2  3  2  7  2        1 -.134786961358D-04 0.100000000000D+01
0.306456842127D-05 0.000000000000D+00 0.000000000000D+00 0.171973832205D-05 0.000000000000D+00  7 -1 1 23 -11 11 23 21 2 0.93888615D-01 0.98334526D-01 0.30782239D+06 0.30782239D+06 0.30782239D+06 0.10837258D+01  1  2 15  2  7  2        1 0.156256681279D-04 0.100000000000D+01
  </mgrwgt>
  </event>
  <event>
  8     66 0.58687835E-06 0.69174104E+02 0.75467711E-02 0.11057612E+00
       -1 -1    0    0    0  501 0.00000000E+00 0.00000000E+00 0.88262739E+02 0.88263319E+02 0.32000000E+00 0.0000E+00 0.9000E+01
        1 -1    0    0  501    0 0.00000000E+00 0.00000000E+00 -.68959473E+03 0.68959480E+03 0.32000000E+00 0.0000E+00 0.9000E+01
       25  2    1    2    0    0 0.59466924E+01 -.48373816E+02 -.20116557E+03 0.36440675E+03 0.29991549E+03 0.0000E+00 0.0000E+00
       23  2    1    2    0    0 -.59466924E+01 0.48373816E+02 -.40016642E+03 0.41345137E+03 0.91834014E+02 0.0000E+00 0.0000E+00
       23  1    3    3    0    0 -.25626778E+02 -.27762378E+02 0.37935542E+02 0.10574421E+03 0.91188000E+02 0.0000E+00 0.9000E+01
      -13  1    4    4    0    0 0.11500796E+02 -.22063593E+02 -.17808794E+03 0.17981767E+03 0.10565837E+00 0.0000E+00 0.9000E+01
       13  1    4    4    0    0 -.17447489E+02 0.70437409E+02 -.22207848E+03 0.23363370E+03 0.10565837E+00 0.0000E+00 0.9000E+01
       23  1    3    3    0    0 0.31573470E+02 -.20611438E+02 -.23910111E+03 0.25866254E+03 0.91188000E+02 0.0000E+00 0.9000E+01
#aMCatNLO 1  0  0  1  2 0.69476800D+01 0.00000000D+00  -5  7  0 0.00000000D+00 0.00000000D+00 0.00000000D+00 0.00000000D+00 0.00000000D+00
  <mgrwgt>
 0.7420929825D-04   11    2    0
 0.246709898540576D+03 0.000000000000000D+00 0.000000000000000D+00 0.246709898540576D+03
 0.246709898540576D+03 0.000000000000000D+00 0.000000000000000D+00 -.246709898540576D+03
 0.212933998408897D+03 -.256267772556989D+02 -.277623801577676D+02 0.188674732992689D+03
 0.664396538508657D+02 0.115008310526174D+02 -.220637042428702D+02 -.616048004948085D+02
 0.976673373147188D+02 -.174475239242090D+02 0.704375238334005D+02 -.653685545448296D+02
 0.116378807506670D+03 0.315734701272905D+02 -.206114394327627D+02 -.617013779530506D+02
 0.000000000000000D+00 -.000000000000000D+00 -.000000000000000D+00 0.000000000000000D+00
 0.281482943677555D+03 0.000000000000000D+00 0.000000000000000D+00 0.281482943677555D+03
 0.247081636453727D+03 0.000000000000000D+00 0.000000000000000D+00 -.247081636453727D+03
 0.212548916718097D+03 -.254969140616304D+02 -.247698033401184D+02 0.188674732992689D+03
 0.661428810576525D+02 0.115412970521883D+02 -.211312028279215D+02 -.616048004948085D+02
 0.986572426750644D+02 -.173876029823211D+02 0.718183463433638D+02 -.653685545448296D+02
 0.116119668190888D+03 0.316444318359672D+02 -.189761926959962D+02 -.617013779530506D+02
 0.350958714895790D+02 -.301211844203988D+00 -.694114747932771D+01 0.344013072238277D+02
0.968201934942D-06 0.000000000000D+00 0.000000000000D+00 0.246103660425D-06 0.000000000000D+00  7 -1 1 23 -13 13 23 21 0 0.13578933D-01 0.10609155D+00 0.21731012D+05 0.21731012D+05 0.21731012D+05 0.11805565D+01  1  2  2  1  7  1       -1 0.115327157843D-03 0.100000000000D+01
-.364457291720D-07 0.000000000000D+00 -.371815036360D-08 0.246103660425D-06 0.000000000000D+00  7 -1 1 23 -13 13 23 21 2 0.13578933D-01 0.10609155D+00 0.21731012D+05 0.21731012D+05 0.21731012D+05 0.11805565D+01  1  2  3  1  7  1       -1 -.605042478641D-05 0.100000000000D+01
0.601779013277D-07 0.000000000000D+00 0.000000000000D+00 0.246103660425D-06 0.000000000000D+00  7 -1 1 23 -13 13 23 21 2 0.13578933D-01 0.10609155D+00 0.21731012D+05 0.21731012D+05 0.21731012D+05 0.11805565D+01  1  2 15  1  7  1       -1 0.999024780295D-05 0.100000000000D+01
0.440165431264D-04 0.000000000000D+00 0.000000000000D+00 0.246103660425D-06 0.000000000000D+00  7 -1 1 23 -13 13 23 21 2 0.15502206D-01 0.10609155D+00 0.22674417D+05 0.22674417D+05 0.22674417D+05 0.11787877D+01  1  2 12  1  7  1       -1 0.594281217496D-02 0.100000000000D+01
-.460621288581D-04 0.000000000000D+00 0.000000000000D+00 0.246103660425D-06 0.000000000000D+00  7 -1 1 23 -13 13 23 21 2 0.13578933D-01 0.10609155D+00 0.21731012D+05 0.21731012D+05 0.21731012D+05 0.11805565D+01  1  2  4  1  7  1       -1 -.764686157994D-02 0.100000000000D+01
-.483892823537D-04 0.000000000000D+00 -.103570919166D-05 0.246103660425D-06 0.000000000000D+00  7 -1 1 23 -13 13 23 21 2 0.15506038D-01 0.10609155D+00 0.21731012D+05 0.21731012D+05 0.21731012D+05 0.11805565D+01  1  2  5  1  7  1       -1 -.655001358276D-02 0.100000000000D+01
0.481114949796D-04 0.000000000000D+00 0.102665522664D-05 0.246103660425D-06 0.000000000000D+00  7 -1 1 23 -13 13 23 21 2 0.13578933D-01 0.10609155D+00 0.21731012D+05 0.21731012D+05 0.21731012D+05 0.11805565D+01  1  2  6  1  7  1       -1 0.798708074579D-02 0.100000000000D+01
0.222317462393D-05 0.000000000000D+00 0.000000000000D+00 0.246103660425D-06 0.381340814769D-07  7 -1 1 23 -13 13 23 21 2 0.15492845D-01 0.10625140D+00 0.22674417D+05 0.22674417D+05 0.22674417D+05 0.11787877D+01  1  2 11  1  7  1       -1 0.299778269277D-03 0.100000000000D+01
0.906908953840D-06 0.000000000000D+00 0.000000000000D+00 0.246103660425D-06 0.000000000000D+00  7 21 1 23 -13 13 23 1 2 0.15502206D-01 0.10609155D+00 0.22674417D+05 0.22674417D+05 0.22674417D+05 0.11787877D+01  1  2 12  3  7  1       -1 0.162232102847D-02 0.100000000000D+01
-.992783164266D-06 0.000000000000D+00 -.213725020527D-07 0.246103660425D-06 0.000000000000D+00  7 21 1 23 -13 13 23 1 2 0.15506038D-01 0.10609155D+00 0.21731012D+05 0.21731012D+05 0.21731012D+05 0.11805565D+01  1  2  5  3  7  1       -1 -.178167723560D-02 0.100000000000D+01
0.456134926300D-07 0.000000000000D+00 0.000000000000D+00 0.246103660425D-06 0.781458183002D-09  7 21 1 23 -13 13 23 1 2 0.15492845D-01 0.10625140D+00 0.22674417D+05 0.22674417D+05 0.22674417D+05 0.11787877D+01  1  2 11  3  7  1       -1 0.815024971897D-04 0.100000000000D+01
  </mgrwgt>
  </event>
  <event>
  8     66 0.58687835E-06 0.16435529E+03 0.75467711E-02 0.95763399E-01
       -1 -1    0    0    0  501 0.00000000E+00 0.00000000E+00 0.29530685E+03 0.29530702E+03 0.32000000E+00 0.0000E+00 0.9000E+01
        1 -1    0    0  501    0 0.00000000E+00 0.00000000E+00 -.15254571E+03 0.15254605E+03 0.32000000E+00 0.0000E+00 0.9000E+01
       25  2    1    2    0    0 0.38808762E+02 -.10509809E+02 0.16587082E+03 0.34484757E+03 0.29965003E+03 0.0000E+00 0.0000E+00
       23  2    1    2    0    0 -.38808762E+02 0.10509809E+02 -.23109684E+02 0.10300550E+03 0.91975541E+02 0.0000E+00 0.0000E+00
       23  1    3    3    0    0 0.62635685E+02 -.56235298E+02 -.25488930E+02 0.12669086E+03 0.91188000E+02 0.0000E+00 0.9000E+01
      -13  1    4    4    0    0 0.24062354E+02 0.25666643E+02 -.13206884E+02 0.37579335E+02 0.10565837E+00 0.0000E+00 0.9000E+01
       13  1    4    4    0    0 -.62871117E+02 -.15156834E+02 -.99028008E+01 0.65426169E+02 0.10565837E+00 0.0000E+00 0.9000E+01
       23  1    3    3    0    0 -.23826923E+02 0.45725489E+02 0.19135975E+03 0.21815671E+03 0.91188000E+02 0.0000E+00 0.9000E+01
#aMCatNLO 1  0  0  2  1 0.39145160D+03 0.00000000D+00  -5  7  0 0.00000000D+00 0.00000000D+00 0.00000000D+00 0.00000000D+00 0.00000000D+00
  <mgrwgt>
 0.1455203520D-03    5    2    0
 0.212244924868016D+03 0.000000000000000D+00 0.000000000000000D+00 0.212244924868016D+03
 0.212244924868016D+03 0.000000000000000D+00 0.000000000000000D+00 -.212244924868016D+03
 0.142235947148046D+03 0.626357462910611D+02 -.562353146082458D+02 -.694993956417984D+02
 0.440891628432977D+02 0.240623094605474D+02 0.256666494822311D+02 -.265722157149900D+02
 0.723576079275835D+02 -.628712038952905D+02 -.151568045333718D+02 -.324516012254535D+02
 0.165807131817104D+03 -.238268518563181D+02 0.457254696593864D+02 0.128523212582242D+03
 0.000000000000000D+00 0.000000000000000D+00 -.000000000000000D+00 -.000000000000000D+00
 0.479637368511953D+03 0.000000000000000D+00 0.000000000000000D+00 0.479637368511953D+03
 0.489365595288053D+03 0.000000000000000D+00 0.000000000000000D+00 -.489365595288053D+03
 0.125497310438198D+03 0.281936822416079D+02 0.425355600680834D+02 -.694993956417984D+02
 0.750171806830255D+02 0.874008782318384D+01 0.696067928759023D+02 -.265722157149900D+02
 0.104319717122404D+03 -.855995410481656D+02 0.500221504010559D+02 -.324516012254535D+02
 0.272596294960113D+03 -.802244732825493D+02 0.207459168021224D+03 0.128523212582242D+03
 0.391572460596265D+03 0.128890244265923D+03 -.369623671366266D+03 -.972822677609954D+01
0.979628050543D-06 0.000000000000D+00 0.000000000000D+00 0.763597358766D-07 0.000000000000D+00  7 -1 1 23 -13 13 23 21 0 0.45431862D-01 0.23468610D-01 0.27012660D+05 0.27012660D+05 0.27012660D+05 0.11715862D+01  1  2  2  2  7  2        1 0.120619625715D-03 0.100000000000D+01
-.500969770963D-07 0.000000000000D+00 -.376202965607D-08 0.763597358766D-07 0.000000000000D+00  7 -1 1 23 -13 13 23 21 2 0.45431862D-01 0.23468610D-01 0.27012660D+05 0.27012660D+05 0.27012660D+05 0.11715862D+01  1  2  3  2  7  2        1 -.846675114530D-05 0.100000000000D+01
0.616699119286D-07 0.000000000000D+00 0.000000000000D+00 0.763597358766D-07 0.000000000000D+00  7 -1 1 23 -13 13 23 21 2 0.45431862D-01 0.23468610D-01 0.27012660D+05 0.27012660D+05 0.27012660D+05 0.11715862D+01  1  2 15  2  7  2        1 0.104226607615D-04 0.100000000000D+01
0.776041627508D-06 0.000000000000D+00 -.412176836537D-06 0.763597358766D-07 0.000000000000D+00  7 -1 1 23 -13 13 23 21 2 0.45431862D-01 0.11212726D+00 0.27012660D+05 0.27012660D+05 0.27012660D+05 0.11715862D+01  1  2  5  2  7  2        1 0.166044113581D-04 0.100000000000D+01
0.139318298831D-06 0.000000000000D+00 -.783314547123D-07 0.763597358766D-07 0.000000000000D+00  7 -1 21 23 -13 13 23 -1 2 0.45431862D-01 0.11212726D+00 0.27012660D+05 0.27012660D+05 0.27012660D+05 0.11715862D+01  1  2  5  4  7  2        1 0.634040527162D-05 0.100000000000D+01
  </mgrwgt>
  </event>
  <event>
  8     66 0.58687835E-06 0.22905094E+03 0.75467711E-02 0.95725262E-01
       -1 -1    0    0    0  501 0.00000000E+00 0.00000000E+00 0.90913789E+02 0.90914353E+02 0.32000000E+00 0.0000E+00 0.9000E+01
        1 -1    0    0  501    0 0.00000000E+00 0.00000000E+00 -.75945063E+03 0.75945070E+03 0.32000000E+00 0.0000E+00 0.9000E+01
       25  2    1    2    0    0 -.15293110E+03 0.47653071E+02 -.39834469E+03 0.52376419E+03 0.29998615E+03 0.0000E+00 0.0000E+00
       23  2    1    2    0    0 0.15293110E+03 -.47653071E+02 -.27019215E+03 0.32660086E+03 0.89473974E+02 0.0000E+00 0.0000E+00
       23  1    3    3    0    0 -.29865750E+02 0.82312127E+02 -.32832083E+03 0.35181965E+03 0.91188000E+02 0.0000E+00 0.9000E+01
      -13  1    4    4    0    0 0.13590117E+03 -.13617856E+02 -.24638639E+03 0.28171056E+03 0.10565837E+00 0.0000E+00 0.9000E+01
       13  1    4    4    0    0 0.17029931E+02 -.34035215E+02 -.23805756E+02 0.44890306E+02 0.10565837E+00 0.0000E+00 0.9000E+01
       23  1    3    3    0    0 -.12306535E+03 -.34659055E+02 -.70023862E+02 0.17194453E+03 0.91188000E+02 0.0000E+00 0.9000E+01
#aMCatNLO 1  0  0  2  1 0.35116630D+03 0.00000000D+00  -5  7  0 0.00000000D+00 0.00000000D+00 0.00000000D+00 0.00000000D+00 0.00000000D+00
  <mgrwgt>
 0.1491820418D-03    5    2    0
 0.262763777330509D+03 0.000000000000000D+00 0.000000000000000D+00 0.262763777330509D+03
 0.262763777330509D+03 0.000000000000000D+00 0.000000000000000D+00 -.262763777330509D+03
 0.151620148696515D+03 -.298657513539189D+02 0.823121262340529D+02 -.837028608689613D+02
 0.142406435942753D+03 0.135901332869166D+03 -.136178283359045D+02 -.403109845292246D+02
 0.423537245434267D+02 0.170297656843276D+02 -.340352434594479D+02 0.185856736787632D+02
 0.189147245478323D+03 -.123065347199575D+03 -.346590544387005D+02 0.105428171719423D+03
 0.000000000000000D+00 -.000000000000000D+00 -.000000000000000D+00 -.000000000000000D+00
 0.383664289091538D+03 0.000000000000000D+00 0.000000000000000D+00 0.383664289091538D+03
 0.771846871411539D+03 0.000000000000000D+00 0.000000000000000D+00 -.771846871411539D+03
 0.164642438048401D+03 0.659972818976217D+02 0.861978591787446D+02 -.837028608689613D+02
 0.261642264941015D+03 0.258373404089222D+03 -.865351888519405D+01 -.403109845292246D+02
 0.613884148496428D+02 0.484752688043189D+02 -.327606246278579D+02 0.185856736787632D+02
 0.144384617935032D+03 -.219677863343343D+02 -.305611440184111D+02 0.105428171719423D+03
 0.523453424728986D+03 -.350878168456829D+03 -.142225716472816D+02 -.388182582320000D+03
0.149995162383D-05 0.000000000000D+00 0.000000000000D+00 0.887890839278D-07 0.000000000000D+00  7 -1 1 23 -13 13 23 21 0 0.13986785D-01 0.11683861D+00 0.52464332D+05 0.52464332D+05 0.52464332D+05 0.11454621D+01  1  2  2  2  7  2        1 0.147936212227D-03 0.100000000000D+01
-.814203655317D-07 0.000000000000D+00 -.576020918186D-08 0.887890839278D-07 0.000000000000D+00  7 -1 1 23 -13 13 23 21 2 0.13986785D-01 0.11683861D+00 0.52464332D+05 0.52464332D+05 0.52464332D+05 0.11454621D+01  1  2  3  2  7  2        1 -.105363870904D-04 0.100000000000D+01
0.968941284826D-07 0.000000000000D+00 0.000000000000D+00 0.887890839278D-07 0.000000000000D+00  7 -1 1 23 -13 13 23 21 2 0.13986785D-01 0.11683861D+00 0.52464332D+05 0.52464332D+05 0.52464332D+05 0.11454621D+01  1  2 15  2  7  2        1 0.125388044848D-04 0.100000000000D+01
-.104450761784D-06 0.000000000000D+00 -.473665721557D-06 0.887890839278D-07 0.000000000000D+00  7 -1 1 23 -13 13 23 21 2 0.13986785D-01 0.39741207D+00 0.52464332D+05 0.52464332D+05 0.52464332D+05 0.11454621D+01  1  2  5  2  7  2        1 -.761837382115D-06 0.100000000000D+01
0.205728192515D-08 0.000000000000D+00 -.675097649736D-07 0.887890839278D-07 0.000000000000D+00  7 -1 21 23 -13 13 23 -1 2 0.13986785D-01 0.39741207D+00 0.52464332D+05 0.52464332D+05 0.52464332D+05 0.11454621D+01  1  2  5  4  7  2        1 0.524951891570D-08 0.100000000000D+01
  </mgrwgt>
  </event>
  <event>
  8     66 0.58687835E-06 0.42399035E+03 0.75467711E-02 0.89303186E-01
       -3 -1    0    0    0  501 0.00000000E+00 0.00000000E+00 0.11306645E+04 0.11306646E+04 0.50000000E+00 0.0000E+00 0.9000E+01
        3 -1    0    0  501    0 0.00000000E+00 0.00000000E+00 -.12934268E+04 0.12934269E+04 0.50000000E+00 0.0000E+00 0.9000E+01
       25  2    1    2    0    0 -.23016537E+03 -.72414757E+03 -.99905413E+03 0.12904844E+04 0.29979157E+03 0.0000E+00 0.0000E+00
       23  2    1    2    0    0 0.23016537E+03 0.72414757E+03 0.83629188E+03 0.11336071E+04 0.91187641E+02 0.0000E+00 0.0000E+00
       23  1    3    3    0    0 -.12936869E+03 -.15161516E+03 -.19000502E+03 0.29006994E+03 0.91188000E+02 0.0000E+00 0.9000E+01
      -13  1    4    4    0    0 0.35538453E+01 0.93552368E+02 0.79735403E+02 0.12297325E+03 0.10565837E+00 0.0000E+00 0.9000E+01
       13  1    4    4    0    0 0.22661152E+03 0.63059520E+03 0.75655648E+03 0.10106339E+04 0.10565837E+00 0.0000E+00 0.9000E+01
       23  1    3    3    0    0 -.10079668E+03 -.57253241E+03 -.80904912E+03 0.10004144E+04 0.91188000E+02 0.0000E+00 0.9000E+01
#aMCatNLO 1  0  0  1  2 0.73061149D+02 0.00000000D+00  -5  7  0 0.00000000D+00 0.00000000D+00 0.00000000D+00 0.00000000D+00 0.00000000D+00
  <mgrwgt>
 0.6419044582D-05    9    2    0
 0.120931055384976D+04 0.000000000000000D+00 0.000000000000000D+00 0.120931055384976D+04
 0.120931055384976D+04 0.000000000000000D+00 0.000000000000000D+00 -.120931055384976D+04
 0.277939538951949D+03 -.129368685180888D+03 -.151615158936437D+03 -.170914372842279D+03
 0.128615968406141D+03 0.355354586536756D+01 0.935516469248747D+02 0.881902999114748D+02
 0.106383378032012D+04 0.226611824259222D+03 0.630595924847358D+03 0.826279718268590D+03
 0.948231820021301D+03 -.100796684943702D+03 -.572532412835796D+03 -.743555645337785D+03
 0.000000000000000D+00 -.000000000000000D+00 0.000000000000000D+00 0.000000000000000D+00
 0.158157113845380D+04 0.000000000000000D+00 0.000000000000000D+00 0.158157113845380D+04
 0.121345230996516D+04 0.000000000000000D+00 0.000000000000000D+00 -.121345230996516D+04
 0.281736022213752D+03 -.127615593987527D+03 -.159882682601865D+03 -.170914372842279D+03
 0.125932384542132D+03 0.435087650976551D+01 0.897914603489013D+02 0.881902999114748D+02
 0.104710445399926D+04 0.233223989386828D+03 0.599413159296290D+03 0.826279718268590D+03
 0.964951502484988D+03 -.948039543928371D+02 -.600793944145434D+03 -.743555645337785D+03
 0.375299085178836D+03 -.151553175162291D+02 0.714720071021081D+02 0.368118828488642D+03
0.810071439203D-03 0.000000000000D+00 0.000000000000D+00 0.142129696288D-04 0.000000000000D+00  7 -3 3 23 -13 13 23 21 0 0.17394840D+00 0.19898875D+00 0.61726162D+06 0.61726162D+06 0.61726162D+06 0.10621032D+01  1  2  2  1  7  1       -3 0.552078690592D-05 0.100000000000D+01
-.348261640013D-04 0.000000000000D+00 -.311088762325D-05 0.142129696288D-04 0.000000000000D+00  7 -3 3 23 -13 13 23 21 2 0.17394840D+00 0.19898875D+00 0.61726162D+06 0.61726162D+06 0.61726162D+06 0.10621032D+01  1  2  3  1  7  1       -3 -.267742137977D-06 0.100000000000D+01
0.502186956787D-04 0.000000000000D+00 0.000000000000D+00 0.142129696288D-04 0.000000000000D+00  7 -3 3 23 -13 13 23 21 2 0.17394840D+00 0.19898875D+00 0.61726162D+06 0.61726162D+06 0.61726162D+06 0.10621032D+01  1  2 15  1  7  1       -3 0.386079297935D-06 0.100000000000D+01
0.158484364080D-01 0.000000000000D+00 0.000000000000D+00 0.142129696288D-04 0.000000000000D+00  7 -3 3 23 -13 13 23 21 2 0.22772819D+00 0.19898875D+00 0.67662350D+06 0.67662350D+06 0.67662350D+06 0.10593474D+01  1  2 12  1  7  1       -3 0.327159671182D-04 0.100000000000D+01
-.153877618881D-01 0.000000000000D+00 0.000000000000D+00 0.142129696288D-04 0.000000000000D+00  7 -3 3 23 -13 13 23 21 2 0.17394840D+00 0.19898875D+00 0.61726162D+06 0.61726162D+06 0.61726162D+06 0.10621032D+01  1  2  4  1  7  1       -3 -.118300490012D-03 0.100000000000D+01
-.161761178560D-01 0.000000000000D+00 -.392205839604D-03 0.142129696288D-04 0.000000000000D+00  7 -3 3 23 -13 13 23 21 2 0.22776121D+00 0.19898875D+00 0.61726162D+06 0.61726162D+06 0.61726162D+06 0.10621032D+01  1  2  5  1  7  1       -3 -.338475636909D-04 0.100000000000D+01
0.157211153112D-01 0.000000000000D+00 0.378377610989D-03 0.142129696288D-04 0.000000000000D+00  7 -3 3 23 -13 13 23 21 2 0.17394840D+00 0.19898875D+00 0.61726162D+06 0.61726162D+06 0.61726162D+06 0.10621032D+01  1  2  6  1  7  1       -3 0.120863297624D-03 0.100000000000D+01
0.566589208173D-03 0.000000000000D+00 0.000000000000D+00 0.142129696288D-04 0.000000000000D+00  7 21 3 23 -13 13 23 3 2 0.22772819D+00 0.19898875D+00 0.67662350D+06 0.67662350D+06 0.67662350D+06 0.10593474D+01  1  2 12  3  7  1       -3 0.274559666568D-04 0.100000000000D+01
-.571104997159D-03 0.000000000000D+00 -.140270569022D-04 0.142129696288D-04 0.000000000000D+00  7 21 3 23 -13 13 23 3 2 0.22776121D+00 0.19898875D+00 0.61726162D+06 0.61726162D+06 0.61726162D+06 0.10621032D+01  1  2  5  3  7  1       -3 -.281072571797D-04 0.100000000000D+01
  </mgrwgt>
  </event>
  <event>
  9     66 -.58687835E-06 0.19693243E+03 0.75467711E-02 0.10591748E+00
       21 -1    0    0  502  501 0.00000000E+00 0.00000000E+00 0.63393073E+03 0.63393117E+03 0.75000000E+00 0.0000E+00 0.9000E+01
        3 -1    0    0  501    0 0.00000000E+00 0.00000000E+00 -.28665387E+03 0.28665431E+03 0.50000000E+00 0.0000E+00 0.9000E+01
       25  2    1    2    0    0 0.48885103E+02 0.96603271E+02 0.52691385E+02 0.32587428E+03 0.30281301E+03 0.0000E+00 0.0000E+00
       23  2    1    2    0    0 -.49820554E+02 -.77552769E+02 -.12117220E+03 0.17851595E+03 0.93213320E+02 0.0000E+00 0.0000E+00
       23  1    3    3    0    0 -.12778022E+02 -.35721427E+02 0.10677708E+03 0.14545066E+03 0.91188000E+02 0.0000E+00 0.9000E+01
      -13  1    4    4    0    0 -.70792574E+02 -.48516440E+02 -.11279226E+03 0.14173051E+03 0.10565837E+00 0.0000E+00 0.9000E+01
       13  1    4    4    0    0 0.20972020E+02 -.29036329E+02 -.83799451E+01 0.36785441E+02 0.10565837E+00 0.0000E+00 0.9000E+01
       23  1    3    3    0    0 0.61663125E+02 0.13232470E+03 -.54085699E+02 0.18042362E+03 0.91188000E+02 0.0000E+00 0.9000E+01
        3  1    1    2  502    0 0.93545161E+00 -.19050502E+02 0.41575767E+03 0.41619525E+03 0.50000000E+00 0.0000E+00 0.9000E+01
#aMCatNLO 2  0  0  1  2 0.19073456D+02 0.00000000D+00  -5  7  0 0.00000000D+00 0.00000000D+00 0.00000000D+00 0.00000000D+00 0.00000000D+00
  <mgrwgt>
 -.1433332958D-05    2    2    0
 0.249677835067883D+03 0.000000000000000D+00 0.000000000000000D+00 0.249677835067883D+03
 0.249677835067883D+03 0.000000000000000D+00 0.000000000000000D+00 -.249677835067883D+03
 0.162899194053792D+03 -.124743293701394D+02 -.419060092880470D+02 0.127707374774093D+03
 0.129409725343431D+03 -.705520343312099D+02 -.534171550081940D+02 -.944240171567629D+02
 0.371539948044204D+02 0.210405860862084D+02 -.304308422072231D+02 -.341714934336273D+01
 0.169892755934121D+03 0.619857776151409D+02 0.125754006503464D+03 -.298662082739669D+02
 0.000000000000000D+00 0.000000000000000D+00 -.000000000000000D+00 0.000000000000000D+00
 0.726728495409571D+03 0.000000000000000D+00 0.000000000000000D+00 0.726728495409571D+03
 0.250050623427103D+03 0.000000000000000D+00 0.000000000000000D+00 -.250050623427103D+03
 0.161442628298596D+03 -.127780162176084D+02 -.357214167945587D+02 0.127707374774093D+03
 0.127598384684931D+03 -.707926754614299D+02 -.485164905902698D+02 -.944240171567629D+02
 0.359807303167198D+02 0.209721087805330D+02 -.290362996572767D+02 -.341714934336273D+01
 0.174698060198946D+03 0.616631312852311D+02 0.132324709471477D+03 -.298662082739669D+02
 0.477059315337481D+03 0.935451613274205D+00 -.190505024293718D+02 0.476677871982467D+03
-.453737762143D-05 0.000000000000D+00 0.000000000000D+00 0.355126428313D-08 0.000000000000D+00  7 21 3 23 -13 13 23 3 2 0.97493990D-01 0.44034893D-01 0.42354683D+05 0.42354683D+05 0.42354683D+05 0.11536890D+01  1  2 13  3  7  1       -3 -.181809325956D-03 0.100000000000D+01
0.451866166745D-05 0.000000000000D+00 0.000000000000D+00 0.355126428313D-08 0.135491566453D-10  7 21 3 23 -13 13 23 3 2 0.97527821D-01 0.44100641D-01 0.42354683D+05 0.42354683D+05 0.42354683D+05 0.11536890D+01  1  2  1  3  7  1       -3 0.180375992998D-03 0.100000000000D+01
  </mgrwgt>
  </event>
  <event>
  8     66 0.58687835E-06 0.57103884E+03 0.75467711E-02 0.89581112E-01
       -1 -1    0    0    0  501 0.00000000E+00 0.00000000E+00 0.13072939E+04 0.13072940E+04 0.32000000E+00 0.0000E+00 0.9000E+01
        1 -1    0    0  501    0 0.00000000E+00 0.00000000E+00 -.34495414E+03 0.34495429E+03 0.32000000E+00 0.0000E+00 0.9000E+01
       25  2    1    2    0    0 -.53665305E+03 0.12020712E+03 0.10963475E+03 0.63356423E+03 0.29485185E+03 0.0000E+00 0.0000E+00
       23  2    1    2    0    0 0.53665305E+03 -.12020712E+03 0.85270502E+03 0.10186840E+04 0.90360510E+02 0.0000E+00 0.0000E+00
       23  1    3    3    0    0 -.37081418E+03 0.62652724E+02 0.17573087E+03 0.42500012E+03 0.91188000E+02 0.0000E+00 0.9000E+01
      -13  1    4    4    0    0 0.54039049E+03 -.11875390E+03 0.84565037E+03 0.10105686E+04 0.10565837E+00 0.0000E+00 0.9000E+01
       13  1    4    4    0    0 -.37374469E+01 -.14532226E+01 0.70546498E+01 0.81153935E+01 0.10565837E+00 0.0000E+00 0.9000E+01
       23  1    3    3    0    0 -.16583887E+03 0.57554396E+02 -.66096116E+02 0.20856411E+03 0.91188000E+02 0.0000E+00 0.9000E+01
#aMCatNLO 1  0  0  1  2 0.39906073D+03 0.00000000D+00  -5  7  0 0.00000000D+00 0.00000000D+00 0.00000000D+00 0.00000000D+00 0.00000000D+00
  <mgrwgt>
 0.7678426741D-03    7    2    0
 0.671533028936222D+03 0.000000000000000D+00 0.000000000000000D+00 0.671533028936222D+03
 0.671533028936222D+03 0.000000000000000D+00 0.000000000000000D+00 -.671533028936222D+03
 0.396922329959395D+03 -.370814176163147D+03 0.626527237645987D+02 -.883378041255141D+02
 0.637279457065320D+03 0.540391238930463D+03 -.118754057624423D+03 0.316227590640670D+03
 0.492791359675350D+01 -.373819083545924D+01 -.145306221106755D+01 0.286336723204047D+01
 0.303936357250976D+03 -.165838871931857D+03 0.575543960708914D+02 -.230753153747196D+03
 0.000000000000000D+00 0.000000000000000D+00 0.000000000000000D+00 0.000000000000000D+00
 0.913688215582501D+03 0.000000000000000D+00 0.000000000000000D+00 0.913688215582501D+03
 0.887339538950385D+03 0.000000000000000D+00 0.000000000000000D+00 -.887339538950385D+03
 0.516578449917137D+03 -.499784954361169D+03 0.308135575888163D+02 -.883378041255141D+02
 0.517387713448188D+03 0.377371866838671D+03 -.158998839817897D+03 0.316227590640670D+03
 0.632266255632758D+01 -.532658089883179D+01 -.184518991539163D+01 0.286336723204047D+01
 0.360809281240909D+03 -.259689653659297D+03 0.343853443143835D+02 -.230753153747196D+03
 0.399929647370324D+03 0.387429322080626D+03 0.956451278300889D+02 0.263486766321161D+02
0.495839121816D-03 0.000000000000D+00 0.000000000000D+00 0.445466264594D-07 0.000000000000D+00  7 -1 1 23 -13 13 23 21 0 0.20112216D+00 0.53069883D-01 0.32608536D+06 0.32608536D+06 0.32608536D+06 0.10818830D+01  1  2  2  1  7  1       -1 0.608738217235D-03 0.100000000000D+01
-.266664858996D-04 0.000000000000D+00 -.190415278521D-05 0.445466264594D-07 0.000000000000D+00  7 -1 1 23 -13 13 23 21 2 0.20112216D+00 0.53069883D-01 0.32608536D+06 0.32608536D+06 0.32608536D+06 0.10818830D+01  1  2  3  1  7  1       -1 -.383191766919D-04 0.100000000000D+01
0.314521868806D-04 0.000000000000D+00 0.000000000000D+00 0.445466264594D-07 0.000000000000D+00  7 -1 1 23 -13 13 23 21 2 0.20112216D+00 0.53069883D-01 0.32608536D+06 0.32608536D+06 0.32608536D+06 0.10818830D+01  1  2 15  1  7  1       -1 0.451961278649D-04 0.100000000000D+01
-.154007775225D-03 0.000000000000D+00 0.000000000000D+00 0.445466264594D-07 0.000000000000D+00  7 -1 1 23 -13 13 23 21 2 0.20112216D+00 0.53069883D-01 0.32608536D+06 0.32608536D+06 0.32608536D+06 0.10818830D+01  1  2  4  1  7  1       -1 -.221305918336D-03 0.100000000000D+01
-.230641493175D-03 0.000000000000D+00 -.158245458766D-03 0.445466264594D-07 0.000000000000D+00  7 -1 1 23 -13 13 23 21 2 0.31975484D+00 0.53069883D-01 0.32608536D+06 0.32608536D+06 0.32608536D+06 0.10818830D+01  1  2  5  1  7  1       -1 -.323607901056D-04 0.100000000000D+01
0.288094682512D-03 0.000000000000D+00 0.142637847629D-03 0.445466264594D-07 0.000000000000D+00  7 -1 1 23 -13 13 23 21 2 0.20112216D+00 0.53069883D-01 0.32608536D+06 0.32608536D+06 0.32608536D+06 0.10818830D+01  1  2  6  1  7  1       -1 0.413985970434D-03 0.100000000000D+01
-.572833924951D-05 0.000000000000D+00 -.841264622380D-05 0.445466264594D-07 0.000000000000D+00  7 21 1 23 -13 13 23 1 2 0.31975484D+00 0.53069883D-01 0.32608536D+06 0.32608536D+06 0.32608536D+06 0.10818830D+01  1  2  5  3  7  1       -1 -.809175629208D-05 0.100000000000D+01
  </mgrwgt>
  </event>
  <event>
  8     66 0.58687835E-06 0.22140065E+03 0.75467711E-02 0.96884620E-01
       -1 -1    0    0    0  501 0.00000000E+00 0.00000000E+00 0.22960739E+04 0.22960740E+04 0.32000000E+00 0.0000E+00 0.9000E+01
        1 -1    0    0  501    0 0.00000000E+00 0.00000000E+00 -.19580782E+03 0.19580808E+03 0.32000000E+00 0.0000E+00 0.9000E+01
       25  2    1    2    0    0 -.32807254E+03 -.61252861E+02 0.20974709E+04 0.21458510E+04 0.30644541E+03 0.0000E+00 0.0000E+00
       23  2    1    2    0    0 0.32807254E+03 0.61252861E+02 0.27952199E+01 0.34603106E+03 0.91357421E+02 0.0000E+00 0.0000E+00
       23  1    3    3    0    0 -.30148530E+03 -.12151888E+03 0.16732876E+04 0.17070052E+04 0.91188000E+02 0.0000E+00 0.9000E+01
      -11  1    4    4    0    0 0.62544354E+02 -.53326476E+01 0.32480124E+02 0.70676671E+02 0.51099893E-03 0.0000E+00 0.9000E+01
       11  1    4    4    0    0 0.26552818E+03 0.66585508E+02 -.29684904E+02 0.27535439E+03 0.51099893E-03 0.0000E+00 0.9000E+01
       23  1    3    3    0    0 -.26587233E+02 0.60266015E+02 0.42418334E+03 0.43884580E+03 0.91188000E+02 0.0000E+00 0.9000E+01
#aMCatNLO 1  0  0  2  1 0.38996609D+02 0.00000000D+00  -5  7  0 0.00000000D+00 0.00000000D+00 0.00000000D+00 0.00000000D+00 0.00000000D+00
  <mgrwgt>
 0.1022176570D-03    9    2    0
 0.670514423830029D+03 0.000000000000000D+00 0.000000000000000D+00 0.670514423830029D+03
 0.670514423830029D+03 0.000000000000000D+00 0.000000000000000D+00 -.670514423830029D+03
 0.551297932292770D+03 -.301485303291731D+03 -.121518876105666D+03 0.435837049200034D+03
 0.804613748086392D+02 0.625443544759413D+02 -.533264756085691D+01 -.503368595491991D+02
 0.558151196532766D+03 0.265528182205775D+03 0.665855082904068D+02 -.486409202967176D+03
 0.151118344025883D+03 -.265872333899858D+02 0.602660153761158D+02 0.100909013316340D+03
 0.000000000000000D+00 0.000000000000000D+00 0.000000000000000D+00 -.000000000000000D+00
 0.679217371119857D+03 0.000000000000000D+00 0.000000000000000D+00 0.679217371119857D+03
 0.715952996015702D+03 0.000000000000000D+00 0.000000000000000D+00 -.715952996015702D+03
 0.560709513990858D+03 -.317487972083717D+03 -.123803723137228D+03 0.435837049200034D+03
 0.787168001564258D+02 0.602536543359450D+02 -.565971172016087D+01 -.503368595491991D+02
 0.550469517386154D+03 0.249574251177641D+03 0.643076199940720D+02 -.486409202967176D+03
 0.151699899581104D+03 -.309450280008122D+02 0.596438132790697D+02 0.100909013316340D+03
 0.535746360210167D+02 0.386050945709429D+02 0.551200158424742D+01 -.367356248958451D+02
0.627014370698D-03 0.000000000000D+00 0.000000000000D+00 0.588983569678D-07 0.000000000000D+00  7 -1 1 23 -11 11 23 21 0 0.35324217D+00 0.30124302D-01 0.15469039D+06 0.15469039D+06 0.15469039D+06 0.11064982D+01  1  2  2  2  7  2        1 0.805659274190D-04 0.100000000000D+01
-.227815055797D-04 0.000000000000D+00 -.240790028015D-05 0.588983569678D-07 0.000000000000D+00  7 -1 1 23 -11 11 23 21 2 0.35324217D+00 0.30124302D-01 0.15469039D+06 0.15469039D+06 0.15469039D+06 0.11064982D+01  1  2  3  2  7  2        1 -.358391547843D-05 0.100000000000D+01
0.393509975932D-04 0.000000000000D+00 0.000000000000D+00 0.588983569678D-07 0.000000000000D+00  7 -1 1 23 -11 11 23 21 2 0.35324217D+00 0.30124302D-01 0.15469039D+06 0.15469039D+06 0.15469039D+06 0.11064982D+01  1  2 15  2  7  2        1 0.619057633712D-05 0.100000000000D+01
0.329581745052D-02 0.000000000000D+00 0.000000000000D+00 0.588983569678D-07 0.000000000000D+00  7 -1 1 23 -11 11 23 21 2 0.35324217D+00 0.32352833D-01 0.16944524D+06 0.16944524D+06 0.16944524D+06 0.11033984D+01  1  2 12  2  7  2        1 0.466372137540D-03 0.100000000000D+01
-.334385350485D-02 0.000000000000D+00 0.000000000000D+00 0.588983569678D-07 0.000000000000D+00  7 -1 1 23 -11 11 23 21 2 0.35324217D+00 0.30124302D-01 0.15469039D+06 0.15469039D+06 0.15469039D+06 0.11064982D+01  1  2  4  2  7  2        1 -.526044615081D-03 0.100000000000D+01
-.705720320740D-02 0.000000000000D+00 -.110693572448D-02 0.588983569678D-07 0.000000000000D+00  7 -1 1 23 -11 11 23 21 2 0.35324217D+00 0.32576993D-01 0.15469039D+06 0.15469039D+06 0.15469039D+06 0.11064982D+01  1  2  5  2  7  2        1 -.100233508940D-02 0.100000000000D+01
0.712539077720D-02 0.000000000000D+00 0.110355335437D-02 0.588983569678D-07 0.000000000000D+00  7 -1 1 23 -11 11 23 21 2 0.35324217D+00 0.30124302D-01 0.15469039D+06 0.15469039D+06 0.15469039D+06 0.11064982D+01  1  2  6  2  7  2        1 0.112094427679D-02 0.100000000000D+01
0.439515877216D-04 0.000000000000D+00 0.000000000000D+00 0.588983569678D-07 0.000000000000D+00  7 -1 21 23 -11 11 23 -1 2 0.35324217D+00 0.32352833D-01 0.16944524D+06 0.16944524D+06 0.16944524D+06 0.11033984D+01  1  2 12  4  7  2        1 0.378498975402D-04 0.100000000000D+01
-.901496435533D-04 0.000000000000D+00 -.145011336778D-04 0.588983569678D-07 0.000000000000D+00  7 -1 21 23 -11 11 23 -1 2 0.35324217D+00 0.32576993D-01 0.15469039D+06 0.15469039D+06 0.15469039D+06 0.11064982D+01  1  2  5  4  7  2        1 -.777415386319D-04 0.100000000000D+01
  </mgrwgt>
  </event>
  <event>
  8     66 0.58687835E-06 0.21162851E+03 0.75467711E-02 0.99192947E-01
       -1 -1    0    0    0  501 0.00000000E+00 0.00000000E+00 0.33308719E+03 0.33308734E+03 0.32000000E+00 0.0000E+00 0.9000E+01
        1 -1    0    0  501    0 0.00000000E+00 0.00000000E+00 -.22982360E+03 0.22982382E+03 0.32000000E+00 0.0000E+00 0.9000E+01
       25  2    1    2    0    0 -.80758607E+01 -.93430154E+02 0.22228069E+03 0.38524888E+03 0.30035575E+03 0.0000E+00 0.0000E+00
       23  2    1    2    0    0 0.80758607E+01 0.93430154E+02 -.11901710E+03 0.17766229E+03 0.92759936E+02 0.0000E+00 0.0000E+00
       23  1    3    3    0    0 0.64045158E+02 -.14676594E+03 0.15458462E+03 0.24052792E+03 0.91188000E+02 0.0000E+00 0.9000E+01
      -13  1    4    4    0    0 0.26759758E+02 0.87449913E+02 -.12698426E+03 0.15648829E+03 0.10565837E+00 0.0000E+00 0.9000E+01
       13  1    4    4    0    0 -.18683897E+02 0.59802409E+01 0.79671621E+01 0.21173996E+02 0.10565837E+00 0.0000E+00 0.9000E+01
       23  1    3    3    0    0 -.72121019E+02 0.53335782E+02 0.67696070E+02 0.14472096E+03 0.91188000E+02 0.0000E+00 0.9000E+01
#aMCatNLO 1  0  0  1  2 0.20201470D+03 0.00000000D+00  -5  7  0 0.00000000D+00 0.00000000D+00 0.00000000D+00 0.00000000D+00 0.00000000D+00
  <mgrwgt>
 0.1975750716D-03    6    2    0
 0.276679240698414D+03 0.000000000000000D+00 0.000000000000000D+00 0.276679240698414D+03
 0.276679240698414D+03 0.000000000000000D+00 0.000000000000000D+00 -.276679240698414D+03
 0.215832758787869D+03 0.640451577400471D+02 -.146765938142812D+03 0.112367724872826D+03
 0.182886823291688D+03 0.267598126214878D+02 0.874500207987402D+02 -.158379280287821D+03
 0.200525374702749D+02 -.186839516084147D+02 0.598013625216472D+01 0.415357456857854D+01
 0.134586361846996D+03 -.721210187531202D+02 0.533357810919067D+02 0.418579808464158D+02
 0.000000000000000D+00 -.000000000000000D+00 0.000000000000000D+00 0.000000000000000D+00
 0.419142467242989D+03 0.000000000000000D+00 0.000000000000000D+00 0.419142467242989D+03
 0.376420487871168D+03 0.000000000000000D+00 0.000000000000000D+00 -.376420487871168D+03
 0.253367891575731D+03 0.147012073388170D+03 -.147108741489239D+03 0.112367724872826D+03
 0.204330207147619D+03 0.952298854508389D+02 0.871671156200597D+02 -.158379280287821D+03
 0.145171024817872D+02 -.125711374005356D+02 0.595487927894620D+01 0.415357456857854D+01
 0.116865053812414D+03 -.276578485157207D+02 0.531520678198022D+02 0.418579808464158D+02
 0.206482700096606D+03 -.202012972922753D+03 0.834678770430663D+00 0.427219793718215D+02
0.231017549989D-05 0.000000000000D+00 0.000000000000D+00 0.163002142331D-06 0.000000000000D+00  7 -1 1 23 -13 13 23 21 0 0.51244212D-01 0.35357506D-01 0.44786624D+05 0.44786624D+05 0.44786624D+05 0.11515257D+01  1  2  2  1  7  1       -1 0.136317243171D-03 0.100000000000D+01
-.117132988191D-06 0.000000000000D+00 -.887168220274D-08 0.163002142331D-06 0.000000000000D+00  7 -1 1 23 -13 13 23 21 2 0.51244212D-01 0.35357506D-01 0.44786624D+05 0.44786624D+05 0.44786624D+05 0.11515257D+01  1  2  3  1  7  1       -1 -.916499615768D-05 0.100000000000D+01
0.146797603337D-06 0.000000000000D+00 0.000000000000D+00 0.163002142331D-06 0.000000000000D+00  7 -1 1 23 -13 13 23 21 2 0.51244212D-01 0.35357506D-01 0.44786624D+05 0.44786624D+05 0.44786624D+05 0.11515257D+01  1  2 15  1  7  1       -1 0.114860851014D-04 0.100000000000D+01
-.380663289203D-06 0.000000000000D+00 -.738143081823D-06 0.163002142331D-06 0.000000000000D+00  7 -1 1 23 -13 13 23 21 2 0.10051380D+00 0.35357506D-01 0.44786624D+05 0.44786624D+05 0.44786624D+05 0.11515257D+01  1  2  5  1  7  1       -1 -.801837637321D-05 0.100000000000D+01
0.824438390758D-06 0.000000000000D+00 0.597374941220D-06 0.163002142331D-06 0.000000000000D+00  7 -1 1 23 -13 13 23 21 2 0.51244212D-01 0.35357506D-01 0.44786624D+05 0.44786624D+05 0.44786624D+05 0.11515257D+01  1  2  6  1  7  1       -1 0.645076574945D-04 0.100000000000D+01
0.157731643382D-07 0.000000000000D+00 -.538666514863D-07 0.163002142331D-06 0.000000000000D+00  7 21 1 23 -13 13 23 1 2 0.10051380D+00 0.35357506D-01 0.44786624D+05 0.44786624D+05 0.44786624D+05 0.11515257D+01  1  2  5  3  7  1       -1 0.244745838132D-05 0.100000000000D+01
  </mgrwgt>
  </event>
  <event>
  8     66 0.58687835E-06 0.20125011E+03 0.75467711E-02 0.99457580E-01
       -1 -1    0    0    0  501 0.00000000E+00 0.00000000E+00 0.37753195E+03 0.37753209E+03 0.32000000E+00 0.0000E+00 0.9000E+01
        1 -1    0    0  501    0 0.00000000E+00 0.00000000E+00 -.26289211E+03 0.26289230E+03 0.32000000E+00 0.0000E+00 0.9000E+01
       25  2    1    2    0    0 0.17776148E+03 0.73071803E+02 0.20367450E+03 0.41040506E+03 0.30001730E+03 0.0000E+00 0.0000E+00
       23  2    1    2    0    0 -.17776148E+03 -.73071803E+02 -.89034651E+02 0.23001933E+03 0.89683282E+02 0.0000E+00 0.0000E+00
       23  1    3    3    0    0 -.31448056E+02 0.72219870E+02 0.31572039E+02 0.12456619E+03 0.91188000E+02 0.0000E+00 0.9000E+01
      -13  1    4    4    0    0 -.12116974E+03 -.72973273E+02 -.98874103E+02 0.17257840E+03 0.10565837E+00 0.0000E+00 0.9000E+01
       13  1    4    4    0    0 -.56591735E+02 -.98530604E-01 0.98394519E+01 0.57440928E+02 0.10565837E+00 0.0000E+00 0.9000E+01
       23  1    3    3    0    0 0.20920953E+03 0.85193282E+00 0.17210246E+03 0.28583887E+03 0.91188000E+02 0.0000E+00 0.9000E+01
#aMCatNLO 1  0  0  1  2 0.11152549D+03 0.00000000D+00  -5  7  0 0.00000000D+00 0.00000000D+00 0.00000000D+00 0.00000000D+00 0.00000000D+00
  <mgrwgt>
 0.1806732889D-03    9    2    0
 0.315040118062428D+03 0.000000000000000D+00 0.000000000000000D+00 0.315040118062428D+03
 0.315040118062428D+03 0.000000000000000D+00 0.000000000000000D+00 -.315040118062428D+03
 0.120866845066086D+03 -.314480553051200D+02 0.722198702754676D+02 0.942618942893034D+01
 0.193401477174586D+03 -.121169832028912D+03 -.729733736809438D+02 -.131897270301619D+03
 0.565935197653618D+02 -.565916457804049D+02 -.984296187683498D-01 -.449909888460709D+00
 0.259218394118822D+03 0.209209533114437D+03 0.851933024244538D+00 0.122920990761149D+03
 0.000000000000000D+00 0.000000000000000D+00 -.000000000000000D+00 0.000000000000000D+00
 0.388519001058457D+03 0.000000000000000D+00 0.000000000000000D+00 0.388519001058457D+03
 0.365276842177183D+03 0.000000000000000D+00 0.000000000000000D+00 -.365276842177183D+03
 0.136586530717480D+03 -.429055305262109D+02 0.917109122872048D+02 0.942618942893034D+01
 0.196141332253855D+03 -.138505697495802D+03 -.434822270186342D+02 -.131897270301619D+03
 0.625343488808163D+02 -.618932061075936D+02 0.892039285922216D+01 -.449909888460709D+00
 0.244612024614992D+03 0.186787513901423D+03 0.389954602879439D+02 0.122920990761149D+03
 0.113921606768498D+03 0.565169202281837D+02 -.961445384157366D+02 0.232421588812737D+02
0.327648277902D-05 0.000000000000D+00 0.000000000000D+00 0.258616891518D-06 0.000000000000D+00  7 -1 1 23 -13 13 23 21 0 0.58081864D-01 0.40444965D-01 0.74736058D+05 0.74736058D+05 0.74736058D+05 0.11322505D+01  1  2  2  1  7  1       -1 0.128938172604D-03 0.100000000000D+01
-.177574150807D-06 0.000000000000D+00 -.125825565892D-07 0.258616891518D-06 0.000000000000D+00  7 -1 1 23 -13 13 23 21 2 0.58081864D-01 0.40444965D-01 0.74736058D+05 0.74736058D+05 0.74736058D+05 0.11322505D+01  1  2  3  1  7  1       -1 -.895856423454D-05 0.100000000000D+01
0.212617601964D-06 0.000000000000D+00 0.000000000000D+00 0.258616891518D-06 0.000000000000D+00  7 -1 1 23 -13 13 23 21 2 0.58081864D-01 0.40444965D-01 0.74736058D+05 0.74736058D+05 0.74736058D+05 0.11322505D+01  1  2 15  1  7  1       -1 0.107264961478D-04 0.100000000000D+01
0.164773374017D-05 0.000000000000D+00 0.000000000000D+00 0.258616891518D-06 0.000000000000D+00  7 -1 1 23 -13 13 23 21 2 0.75356647D-01 0.40444965D-01 0.11121350D+06 0.11121350D+06 0.11121350D+06 0.11179539D+01  1  2 12  1  7  1       -1 0.490186953941D-04 0.100000000000D+01
-.188017629151D-05 0.000000000000D+00 0.000000000000D+00 0.258616891518D-06 0.000000000000D+00  7 -1 1 23 -13 13 23 21 2 0.58081864D-01 0.40444965D-01 0.74736058D+05 0.74736058D+05 0.74736058D+05 0.11322505D+01  1  2  4  1  7  1       -1 -.948543467797D-04 0.100000000000D+01
-.361253122392D-05 0.000000000000D+00 -.153100313740D-05 0.258616891518D-06 0.000000000000D+00  7 -1 1 23 -13 13 23 21 2 0.81181601D-01 0.40444965D-01 0.74736058D+05 0.74736058D+05 0.74736058D+05 0.11322505D+01  1  2  5  1  7  1       -1 -.957242953497D-04 0.100000000000D+01
0.398184947972D-05 0.000000000000D+00 0.144901361305D-05 0.258616891518D-06 0.000000000000D+00  7 -1 1 23 -13 13 23 21 2 0.58081864D-01 0.40444965D-01 0.74736058D+05 0.74736058D+05 0.74736058D+05 0.11322505D+01  1  2  6  1  7  1       -1 0.200883147542D-03 0.100000000000D+01
0.574582011783D-07 0.000000000000D+00 0.000000000000D+00 0.258616891518D-06 0.000000000000D+00  7 21 1 23 -13 13 23 1 2 0.75356647D-01 0.40444965D-01 0.11121350D+06 0.11121350D+06 0.11121350D+06 0.11179539D+01  1  2 12  3  7  1       -1 0.136081605662D-04 0.100000000000D+01
-.110588043706D-06 0.000000000000D+00 -.640589196476D-07 0.258616891518D-06 0.000000000000D+00  7 21 1 23 -13 13 23 1 2 0.81181601D-01 0.40444965D-01 0.74736058D+05 0.74736058D+05 0.74736058D+05 0.11322505D+01  1  2  5  3  7  1       -1 -.229641770192D-04 0.100000000000D+01
  </mgrwgt>
  </event>
  <event>
  8     66 0.58687835E-06 0.23048640E+03 0.75467711E-02 0.92103013E-01
       -1 -1    0    0    0  501 0.00000000E+00 0.00000000E+00 0.30943455E+03 0.30943471E+03 0.32000000E+00 0.0000E+00 0.9000E+01
        1 -1    0    0  501    0 0.00000000E+00 0.00000000E+00 -.25196002E+03 0.25196023E+03 0.32000000E+00 0.0000E+00 0.9000E+01
       25  2    1    2    0    0 0.13939733E+03 -.79404275E+02 0.12505179E+03 0.36298467E+03 0.30063810E+03 0.0000E+00 0.0000E+00
       23  2    1    2    0    0 -.13939733E+03 0.79404275E+02 -.67577266E+02 0.19841027E+03 0.95201336E+02 0.0000E+00 0.0000E+00
       23  1    3    3    0    0 0.16898806E+03 -.47724174E+02 0.16174038E+03 0.25555774E+03 0.91188000E+02 0.0000E+00 0.9000E+01
      -11  1    4    4    0    0 -.55412662E+02 0.45001416E+02 0.18053913E+02 0.73631748E+02 0.51099893E-03 0.0000E+00 0.9000E+01
       11  1    4    4    0    0 -.83984666E+02 0.34402859E+02 -.85631178E+02 0.12477852E+03 0.51099893E-03 0.0000E+00 0.9000E+01
       23  1    3    3    0    0 -.29590729E+02 -.31680101E+02 -.36688591E+02 0.10742692E+03 0.91188000E+02 0.0000E+00 0.9000E+01
#aMCatNLO 1  0  0  2  2 0.56933085D+03 0.00000000D+00  -5  7  0 0.00000000D+00 0.00000000D+00 0.00000000D+00 0.00000000D+00 0.00000000D+00
  <mgrwgt>
 0.2372745858D-03    3    2    0
 0.279222561736484D+03 0.000000000000000D+00 0.000000000000000D+00 0.279222561736484D+03
 0.279222561736484D+03 0.000000000000000D+00 0.000000000000000D+00 -.279222561736484D+03
 0.240261518702620D+03 0.168988055740919D+03 -.477241740416127D+02 0.136293016160916D+03
 0.721625973243167D+02 -.554126616621535D+02 0.450014162794812D+02 0.105711831385155D+02
 0.134250686574966D+03 -.839846655813585D+02 0.344028585412475D+02 -.989255584630586D+02
 0.111770320871065D+03 -.295907284974065D+02 -.316801007791160D+02 -.479386408363728D+02
 0.000000000000000D+00 -.000000000000000D+00 0.000000000000000D+00 0.000000000000000D+00
 0.387980189945342D+04 0.000000000000000D+00 0.000000000000000D+00 0.387980189945342D+04
 0.422026288610221D+03 0.000000000000000D+00 0.000000000000000D+00 -.422026288610221D+03
 0.514435743758747D+03 0.435859756692563D+03 -.218584924810188D+03 0.136293016160916D+03
 0.307380894135082D+02 -.190255132455109D+02 0.217050702277068D+02 0.105711831385155D+02
 0.100698050012426D+03 -.903446013894467D+00 -.187886919283091D+02 -.989255584630586D+02
 0.151623302658163D+03 0.635490082253836D+02 -.913114715317870D+02 -.479386408363728D+02
 0.350433300222080D+04 -.479479805658541D+03 0.306980018042578D+03 0.345777561084320D+04
0.391163875669D-05 0.000000000000D+00 0.000000000000D+00 0.259741063124D-07 0.000000000000D+00  7 -1 1 23 -11 11 23 21 0 0.47605343D-01 0.38763109D-01 0.53123982D+05 0.53123982D+05 0.53123982D+05 0.11449874D+01  1  2  2  2  7  2        1 0.233506380203D-03 0.100000000000D+01
-.207591539685D-06 0.000000000000D+00 -.150217227838D-07 0.259741063124D-07 0.000000000000D+00  7 -1 1 23 -11 11 23 21 2 0.47605343D-01 0.38763109D-01 0.53123982D+05 0.53123982D+05 0.53123982D+05 0.11449874D+01  1  2  3  2  7  2        1 -.162461734267D-04 0.100000000000D+01
0.255741191606D-06 0.000000000000D+00 0.000000000000D+00 0.259741063124D-07 0.000000000000D+00  7 -1 1 23 -11 11 23 21 2 0.47605343D-01 0.38763109D-01 0.53123982D+05 0.53123982D+05 0.53123982D+05 0.11449874D+01  1  2 15  2  7  2        1 0.200143789940D-04 0.100000000000D+01
  </mgrwgt>
  </event>
  <event>
  9     66 0.58687835E-06 0.32138294E+03 0.75467711E-02 0.97187930E-01
       -3 -1    0    0    0  502 0.00000000E+00 0.00000000E+00 0.23474084E+03 0.23474137E+03 0.50000000E+00 0.0000E+00 0.9000E+01
        3 -1    0    0  501    0 0.00000000E+00 0.00000000E+00 -.10056833E+04 0.10056835E+04 0.50000000E+00 0.0000E+00 0.9000E+01
       25  2    1    2    0    0 -.18245076E+03 -.14670369E+03 -.53178373E+03 0.65391607E+03 0.30000341E+03 0.0000E+00 0.0000E+00
       23  2    1    2    0    0 0.32887408E+03 0.10419768E+03 -.24677464E+03 0.43384863E+03 0.91167932E+02 0.0000E+00 0.0000E+00
       23  1    3    3    0    0 -.11231843E+03 -.89696582E+02 -.87385765E+02 0.19134375E+03 0.91188000E+02 0.0000E+00 0.9000E+01
      -11  1    4    4    0    0 0.31923551E+03 0.85475128E+02 -.24733133E+03 0.41278335E+03 0.51099893E-03 0.0000E+00 0.9000E+01
       11  1    4    4    0    0 0.96385667E+01 0.18722550E+02 0.55669007E+00 0.21065273E+02 0.51099893E-03 0.0000E+00 0.9000E+01
       23  1    3    3    0    0 -.70132326E+02 -.57007110E+02 -.44439796E+03 0.46257232E+03 0.91188000E+02 0.0000E+00 0.9000E+01
       21  1    1    2  501  502 -.14642332E+03 0.42506014E+02 0.76158746E+01 0.15266013E+03 0.75000000E+00 0.0000E+00 0.9000E+01
#aMCatNLO 2  0  0  1  2 0.15246820D+03 0.00000000D+00  -5  7  0 0.00000000D+00 0.00000000D+00 0.00000000D+00 0.00000000D+00 0.00000000D+00
  <mgrwgt>
 0.2094429682D-05    2    2    0
 0.372099568789648D+03 0.000000000000000D+00 0.000000000000000D+00 0.372099568789648D+03
 0.372099568789648D+03 0.000000000000000D+00 0.000000000000000D+00 -.372099568789648D+03
 0.205234649858498D+03 -.150258030302851D+03 -.786828911968722D+02 0.709756093383419D+02
 0.286669193042377D+03 0.258454797284432D+03 0.103119489190353D+03 0.688964073762285D+02
 0.305455690981444D+02 0.367204425065919D+01 0.204546034318612D+02 0.223865379412718D+02
 0.221749725580277D+03 -.111868811232240D+03 -.448912014253420D+02 -.162258554655842D+03
 0.000000000000000D+00 -.000000000000000D+00 0.000000000000000D+00 0.000000000000000D+00
 0.576710498849556D+03 0.000000000000000D+00 0.000000000000000D+00 0.576710498849556D+03
 0.409346937376113D+03 0.000000000000000D+00 0.000000000000000D+00 -.409346937376113D+03
 0.184428021359136D+03 -.112318430553771D+03 -.896965816262506D+02 0.709756093383419D+02
 0.337585582814853D+03 0.319235513752517D+03 0.854751281617016D+02 0.688964073762285D+02
 0.307342302683136D+02 0.963856666196011D+01 0.187225495564218D+02 0.223865379412718D+02
 0.206909264202493D+03 -.701323255422357D+02 -.570071102920671D+02 -.162258554655842D+03
 0.226400337580874D+03 -.146423324318471D+03 0.425060142001944D+02 0.167363561473442D+03
-.623488183699D-05 0.000000000000D+00 0.000000000000D+00 0.114011457538D-05 0.000000000000D+00  7 -3 3 23 -11 11 23 21 2 0.36757824D-01 0.14064200D+00 0.16104927D+06 0.16104927D+06 0.16104927D+06 0.11051242D+01  1  2 13  1  7  1       -3 -.873341165299D-05 0.100000000000D+01
0.983588239001D-05 0.000000000000D+00 0.000000000000D+00 0.114011457538D-05 0.350825472708D-09  7 -3 3 23 -11 11 23 21 2 0.36113974D-01 0.15472034D+00 0.16104927D+06 0.16104927D+06 0.16104927D+06 0.11051242D+01  1  2  1  1  7  1       -3 0.108278413350D-04 0.100000000000D+01
  </mgrwgt>
  </event>
  <event>
  8     66 0.58687835E-06 0.19374737E+03 0.75467711E-02 0.10672258E+00
       -1 -1    0    0    0  501 0.00000000E+00 0.00000000E+00 0.37400367E+02 0.37401736E+02 0.32000000E+00 0.0000E+00 0.9000E+01
        1 -1    0    0  501    0 0.00000000E+00 0.00000000E+00 -.11860998E+04 0.11860999E+04 0.32000000E+00 0.0000E+00 0.9000E+01
       25  2    1    2    0    0 -.62726838E+02 0.38543485E+02 -.85177873E+03 0.90460381E+03 0.29556859E+03 0.0000E+00 0.0000E+00
       23  2    1    2    0    0 0.62726838E+02 -.38543485E+02 -.29692073E+03 0.31889780E+03 0.90075678E+02 0.0000E+00 0.0000E+00
       23  1    3    3    0    0 -.14336723E+03 0.85229691E+01 -.37804802E+03 0.41456286E+03 0.91188000E+02 0.0000E+00 0.9000E+01
      -13  1    4    4    0    0 0.25753278E+01 -.31302583E+02 -.24535163E+02 0.39855607E+02 0.10565837E+00 0.0000E+00 0.9000E+01
       13  1    4    4    0    0 0.60151510E+02 -.72409021E+01 -.27238557E+03 0.27904219E+03 0.10565837E+00 0.0000E+00 0.9000E+01
       23  1    3    3    0    0 0.80640388E+02 0.30020516E+02 -.47373071E+03 0.49004096E+03 0.91188000E+02 0.0000E+00 0.9000E+01
#aMCatNLO 1  0  0  1  2 0.16254025D+01 0.00000000D+00  -5  7  0 0.00000000D+00 0.00000000D+00 0.00000000D+00 0.00000000D+00 0.00000000D+00
  <mgrwgt>
 0.7720686851D-03    8    2    0
 0.210621540140742D+03 0.000000000000000D+00 0.000000000000000D+00 0.210621540140742D+03
 0.210621540140742D+03 0.000000000000000D+00 0.000000000000000D+00 -.210621540140742D+03
 0.173189209848231D+03 -.143367218681866D+03 0.852302995873812D+01 0.324414801080818D+02
 0.488550992211793D+02 0.257531078877115D+01 -.313026526139175D+02 0.374210159346979D+02
 0.677030820399290D+02 0.601516722100218D+02 -.724092167954437D+01 -.302167619256954D+02
 0.131495689172145D+03 0.806402356830735D+02 0.300205443347237D+02 -.396457341170843D+02
 0.000000000000000D+00 -.000000000000000D+00 0.000000000000000D+00 -.000000000000000D+00
 0.210791055913002D+03 0.000000000000000D+00 0.000000000000000D+00 0.210791055913002D+03
 0.214555777257815D+03 0.000000000000000D+00 0.000000000000000D+00 -.214555777257815D+03
 0.172775433908510D+03 -.142894424988256D+03 0.805188760145247D+01 0.324414801080818D+02
 0.489477593722156D+02 0.270896772624855D+01 -.314358427250416D+02 0.374210159346979D+02
 0.678877144231746D+02 0.603369699698830D+02 -.742557224608257D+01 -.302167619256954D+02
 0.131635308443147D+03 0.809998292962095D+02 0.296622066816468D+02 -.396457341170843D+02
 0.410061702376986D+01 -.115134200408461D+01 0.114732068802490D+01 -.376472134481314D+01
0.357677985581D-05 0.000000000000D+00 0.000000000000D+00 0.186837050457D-08 0.000000000000D+00  7 -1 1 23 -13 13 23 21 0 0.57540113D-02 0.18247701D+00 0.37538043D+05 0.37538043D+05 0.37538043D+05 0.11584099D+01  1  2  2  1  7  1       -1 0.639476502625D-03 0.100000000000D+01
-.197025165727D-06 0.000000000000D+00 -.137357764341D-07 0.186837050457D-08 0.000000000000D+00  7 -1 1 23 -13 13 23 21 2 0.57540113D-02 0.18247701D+00 0.37538043D+05 0.37538043D+05 0.37538043D+05 0.11584099D+01  1  2  3  1  7  1       -1 -.472692397767D-04 0.100000000000D+01
0.235813840970D-06 0.000000000000D+00 0.000000000000D+00 0.186837050457D-08 0.000000000000D+00  7 -1 1 23 -13 13 23 21 2 0.57540113D-02 0.18247701D+00 0.37538043D+05 0.37538043D+05 0.37538043D+05 0.11584099D+01  1  2 15  1  7  1       -1 0.565752143913D-04 0.100000000000D+01
-.235248039144D-05 0.000000000000D+00 0.000000000000D+00 0.186837050457D-08 0.000000000000D+00  7 -1 1 23 -13 13 23 21 2 0.57540113D-02 0.18247701D+00 0.37538043D+05 0.37538043D+05 0.37538043D+05 0.11584099D+01  1  2  4  1  7  1       -1 -.564394701981D-03 0.100000000000D+01
0.129964695289D-09 0.000000000000D+00 0.000000000000D+00 0.186837050457D-08 0.000000000000D+00  7 -1 1 23 -13 13 23 21 2 0.58877238D-02 0.18247701D+00 0.37538043D+05 0.37538043D+05 0.37538043D+05 0.11584099D+01  1  2  5  1  7  1       -1 0.301385226216D-07 0.100000000000D+01
-.129930410051D-09 0.000000000000D+00 0.000000000000D+00 0.186837050457D-08 0.000000000000D+00  7 -1 1 23 -13 13 23 21 2 0.57540113D-02 0.18247701D+00 0.37538043D+05 0.37538043D+05 0.37538043D+05 0.11584099D+01  1  2  6  1  7  1       -1 -.311722194692D-07 0.100000000000D+01
0.235281622856D-05 0.000000000000D+00 0.000000000000D+00 0.186837050457D-08 0.505912679479D-08  7 -1 1 23 -13 13 23 21 2 0.57586423D-02 0.18588553D+00 0.37868285D+05 0.37868285D+05 0.37868285D+05 0.11580654D+01  1  2 11  1  7  1       -1 0.544037663479D-03 0.100000000000D+01
0.398181665679D-07 0.000000000000D+00 0.000000000000D+00 0.186837050457D-08 0.768976696101D-12  7 21 1 23 -13 13 23 1 2 0.57586423D-02 0.18588553D+00 0.37868285D+05 0.37868285D+05 0.37868285D+05 0.11580654D+01  1  2 11  3  7  1       -1 0.143644280076D-03 0.100000000000D+01
  </mgrwgt>
  </event>
  <event>
  8     66 0.58687835E-06 0.31232936E+03 0.75467711E-02 0.87977497E-01
       -1 -1    0    0    0  501 0.00000000E+00 0.00000000E+00 0.11000299E+04 0.11000299E+04 0.32000000E+00 0.0000E+00 0.9000E+01
        1 -1    0    0  501    0 0.00000000E+00 0.00000000E+00 -.10041494E+03 0.10041545E+03 0.32000000E+00 0.0000E+00 0.9000E+01
       25  2    1    2    0    0 0.52096534E+02 -.24099686E+03 0.47573735E+03 0.61390787E+03 0.29960526E+03 0.0000E+00 0.0000E+00
       23  2    1    2    0    0 -.52096534E+02 0.24099686E+03 0.52387761E+03 0.58653753E+03 0.93728257E+02 0.0000E+00 0.0000E+00
       23  1    3    3    0    0 -.44506778E+02 -.21776519E+03 0.22475079E+03 0.32898435E+03 0.91188000E+02 0.0000E+00 0.9000E+01
      -13  1    4    4    0    0 -.53850491E+02 0.16558540E+03 0.44275840E+03 0.47576614E+03 0.10565837E+00 0.0000E+00 0.9000E+01
       13  1    4    4    0    0 0.17539573E+01 0.75411459E+02 0.81119204E+02 0.11077139E+03 0.10565837E+00 0.0000E+00 0.9000E+01
       23  1    3    3    0    0 0.96603311E+02 -.23231670E+02 0.25098656E+03 0.28492352E+03 0.91188000E+02 0.0000E+00 0.9000E+01
#aMCatNLO 1  0  0  2  2 0.83582135D+03 0.00000000D+00  -5  7  0 0.00000000D+00 0.00000000D+00 0.00000000D+00 0.00000000D+00 0.00000000D+00
  <mgrwgt>
 0.1880583267D-03    5    2    0
 0.332354888962247D+03 0.000000000000000D+00 0.000000000000000D+00 0.332354888962247D+03
 0.332354888962247D+03 0.000000000000000D+00 0.000000000000000D+00 -.332354888962247D+03
 0.256147119002242D+03 -.445067773469388D+02 -.217765192225043D+03 -.888457261466686D+02
 0.193382805555009D+03 -.538505597961828D+02 0.165585517898095D+03 0.841336018269959D+02
 0.780595379609964D+02 0.175402559696141D+01 0.754113447909562D+02 -.200834244517456D+02
 0.137120315406247D+03 0.966033115461601D+02 -.232316704640083D+02 0.247955487714183D+02
 0.000000000000000D+00 0.000000000000000D+00 0.000000000000000D+00 -.000000000000000D+00
 0.857889531680369D+03 0.000000000000000D+00 0.000000000000000D+00 0.857889531680369D+03
 0.107310800116910D+04 0.000000000000000D+00 0.000000000000000D+00 -.107310800116910D+04
 0.541276101922743D+03 -.414076746133653D+03 -.324517260597208D+03 -.888457261466686D+02
 0.317958581601284D+03 -.290834404173701D+03 0.971315911866217D+02 0.841336018269959D+02
 0.969757462188217D+02 -.793669937230847D+02 0.519791470144344D+02 -.200834244517456D+02
 0.111701750611968D+03 -.187145783255818D+02 -.565417992727335D+02 0.247955487714183D+02
 0.863085352494653D+03 0.802992722356021D+03 0.231948321668886D+03 -.215218469488731D+03
0.137847348396D-04 0.000000000000D+00 0.000000000000D+00 0.123424635860D-06 0.000000000000D+00  7 -1 1 23 -13 13 23 21 0 0.16923541D+00 0.15448495D-01 0.97549627D+05 0.97549627D+05 0.97549627D+05 0.11226073D+01  1  2  2  2  7  2        1 0.163396111079D-03 0.100000000000D+01
-.762222592040D-06 0.000000000000D+00 -.529370113881D-07 0.123424635860D-06 0.000000000000D+00  7 -1 1 23 -13 13 23 21 2 0.16923541D+00 0.15448495D-01 0.97549627D+05 0.97549627D+05 0.97549627D+05 0.11226073D+01  1  2  3  2  7  2        1 -.113862528872D-04 0.100000000000D+01
0.888901067226D-06 0.000000000000D+00 0.000000000000D+00 0.123424635860D-06 0.000000000000D+00  7 -1 1 23 -13 13 23 21 2 0.16923541D+00 0.15448495D-01 0.97549627D+05 0.97549627D+05 0.97549627D+05 0.11226073D+01  1  2 15  2  7  2        1 0.132786045033D-04 0.100000000000D+01
0.218333962567D-04 0.000000000000D+00 -.927919987480D-05 0.123424635860D-06 0.000000000000D+00  7 -1 1 23 -13 13 23 21 2 0.16923541D+00 0.13518241D+00 0.97549627D+05 0.97549627D+05 0.97549627D+05 0.11226073D+01  1  2  5  2  7  2        1 0.171069208136D-04 0.100000000000D+01
0.444612608627D-05 0.000000000000D+00 -.242643117105D-05 0.123424635860D-06 0.000000000000D+00  7 -1 21 23 -13 13 23 -1 2 0.16923541D+00 0.13518241D+00 0.97549627D+05 0.97549627D+05 0.97549627D+05 0.11226073D+01  1  2  5  4  7  2        1 0.566294322604D-05 0.100000000000D+01
  </mgrwgt>
  </event>
  <event>
  9     66 0.58687835E-06 0.42938554E+03 0.75467711E-02 0.92022791E-01
       21 -1    0    0  502  501 0.00000000E+00 0.00000000E+00 0.33853957E+03 0.33854041E+03 0.75000000E+00 0.0000E+00 0.9000E+01
        1 -1    0    0  501    0 0.00000000E+00 0.00000000E+00 -.14101467E+04 0.14101468E+04 0.32000000E+00 0.0000E+00 0.9000E+01
       25  2    1    2    0    0 0.51140022E+03 -.29971024E+03 -.23349230E+03 0.70436404E+03 0.30042242E+03 0.0000E+00 0.0000E+00
       23  2    1    2    0    0 -.18902542E+03 0.18394820E+03 -.35795592E+03 0.45451039E+03 0.94232170E+02 0.0000E+00 0.0000E+00
       23  1    3    3    0    0 0.45478134E+03 -.23478187E+03 -.11635432E+03 0.53273086E+03 0.91188000E+02 0.0000E+00 0.9000E+01
      -13  1    4    4    0    0 0.72216454E+01 0.24793920E+02 -.49015854E+02 0.55402669E+02 0.10565837E+00 0.0000E+00 0.9000E+01
       13  1    4    4    0    0 -.19624706E+03 0.15915428E+03 -.30894007E+03 0.39910772E+03 0.10565837E+00 0.0000E+00 0.9000E+01
       23  1    3    3    0    0 0.56618886E+02 -.64928369E+02 -.11713798E+03 0.17163318E+03 0.91188000E+02 0.0000E+00 0.9000E+01
        1  1    1    2  502    0 -.32237481E+03 0.11576204E+03 -.48015894E+03 0.58981274E+03 0.32000000E+00 0.0000E+00 0.9000E+01
#aMCatNLO 2  0  0  1  2 0.34252937D+03 0.00000000D+00  -5  7  0 0.00000000D+00 0.00000000D+00 0.00000000D+00 0.00000000D+00 0.00000000D+00
  <mgrwgt>
 0.3595693135D-04    1    2    0
 0.467934979722242D+03 0.000000000000000D+00 0.000000000000000D+00 0.467934979722242D+03
 0.467934979722242D+03 0.000000000000000D+00 0.000000000000000D+00 -.467934979722242D+03
 0.400442112784954D+03 0.296155245455548D+03 -.177820594866193D+03 0.180860556723337D+03
 0.382062750279649D+02 -.504633297930714D+01 0.291991684511479D+02 -.241176809983038D+02
 0.386253684452424D+03 -.307518397317692D+03 0.199110943071750D+03 -.122389445677758D+03
 0.110967887179141D+03 0.164094848414514D+02 -.504895166567054D+02 -.343534300472758D+02
 0.000000000000000D+00 -.000000000000000D+00 0.000000000000000D+00 -.000000000000000D+00
 0.594585505892121D+03 0.000000000000000D+00 0.000000000000000D+00 0.594585505892121D+03
 0.802897369564004D+03 0.000000000000000D+00 0.000000000000000D+00 -.802897369564004D+03
 0.550431090706453D+03 0.454781339052865D+03 -.234781870985182D+03 0.180860556723337D+03
 0.353348050781816D+02 0.722190027548648D+01 0.247937506155901D+02 -.241176809983038D+02
 0.280753139079343D+03 -.196247318869896D+03 0.159154448652790D+03 -.122389445677758D+03
 0.130064602959904D+03 0.566188862636424D+02 -.649283694648884D+02 -.343534300472758D+02
 0.400899237632244D+03 -.322374806722098D+03 0.115762041181691D+03 -.208311863671883D+03
0.103583109572D-05 0.000000000000D+00 0.000000000000D+00 0.185286030008D-06 0.858654009207D-12  7 21 1 23 -13 13 23 1 2 0.52083073D-01 0.21694570D+00 0.40090448D+06 0.40090448D+06 0.40090448D+06 0.10753569D+01  1  2  1  3  7  1       -1 0.359569313489D-04 0.100000000000D+01
  </mgrwgt>
  </event>
  <event>
  8     66 0.58687835E-06 0.21351291E+03 0.75467711E-02 0.10532604E+00
       -1 -1    0    0    0  501 0.00000000E+00 0.00000000E+00 0.11372028E+04 0.11372028E+04 0.32000000E+00 0.0000E+00 0.9000E+01
        1 -1    0    0  501    0 0.00000000E+00 0.00000000E+00 -.56563507E+02 0.56564413E+02 0.32000000E+00 0.0000E+00 0.9000E+01
       25  2    1    2    0    0 -.68282544E+02 0.53031171E+02 0.99110016E+03 0.10398833E+04 0.30265971E+03 0.0000E+00 0.0000E+00
       23  2    1    2    0    0 0.68282544E+02 -.53031171E+02 0.89539121E+02 0.15388396E+03 0.90488724E+02 0.0000E+00 0.0000E+00
       23  1    3    3    0    0 -.20808599E+02 -.94893915E+02 0.47020009E+03 0.48871385E+03 0.91188000E+02 0.0000E+00 0.9000E+01
      -11  1    4    4    0    0 0.45500785E+02 0.10030460E+02 0.69919633E+02 0.84021941E+02 0.51099893E-03 0.0000E+00 0.9000E+01
       11  1    4    4    0    0 0.22781759E+02 -.63061632E+02 0.19619488E+02 0.69862023E+02 0.51099893E-03 0.0000E+00 0.9000E+01
       23  1    3    3    0    0 -.47473945E+02 0.14792509E+03 0.52090007E+03 0.55116943E+03 0.91188000E+02 0.0000E+00 0.9000E+01
#aMCatNLO 1  0  0  2  1 0.18951684D+01 0.00000000D+00  -5  7  0 0.00000000D+00 0.00000000D+00 0.00000000D+00 0.00000000D+00 0.00000000D+00
  <mgrwgt>
 0.1049982068D-03    6    2    0
 0.253623235620092D+03 0.000000000000000D+00 0.000000000000000D+00 0.253623235620092D+03
 0.253623235620092D+03 0.000000000000000D+00 0.000000000000000D+00 -.253623235620092D+03
 0.148436521759222D+03 -.208085986490519D+02 -.948939154436473D+02 0.654239763543341D+02
 0.487824778437216D+02 0.455007849108620D+02 0.100304602293340D+02 -.144498645203480D+02
 0.122617718257432D+03 0.227817588513049D+02 -.630616315124428D+02 -.102661224058984D+03
 0.187409753379809D+03 -.474739451131150D+02 0.147925086726756D+03 0.516871122249981D+02
 0.000000000000000D+00 0.000000000000000D+00 0.000000000000000D+00 0.000000000000000D+00
 0.256971694285565D+03 0.000000000000000D+00 0.000000000000000D+00 0.256971694285565D+03
 0.253893305590335D+03 0.000000000000000D+00 0.000000000000000D+00 -.253893305590335D+03
 0.148799784044411D+03 -.208926914025933D+02 -.954427742241759D+02 0.654239763543341D+02
 0.487200290544300D+02 0.454731999418587D+02 0.985041793305421D+01 -.144498645203480D+02
 0.122838575886622D+03 0.227123154648624D+02 -.635148764211115D+02 -.102661224058984D+03
 0.186891622595642D+03 -.475798407683412D+02 0.147233924197964D+03 0.516871122249981D+02
 0.361498829479410D+01 0.287016764213358D+00 0.187330851426928D+01 0.307838869523084D+01
0.404176444884D-05 0.000000000000D+00 0.000000000000D+00 0.129524599104D-07 0.000000000000D+00  7 -1 1 23 -11 11 23 21 0 0.17495435D+00 0.87021512D-02 0.45587761D+05 0.45587761D+05 0.45587761D+05 0.11508413D+01  1  2  2  2  7  2        1 0.937914870066D-04 0.100000000000D+01
-.216451380454D-06 0.000000000000D+00 -.155214397046D-07 0.129524599104D-07 0.000000000000D+00  7 -1 1 23 -11 11 23 21 2 0.17495435D+00 0.87021512D-02 0.45587761D+05 0.45587761D+05 0.45587761D+05 0.11508413D+01  1  2  3  2  7  2        1 -.665248109966D-05 0.100000000000D+01
0.255183507052D-06 0.000000000000D+00 0.000000000000D+00 0.129524599104D-07 0.000000000000D+00  7 -1 1 23 -11 11 23 21 2 0.17495435D+00 0.87021512D-02 0.45587761D+05 0.45587761D+05 0.45587761D+05 0.11508413D+01  1  2 15  2  7  2        1 0.784288579749D-05 0.100000000000D+01
-.548342903989D-05 0.000000000000D+00 0.000000000000D+00 0.129524599104D-07 0.000000000000D+00  7 -1 1 23 -11 11 23 21 2 0.17495435D+00 0.87021512D-02 0.45587761D+05 0.45587761D+05 0.45587761D+05 0.11508413D+01  1  2  4  2  7  2        1 -.168529338887D-03 0.100000000000D+01
0.548397197230D-05 0.000000000000D+00 0.000000000000D+00 0.129524599104D-07 0.254597388410D-07  7 -1 1 23 -11 11 23 21 2 0.17726418D+00 0.87114176D-02 0.46036875D+05 0.46036875D+05 0.46036875D+05 0.11504634D+01  1  2 11  2  7  2        1 0.161206611087D-03 0.100000000000D+01
0.488387011630D-07 0.000000000000D+00 0.000000000000D+00 0.129524599104D-07 0.512221509686D-11  7 -1 21 23 -11 11 23 -1 2 0.17726418D+00 0.87114176D-02 0.46036875D+05 0.46036875D+05 0.46036875D+05 0.11504634D+01  1  2 11  4  7  2        1 0.173390428565D-04 0.100000000000D+01
  </mgrwgt>
  </event>
  <event>
  8     66 0.58687835E-06 0.33290181E+03 0.75467711E-02 0.93166938E-01
       -1 -1    0    0    0  501 0.00000000E+00 0.00000000E+00 0.19202072E+03 0.19202099E+03 0.32000000E+00 0.0000E+00 0.9000E+01
        1 -1    0    0  501    0 0.00000000E+00 0.00000000E+00 -.13380383E+04 0.13380383E+04 0.32000000E+00 0.0000E+00 0.9000E+01
       25  2    1    2    0    0 0.43992969E+03 0.12631152E+03 -.61964399E+03 0.82657063E+03 0.29961244E+03 0.0000E+00 0.0000E+00
       23  2    1    2    0    0 -.43992969E+03 -.12631152E+03 -.52637356E+03 0.70348866E+03 0.91293153E+02 0.0000E+00 0.0000E+00
       23  1    3    3    0    0 0.28624545E+03 0.19212553E+03 -.40141158E+03 0.53693126E+03 0.91188000E+02 0.0000E+00 0.9000E+01
      -13  1    4    4    0    0 -.24998750E+03 -.98741217E+02 -.36144119E+03 0.45042571E+03 0.10565837E+00 0.0000E+00 0.9000E+01
       13  1    4    4    0    0 -.18994219E+03 -.27570298E+02 -.16493236E+03 0.25306294E+03 0.10565837E+00 0.0000E+00 0.9000E+01
       23  1    3    3    0    0 0.15368424E+03 -.65814012E+02 -.21823241E+03 0.28963937E+03 0.91188000E+02 0.0000E+00 0.9000E+01
#aMCatNLO 1  0  0  1  2 0.12470788D+03 0.00000000D+00  -5  7  0 0.00000000D+00 0.00000000D+00 0.00000000D+00 0.00000000D+00 0.00000000D+00
  <mgrwgt>
 0.1935517039D-03    9    2    0
 0.506883919034778D+03 0.000000000000000D+00 0.000000000000000D+00 0.506883919034778D+03
 0.506883919034778D+03 0.000000000000000D+00 0.000000000000000D+00 -.506883919034778D+03
 0.356602317610984D+03 0.286245451213401D+03 0.192125527603466D+03 0.113352734916233D+01
 0.271226008401767D+03 -.249987577578214D+03 -.987413125222089D+02 -.363305916759324D+02
 0.195494289825555D+03 -.189942111900902D+03 -.275702028392446D+02 0.371469432985560D+02
 0.190445222231249D+03 0.153684238265716D+03 -.658140122420126D+02 -.194987897178596D+01
 0.000000000000000D+00 -.000000000000000D+00 -.000000000000000D+00 0.000000000000000D+00
 0.596078893768034D+03 0.000000000000000D+00 0.000000000000000D+00 0.596078893768034D+03
 0.556245598084559D+03 0.000000000000000D+00 0.000000000000000D+00 -.556245598084559D+03
 0.397266436810850D+03 0.309133818754279D+03 0.232250657029284D+03 0.113352734916233D+01
 0.247482654606780D+03 -.234238954948692D+03 -.711327240040742D+02 -.363305916759324D+02
 0.182444736916298D+03 -.178467425755111D+03 -.745416503540285D+01 0.371469432985560D+02
 0.194215631078862D+03 0.165363007199311D+03 -.453402010731823D+02 -.194987897178596D+01
 0.130915032439803D+03 -.617904452497870D+02 -.108323566916625D+03 0.398332956834751D+02
0.126429575768D-04 0.000000000000D+00 0.000000000000D+00 0.105900374599D-05 0.000000000000D+00  7 -1 1 23 -13 13 23 21 0 0.29541673D-01 0.20585206D+00 0.25389007D+06 0.25389007D+06 0.25389007D+06 0.10899550D+01  1  2  2  1  7  1       -1 0.133235002464D-03 0.100000000000D+01
-.702356260869D-06 0.000000000000D+00 -.485522860622D-07 0.105900374599D-05 0.000000000000D+00  7 -1 1 23 -13 13 23 21 2 0.29541673D-01 0.20585206D+00 0.25389007D+06 0.25389007D+06 0.25389007D+06 0.10899550D+01  1  2  3  1  7  1       -1 -.879314522379D-05 0.100000000000D+01
0.817371151881D-06 0.000000000000D+00 0.000000000000D+00 0.105900374599D-05 0.000000000000D+00  7 -1 1 23 -13 13 23 21 2 0.29541673D-01 0.20585206D+00 0.25389007D+06 0.25389007D+06 0.25389007D+06 0.10899550D+01  1  2 15  1  7  1       -1 0.102330734994D-04 0.100000000000D+01
0.114362660273D-04 0.000000000000D+00 0.000000000000D+00 0.105900374599D-05 0.000000000000D+00  7 -1 1 23 -13 13 23 21 2 0.35975857D-01 0.20585206D+00 0.32467376D+06 0.32467376D+06 0.32467376D+06 0.10820214D+01  1  2 12  1  7  1       -1 0.999440436344D-04 0.100000000000D+01
-.110375829384D-04 0.000000000000D+00 0.000000000000D+00 0.105900374599D-05 0.000000000000D+00  7 -1 1 23 -13 13 23 21 2 0.29541673D-01 0.20585206D+00 0.25389007D+06 0.25389007D+06 0.25389007D+06 0.10899550D+01  1  2  4  1  7  1       -1 -.138184956987D-03 0.100000000000D+01
-.255046402465D-04 0.000000000000D+00 -.755334156760D-05 0.105900374599D-05 0.000000000000D+00  7 -1 1 23 -13 13 23 21 2 0.38070741D-01 0.20585206D+00 0.25389007D+06 0.25389007D+06 0.25389007D+06 0.10899550D+01  1  2  5  1  7  1       -1 -.206959491758D-03 0.100000000000D+01
0.267907024521D-04 0.000000000000D+00 0.731671532943D-05 0.105900374599D-05 0.000000000000D+00  7 -1 1 23 -13 13 23 21 2 0.29541673D-01 0.20585206D+00 0.25389007D+06 0.25389007D+06 0.25389007D+06 0.10899550D+01  1  2  6  1  7  1       -1 0.335406047377D-03 0.100000000000D+01
0.323550776013D-06 0.000000000000D+00 0.000000000000D+00 0.105900374599D-05 0.000000000000D+00  7 21 1 23 -13 13 23 1 2 0.35975857D-01 0.20585206D+00 0.32467376D+06 0.32467376D+06 0.32467376D+06 0.10820214D+01  1  2 12  3  7  1       -1 0.282827706991D-04 0.100000000000D+01
-.742796836735D-06 0.000000000000D+00 -.258370144360D-06 0.105900374599D-05 0.000000000000D+00  7 21 1 23 -13 13 23 1 2 0.38070741D-01 0.20585206D+00 0.25389007D+06 0.25389007D+06 0.25389007D+06 0.10899550D+01  1  2  5  3  7  1       -1 -.596116397972D-04 0.100000000000D+01
  </mgrwgt>
  </event>
  <event>
  8     66 0.58687835E-06 0.25362350E+03 0.75467711E-02 0.92134223E-01
       -1 -1    0    0    0  501 0.00000000E+00 0.00000000E+00 0.94082274E+02 0.94082819E+02 0.32000000E+00 0.0000E+00 0.9000E+01
        1 -1    0    0  501    0 0.00000000E+00 0.00000000E+00 -.90132260E+03 0.90132265E+03 0.32000000E+00 0.0000E+00 0.9000E+01
       25  2    1    2    0    0 -.15092711E+03 -.57276464E+02 -.70657809E+03 0.78430758E+03 0.29971020E+03 0.0000E+00 0.0000E+00
       23  2    1    2    0    0 0.15092711E+03 0.57276464E+02 -.10066224E+03 0.21109789E+03 0.91486871E+02 0.0000E+00 0.0000E+00
       23  1    3    3    0    0 -.18536559E+03 0.10605123E+02 -.55114401E+03 0.58868314E+03 0.91188000E+02 0.0000E+00 0.9000E+01
      -11  1    4    4    0    0 0.44152308E+02 -.21318779E+02 -.47465610E+02 0.68241489E+02 0.51099893E-03 0.0000E+00 0.9000E+01
       11  1    4    4    0    0 0.10677480E+03 0.78595243E+02 -.53196628E+02 0.14285640E+03 0.51099893E-03 0.0000E+00 0.9000E+01
       23  1    3    3    0    0 0.34438474E+02 -.67881587E+02 -.15543408E+03 0.19562444E+03 0.91188000E+02 0.0000E+00 0.9000E+01
#aMCatNLO 1  0  0  1  2 0.52775778D+03 0.00000000D+00  -5  7  0 0.00000000D+00 0.00000000D+00 0.00000000D+00 0.00000000D+00 0.00000000D+00
  <mgrwgt>
 0.1339442060D-03    5    2    0
 0.291202299084502D+03 0.000000000000000D+00 0.000000000000000D+00 0.291202299084502D+03
 0.291202299084502D+03 0.000000000000000D+00 0.000000000000000D+00 -.291202299084502D+03
 0.242224651944934D+03 -.185365585665830D+03 0.106051232055765D+02 -.126034367052811D+03
 0.508440304589797D+02 0.441523084607197D+02 -.213187787758667D+02 0.134610089669674D+02
 0.170427196665975D+03 0.106774803636353D+03 0.785952426393751D+02 0.107085753050062D+03
 0.118908719099116D+03 0.344384735687577D+02 -.678815870690849D+02 0.548760503578190D+01
 0.000000000000000D+00 0.000000000000000D+00 -.000000000000000D+00 0.000000000000000D+00
 0.687842780010733D+03 0.000000000000000D+00 0.000000000000000D+00 0.687842780010733D+03
 0.629125186495132D+03 0.000000000000000D+00 0.000000000000000D+00 -.629125186495132D+03
 0.487588978290917D+03 -.449032152855389D+03 0.109147718393155D+03 -.126034367052811D+03
 0.243731751580822D+02 0.169778880648814D+02 -.111626261127989D+02 0.134610089669674D+02
 0.164291535397152D+03 -.141521500416782D+02 0.123790414596820D+03 0.107085753050062D+03
 0.109700122344560D+03 -.481531716888911D+02 -.370138318157261D+02 0.548760503578190D+01
 0.531014155315154D+03 0.494359586521077D+03 -.184761675061450D+03 0.587175935156019D+02
0.161626775793D-05 0.000000000000D+00 0.000000000000D+00 0.280542870450D-06 0.000000000000D+00  7 -1 1 23 -11 11 23 21 0 0.14474242D-01 0.13866506D+00 0.64324878D+05 0.64324878D+05 0.64324878D+05 0.11377944D+01  1  2  2  1  7  1       -1 0.115191323621D-03 0.100000000000D+01
-.877084832854D-07 0.000000000000D+00 -.620689376353D-08 0.280542870450D-06 0.000000000000D+00  7 -1 1 23 -11 11 23 21 2 0.14474242D-01 0.13866506D+00 0.64324878D+05 0.64324878D+05 0.64324878D+05 0.11377944D+01  1  2  3  1  7  1       -1 -.809236822603D-05 0.100000000000D+01
0.105898052985D-06 0.000000000000D+00 0.000000000000D+00 0.280542870450D-06 0.000000000000D+00  7 -1 1 23 -11 11 23 21 2 0.14474242D-01 0.13866506D+00 0.64324878D+05 0.64324878D+05 0.64324878D+05 0.11377944D+01  1  2 15  1  7  1       -1 0.977061747139D-05 0.100000000000D+01
0.122409473719D-05 0.000000000000D+00 -.706177635617D-06 0.280542870450D-06 0.000000000000D+00  7 -1 1 23 -11 11 23 21 2 0.74622898D-01 0.13866506D+00 0.64324878D+05 0.64324878D+05 0.64324878D+05 0.11377944D+01  1  2  5  1  7  1       -1 0.692103848053D-05 0.100000000000D+01
0.220879328676D-06 0.000000000000D+00 -.141388884704D-06 0.280542870450D-06 0.000000000000D+00  7 21 1 23 -11 11 23 1 2 0.74622898D-01 0.13866506D+00 0.64324878D+05 0.64324878D+05 0.64324878D+05 0.11377944D+01  1  2  5  3  7  1       -1 0.101535946437D-04 0.100000000000D+01
  </mgrwgt>
  </event>
  <event>
  8     66 0.58687835E-06 0.18752376E+03 0.75467711E-02 0.96689860E-01
       -1 -1    0    0    0  501 0.00000000E+00 0.00000000E+00 0.39950529E+03 0.39950541E+03 0.32000000E+00 0.0000E+00 0.9000E+01
        1 -1    0    0  501    0 0.00000000E+00 0.00000000E+00 -.38868664E+03 0.38868677E+03 0.32000000E+00 0.0000E+00 0.9000E+01
       25  2    1    2    0    0 -.18285208E+02 -.32302105E+03 0.71011126E+02 0.44711119E+03 0.30031465E+03 0.0000E+00 0.0000E+00
       23  2    1    2    0    0 0.18285208E+02 0.32302105E+03 -.60192476E+02 0.34108099E+03 0.89644634E+02 0.0000E+00 0.0000E+00
       23  1    3    3    0    0 -.76070795E+02 -.29576851E+03 0.96269653E+02 0.33293974E+03 0.91188000E+02 0.0000E+00 0.9000E+01
      -13  1    4    4    0    0 0.37216661E+02 0.94345926E+02 0.79137453E+01 0.10172941E+03 0.10565837E+00 0.0000E+00 0.9000E+01
       13  1    4    4    0    0 -.18931453E+02 0.22867512E+03 -.68106221E+02 0.23935158E+03 0.10565837E+00 0.0000E+00 0.9000E+01
       23  1    3    3    0    0 0.57785586E+02 -.27252542E+02 -.25258527E+02 0.11417145E+03 0.91188000E+02 0.0000E+00 0.9000E+01
#aMCatNLO 1  0  0  1  2 0.72587549D+02 0.00000000D+00  -5  7  0 0.00000000D+00 0.00000000D+00 0.00000000D+00 0.00000000D+00 0.00000000D+00
  <mgrwgt>
 0.1643585085D-03    9    2    0
 0.394058964488409D+03 0.000000000000000D+00 0.000000000000000D+00 0.394058964488409D+03
 0.394058964488409D+03 0.000000000000000D+00 0.000000000000000D+00 -.394058964488409D+03
 0.331649598462911D+03 -.760707944840986D+02 -.295768506718633D+03 0.917083937085271D+02
 0.101630164809514D+03 0.372167389740105D+02 0.943457396880115D+02 0.651813946394225D+01
 0.240309232511219D+03 -.189315305264617D+02 0.228675308698964D+03 -.713983723448253D+02
 0.114528933193173D+03 0.577855860365498D+02 -.272525416683432D+02 -.268281608276440D+02
 0.000000000000000D+00 -.000000000000000D+00 0.000000000000000D+00 0.000000000000000D+00
 0.432693175597187D+03 0.000000000000000D+00 0.000000000000000D+00 0.432693175597187D+03
 0.431360225040203D+03 0.000000000000000D+00 0.000000000000000D+00 -.431360225040203D+03
 0.354815300021041D+03 -.627939262388079D+02 -.324384246127857D+03 0.917083937085271D+02
 0.956205966431555D+02 0.410317517690916D+02 0.861232123592779D+02 0.651813946394225D+01
 0.221487171060869D+03 -.999995948777283D+01 0.209425022815564D+03 -.713983723448253D+02
 0.119530545767821D+03 0.623125135904416D+02 -.370094645219348D+02 -.268281608276440D+02
 0.725997871445028D+02 -.305503796329525D+02 0.658454754749499D+02 0.133295055698440D+01
0.437454321616D-05 0.000000000000D+00 0.000000000000D+00 0.257049957068D-06 0.000000000000D+00  7 -1 1 23 -13 13 23 21 0 0.61462372D-01 0.59797964D-01 0.14475693D+06 0.14475693D+06 0.14475693D+06 0.11087733D+01  1  2  2  1  7  1       -1 0.915593014985D-04 0.100000000000D+01
-.242666238486D-06 0.000000000000D+00 -.167993977937D-07 0.257049957068D-06 0.000000000000D+00  7 -1 1 23 -13 13 23 21 2 0.61462372D-01 0.59797964D-01 0.14475693D+06 0.14475693D+06 0.14475693D+06 0.11087733D+01  1  2  3  1  7  1       -1 -.624402547067D-05 0.100000000000D+01
0.282512184094D-06 0.000000000000D+00 0.000000000000D+00 0.257049957068D-06 0.000000000000D+00  7 -1 1 23 -13 13 23 21 2 0.61462372D-01 0.59797964D-01 0.14475693D+06 0.14475693D+06 0.14475693D+06 0.11087733D+01  1  2 15  1  7  1       -1 0.726929829326D-05 0.100000000000D+01
0.439126889218D-05 0.000000000000D+00 0.000000000000D+00 0.257049957068D-06 0.000000000000D+00  7 -1 1 23 -13 13 23 21 2 0.70127943D-01 0.59797964D-01 0.17509575D+06 0.17509575D+06 0.17509575D+06 0.11022888D+01  1  2 12  1  7  1       -1 0.863612421983D-04 0.100000000000D+01
-.355272929704D-05 0.000000000000D+00 0.000000000000D+00 0.257049957068D-06 0.000000000000D+00  7 -1 1 23 -13 13 23 21 2 0.61462372D-01 0.59797964D-01 0.14475693D+06 0.14475693D+06 0.14475693D+06 0.11087733D+01  1  2  4  1  7  1       -1 -.914149918815D-04 0.100000000000D+01
-.131948234717D-04 0.000000000000D+00 -.351593105402D-05 0.257049957068D-06 0.000000000000D+00  7 -1 1 23 -13 13 23 21 2 0.73024360D-01 0.59797964D-01 0.14475693D+06 0.14475693D+06 0.14475693D+06 0.11087733D+01  1  2  5  1  7  1       -1 -.243660106707D-03 0.100000000000D+01
0.136491828589D-04 0.000000000000D+00 0.346433951616D-05 0.257049957068D-06 0.000000000000D+00  7 -1 1 23 -13 13 23 21 2 0.61462372D-01 0.59797964D-01 0.14475693D+06 0.14475693D+06 0.14475693D+06 0.11087733D+01  1  2  6  1  7  1       -1 0.351206026668D-03 0.100000000000D+01
0.901565263801D-07 0.000000000000D+00 0.000000000000D+00 0.257049957068D-06 0.000000000000D+00  7 21 1 23 -13 13 23 1 2 0.70127943D-01 0.59797964D-01 0.17509575D+06 0.17509575D+06 0.17509575D+06 0.11022888D+01  1  2 12  3  7  1       -1 0.143074283851D-04 0.100000000000D+01
-.305099926622D-06 0.000000000000D+00 -.896253487610D-07 0.257049957068D-06 0.000000000000D+00  7 21 1 23 -13 13 23 1 2 0.73024360D-01 0.59797964D-01 0.14475693D+06 0.14475693D+06 0.14475693D+06 0.11087733D+01  1  2  5  3  7  1       -1 -.450256645237D-04 0.100000000000D+01
  </mgrwgt>
  </event>
  <event>
  8     66 0.58687835E-06 0.24322447E+03 0.75467711E-02 0.93152454E-01
       -3 -1    0    0    0  501 0.00000000E+00 0.00000000E+00 0.55786398E+03 0.55786421E+03 0.50000000E+00 0.0000E+00 0.9000E+01
        3 -1    0    0  501    0 0.00000000E+00 0.00000000E+00 -.33672329E+03 0.33672366E+03 0.50000000E+00 0.0000E+00 0.9000E+01
       25  2    1    2    0    0 -.27705468E+02 0.37119988E+03 0.74452217E+02 0.48396919E+03 0.30021010E+03 0.0000E+00 0.0000E+00
       23  2    1    2    0    0 0.27705468E+02 -.37119988E+03 0.14668847E+03 0.41061868E+03 0.92375603E+02 0.0000E+00 0.0000E+00
       23  1    3    3    0    0 -.71610812E+02 0.10231153E+03 0.11649753E+03 0.19360445E+03 0.91188000E+02 0.0000E+00 0.9000E+01
      -13  1    4    4    0    0 0.47145313E+02 -.35232972E+03 0.12848145E+03 0.37797672E+03 0.10565837E+00 0.0000E+00 0.9000E+01
       13  1    4    4    0    0 -.19439844E+02 -.18870160E+02 0.18207025E+02 0.32641958E+02 0.10565837E+00 0.0000E+00 0.9000E+01
       23  1    3    3    0    0 0.43905344E+02 0.26888835E+03 -.42045313E+02 0.29036474E+03 0.91188000E+02 0.0000E+00 0.9000E+01
#aMCatNLO 1  0  0  1  2 0.26886793D+03 0.00000000D+00  -5  7  0 0.00000000D+00 0.00000000D+00 0.00000000D+00 0.00000000D+00 0.00000000D+00
  <mgrwgt>
 0.4293386428D-04    9    2    0
 0.433412116594503D+03 0.000000000000000D+00 0.000000000000000D+00 0.433412116594503D+03
 0.433412116594503D+03 0.000000000000000D+00 0.000000000000000D+00 -.433412116594503D+03
 0.170085056816423D+03 -.716108118073029D+02 0.102311530164253D+03 0.708372616353423D+02
 0.357305755154828D+03 0.471453995469987D+02 -.352330152201780D+03 0.361687408930125D+02
 0.290421194926383D+02 -.194399313771671D+02 -.188697235057662D+02 0.104626625431412D+02
 0.310391301725118D+03 0.439053436374714D+02 0.268888345543293D+03 -.117468665071496D+03
 0.000000000000000D+00 -.000000000000000D+00 -.000000000000000D+00 0.000000000000000D+00
 0.660381096948736D+03 0.000000000000000D+00 0.000000000000000D+00 0.660381096948736D+03
 0.541258841379729D+03 0.000000000000000D+00 0.000000000000000D+00 -.541258841379729D+03
 0.198247178077170D+03 -.492359143440415D+02 0.153442495333833D+03 0.708372616353423D+02
 0.279843630985600D+03 0.858500005379776D+02 -.263882658378773D+03 0.361687408930125D+02
 0.226277707865821D+02 -.163011659164968D+02 -.116970377891710D+02 0.104626625431412D+02
 0.406846411662145D+03 0.874750309293270D+02 0.368453501854166D+03 -.117468665071496D+03
 0.294074946816968D+03 -.107787951206766D+03 -.246316301020055D+03 0.119122255569007D+03
0.201391608079D-04 0.000000000000D+00 0.000000000000D+00 0.667019872919D-06 0.000000000000D+00  7 -3 3 23 -13 13 23 21 0 0.85825274D-01 0.51803629D-01 0.16994956D+06 0.16994956D+06 0.16994956D+06 0.11032977D+01  1  2  2  1  7  1       -3 0.375944697306D-04 0.100000000000D+01
-.111543315217D-05 0.000000000000D+00 -.773396802650D-07 0.667019872919D-06 0.000000000000D+00  7 -3 3 23 -13 13 23 21 2 0.85825274D-01 0.51803629D-01 0.16994956D+06 0.16994956D+06 0.16994956D+06 0.11032977D+01  1  2  3  1  7  1       -3 -.253461264647D-05 0.100000000000D+01
0.130444152888D-05 0.000000000000D+00 0.000000000000D+00 0.667019872919D-06 0.000000000000D+00  7 -3 3 23 -13 13 23 21 2 0.85825274D-01 0.51803629D-01 0.16994956D+06 0.16994956D+06 0.16994956D+06 0.11032977D+01  1  2 15  1  7  1       -3 0.296409873530D-05 0.100000000000D+01
0.276062926221D-05 0.000000000000D+00 0.000000000000D+00 0.667019872919D-06 0.000000000000D+00  7 -3 3 23 -13 13 23 21 2 0.13693669D+00 0.51803629D-01 0.32553103D+06 0.32553103D+06 0.32553103D+06 0.10819373D+01  1  2 12  1  7  1       -3 0.167114266816D-05 0.100000000000D+01
-.907711418919D-05 0.000000000000D+00 0.000000000000D+00 0.667019872919D-06 0.000000000000D+00  7 -3 3 23 -13 13 23 21 2 0.85825274D-01 0.51803629D-01 0.16994956D+06 0.16994956D+06 0.16994956D+06 0.11032977D+01  1  2  4  1  7  1       -3 -.206260396444D-04 0.100000000000D+01
-.104268910707D-04 0.000000000000D+00 -.655730652284D-05 0.667019872919D-06 0.000000000000D+00  7 -3 3 23 -13 13 23 21 2 0.15323044D+00 0.51803629D-01 0.16994956D+06 0.16994956D+06 0.16994956D+06 0.11032977D+01  1  2  5  1  7  1       -3 -.464860670346D-05 0.100000000000D+01
0.129556029612D-04 0.000000000000D+00 0.559143487592D-05 0.667019872919D-06 0.000000000000D+00  7 -3 3 23 -13 13 23 21 2 0.85825274D-01 0.51803629D-01 0.16994956D+06 0.16994956D+06 0.16994956D+06 0.11032977D+01  1  2  6  1  7  1       -3 0.294391779948D-04 0.100000000000D+01
0.147625888258D-06 0.000000000000D+00 0.000000000000D+00 0.667019872919D-06 0.000000000000D+00  7 21 3 23 -13 13 23 3 2 0.13693669D+00 0.51803629D-01 0.32553103D+06 0.32553103D+06 0.32553103D+06 0.10819373D+01  1  2 12  3  7  1       -3 0.134409811195D-05 0.100000000000D+01
-.319873672714D-06 0.000000000000D+00 -.417641423823D-06 0.667019872919D-06 0.000000000000D+00  7 21 3 23 -13 13 23 3 2 0.15323044D+00 0.51803629D-01 0.16994956D+06 0.16994956D+06 0.16994956D+06 0.11032977D+01  1  2  5  3  7  1       -3 -.226986396395D-05 0.100000000000D+01
  </mgrwgt>
  </event>
  <event>
  8     66 0.58687835E-06 0.40456534E+03 0.75467711E-02 0.90138340E-01
       -1 -1    0    0    0  501 0.00000000E+00 0.00000000E+00 0.88205986E+03 0.88205992E+03 0.32000000E+00 0.0000E+00 0.9000E+01
        1 -1    0    0  501    0 0.00000000E+00 0.00000000E+00 -.42386179E+03 0.42386191E+03 0.32000000E+00 0.0000E+00 0.9000E+01
       25  2    1    2    0    0 -.12777098E+03 -.31763140E+03 -.24610261E+03 0.51727260E+03 0.29964866E+03 0.0000E+00 0.0000E+00
       23  2    1    2    0    0 0.12777098E+03 0.31763140E+03 0.70430067E+03 0.78864923E+03 0.93343629E+02 0.0000E+00 0.0000E+00
       23  1    3    3    0    0 -.15300765E+03 -.31311641E+03 -.19682985E+03 0.41050027E+03 0.91188000E+02 0.0000E+00 0.9000E+01
      -13  1    4    4    0    0 0.10620633E+03 0.31503127E+03 0.64803317E+03 0.72833474E+03 0.10565837E+00 0.0000E+00 0.9000E+01
       13  1    4    4    0    0 0.21564649E+02 0.26001319E+01 0.56267501E+02 0.60314489E+02 0.10565837E+00 0.0000E+00 0.9000E+01
       23  1    3    3    0    0 0.25236676E+02 -.45149915E+01 -.49272758E+02 0.10677233E+03 0.91188000E+02 0.0000E+00 0.9000E+01
#aMCatNLO 1  0  0  1  1 0.57124024D+03 0.00000000D+00  -5  7  0 0.00000000D+00 0.00000000D+00 0.00000000D+00 0.00000000D+00 0.00000000D+00
  <mgrwgt>
 0.3381803634D-03    3    2    0
 0.611450396510675D+03 0.000000000000000D+00 0.000000000000000D+00 0.611450396510675D+03
 0.611450396510675D+03 0.000000000000000D+00 0.000000000000000D+00 -.611450396510675D+03
 0.512117024769518D+03 -.153007652260326D+03 -.313116412157512D+03 -.363999129809638D+03
 0.534975084368086D+03 0.106206436296488D+03 0.315031671945757D+03 0.419134321494795D+03
 0.433261448692544D+02 0.215645403114283D+02 0.259973167424854D+01 0.374882224920082D+02
 0.132482539014490D+03 0.252366756524095D+02 -.451499146249428D+01 -.926234141771647D+02
 0.000000000000000D+00 -.000000000000000D+00 0.000000000000000D+00 -.000000000000000D+00
 0.812118337068933D+03 0.000000000000000D+00 0.000000000000000D+00 0.812118337068933D+03
 0.126926229597489D+04 0.000000000000000D+00 0.000000000000000D+00 -.126926229597489D+04
 0.669806671194082D+03 -.463126998794605D+02 -.552888318523550D+03 -.363999129809638D+03
 0.476185656568390D+03 0.197486226584185D+03 0.109901730541908D+03 0.419134321494795D+03
 0.508057557990681D+02 0.300620420483224D+02 -.164964124763273D+02 0.374882224920082D+02
 0.152943285416511D+03 0.510027169374238D+02 -.624181321505433D+02 -.926234141771647D+02
 0.731639264065778D+03 -.232238285690471D+03 0.521901132608512D+03 -.457143958905962D+03
0.100079529335D-03 0.000000000000D+00 0.000000000000D+00 0.110550107236D-05 0.000000000000D+00  7 -1 1 23 -13 13 23 21 0 0.13570153D+00 0.65209520D-01 0.16367311D+06 0.16367311D+06 0.16367311D+06 0.11045745D+01  1  2  2  1  7  1       -1 0.331058935390D-03 0.100000000000D+01
-.440679239160D-05 0.000000000000D+00 -.384331744191D-06 0.110550107236D-05 0.000000000000D+00  7 -1 1 23 -13 13 23 21 2 0.13570153D+00 0.65209520D-01 0.16367311D+06 0.16367311D+06 0.16367311D+06 0.11045745D+01  1  2  3  1  7  1       -1 -.177857703339D-04 0.100000000000D+01
0.617127343901D-05 0.000000000000D+00 0.000000000000D+00 0.110550107236D-05 0.000000000000D+00  7 -1 1 23 -13 13 23 21 2 0.13570153D+00 0.65209520D-01 0.16367311D+06 0.16367311D+06 0.16367311D+06 0.11045745D+01  1  2 15  1  7  1       -1 0.249071983203D-04 0.100000000000D+01
  </mgrwgt>
  </event>
  <event>
  8     66 0.58687835E-06 0.10530733E+03 0.75467711E-02 0.10434176E+00
       -1 -1    0    0    0  501 0.00000000E+00 0.00000000E+00 0.37057645E+02 0.37059026E+02 0.32000000E+00 0.0000E+00 0.9000E+01
        1 -1    0    0  501    0 0.00000000E+00 0.00000000E+00 -.17585157E+04 0.17585158E+04 0.32000000E+00 0.0000E+00 0.9000E+01
       25  2    1    2    0    0 0.11317253E+03 0.84385924E+02 -.95224732E+03 0.10083096E+04 0.29997385E+03 0.0000E+00 0.0000E+00
       23  2    1    2    0    0 -.11317253E+03 -.84385924E+02 -.76921078E+03 0.78726518E+03 0.90400457E+02 0.0000E+00 0.0000E+00
       23  1    3    3    0    0 0.88936582E+02 -.53993144E+02 -.63138712E+03 0.64636671E+03 0.91188000E+02 0.0000E+00 0.9000E+01
      -13  1    4    4    0    0 -.11292291E+03 -.65215573E+02 -.74527668E+03 0.75659897E+03 0.10565837E+00 0.0000E+00 0.9000E+01
       13  1    4    4    0    0 -.24962352E+00 -.19170352E+02 -.23934096E+02 0.30666216E+02 0.10565837E+00 0.0000E+00 0.9000E+01
       23  1    3    3    0    0 0.24235953E+02 0.13837907E+03 -.32086020E+03 0.36194291E+03 0.91188000E+02 0.0000E+00 0.9000E+01
#aMCatNLO 1  0  0  2  1 0.50828652D+01 0.00000000D+00  -5  7  0 0.00000000D+00 0.00000000D+00 0.00000000D+00 0.00000000D+00 0.00000000D+00
  <mgrwgt>
 0.4112892358D-03   11    2    0
 0.255279686781197D+03 0.000000000000000D+00 0.000000000000000D+00 0.255279686781197D+03
 0.255279686781197D+03 0.000000000000000D+00 0.000000000000000D+00 -.255279686781197D+03
 0.144338358219945D+03 0.889365829416988D+02 -.539931428085165D+02 -.411501525385104D+02
 0.148009318429449D+03 -.112923065417960D+03 -.652156375559756D+02 -.700147145729287D+02
 0.271503312631313D+02 -.249471551522319D+00 -.191702884033582D+02 0.192244192155399D+02
 0.191061365649869D+03 0.242359540277839D+02 0.138379068767850D+03 0.919404478958992D+02
 0.000000000000000D+00 -.000000000000000D+00 0.000000000000000D+00 -.000000000000000D+00
 0.256999849654739D+03 0.000000000000000D+00 0.000000000000000D+00 0.256999849654739D+03
 0.259074962014184D+03 0.000000000000000D+00 0.000000000000000D+00 -.259074962014184D+03
 0.145354873888107D+03 0.903057239108912D+02 -.544456535824007D+02 -.411501525385104D+02
 0.147152981319198D+03 -.111528076676918D+03 -.656766912012706D+02 -.700147145729287D+02
 0.272092093169569D+02 0.744116104983733D-02 -.192551998719378D+02 0.192244192155399D+02
 0.190867609600776D+03 0.260410172787690D+02 0.137782482596673D+03 0.919404478958992D+02
 0.549013754388585D+01 -.482610567379198D+01 0.159506205893661D+01 -.207511235944435D+01
0.148983486060D-05 0.000000000000D+00 0.000000000000D+00 0.237694305367D-06 0.000000000000D+00  7 -1 1 23 -13 13 23 21 0 0.57012846D-02 0.27054099D+00 0.51849044D+05 0.51849044D+05 0.51849044D+05 0.11459108D+01  1  2  2  2  7  2        1 0.112962233343D-03 0.100000000000D+01
-.814535451905D-07 0.000000000000D+00 -.572135814725D-08 0.237694305367D-06 0.000000000000D+00  7 -1 1 23 -13 13 23 21 2 0.57012846D-02 0.27054099D+00 0.51849044D+05 0.51849044D+05 0.51849044D+05 0.11459108D+01  1  2  3  2  7  2        1 -.810973641688D-05 0.100000000000D+01
0.968124083499D-07 0.000000000000D+00 0.000000000000D+00 0.237694305367D-06 0.000000000000D+00  7 -1 1 23 -13 13 23 21 2 0.57012846D-02 0.27054099D+00 0.51849044D+05 0.51849044D+05 0.51849044D+05 0.11459108D+01  1  2 15  2  7  2        1 0.963890659105D-05 0.100000000000D+01
0.457946395854D-06 0.000000000000D+00 0.000000000000D+00 0.237694305367D-06 0.000000000000D+00  7 -1 1 23 -13 13 23 21 2 0.57012846D-02 0.27546475D+00 0.53001298D+05 0.53001298D+05 0.53001298D+05 0.11450752D+01  1  2 12  2  7  2        1 0.433959741496D-04 0.100000000000D+01
-.886703784216D-05 0.000000000000D+00 0.000000000000D+00 0.237694305367D-06 0.000000000000D+00  7 -1 1 23 -13 13 23 21 2 0.57012846D-02 0.27054099D+00 0.51849044D+05 0.51849044D+05 0.51849044D+05 0.11459108D+01  1  2  4  2  7  2        1 -.882826395465D-03 0.100000000000D+01
-.724333667088D-04 0.000000000000D+00 -.831652075598D-05 0.237694305367D-06 0.000000000000D+00  7 -1 1 23 -13 13 23 21 2 0.57012846D-02 0.27545978D+00 0.51849044D+05 0.51849044D+05 0.51849044D+05 0.11459108D+01  1  2  5  2  7  2        1 -.687633698006D-02 0.100000000000D+01
0.725727828139D-04 0.000000000000D+00 0.831517096883D-05 0.237694305367D-06 0.000000000000D+00  7 -1 1 23 -13 13 23 21 2 0.57012846D-02 0.27054099D+00 0.51849044D+05 0.51849044D+05 0.51849044D+05 0.11459108D+01  1  2  6  2  7  2        1 0.722554356945D-02 0.100000000000D+01
0.843681559873D-05 0.000000000000D+00 0.000000000000D+00 0.237694305367D-06 0.643497294700D-07  7 -1 1 23 -13 13 23 21 2 0.57397019D-02 0.27456316D+00 0.53001298D+05 0.53001298D+05 0.53001298D+05 0.11450752D+01  1  2 11  2  7  2        1 0.798502079137D-03 0.100000000000D+01
0.222259129632D-07 0.000000000000D+00 0.000000000000D+00 0.237694305367D-06 0.000000000000D+00  7 -1 21 23 -13 13 23 -1 2 0.57012846D-02 0.27546475D+00 0.53001298D+05 0.53001298D+05 0.53001298D+05 0.11450752D+01  1  2 12  4  7  2        1 0.137326956519D-05 0.100000000000D+01
-.237235196024D-06 0.000000000000D+00 -.273520811514D-07 0.237694305367D-06 0.000000000000D+00  7 -1 21 23 -13 13 23 -1 2 0.57012846D-02 0.27545978D+00 0.51849044D+05 0.51849044D+05 0.51849044D+05 0.11459108D+01  1  2  5  4  7  2        1 -.147012281270D-04 0.100000000000D+01
0.297945141798D-07 0.000000000000D+00 0.000000000000D+00 0.237694305367D-06 0.173875792383D-09  7 -1 21 23 -13 13 23 -1 2 0.57397019D-02 0.27456316D+00 0.53001298D+05 0.53001298D+05 0.53001298D+05 0.11450752D+01  1  2 11  4  7  2        1 0.184754361915D-05 0.100000000000D+01
  </mgrwgt>
  </event>
  <event>
  8     66 0.58687835E-06 0.10754817E+03 0.75467711E-02 0.10560294E+00
       -1 -1    0    0    0  501 0.00000000E+00 0.00000000E+00 0.36254894E+02 0.36256306E+02 0.32000000E+00 0.0000E+00 0.9000E+01
        1 -1    0    0  501    0 0.00000000E+00 0.00000000E+00 -.14029594E+04 0.14029595E+04 0.32000000E+00 0.0000E+00 0.9000E+01
       25  2    1    2    0    0 0.78838868E+02 0.10997653E+02 -.10784180E+04 0.11221861E+04 0.29996617E+03 0.0000E+00 0.0000E+00
       23  2    1    2    0    0 -.78838868E+02 -.10997653E+02 -.28828657E+03 0.31702973E+03 0.10517692E+03 0.0000E+00 0.0000E+00
       23  1    3    3    0    0 0.11861611E+03 0.58288466E+02 -.34492536E+03 0.38046824E+03 0.91188000E+02 0.0000E+00 0.9000E+01
      -13  1    4    4    0    0 -.21337725E+02 -.21200327E+02 -.23820600E+03 0.24009761E+03 0.10565837E+00 0.0000E+00 0.9000E+01
       13  1    4    4    0    0 -.57501142E+02 0.10202674E+02 -.50080575E+02 0.76932120E+02 0.10565837E+00 0.0000E+00 0.9000E+01
       23  1    3    3    0    0 -.39777243E+02 -.47290813E+02 -.73349262E+03 0.74171782E+03 0.91188000E+02 0.0000E+00 0.9000E+01
#aMCatNLO 1  0  0  2  1 0.62373823D+02 0.00000000D+00  -5  7  0 0.00000000D+00 0.00000000D+00 0.00000000D+00 0.00000000D+00 0.00000000D+00
  <mgrwgt>
 0.1507711980D-03    9    2    0
 0.225533119098757D+03 0.000000000000000D+00 0.000000000000000D+00 0.225533119098757D+03
 0.225533119098757D+03 0.000000000000000D+00 0.000000000000000D+00 -.225533119098757D+03
 0.168857554648350D+03 0.118620248777671D+03 0.582890430395996D+02 0.522421904141838D+02
 0.443247059555386D+02 -.213405545406494D+02 -.211989116936131D+02 -.325555898878966D+02
 0.937270720893488D+02 -.575059830176907D+02 0.102001888405848D+02 0.733060850627522D+02
 0.144156905504277D+03 -.397737112193307D+02 -.472903201865713D+02 -.929926855890393D+02
 0.000000000000000D+00 -.000000000000000D+00 -.000000000000000D+00 -.000000000000000D+00
 0.240253731974077D+03 0.000000000000000D+00 0.000000000000000D+00 0.240253731974077D+03
 0.305027770908130D+03 0.000000000000000D+00 0.000000000000000D+00 -.305027770908130D+03
 0.186191117046900D+03 0.131999678499545D+03 0.787319448503414D+02 0.522421904141838D+02
 0.406776730267508D+02 -.181373786201327D+02 -.163046664091077D+02 -.325555898878966D+02
 0.914444719891747D+02 -.505280955954951D+02 0.208619487499132D+02 0.733060850627522D+02
 0.137045107772234D+03 -.291770722956624D+02 -.310993424286576D+02 -.929926855890393D+02
 0.899231330471484D+02 -.341571319882549D+02 -.521898847624894D+02 -.647740389340526D+02
0.879947251290D-06 0.000000000000D+00 0.000000000000D+00 0.235280088808D-08 0.000000000000D+00  7 -1 1 23 -13 13 23 21 0 0.55777874D-02 0.21584003D+00 0.32257783D+05 0.32257783D+05 0.32257783D+05 0.11644233D+01  1  2  2  2  7  2        1 0.117754823375D-03 0.100000000000D+01
-.458039862310D-07 0.000000000000D+00 -.337922914039D-08 0.235280088808D-08 0.000000000000D+00  7 -1 1 23 -13 13 23 21 2 0.55777874D-02 0.21584003D+00 0.32257783D+05 0.32257783D+05 0.32257783D+05 0.11644233D+01  1  2  3  2  7  2        1 -.831088216033D-05 0.100000000000D+01
0.577004451207D-07 0.000000000000D+00 0.000000000000D+00 0.235280088808D-08 0.000000000000D+00  7 -1 1 23 -13 13 23 21 2 0.55777874D-02 0.21584003D+00 0.32257783D+05 0.32257783D+05 0.32257783D+05 0.11644233D+01  1  2 15  2  7  2        1 0.104694293981D-04 0.100000000000D+01
0.964487996007D-06 0.000000000000D+00 0.000000000000D+00 0.235280088808D-08 0.000000000000D+00  7 -1 1 23 -13 13 23 21 2 0.55777874D-02 0.29708748D+00 0.44269431D+05 0.44269431D+05 0.44269431D+05 0.11519747D+01  1  2 12  2  7  2        1 0.777270755058D-04 0.100000000000D+01
-.109093039386D-05 0.000000000000D+00 0.000000000000D+00 0.235280088808D-08 0.000000000000D+00  7 -1 1 23 -13 13 23 21 2 0.55777874D-02 0.21584003D+00 0.32257783D+05 0.32257783D+05 0.32257783D+05 0.11644233D+01  1  2  4  2  7  2        1 -.197943338442D-03 0.100000000000D+01
-.140966839730D-05 0.000000000000D+00 -.356638596299D-06 0.235280088808D-08 0.000000000000D+00  7 -1 1 23 -13 13 23 21 2 0.55777874D-02 0.29917798D+00 0.32257783D+05 0.32257783D+05 0.32257783D+05 0.11644233D+01  1  2  5  2  7  2        1 -.114338392394D-03 0.100000000000D+01
0.146550158193D-05 0.000000000000D+00 0.338438494333D-06 0.235280088808D-08 0.000000000000D+00  7 -1 1 23 -13 13 23 21 2 0.55777874D-02 0.21584003D+00 0.32257783D+05 0.32257783D+05 0.32257783D+05 0.11644233D+01  1  2  6  2  7  2        1 0.265907226759D-03 0.100000000000D+01
0.390142761336D-07 0.000000000000D+00 0.000000000000D+00 0.235280088808D-08 0.000000000000D+00  7 -1 21 23 -13 13 23 -1 2 0.55777874D-02 0.29708748D+00 0.44269431D+05 0.44269431D+05 0.44269431D+05 0.11519747D+01  1  2 12  4  7  2        1 0.184782821218D-05 0.100000000000D+01
-.488210169583D-07 0.000000000000D+00 -.146536954674D-07 0.235280088808D-08 0.000000000000D+00  7 -1 21 23 -13 13 23 -1 2 0.55777874D-02 0.29917798D+00 0.32257783D+05 0.32257783D+05 0.32257783D+05 0.11644233D+01  1  2  5  4  7  2        1 -.234257222914D-05 0.100000000000D+01
  </mgrwgt>
  </event>
  <event>
  9     66 -.58687835E-06 0.39401677E+03 0.75467711E-02 0.96703919E-01
       -1 -1    0    0    0  502 0.00000000E+00 0.00000000E+00 0.55062238E+03 0.55062247E+03 0.32000000E+00 0.0000E+00 0.9000E+01
        1 -1    0    0  501    0 0.00000000E+00 0.00000000E+00 -.56574374E+03 0.56574383E+03 0.32000000E+00 0.0000E+00 0.9000E+01
       25  2    1    2    0    0 -.14945279E+03 0.30836883E+03 0.31382611E+03 0.55412282E+03 0.30189038E+03 0.0000E+00 0.0000E+00
       23  2    1    2    0    0 0.18018450E+03 -.34375165E+03 -.32661659E+03 0.51531398E+03 0.90765914E+02 0.0000E+00 0.0000E+00
       23  1    3    3    0    0 -.12341946E+03 0.15884922E+03 0.34693727E+02 0.22357178E+03 0.91188000E+02 0.0000E+00 0.9000E+01
      -11  1    4    4    0    0 0.27136982E+02 -.22448174E+02 -.48900105E+01 0.35556273E+02 0.51099893E-03 0.0000E+00 0.9000E+01
       11  1    4    4    0    0 0.15304752E+03 -.32130348E+03 -.32172658E+03 0.47975771E+03 0.51099893E-03 0.0000E+00 0.9000E+01
       23  1    3    3    0    0 -.26033334E+02 0.14951962E+03 0.27913238E+03 0.33055104E+03 0.91188000E+02 0.0000E+00 0.9000E+01
       21  1    1    2  501  502 -.30731704E+02 0.35382819E+02 -.23308793E+01 0.46929490E+02 0.75000000E+00 0.0000E+00 0.9000E+01
#aMCatNLO 2  0  0  1  2 0.46865569D+02 0.00000000D+00  -5  7  0 0.00000000D+00 0.00000000D+00 0.00000000D+00 0.00000000D+00 0.00000000D+00
  <mgrwgt>
 -.8008115124D-04    3    2    0
 0.534166432516223D+03 0.000000000000000D+00 0.000000000000000D+00 0.534166432516223D+03
 0.534166432516223D+03 0.000000000000000D+00 0.000000000000000D+00 -.534166432516223D+03
 0.233029495805603D+03 -.129989804052261D+03 0.166413955112904D+03 0.373703218817900D+02
 0.340103698330203D+02 0.261376892922425D+02 -.212976418739372D+02 -.446507617522104D+01
 0.461357597991201D+03 0.139572769589263D+03 -.305789386684045D+03 -.316011275439324D+03
 0.339935401402621D+03 -.357206548292448D+02 0.160673073445079D+03 0.283106029732755D+03
 0.000000000000000D+00 -.000000000000000D+00 0.000000000000000D+00 -.000000000000000D+00
 0.557244785480381D+03 0.000000000000000D+00 0.000000000000000D+00 0.557244785480381D+03
 0.559014504337146D+03 0.000000000000000D+00 0.000000000000000D+00 -.559014504337146D+03
 0.224002743624020D+03 -.123419460056441D+03 0.158849216960350D+03 0.373703218817900D+02
 0.355003272197750D+02 0.271369824528214D+02 -.224481738859941D+02 -.446507617522104D+01
 0.475943897784039D+03 0.153047515403094D+03 -.321303479069268D+03 -.316011275439324D+03
 0.333913350468721D+03 -.260333336317861D+02 0.149519616593341D+03 0.283106029732755D+03
 0.468989707209709D+02 -.307317041676880D+02 0.353828194015712D+02 -.176971885676474D+01
-.361926678570D-04 0.000000000000D+00 0.000000000000D+00 0.302966589160D-06 0.000000000000D+00  7 -1 1 23 -11 11 23 21 2 0.86516738D-01 0.83168267D-01 0.17468085D+06 0.17468085D+06 0.17468085D+06 0.11023689D+01  1  2 13  1  7  1       -1 -.296104599083D-03 0.100000000000D+01
-.978968874107D-06 0.000000000000D+00 0.000000000000D+00 0.302966589160D-06 0.000000000000D+00  7 -1 1 23 -11 11 23 21 2 0.81202391D-01 0.83168267D-01 0.15524922D+06 0.15524922D+06 0.15524922D+06 0.11063750D+01  1  2  8  1  7  1       -1 -.923529650475D-05 0.100000000000D+01
0.281057188524D-04 0.000000000000D+00 0.000000000000D+00 0.302966589160D-06 0.895512664556D-09  7 -1 1 23 -11 11 23 21 2 0.84710694D-01 0.87037045D-01 0.17468085D+06 0.17468085D+06 0.17468085D+06 0.11023689D+01  1  2  1  1  7  1       -1 0.225258744346D-03 0.100000000000D+01
  </mgrwgt>
  </event>
  <event>
  7     66 0.58687835E-06 0.15302898E+03 0.75467711E-02 0.10095794E+00
       -1 -1    0    0    0  501 0.00000000E+00 0.00000000E+00 0.15399981E+03 0.15400015E+03 0.32000000E+00 0.0000E+00 0.9000E+01
        1 -1    0    0  501    0 0.00000000E+00 0.00000000E+00 -.49233988E+03 0.49233998E+03 0.32000000E+00 0.0000E+00 0.9000E+01
       25  2    1    2    0    0 -.55424501E+02 0.17693372E+02 -.39077876E+02 0.30734827E+03 0.29925065E+03 0.0000E+00 0.0000E+00
       23  1    3    3    0    0 -.14666891E+02 0.66563661E+02 0.83997282E+02 0.14148015E+03 0.91188000E+02 0.0000E+00 0.9000E+01
      -11  1    1    2    0    0 0.63006009E+02 -.13752731E+01 -.31190736E+02 0.70317214E+02 0.51099893E-03 0.0000E+00 0.9000E+01
       11  1    1    2    0    0 -.75815082E+01 -.16318099E+02 -.26807145E+03 0.26867464E+03 0.51099893E-03 0.0000E+00 0.9000E+01
       23  1    3    3    0    0 -.40757611E+02 -.48870289E+02 -.12307516E+03 0.16586812E+03 0.91188000E+02 0.0000E+00 0.9000E+01
#aMCatNLO 1  0  0  2  1 0.21007152D+03 0.00000000D+00  -5  7  0 0.00000000D+00 0.00000000D+00 0.00000000D+00 0.00000000D+00 0.00000000D+00
  <mgrwgt>
 0.1998703181D-03    3    2    0
 0.275355027079546D+03 0.000000000000000D+00 0.000000000000000D+00 0.275355027079546D+03
 0.275355027079546D+03 0.000000000000000D+00 0.000000000000000D+00 -.275355027079546D+03
 0.217653462959158D+03 -.146668945827548D+02 0.665636620815974D+02 0.185504554358374D+03
 0.633650260133620D+02 0.630060021242894D+02 -.137527443880922D+01 0.659384851251885D+01
 0.150634422443304D+03 -.758149471781542D+01 -.163180994151332D+02 -.149555908589896D+03
 0.119057142743268D+03 -.407576128237192D+02 -.488702882276549D+02 -.425424942809972D+02
 0.000000000000000D+00 0.000000000000000D+00 0.000000000000000D+00 0.000000000000000D+00
 0.421217438187308D+03 0.000000000000000D+00 0.000000000000000D+00 0.421217438187308D+03
 0.381915294766741D+03 0.000000000000000D+00 0.000000000000000D+00 -.381915294766741D+03
 0.212615572068535D+03 -.495666195143947D+02 -.461959784470911D+01 0.185504554358374D+03
 0.577094334090573D+02 0.531854829000383D+02 -.214057065960952D+02 0.659384851251885D+01
 0.168083812140026D+03 -.334331777629134D+02 -.690465113821679D+02 -.149555908589896D+03
 0.151007509951530D+03 -.626629355997369D+02 -.935495024045342D+02 -.425424942809972D+02
 0.213716405384900D+03 0.924772499770067D+02 0.188621318227506D+03 0.393021434205673D+02
0.239703086900D-05 0.000000000000D+00 0.000000000000D+00 0.229766579393D-09 0.000000000000D+00  7 -1 1 23 -11 11 23 21 0 0.23692313D-01 0.75744630D-01 0.23417869D+05 0.23417869D+05 0.23417869D+05 0.11774503D+01  1  2  2  2  7  2        1 0.191597807807D-03 0.100000000000D+01
-.772955453740D-07 0.000000000000D+00 -.920522968970D-08 0.229766579393D-09 0.000000000000D+00  7 -1 1 23 -11 11 23 21 2 0.23692313D-01 0.75744630D-01 0.23417869D+05 0.23417869D+05 0.23417869D+05 0.11774503D+01  1  2  3  2  7  2        1 -.856557599902D-05 0.100000000000D+01
0.151946472830D-06 0.000000000000D+00 0.000000000000D+00 0.229766579393D-09 0.000000000000D+00  7 -1 1 23 -11 11 23 21 2 0.23692313D-01 0.75744630D-01 0.23417869D+05 0.23417869D+05 0.23417869D+05 0.11774503D+01  1  2 15  2  7  2        1 0.168380862638D-04 0.100000000000D+01
  </mgrwgt>
  </event>
  <event>
  9     66 0.58687835E-06 0.44854549E+03 0.75467711E-02 0.94924817E-01
       21 -1    0    0  502  501 0.00000000E+00 0.00000000E+00 0.46881294E+03 0.46881354E+03 0.75000000E+00 0.0000E+00 0.9000E+01
        1 -1    0    0  501    0 0.00000000E+00 0.00000000E+00 -.91747611E+03 0.91747616E+03 0.32000000E+00 0.0000E+00 0.9000E+01
       25  2    1    2    0    0 -.27671458E+03 -.30987573E+03 -.46442344E+03 0.69152527E+03 0.29987354E+03 0.0000E+00 0.0000E+00
       23  2    1    2    0    0 0.20337192E+03 0.32499426E+03 0.23741965E+03 0.46079713E+03 0.94786574E+02 0.0000E+00 0.0000E+00
       23  1    3    3    0    0 -.26017349E+02 -.20263780E+03 -.22606917E+03 0.31805896E+03 0.91188000E+02 0.0000E+00 0.9000E+01
      -11  1    4    4    0    0 0.11767806E+01 0.31486693E+02 0.47338598E+02 0.56865978E+02 0.51099893E-03 0.0000E+00 0.9000E+01
       11  1    4    4    0    0 0.20219514E+03 0.29350757E+03 0.19008106E+03 0.40393115E+03 0.51099893E-03 0.0000E+00 0.9000E+01
       23  1    3    3    0    0 -.25069723E+03 -.10723793E+03 -.23835427E+03 0.37346630E+03 0.91188000E+02 0.0000E+00 0.9000E+01
        1  1    1    2  502    0 0.73342660E+02 -.15118538E+02 -.22165938E+03 0.23396731E+03 0.32000000E+00 0.0000E+00 0.9000E+01
#aMCatNLO 2  0  0  1  2 0.74884684D+02 0.00000000D+00  -5  7  0 0.00000000D+00 0.00000000D+00 0.00000000D+00 0.00000000D+00 0.00000000D+00
  <mgrwgt>
 0.2797085070D-04    1    2    0
 0.563628527576484D+03 0.000000000000000D+00 0.000000000000000D+00 0.563628527576484D+03
 0.563628527576484D+03 0.000000000000000D+00 0.000000000000000D+00 -.563628527576484D+03
 0.280631032513152D+03 -.783205751901032D+01 -.206386436555249D+03 -.166678801130926D+03
 0.673176151618698D+02 0.555824016944187D+01 0.305835180456083D+02 0.597111019933007D+02
 0.460409764543003D+03 0.231785952796084D+03 0.287407848390199D+03 0.275043909324805D+03
 0.318898642934944D+03 -.229512135446515D+03 -.111604929880558D+03 -.168076210187180D+03
 0.000000000000000D+00 0.000000000000000D+00 -.000000000000000D+00 -.000000000000000D+00
 0.572384197912491D+03 0.000000000000000D+00 0.000000000000000D+00 0.572384197912491D+03
 0.751461921118432D+03 0.000000000000000D+00 0.000000000000000D+00 -.751461921118432D+03
 0.278991136600718D+03 -.260173485812684D+02 -.202637799494859D+03 -.166678801130926D+03
 0.675145344160162D+02 0.117678064201406D+01 0.314866931175325D+02 0.597111019933007D+02
 0.450198533349815D+03 0.202195136250861D+03 0.293507571026965D+03 0.275043909324805D+03
 0.333037440571146D+03 -.250697227972995D+03 -.107237926751453D+03 -.168076210187180D+03
 0.194104474093228D+03 0.733426596613891D+02 -.151185378981857D+02 -.179077723205941D+03
0.691282078652D-06 0.000000000000D+00 0.000000000000D+00 0.313101847330D-06 0.125494175195D-11  7 21 1 23 -11 11 23 1 2 0.72125101D-01 0.14115019D+00 0.23719214D+06 0.23719214D+06 0.23719214D+06 0.10921815D+01  1  2  1  3  7  1       -1 0.279708506966D-04 0.100000000000D+01
  </mgrwgt>
  </event>
  <event>
  8     66 0.58687835E-06 0.40337213E+03 0.75467711E-02 0.97071958E-01
       -1 -1    0    0    0  501 0.00000000E+00 0.00000000E+00 0.65770030E+03 0.65770038E+03 0.32000000E+00 0.0000E+00 0.9000E+01
        1 -1    0    0  501    0 0.00000000E+00 0.00000000E+00 -.33384505E+03 0.33384520E+03 0.32000000E+00 0.0000E+00 0.9000E+01
       25  2    1    2    0    0 0.15627793E+03 -.30640498E+03 -.65727702E+02 0.46377207E+03 0.30406840E+03 0.0000E+00 0.0000E+00
       23  2    1    2    0    0 -.15627793E+03 0.30640498E+03 0.38958295E+03 0.52777351E+03 0.91995670E+02 0.0000E+00 0.0000E+00
       23  1    3    3    0    0 -.55368555E+02 -.72629501E+02 -.36954537E+02 0.13424459E+03 0.91188000E+02 0.0000E+00 0.9000E+01
      -13  1    4    4    0    0 0.58374775E+01 0.10498216E+02 -.48999477E+00 0.12022477E+02 0.10565837E+00 0.0000E+00 0.9000E+01
       13  1    4    4    0    0 -.16211541E+03 0.29590676E+03 0.39007295E+03 0.51575104E+03 0.10565837E+00 0.0000E+00 0.9000E+01
       23  1    3    3    0    0 0.21164649E+03 -.23377548E+03 -.28773165E+02 0.32952747E+03 0.91188000E+02 0.0000E+00 0.9000E+01
#aMCatNLO 1  0  0  1  1 0.37088125D+01 0.00000000D+00  -5  7  0 0.00000000D+00 0.00000000D+00 0.00000000D+00 0.00000000D+00 0.00000000D+00
  <mgrwgt>
 0.2067746666D-03    6    2    0
 0.468583080780238D+03 0.000000000000000D+00 0.000000000000000D+00 0.468583080780238D+03
 0.468583080780238D+03 0.000000000000000D+00 0.000000000000000D+00 -.468583080780238D+03
 0.154804513978446D+03 -.553685549551954D+02 -.726295008024814D+02 -.854895604121277D+02
 0.128888873870771D+02 0.583769901684013D+01 0.104978399042519D+02 -.467333345806118D+01
 0.410881226893361D+03 -.162115630943517D+03 0.295907139220620D+03 0.234479998668218D+03
 0.358591533301592D+03 0.211646486881873D+03 -.233775478322391D+03 -.144317104798029D+03
 0.000000000000000D+00 -.000000000000000D+00 -.000000000000000D+00 -.000000000000000D+00
 0.469225745034154D+03 0.000000000000000D+00 0.000000000000000D+00 0.469225745034154D+03
 0.473968362277856D+03 0.000000000000000D+00 0.000000000000000D+00 -.473968362277856D+03
 0.154463374294172D+03 -.548611153273520D+02 -.722874521609507D+02 -.854895604121277D+02
 0.129313663175230D+02 0.588006429441183D+01 0.105263969676864D+02 -.467333345806118D+01
 0.411006997154058D+03 -.160767095675699D+03 0.296816143230366D+03 0.234479998668218D+03
 0.358771762534202D+03 0.212823520054960D+03 -.232982078327987D+03 -.144317104798029D+03
 0.602060701205444D+01 -.307537334632076D+01 -.207300970911417D+01 -.474261724370177D+01
0.207890101093D-04 0.000000000000D+00 0.000000000000D+00 0.275801788951D-07 0.000000000000D+00  7 -1 1 23 -13 13 23 21 0 0.10118468D+00 0.51360795D-01 0.16270908D+06 0.16270908D+06 0.16270908D+06 0.11047753D+01  1  2  2  1  7  1       -1 0.192833194459D-03 0.100000000000D+01
-.112341102848D-05 0.000000000000D+00 -.798352726919D-07 0.275801788951D-07 0.000000000000D+00  7 -1 1 23 -13 13 23 21 2 0.10118468D+00 0.51360795D-01 0.16270908D+06 0.16270908D+06 0.16270908D+06 0.11047753D+01  1  2  3  1  7  1       -1 -.127184626550D-04 0.100000000000D+01
0.133095457737D-05 0.000000000000D+00 0.000000000000D+00 0.275801788951D-07 0.000000000000D+00  7 -1 1 23 -13 13 23 21 2 0.10118468D+00 0.51360795D-01 0.16270908D+06 0.16270908D+06 0.16270908D+06 0.11047753D+01  1  2 15  1  7  1       -1 0.150681234728D-04 0.100000000000D+01
-.419048705337D-04 0.000000000000D+00 0.000000000000D+00 0.275801788951D-07 0.000000000000D+00  7 -1 1 23 -13 13 23 21 2 0.10118468D+00 0.51360795D-01 0.16270908D+06 0.16270908D+06 0.16270908D+06 0.11047753D+01  1  2  4  1  7  1       -1 -.474417214566D-03 0.100000000000D+01
0.418487135434D-04 0.000000000000D+00 0.000000000000D+00 0.275801788951D-07 0.130454106450D-07  7 -1 1 23 -13 13 23 21 2 0.10132345D+00 0.51951069D-01 0.16420295D+06 0.16420295D+06 0.16420295D+06 0.11044647D+01  1  2 11  1  7  1       -1 0.464814204628D-03 0.100000000000D+01
0.270721941048D-06 0.000000000000D+00 0.000000000000D+00 0.275801788951D-07 0.336552957562D-11  7 21 1 23 -13 13 23 1 2 0.10132345D+00 0.51951069D-01 0.16420295D+06 0.16420295D+06 0.16420295D+06 0.11044647D+01  1  2 11  3  7  1       -1 0.211948212510D-04 0.100000000000D+01
  </mgrwgt>
  </event>
  <event>
  8     66 0.58687835E-06 0.96628623E+02 0.75467711E-02 0.10254724E+00
       -1 -1    0    0    0  501 0.00000000E+00 0.00000000E+00 0.84869875E+03 0.84869882E+03 0.32000000E+00 0.0000E+00 0.9000E+01
        1 -1    0    0  501    0 0.00000000E+00 0.00000000E+00 -.24116080E+03 0.24116101E+03 0.32000000E+00 0.0000E+00 0.9000E+01
       25  2    1    2    0    0 0.12331325E+03 -.50990073E+02 0.78528271E+03 0.85144039E+03 0.30079172E+03 0.0000E+00 0.0000E+00
       23  2    1    2    0    0 -.12331325E+03 0.50990073E+02 -.17774475E+03 0.23841944E+03 0.86281452E+02 0.0000E+00 0.0000E+00
       23  1    3    3    0    0 0.67245048E+02 -.54648868E+02 0.70868097E+03 0.71975855E+03 0.91188000E+02 0.0000E+00 0.9000E+01
      -11  1    4    4    0    0 -.67066910E+01 0.41351455E+02 -.45782568E+02 0.62056152E+02 0.51099893E-03 0.0000E+00 0.9000E+01
       11  1    4    4    0    0 -.11660656E+03 0.96386186E+01 -.13196218E+03 0.17636329E+03 0.51099893E-03 0.0000E+00 0.9000E+01
       23  1    3    3    0    0 0.56068200E+02 0.36587946E+01 0.76601736E+02 0.13168184E+03 0.91188000E+02 0.0000E+00 0.9000E+01
#aMCatNLO 1  0  0  2  1 0.12852313D+03 0.00000000D+00  -5  7  0 0.00000000D+00 0.00000000D+00 0.00000000D+00 0.00000000D+00 0.00000000D+00
  <mgrwgt>
 0.9083211919D-04    9    2    0
 0.452408023470563D+03 0.000000000000000D+00 0.000000000000000D+00 0.452408023470563D+03
 0.452408023470563D+03 0.000000000000000D+00 0.000000000000000D+00 -.452408023470563D+03
 0.391113021246557D+03 0.672450481691727D+02 -.546488678533005D+02 0.370331944049777D+03
 0.105487911344681D+03 -.670669095442602D+01 0.413514546262228D+02 -.968131031245278D+02
 0.301037211925835D+03 -.116606556944249D+03 0.963861859449973D+01 -.277368727280632D+03
 0.107177902424054D+03 0.560681997295020D+02 0.365879463257790D+01 0.384988635538194D+01
 0.000000000000000D+00 -.000000000000000D+00 0.000000000000000D+00 -.000000000000000D+00
 0.486915454662467D+03 0.000000000000000D+00 0.000000000000000D+00 0.486915454662467D+03
 0.594755823017901D+03 0.000000000000000D+00 0.000000000000000D+00 -.594755823017901D+03
 0.405159106511037D+03 0.123348717659755D+03 -.589745310522131D+02 0.370331944049777D+03
 0.105145424413387D+03 0.813409354766183D+01 0.402072115500289D+02 -.968131031245278D+02
 0.287439533521175D+03 -.751437156886733D+02 0.644178159310348D+01 -.277368727280632D+03
 0.116154329414699D+03 0.718037219020046D+02 0.244556616115511D+01 0.384988635538194D+01
 0.167772883820070D+03 -.128142817420748D+03 0.987997174792564D+01 -.107840368355434D+03
0.361026829669D-04 0.000000000000D+00 0.000000000000D+00 0.438947243147D-07 0.000000000000D+00  7 -1 1 23 -11 11 23 21 0 0.13056906D+00 0.37101683D-01 0.38376192D+05 0.38376192D+05 0.38376192D+05 0.11575419D+01  1  2  2  2  7  2        1 0.293427312781D-03 0.100000000000D+01
-.297314114936D-06 0.000000000000D+00 -.138643808648D-06 0.438947243147D-07 0.000000000000D+00  7 -1 1 23 -11 11 23 21 2 0.13056906D+00 0.37101683D-01 0.38376192D+05 0.38376192D+05 0.38376192D+05 0.11575419D+01  1  2  3  2  7  2        1 -.323780025059D-05 0.100000000000D+01
0.224355426621D-05 0.000000000000D+00 0.000000000000D+00 0.438947243147D-07 0.000000000000D+00  7 -1 1 23 -11 11 23 21 2 0.13056906D+00 0.37101683D-01 0.38376192D+05 0.38376192D+05 0.38376192D+05 0.11575419D+01  1  2 15  2  7  2        1 0.244326797836D-04 0.100000000000D+01
0.123985350905D-04 0.000000000000D+00 0.000000000000D+00 0.438947243147D-07 0.000000000000D+00  7 -1 1 23 -11 11 23 21 2 0.13056906D+00 0.49855480D-01 0.69010314D+05 0.69010314D+05 0.69010314D+05 0.11351857D+01  1  2 12  2  7  2        1 0.866457747734D-04 0.100000000000D+01
-.443840888230D-04 0.000000000000D+00 0.000000000000D+00 0.438947243147D-07 0.000000000000D+00  7 -1 1 23 -11 11 23 21 2 0.13056906D+00 0.37101683D-01 0.38376192D+05 0.38376192D+05 0.38376192D+05 0.11575419D+01  1  2  4  2  7  2        1 -.483350122628D-03 0.100000000000D+01
-.379531151853D-04 0.000000000000D+00 -.176759356608D-04 0.438947243147D-07 0.000000000000D+00  7 -1 1 23 -11 11 23 21 2 0.13056906D+00 0.51804327D-01 0.38376192D+05 0.38376192D+05 0.38376192D+05 0.11575419D+01  1  2  5  2  7  2        1 -.268581214524D-03 0.100000000000D+01
0.424097348231D-04 0.000000000000D+00 0.167348624589D-04 0.438947243147D-07 0.000000000000D+00  7 -1 1 23 -11 11 23 21 2 0.13056906D+00 0.37101683D-01 0.38376192D+05 0.38376192D+05 0.38376192D+05 0.11575419D+01  1  2  6  2  7  2        1 0.461849078600D-03 0.100000000000D+01
0.474021160139D-06 0.000000000000D+00 0.000000000000D+00 0.438947243147D-07 0.000000000000D+00  7 -1 21 23 -11 11 23 -1 2 0.13056906D+00 0.49855480D-01 0.69010314D+05 0.69010314D+05 0.69010314D+05 0.11351857D+01  1  2 12  4  7  2        1 0.149708515780D-04 0.100000000000D+01
-.111830157612D-05 0.000000000000D+00 -.737951603718D-06 0.438947243147D-07 0.000000000000D+00  7 -1 21 23 -11 11 23 -1 2 0.13056906D+00 0.51804327D-01 0.38376192D+05 0.38376192D+05 0.38376192D+05 0.11575419D+01  1  2  5  4  7  2        1 -.353244409209D-04 0.100000000000D+01
  </mgrwgt>
  </event>
  <event>
  8     66 0.58687835E-06 0.10697572E+04 0.75467711E-02 0.83136639E-01
       -1 -1    0    0    0  501 0.00000000E+00 0.00000000E+00 0.99231670E+03 0.99231675E+03 0.32000000E+00 0.0000E+00 0.9000E+01
        1 -1    0    0  501    0 0.00000000E+00 0.00000000E+00 -.37552548E+04 0.37552548E+04 0.32000000E+00 0.0000E+00 0.9000E+01
       25  2    1    2    0    0 0.14552194E+03 -.10395783E+04 0.58435863E+03 0.12383416E+04 0.30019208E+03 0.0000E+00 0.0000E+00
       23  2    1    2    0    0 -.14552194E+03 0.10395783E+04 -.33472968E+04 0.35092300E+04 0.91651517E+02 0.0000E+00 0.0000E+00
       23  1    3    3    0    0 0.44983167E+02 -.83261053E+03 0.50176649E+03 0.97741937E+03 0.91188000E+02 0.0000E+00 0.9000E+01
      -13  1    4    4    0    0 -.15598177E+03 0.10066475E+04 -.32552301E+04 0.34108932E+04 0.10565837E+00 0.0000E+00 0.9000E+01
       13  1    4    4    0    0 0.10459831E+02 0.32930715E+02 -.92066715E+02 0.98336826E+02 0.10565837E+00 0.0000E+00 0.9000E+01
       23  1    3    3    0    0 0.10053877E+03 -.20696774E+03 0.82592140E+02 0.26092221E+03 0.91188000E+02 0.0000E+00 0.9000E+01
#aMCatNLO 1  0  0  1  1 0.93588408D+03 0.00000000D+00  -5  7  0 0.00000000D+00 0.00000000D+00 0.00000000D+00 0.00000000D+00 0.00000000D+00
  <mgrwgt>
 0.5908461202D-04    4    2    0
 0.193038913739400D+04 0.000000000000000D+00 0.000000000000000D+00 0.193038913739400D+04
 0.193038913739400D+04 0.000000000000000D+00 0.000000000000000D+00 -.193038913739400D+04
 0.156101122340953D+04 0.449831670062245D+02 -.832610525244442D+03 0.131650181017907D+04
 0.186477158071900D+04 -.155981991602786D+03 0.100664884124321D+04 -.156195415328894D+04
 0.550348091618355D+02 0.104600517854132D+02 0.329294210548043D+02 -.428377259564692D+02
 0.379960661497635D+03 0.100538772811149D+03 -.206967737053572D+03 0.288290069066335D+03
 0.000000000000000D+00 0.000000000000000D+00 -.000000000000000D+00 -.000000000000000D+00
 0.234120408789252D+04 0.000000000000000D+00 0.000000000000000D+00 0.234120408789252D+04
 0.260327206131527D+04 0.000000000000000D+00 0.000000000000000D+00 -.260327206131527D+04
 0.142615896501877D+04 -.134074722656779D+03 -.523890346064075D+03 0.131650181017907D+04
 0.214883348168400D+04 -.396566761495913D+03 0.142144973836793D+04 -.156195415328894D+04
 0.622615281795309D+02 0.342903804843045D+01 0.450518459576452D+02 -.428377259564692D+02
 0.335338112629341D+03 0.576621099849507D+02 -.133042533002119D+03 0.288290069066335D+03
 0.971884061696153D+03 0.469550336119311D+03 -.809568705259382D+03 -.262067973422740D+03
0.123228939033D-01 0.000000000000D+00 0.000000000000D+00 0.421330891386D-04 0.000000000000D+00  7 -1 1 23 -13 13 23 21 0 0.15266411D+00 0.57773152D+00 0.11443805D+07 0.11443805D+07 0.11443805D+07 0.10439872D+01  1  2  2  1  7  1       -1 0.676596122265D-04 0.100000000000D+01
-.394568895801D-03 0.000000000000D+00 -.473231572813D-04 0.421330891386D-04 0.000000000000D+00  7 -1 1 23 -13 13 23 21 2 0.15266411D+00 0.57773152D+00 0.11443805D+07 0.11443805D+07 0.11443805D+07 0.10439872D+01  1  2  3  1  7  1       -1 -.236118499472D-05 0.100000000000D+01
0.761383368720D-03 0.000000000000D+00 0.000000000000D+00 0.421330891386D-04 0.000000000000D+00  7 -1 1 23 -13 13 23 21 2 0.15266411D+00 0.57773152D+00 0.11443805D+07 0.11443805D+07 0.11443805D+07 0.10439872D+01  1  2 15  1  7  1       -1 0.455628156346D-05 0.100000000000D+01
-.179975105806D-02 0.000000000000D+00 0.000000000000D+00 0.421330891386D-04 0.000000000000D+00  7 -1 1 23 -13 13 23 21 2 0.15266411D+00 0.57773152D+00 0.11443805D+07 0.11443805D+07 0.11443805D+07 0.10439872D+01  1  2  4  1  7  1       -1 -.107700967759D-04 0.100000000000D+01
  </mgrwgt>
  </event>
  <event>
  8     66 0.58687835E-06 0.19995410E+03 0.75467711E-02 0.94985389E-01
       -1 -1    0    0    0  501 0.00000000E+00 0.00000000E+00 0.47457437E+03 0.47457448E+03 0.32000000E+00 0.0000E+00 0.9000E+01
        1 -1    0    0  501    0 0.00000000E+00 0.00000000E+00 -.76191435E+03 0.76191442E+03 0.32000000E+00 0.0000E+00 0.9000E+01
       25  2    1    2    0    0 0.35063774E+03 -.22483906E+03 0.23290654E+03 0.56389849E+03 0.30039411E+03 0.0000E+00 0.0000E+00
       23  2    1    2    0    0 -.35063774E+03 0.22483906E+03 -.52024652E+03 0.67259041E+03 0.90675191E+02 0.0000E+00 0.0000E+00
       23  1    3    3    0    0 0.30380987E+03 -.22047279E+03 0.24964246E+03 0.45994053E+03 0.91188000E+02 0.0000E+00 0.9000E+01
      -11  1    4    4    0    0 -.11722752E+03 0.60728287E+02 -.10462489E+03 0.16845351E+03 0.51099893E-03 0.0000E+00 0.9000E+01
       11  1    4    4    0    0 -.23341021E+03 0.16411078E+03 -.41562163E+03 0.50413690E+03 0.51099893E-03 0.0000E+00 0.9000E+01
       23  1    3    3    0    0 0.46827869E+02 -.43662729E+01 -.16735918E+02 0.10395795E+03 0.91188000E+02 0.0000E+00 0.9000E+01
#aMCatNLO 1  0  0  2  1 0.61077182D+02 0.00000000D+00  -5  7  0 0.00000000D+00 0.00000000D+00 0.00000000D+00 0.00000000D+00 0.00000000D+00
  <mgrwgt>
 0.1936117407D-03    9    2    0
 0.601319492687822D+03 0.000000000000000D+00 0.000000000000000D+00 0.601319492687822D+03
 0.601319492687822D+03 0.000000000000000D+00 0.000000000000000D+00 -.601319492687822D+03
 0.532531899796629D+03 0.303809866166645D+03 -.220472788975141D+03 0.366560073519110D+03
 0.148197406164795D+03 -.117227522304490D+03 0.607282868765035D+02 -.673220200333332D+02
 0.419024310130507D+03 -.233410212869404D+03 0.164110775032992D+03 -.306869187972135D+03
 0.102885369283714D+03 0.468278690072493D+02 -.436627293435468D+01 0.763113448635846D+01
 0.000000000000000D+00 0.000000000000000D+00 -.000000000000000D+00 -.000000000000000D+00
 0.614735930588407D+03 0.000000000000000D+00 0.000000000000000D+00 0.614735930588407D+03
 0.675867955111014D+03 0.000000000000000D+00 0.000000000000000D+00 -.675867955111014D+03
 0.514169366653091D+03 0.282949876058016D+03 -.204029327305804D+03 0.366560073519110D+03
 0.154973215199105D+03 -.123269490882906D+03 0.654910349990652D+02 -.673220200333332D+02
 0.434033338992583D+03 -.250411027421922D+03 0.177512135291844D+03 -.306869187972135D+03
 0.101012997593624D+03 0.427643237985447D+02 -.116307151704855D+01 0.763113448635846D+01
 0.864149672610181D+02 0.479663184482673D+02 -.378107714680571D+02 -.611320245226068D+02
0.221842538310D-04 0.000000000000D+00 0.000000000000D+00 0.265019212513D-05 0.000000000000D+00  7 -1 1 23 -11 11 23 21 0 0.73011455D-01 0.11721761D+00 0.20532214D+06 0.20532214D+06 0.20532214D+06 0.10969505D+01  1  2  2  2  7  2        1 0.126163209797D-03 0.100000000000D+01
-.111248103680D-05 0.000000000000D+00 -.851933759592D-07 0.265019212513D-05 0.000000000000D+00  7 -1 1 23 -11 11 23 21 2 0.73011455D-01 0.11721761D+00 0.20532214D+06 0.20532214D+06 0.20532214D+06 0.10969505D+01  1  2  3  2  7  2        1 -.761297759288D-05 0.100000000000D+01
0.141097296047D-05 0.000000000000D+00 0.000000000000D+00 0.265019212513D-05 0.000000000000D+00  7 -1 1 23 -11 11 23 21 2 0.73011455D-01 0.11721761D+00 0.20532214D+06 0.20532214D+06 0.20532214D+06 0.10969505D+01  1  2 15  2  7  2        1 0.965563023266D-05 0.100000000000D+01
0.751205898406D-04 0.000000000000D+00 0.000000000000D+00 0.265019212513D-05 0.000000000000D+00  7 -1 1 23 -11 11 23 21 2 0.73011455D-01 0.13295066D+00 0.23468953D+06 0.23468953D+06 0.23468953D+06 0.10925299D+01  1  2 12  2  7  2        1 0.414676888692D-03 0.100000000000D+01
-.763709383823D-04 0.000000000000D+00 0.000000000000D+00 0.265019212513D-05 0.000000000000D+00  7 -1 1 23 -11 11 23 21 2 0.73011455D-01 0.11721761D+00 0.20532214D+06 0.20532214D+06 0.20532214D+06 0.10969505D+01  1  2  4  2  7  2        1 -.522624856890D-03 0.100000000000D+01
-.132795361009D-03 0.000000000000D+00 -.222264056535D-04 0.265019212513D-05 0.000000000000D+00  7 -1 1 23 -11 11 23 21 2 0.73011455D-01 0.13341276D+00 0.20532214D+06 0.20532214D+06 0.20532214D+06 0.10969505D+01  1  2  5  2  7  2        1 -.738849678773D-03 0.100000000000D+01
0.134726838599D-03 0.000000000000D+00 0.220415671951D-04 0.265019212513D-05 0.000000000000D+00  7 -1 1 23 -11 11 23 21 2 0.73011455D-01 0.11721761D+00 0.20532214D+06 0.20532214D+06 0.20532214D+06 0.10969505D+01  1  2  6  2  7  2        1 0.921968437651D-03 0.100000000000D+01
0.148423960749D-05 0.000000000000D+00 0.000000000000D+00 0.265019212513D-05 0.000000000000D+00  7 -1 21 23 -11 11 23 -1 2 0.73011455D-01 0.13295066D+00 0.23468953D+06 0.23468953D+06 0.23468953D+06 0.10925299D+01  1  2 12  4  7  2        1 0.131250858797D-04 0.100000000000D+01
-.256575090197D-05 0.000000000000D+00 -.449199264258D-06 0.265019212513D-05 0.000000000000D+00  7 -1 21 23 -11 11 23 -1 2 0.73011455D-01 0.13341276D+00 0.20532214D+06 0.20532214D+06 0.20532214D+06 0.10969505D+01  1  2  5  4  7  2        1 -.228899983381D-04 0.100000000000D+01
  </mgrwgt>
  </event>
  <event>
  8     66 0.58687835E-06 0.20058271E+03 0.75467711E-02 0.97456153E-01
       -1 -1    0    0    0  501 0.00000000E+00 0.00000000E+00 0.11237880E+03 0.11237926E+03 0.32000000E+00 0.0000E+00 0.9000E+01
        1 -1    0    0  501    0 0.00000000E+00 0.00000000E+00 -.98262933E+03 0.98262939E+03 0.32000000E+00 0.0000E+00 0.9000E+01
       25  2    1    2    0    0 -.24033249E+03 -.80543929E+02 -.47473742E+03 0.61603942E+03 0.29980313E+03 0.0000E+00 0.0000E+00
       23  2    1    2    0    0 0.24033249E+03 0.80543929E+02 -.39551312E+03 0.47896922E+03 0.93455131E+02 0.0000E+00 0.0000E+00
       23  1    3    3    0    0 -.17103814E+03 0.48359521E+02 -.35077668E+03 0.40367340E+03 0.91188000E+02 0.0000E+00 0.9000E+01
      -11  1    4    4    0    0 0.17399161E+03 0.36156944E+02 -.33349234E+03 0.37788563E+03 0.51099893E-03 0.0000E+00 0.9000E+01
       11  1    4    4    0    0 0.66340883E+02 0.44386985E+02 -.62020772E+02 0.10108360E+03 0.51099893E-03 0.0000E+00 0.9000E+01
       23  1    3    3    0    0 -.69294351E+02 -.12890345E+03 -.12396074E+03 0.21236601E+03 0.91188000E+02 0.0000E+00 0.9000E+01
#aMCatNLO 1  0  0  1  2 0.14118825D+03 0.00000000D+00  -5  7  0 0.00000000D+00 0.00000000D+00 0.00000000D+00 0.00000000D+00 0.00000000D+00
  <mgrwgt>
 0.1015656939D-03    7    2    0
 0.332305557835346D+03 0.000000000000000D+00 0.000000000000000D+00 0.332305557835346D+03
 0.332305557835346D+03 0.000000000000000D+00 0.000000000000000D+00 -.332305557835346D+03
 0.205777895966668D+03 -.171038143158199D+03 0.483595211153839D+02 -.493619431035193D+02
 0.185922468642988D+03 0.173991610793010D+03 0.361569443609518D+02 -.546512497060718D+02
 0.853338137708211D+02 0.663408832338314D+02 0.443869848060339D+02 0.301751978329429D+02
 0.187576937290216D+03 -.692943508686430D+02 -.128903450282370D+03 0.738379949766482D+02
 0.000000000000000D+00 -.000000000000000D+00 -.000000000000000D+00 0.000000000000000D+00
 0.751472346070110D+03 0.000000000000000D+00 0.000000000000000D+00 0.751472346070110D+03
 0.351824489671918D+03 0.000000000000000D+00 0.000000000000000D+00 -.351824489671918D+03
 0.207243021238338D+03 -.155816885971633D+03 0.889882864603100D+02 -.493619431035193D+02
 0.210231838283258D+03 0.188591274732783D+03 0.751265454296049D+02 -.546512497060718D+02
 0.101012564297868D+03 0.732083953336134D+02 0.627178318698200D+02 0.301751978329429D+02
 0.160955036785171D+03 -.564497355134610D+02 -.946184463030575D+02 0.738379949766482D+02
 0.423854375137392D+03 -.495330485813022D+02 -.132214217456677D+03 0.399647856398192D+03
0.286726342266D-05 0.000000000000D+00 0.000000000000D+00 0.136898494591D-06 0.000000000000D+00  7 -1 1 23 -11 11 23 21 0 0.17289085D-01 0.15117378D+00 0.99140529D+05 0.99140529D+05 0.99140529D+05 0.11220298D+01  1  2  2  1  7  1       -1 0.133073729001D-03 0.100000000000D+01
-.158729572808D-06 0.000000000000D+00 -.110110465108D-07 0.136898494591D-06 0.000000000000D+00  7 -1 1 23 -11 11 23 21 2 0.17289085D-01 0.15117378D+00 0.99140529D+05 0.99140529D+05 0.99140529D+05 0.11220298D+01  1  2  3  1  7  1       -1 -.927451836920D-05 0.100000000000D+01
0.187269185044D-06 0.000000000000D+00 0.000000000000D+00 0.136898494591D-06 0.000000000000D+00  7 -1 1 23 -11 11 23 21 2 0.17289085D-01 0.15117378D+00 0.99140529D+05 0.99140529D+05 0.99140529D+05 0.11220298D+01  1  2 15  1  7  1       -1 0.109420788196D-04 0.100000000000D+01
0.539683223835D-05 0.000000000000D+00 0.000000000000D+00 0.136898494591D-06 0.000000000000D+00  7 -1 1 23 -11 11 23 21 2 0.38943133D-01 0.15117378D+00 0.15401318D+06 0.15401318D+06 0.15401318D+06 0.11066482D+01  1  2 12  1  7  1       -1 0.795209409628D-04 0.100000000000D+01
-.694293013571D-05 0.000000000000D+00 -.909343530595D-06 0.136898494591D-06 0.000000000000D+00  7 -1 1 23 -11 11 23 21 2 0.40662566D-01 0.15117378D+00 0.99140529D+05 0.99140529D+05 0.99140529D+05 0.11220298D+01  1  2  5  1  7  1       -1 -.988927575931D-04 0.100000000000D+01
0.475927515547D-06 0.000000000000D+00 0.000000000000D+00 0.136898494591D-06 0.000000000000D+00  7 21 1 23 -11 11 23 1 2 0.38943133D-01 0.15117378D+00 0.15401318D+06 0.15401318D+06 0.15401318D+06 0.11066482D+01  1  2 12  3  7  1       -1 0.697944068114D-04 0.100000000000D+01
-.590519656099D-06 0.000000000000D+00 -.848603159038D-07 0.136898494591D-06 0.000000000000D+00  7 21 1 23 -11 11 23 1 2 0.40662566D-01 0.15117378D+00 0.99140529D+05 0.99140529D+05 0.99140529D+05 0.11220298D+01  1  2  5  3  7  1       -1 -.835981857389D-04 0.100000000000D+01
  </mgrwgt>
  </event>
  <event>
  8     66 0.58687835E-06 0.35991965E+03 0.75467711E-02 0.82829620E-01
       -3 -1    0    0    0  501 0.00000000E+00 0.00000000E+00 0.25246849E+03 0.25246899E+03 0.50000000E+00 0.0000E+00 0.9000E+01
        3 -1    0    0  501    0 0.00000000E+00 0.00000000E+00 -.71480337E+03 0.71480355E+03 0.50000000E+00 0.0000E+00 0.9000E+01
       25  2    1    2    0    0 -.28449089E+03 -.17403550E+03 -.42810354E+03 0.62029330E+03 0.30044586E+03 0.0000E+00 0.0000E+00
       23  2    1    2    0    0 0.28449089E+03 0.17403550E+03 -.34231341E+02 0.34697924E+03 0.89439290E+02 0.0000E+00 0.0000E+00
       23  1    3    3    0    0 -.85505483E+02 -.65565506E+02 -.32652268E+03 0.35572789E+03 0.91188000E+02 0.0000E+00 0.9000E+01
      -13  1    4    4    0    0 0.55343274E+02 0.22895583E+02 0.27052279E+02 0.65718510E+02 0.10565837E+00 0.0000E+00 0.9000E+01
       13  1    4    4    0    0 0.22914761E+03 0.15113992E+03 -.61283620E+02 0.28126073E+03 0.10565837E+00 0.0000E+00 0.9000E+01
       23  1    3    3    0    0 -.19898540E+03 -.10847000E+03 -.10158086E+03 0.26456540E+03 0.91188000E+02 0.0000E+00 0.9000E+01
#aMCatNLO 1  0  0  1  2 0.15631397D+04 0.00000000D+00  -5  7  0 0.00000000D+00 0.00000000D+00 0.00000000D+00 0.00000000D+00 0.00000000D+00
  <mgrwgt>
 0.1917922924D-04    5    2    0
 0.424812492256434D+03 0.000000000000000D+00 0.000000000000000D+00 0.424812492256434D+03
 0.424812492256434D+03 0.000000000000000D+00 0.000000000000000D+00 -.424812492256434D+03
 0.227303810947899D+03 -.855054834208116D+02 -.655655056840480D+02 -.178162139347300D+03
 0.895391372682420D+02 0.553430311398366D+02 0.228954036845510D+02 0.665597964023148D+02
 0.286858860861348D+03 0.229147855047802D+03 0.151140098272292D+03 0.832822746801724D+02
 0.245923175435379D+03 -.198985402766827D+03 -.108469996272795D+03 0.283200682648128D+02
 0.000000000000000D+00 -.000000000000000D+00 0.000000000000000D+00 0.000000000000000D+00
 0.323122303984111D+04 0.000000000000000D+00 0.000000000000000D+00 0.323122303984111D+04
 0.115042226639067D+04 0.000000000000000D+00 0.000000000000000D+00 -.115042226639067D+04
 0.477425767103346D+03 0.167049493846721D+03 -.399966036631819D+03 -.178162139347300D+03
 0.215246554115909D+03 0.164569528446575D+03 -.121728151503780D+03 0.665597964023148D+02
 0.632870338542027D+03 0.558752563409730D+03 -.285279689100806D+03 0.832822746801724D+02
 0.453577425902132D+03 0.516956584111871D+02 -.440389330682425D+03 0.283200682648128D+02
 0.260252522056837D+04 -.942067244114213D+03 0.124736320791883D+04 0.208080077345044D+04
0.959087579971D-05 0.000000000000D+00 0.000000000000D+00 0.294303917162D-06 0.000000000000D+00  7 -3 3 23 -13 13 23 21 0 0.38841358D-01 0.10996980D+00 0.12954216D+06 0.12954216D+06 0.12954216D+06 0.11126125D+01  1  2  2  1  7  1       -3 0.188828287035D-04 0.100000000000D+01
-.515024642246D-06 0.000000000000D+00 -.368314884065D-07 0.294303917162D-06 0.000000000000D+00  7 -3 3 23 -13 13 23 21 2 0.38841358D-01 0.10996980D+00 0.12954216D+06 0.12954216D+06 0.12954216D+06 0.11126125D+01  1  2  3  1  7  1       -3 -.125523390957D-05 0.100000000000D+01
0.626121261852D-06 0.000000000000D+00 0.000000000000D+00 0.294303917162D-06 0.000000000000D+00  7 -3 3 23 -13 13 23 21 2 0.38841358D-01 0.10996980D+00 0.12954216D+06 0.12954216D+06 0.12954216D+06 0.11126125D+01  1  2 15  1  7  1       -3 0.152600201021D-05 0.100000000000D+01
0.175258348370D-04 0.000000000000D+00 -.831425552957D-05 0.294303917162D-06 0.000000000000D+00  7 -3 3 23 -13 13 23 21 2 0.47873683D+00 0.10996980D+00 0.12954216D+06 0.12954216D+06 0.12954216D+06 0.11126125D+01  1  2  5  1  7  1       -3 0.574633710269D-10 0.100000000000D+01
0.349792814889D-05 0.000000000000D+00 -.242178708013D-05 0.294303917162D-06 0.000000000000D+00  7 21 3 23 -13 13 23 3 2 0.47873683D+00 0.10996980D+00 0.12954216D+06 0.12954216D+06 0.12954216D+06 0.11126125D+01  1  2  5  3  7  1       -3 0.255749756456D-07 0.100000000000D+01
  </mgrwgt>
  </event>
  <event>
  7     66 0.58687835E-06 0.16275837E+03 0.75467711E-02 0.10065988E+00
       -1 -1    0    0    0  501 0.00000000E+00 0.00000000E+00 0.23573868E+03 0.23573890E+03 0.32000000E+00 0.0000E+00 0.9000E+01
        1 -1    0    0  501    0 0.00000000E+00 0.00000000E+00 -.97366173E+03 0.97366179E+03 0.32000000E+00 0.0000E+00 0.9000E+01
       23  2    1    2    0    0 -.17638643E+03 0.80297250E+02 -.76666225E+03 0.79583828E+03 0.89597665E+02 0.0000E+00 0.0000E+00
       23  1    1    2    0    0 0.12199529E+03 0.10969996E+03 0.51726893E+02 0.19469939E+03 0.91188000E+02 0.0000E+00 0.9000E+01
      -13  1    3    3    0    0 -.46970765E+02 0.97745083E+01 -.36212721E+03 0.36529156E+03 0.10565837E+00 0.0000E+00 0.9000E+01
       13  1    3    3    0    0 -.12941567E+03 0.70522742E+02 -.40453504E+03 0.43054672E+03 0.10565837E+00 0.0000E+00 0.9000E+01
       23  1    1    2    0    0 0.54391146E+02 -.18999721E+03 -.22987699E+02 0.21886302E+03 0.91188000E+02 0.0000E+00 0.9000E+01
#aMCatNLO 1  0  0  2  1 0.71081131D+01 0.00000000D+00  -5  7  0 0.00000000D+00 0.00000000D+00 0.00000000D+00 0.00000000D+00 0.00000000D+00
  <mgrwgt>
 0.8008950245D-03   11    2    0
 0.479092784539329D+03 0.000000000000000D+00 0.000000000000000D+00 0.479092784539329D+03
 0.479092784539329D+03 0.000000000000000D+00 0.000000000000000D+00 -.479092784539329D+03
 0.285581076878224D+03 0.121995238347994D+03 0.109698722927018D+03 0.215231624385273D+03
 0.182179852070152D+03 -.469708049218875D+02 0.977449428479550D+01 -.175748972249538D+03
 0.231884373803154D+03 -.129415977743397D+03 0.705229162707456D+02 -.179020629536014D+03
 0.258540266327129D+03 0.543915443172905D+02 -.189996133482559D+03 0.139537977400278D+03
 0.000000000000000D+00 -.000000000000000D+00 0.000000000000000D+00 -.000000000000000D+00
 0.480252198830220D+03 0.000000000000000D+00 0.000000000000000D+00 0.480252198830220D+03
 0.490125829235452D+03 0.000000000000000D+00 0.000000000000000D+00 -.490125829235452D+03
 0.286315700524510D+03 0.124074814710032D+03 0.109280452240959D+03 0.215231624385273D+03
 0.181828964344369D+03 -.456471672304371D+02 0.950826754005909D+01 -.175748972249538D+03
 0.230846397216049D+03 -.127733359460829D+03 0.701844868116154D+02 -.179020629536014D+03
 0.259220871707940D+03 0.562742683793665D+02 -.190374810745621D+03 0.139537977400278D+03
 0.121660942728040D+02 -.696855639813248D+01 0.140160415298699D+01 -.987363040523249D+01
0.164114206572D-04 0.000000000000D+00 0.000000000000D+00 0.105310373360D-09 0.000000000000D+00  7 -1 1 23 -13 13 23 21 0 0.36267510D-01 0.14979413D+00 0.90214344D+05 0.90214344D+05 0.90214344D+05 0.11254108D+01  1  2  2  2  7  2        1 0.230278314850D-03 0.100000000000D+01
-.670063406787D-06 0.000000000000D+00 -.630241765500D-07 0.105310373360D-09 0.000000000000D+00  7 -1 1 23 -13 13 23 21 2 0.36267510D-01 0.14979413D+00 0.90214344D+05 0.90214344D+05 0.90214344D+05 0.11254108D+01  1  2  3  2  7  2        1 -.119081667386D-04 0.100000000000D+01
0.102516125891D-05 0.000000000000D+00 0.000000000000D+00 0.105310373360D-09 0.000000000000D+00  7 -1 1 23 -13 13 23 21 2 0.36267510D-01 0.14979413D+00 0.90214344D+05 0.90214344D+05 0.90214344D+05 0.11254108D+01  1  2 15  2  7  2        1 0.182188597100D-04 0.100000000000D+01
0.419515404147D-04 0.000000000000D+00 0.000000000000D+00 0.105310373360D-09 0.000000000000D+00  7 -1 1 23 -13 13 23 21 2 0.36267510D-01 0.15342263D+00 0.92038625D+05 0.92038625D+05 0.92038625D+05 0.11246908D+01  1  2 12  2  7  2        1 0.714163284799D-03 0.100000000000D+01
-.586169059701D-04 0.000000000000D+00 0.000000000000D+00 0.105310373360D-09 0.000000000000D+00  7 -1 1 23 -13 13 23 21 2 0.36267510D-01 0.14979413D+00 0.90214344D+05 0.90214344D+05 0.90214344D+05 0.11254108D+01  1  2  4  2  7  2        1 -.104172214588D-02 0.100000000000D+01
-.889925686893D-03 0.000000000000D+00 -.805647276357D-04 0.105310373360D-09 0.000000000000D+00  7 -1 1 23 -13 13 23 21 2 0.36267510D-01 0.15342558D+00 0.90214344D+05 0.90214344D+05 0.90214344D+05 0.11254108D+01  1  2  5  2  7  2        1 -.151773482393D-01 0.100000000000D+01
0.891622808310D-03 0.000000000000D+00 0.805416199493D-04 0.105310373360D-09 0.000000000000D+00  7 -1 1 23 -13 13 23 21 2 0.36267510D-01 0.14979413D+00 0.90214344D+05 0.90214344D+05 0.90214344D+05 0.11254108D+01  1  2  6  2  7  2        1 0.158456542496D-01 0.100000000000D+01
0.158788975931D-04 0.000000000000D+00 0.000000000000D+00 0.105310373360D-09 0.140655505218D-10  7 -1 1 23 -13 13 23 21 2 0.36355278D-01 0.15324375D+00 0.92038625D+05 0.92038625D+05 0.92038625D+05 0.11246908D+01  1  2 11  2  7  2        1 0.269746414212D-03 0.100000000000D+01
0.183965253480D-05 0.000000000000D+00 0.000000000000D+00 0.105310373360D-09 0.000000000000D+00  7 -1 21 23 -13 13 23 -1 2 0.36267510D-01 0.15342263D+00 0.92038625D+05 0.92038625D+05 0.92038625D+05 0.11246908D+01  1  2 12  4  7  2        1 0.437276313193D-04 0.100000000000D+01
-.384030897999D-05 0.000000000000D+00 -.349184862454D-06 0.105310373360D-09 0.000000000000D+00  7 -1 21 23 -13 13 23 -1 2 0.36267510D-01 0.15342558D+00 0.90214344D+05 0.90214344D+05 0.90214344D+05 0.11254108D+01  1  2  5  4  7  2        1 -.915240963412D-04 0.100000000000D+01
0.677333784849D-07 0.000000000000D+00 0.000000000000D+00 0.105310373360D-09 0.579925863658D-13  7 -1 21 23 -13 13 23 -1 2 0.36355278D-01 0.15324375D+00 0.92038625D+05 0.92038625D+05 0.92038625D+05 0.11246908D+01  1  2 11  4  7  2        1 0.160891823403D-05 0.100000000000D+01
  </mgrwgt>
  </event>
  <event>
  9     66 0.58687835E-06 0.40718912E+03 0.75467711E-02 0.94456191E-01
       -1 -1    0    0    0  502 0.00000000E+00 0.00000000E+00 0.18932164E+03 0.18932191E+03 0.32000000E+00 0.0000E+00 0.9000E+01
        1 -1    0    0  501    0 0.00000000E+00 0.00000000E+00 -.14555965E+04 0.14555965E+04 0.32000000E+00 0.0000E+00 0.9000E+01
       25  2    1    2    0    0 0.27353433E+03 0.11114460E+03 -.54906327E+03 0.69206860E+03 0.30052342E+03 0.0000E+00 0.0000E+00
       23  2    1    2    0    0 -.32059454E+03 -.28816425E+03 -.45614478E+03 0.63393439E+03 0.89360239E+02 0.0000E+00 0.0000E+00
       23  1    3    3    0    0 0.21026863E+03 0.15101612E+03 -.48646643E+03 0.55855492E+03 0.91188000E+02 0.0000E+00 0.9000E+01
      -11  1    4    4    0    0 0.21648864E+01 0.37483617E+01 -.89366902E+01 0.99298228E+01 0.51099893E-03 0.0000E+00 0.9000E+01
       11  1    4    4    0    0 -.32275943E+03 -.29191261E+03 -.44720809E+03 0.62400457E+03 0.51099893E-03 0.0000E+00 0.9000E+01
       23  1    3    3    0    0 0.63265697E+02 -.39871521E+02 -.62596845E+02 0.13351368E+03 0.91188000E+02 0.0000E+00 0.9000E+01
       21  1    1    2  501  502 0.47060213E+02 0.17701966E+03 -.26106676E+03 0.31891541E+03 0.75000000E+00 0.0000E+00 0.9000E+01
#aMCatNLO 2  0  0  1  1 0.18316829D+03 0.00000000D+00  -5  7  0 0.00000000D+00 0.00000000D+00 0.00000000D+00 0.00000000D+00 0.00000000D+00
  <mgrwgt>
 0.4957944235D-04    1    2    0
 0.422578421240917D+03 0.000000000000000D+00 0.000000000000000D+00 0.422578421240917D+03
 0.422578421240917D+03 0.000000000000000D+00 0.000000000000000D+00 -.422578421240917D+03
 0.341088924686241D+03 0.227664606609081D+03 0.216452054575429D+03 -.966630134395998D+02
 0.585590178695758D+01 0.245919846600587D+01 0.485543312819783D+01 -.216071695992006D+01
 0.368016132724334D+03 -.300604481574908D+03 -.208575522297905D+03 0.396115021251620D+02
 0.130195883284302D+03 0.704806764998208D+02 -.127319654057221D+02 0.592122282743578D+02
 0.000000000000000D+00 0.000000000000000D+00 0.000000000000000D+00 -.000000000000000D+00
 0.510360465463400D+03 0.000000000000000D+00 0.000000000000000D+00 0.510360465463400D+03
 0.539962207108723D+03 0.000000000000000D+00 0.000000000000000D+00 -.539962207108723D+03
 0.290994425847993D+03 0.210268634009043D+03 0.151016118064762D+03 -.966630134395998D+02
 0.483793821679117D+01 0.216488641437981D+01 0.374836167164215D+01 -.216071695992006D+01
 0.436984776523379D+03 -.322759429570996D+03 -.291912614382423D+03 0.396115021251620D+02
 0.131960698281031D+03 0.632656965355871D+02 -.398715213086955D+02 0.592122282743578D+02
 0.185544833702928D+03 0.470602126119858D+02 0.177019655954714D+03 -.296017416453234D+02
0.465613558164D-05 0.000000000000D+00 0.000000000000D+00 0.241741157122D-06 0.490517087638D-10  7 -1 1 23 -11 11 23 21 2 0.29126388D-01 0.22393761D+00 0.25759853D+06 0.25759853D+06 0.25759853D+06 0.10894822D+01  1  2  1  1  7  1       -1 0.495794423545D-04 0.100000000000D+01
  </mgrwgt>
  </event>
  <event>
  8     66 0.58687835E-06 0.10135185E+03 0.75467711E-02 0.10429515E+00
       -3 -1    0    0    0  501 0.00000000E+00 0.00000000E+00 0.21136705E+03 0.21136764E+03 0.50000000E+00 0.0000E+00 0.9000E+01
        3 -1    0    0  501    0 0.00000000E+00 0.00000000E+00 -.37293073E+03 0.37293106E+03 0.50000000E+00 0.0000E+00 0.9000E+01
       25  2    1    2    0    0 -.37696754E+02 -.92308658E+02 0.62416416E+02 0.32218898E+03 0.29994665E+03 0.0000E+00 0.0000E+00
       23  2    1    2    0    0 0.37696754E+02 0.92308658E+02 -.22398010E+03 0.26210972E+03 0.92695676E+02 0.0000E+00 0.0000E+00
       23  1    3    3    0    0 -.39747621E+02 0.72505881E+02 0.51710799E+02 0.13351492E+03 0.91188000E+02 0.0000E+00 0.9000E+01
      -11  1    4    4    0    0 0.50881534E+01 -.11570855E+01 0.81933426E+01 0.97138569E+01 0.51099893E-03 0.0000E+00 0.9000E+01
       11  1    4    4    0    0 0.32608600E+02 0.93465744E+02 -.23217344E+03 0.25239587E+03 0.51099893E-03 0.0000E+00 0.9000E+01
       23  1    3    3    0    0 0.20508678E+01 -.16481454E+03 0.10705617E+02 0.18867406E+03 0.91188000E+02 0.0000E+00 0.9000E+01
#aMCatNLO 1  0  0  2  1 0.41911065D+02 0.00000000D+00  -5  7  0 0.00000000D+00 0.00000000D+00 0.00000000D+00 0.00000000D+00 0.00000000D+00
  <mgrwgt>
 0.3274509412D-04    9    2    0
 0.280758860035567D+03 0.000000000000000D+00 0.000000000000000D+00 0.280758860035567D+03
 0.280758860035567D+03 0.000000000000000D+00 0.000000000000000D+00 -.280758860035567D+03
 0.153810253032138D+03 -.397476212835170D+02 0.725058813147736D+02 0.922245432131834D+02
 0.124653956880905D+02 0.508815341443012D+01 -.115708552567405D+01 0.113206862679859D+02
 0.195833144220761D+03 0.326086001051462D+02 0.934657437620005D+02 -.168971755975926D+03
 0.199408927130145D+03 0.205086776394065D+01 -.164814539551100D+03 0.654265264947570D+02
 0.000000000000000D+00 0.000000000000000D+00 -.000000000000000D+00 -.000000000000000D+00
 0.288162412554895D+03 0.000000000000000D+00 0.000000000000000D+00 0.288162412554895D+03
 0.347848375520904D+03 0.000000000000000D+00 0.000000000000000D+00 -.347848375520904D+03
 0.159749045462357D+03 -.493762576278603D+02 0.791272708610692D+02 0.922245432131834D+02
 0.121382095875865D+02 0.433263709232870D+01 -.637534501176484D+00 0.113206862679859D+02
 0.198325328167105D+03 0.205049609820625D+02 0.101789135226338D+03 -.168971755975926D+03
 0.192867062408508D+03 -.999496493188492D+01 -.156530900223977D+03 0.654265264947570D+02
 0.729311424502426D+02 0.345336244853540D+02 -.237479713622540D+02 -.596859629660082D+02
0.229360147411D-05 0.000000000000D+00 0.000000000000D+00 0.428711335705D-06 0.000000000000D+00  7 -3 3 23 -11 11 23 21 0 0.32518078D-01 0.57374030D-01 0.43196067D+05 0.43196067D+05 0.43196067D+05 0.11529254D+01  1  2  2  2  7  2        3 0.270779311076D-04 0.100000000000D+01
-.113409653579D-06 0.000000000000D+00 -.880803357973D-08 0.428711335705D-06 0.000000000000D+00  7 -3 3 23 -11 11 23 21 2 0.32518078D-01 0.57374030D-01 0.43196067D+05 0.43196067D+05 0.43196067D+05 0.11529254D+01  1  2  3  2  7  2        3 -.177971281805D-05 0.100000000000D+01
0.144139890917D-06 0.000000000000D+00 0.000000000000D+00 0.428711335705D-06 0.000000000000D+00  7 -3 3 23 -11 11 23 21 2 0.32518078D-01 0.57374030D-01 0.43196067D+05 0.43196067D+05 0.43196067D+05 0.11529254D+01  1  2 15  2  7  2        3 0.226195569214D-05 0.100000000000D+01
0.701229879804D-05 0.000000000000D+00 0.000000000000D+00 0.428711335705D-06 0.000000000000D+00  7 -3 3 23 -11 11 23 21 2 0.32518078D-01 0.71715504D-01 0.53359642D+05 0.53359642D+05 0.53359642D+05 0.11448194D+01  1  2 12  2  7  2        3 0.681979862463D-04 0.100000000000D+01
-.716394570171D-05 0.000000000000D+00 0.000000000000D+00 0.428711335705D-06 0.000000000000D+00  7 -3 3 23 -11 11 23 21 2 0.32518078D-01 0.57374030D-01 0.43196067D+05 0.43196067D+05 0.43196067D+05 0.11529254D+01  1  2  4  2  7  2        3 -.112422228539D-03 0.100000000000D+01
-.920446799907D-05 0.000000000000D+00 -.147162059772D-05 0.428711335705D-06 0.000000000000D+00  7 -3 3 23 -11 11 23 21 2 0.32518078D-01 0.72267705D-01 0.43196067D+05 0.43196067D+05 0.43196067D+05 0.11529254D+01  1  2  5  2  7  2        3 -.890947083439D-04 0.100000000000D+01
0.933278966678D-05 0.000000000000D+00 0.143328117709D-05 0.428711335705D-06 0.000000000000D+00  7 -3 3 23 -11 11 23 21 2 0.32518078D-01 0.57374030D-01 0.43196067D+05 0.43196067D+05 0.43196067D+05 0.11529254D+01  1  2  6  2  7  2        3 0.146457421163D-03 0.100000000000D+01
0.218044568587D-06 0.000000000000D+00 0.000000000000D+00 0.428711335705D-06 0.000000000000D+00  7 -3 21 23 -11 11 23 -3 2 0.32518078D-01 0.71715504D-01 0.53359642D+05 0.53359642D+05 0.53359642D+05 0.11448194D+01  1  2 12  4  7  2        3 0.316060005209D-04 0.100000000000D+01
-.271946806234D-06 0.000000000000D+00 -.469335163220D-07 0.428711335705D-06 0.000000000000D+00  7 -3 21 23 -11 11 23 -3 2 0.32518078D-01 0.72267705D-01 0.43196067D+05 0.43196067D+05 0.43196067D+05 0.11529254D+01  1  2  5  4  7  2        3 -.395595509049D-04 0.100000000000D+01
  </mgrwgt>
  </event>
  <event>
  8     66 0.58687835E-06 0.35435594E+03 0.75467711E-02 0.94584047E-01
       -1 -1    0    0    0  501 0.00000000E+00 0.00000000E+00 0.99918869E+02 0.99919381E+02 0.32000000E+00 0.0000E+00 0.9000E+01
        1 -1    0    0  501    0 0.00000000E+00 0.00000000E+00 -.31568910E+04 0.31568910E+04 0.32000000E+00 0.0000E+00 0.9000E+01
       25  2    1    2    0    0 -.52894006E+02 0.46647425E+03 -.22550337E+04 0.23231417E+04 0.30234829E+03 0.0000E+00 0.0000E+00
       23  2    1    2    0    0 0.52894006E+02 -.46647425E+03 -.80193846E+03 0.93366870E+03 0.90752138E+02 0.0000E+00 0.0000E+00
       23  1    3    3    0    0 -.43607148E+02 0.11800587E+03 -.33093815E+03 0.36559852E+03 0.91188000E+02 0.0000E+00 0.9000E+01
      -13  1    4    4    0    0 -.79022833E+01 -.17317202E+03 -.22967828E+03 0.28775531E+03 0.10565837E+00 0.0000E+00 0.9000E+01
       13  1    4    4    0    0 0.60796289E+02 -.29330223E+03 -.57226018E+03 0.64591339E+03 0.10565837E+00 0.0000E+00 0.9000E+01
       23  1    3    3    0    0 -.92868585E+01 0.34846837E+03 -.19240955E+04 0.19575432E+04 0.91188000E+02 0.0000E+00 0.9000E+01
#aMCatNLO 1  0  0  2  1 0.15238414D+02 0.00000000D+00  -5  7  0 0.00000000D+00 0.00000000D+00 0.00000000D+00 0.00000000D+00 0.00000000D+00
  <mgrwgt>
 0.3484806071D-03    9    2    0
 0.561634971212612D+03 0.000000000000000D+00 0.000000000000000D+00 0.561634971212612D+03
 0.561634971212612D+03 0.000000000000000D+00 0.000000000000000D+00 -.561634971212612D+03
 0.159370747284026D+03 -.436071476661712D+02 0.118005873625359D+03 0.354515755391113D+02
 0.209249984079787D+03 -.790237640689647D+01 -.173171855445022D+03 0.117194781309762D+03
 0.315359809234703D+03 0.607963825699681D+02 -.293302391800211D+03 0.986372957416713D+02
 0.439289401826708D+03 -.928685849690035D+01 0.348468373619874D+03 -.251283652590545D+03
 0.000000000000000D+00 0.000000000000000D+00 0.000000000000000D+00 -.000000000000000D+00
 0.563963511734417D+03 0.000000000000000D+00 0.000000000000000D+00 0.563963511734417D+03
 0.587183290230928D+03 0.000000000000000D+00 0.000000000000000D+00 -.587183290230928D+03
 0.158663490006102D+03 -.451243437552543D+02 0.116472447855142D+03 0.354515755391113D+02
 0.211014637896158D+03 -.990726696922982D+01 -.175198192631671D+03 0.117194781309762D+03
 0.317637225805603D+03 0.577766428270164D+02 -.296354434166066D+03 0.986372957416713D+02
 0.436057947030994D+03 -.134627408974627D+02 0.344247821159652D+03 -.251283652590545D+03
 0.277735012264869D+02 0.107177087949304D+02 0.108323577829432D+02 -.232197784965114D+02
0.449057571630D-04 0.000000000000D+00 0.000000000000D+00 0.102909938407D-06 0.000000000000D+00  7 -1 1 23 -13 13 23 21 0 0.15372174D-01 0.48567558D+00 0.24432682D+06 0.24432682D+06 0.24432682D+06 0.10912099D+01  1  2  2  2  7  2        1 0.763541991053D-04 0.100000000000D+01
-.244528353536D-05 0.000000000000D+00 -.172449931463D-06 0.102909938407D-06 0.000000000000D+00  7 -1 1 23 -13 13 23 21 2 0.15372174D-01 0.48567558D+00 0.24432682D+06 0.24432682D+06 0.24432682D+06 0.10912099D+01  1  2  3  2  7  2        1 -.495081484768D-05 0.100000000000D+01
0.288056457080D-05 0.000000000000D+00 0.000000000000D+00 0.102909938407D-06 0.000000000000D+00  7 -1 1 23 -13 13 23 21 2 0.15372174D-01 0.48567558D+00 0.24432682D+06 0.24432682D+06 0.24432682D+06 0.10912099D+01  1  2 15  2  7  2        1 0.583210152956D-05 0.100000000000D+01
0.195393679900D-03 0.000000000000D+00 0.000000000000D+00 0.102909938407D-06 0.000000000000D+00  7 -1 1 23 -13 13 23 21 2 0.15372174D-01 0.50874902D+00 0.25184211D+06 0.25184211D+06 0.25184211D+06 0.10902193D+01  1  2 12  2  7  2        1 0.301572648455D-03 0.100000000000D+01
-.199046583322D-03 0.000000000000D+00 0.000000000000D+00 0.102909938407D-06 0.000000000000D+00  7 -1 1 23 -13 13 23 21 2 0.15372174D-01 0.48567558D+00 0.24432682D+06 0.24432682D+06 0.24432682D+06 0.10912099D+01  1  2  4  2  7  2        1 -.402997348095D-03 0.100000000000D+01
-.788463210677D-03 0.000000000000D+00 -.709870640305D-04 0.102909938407D-06 0.000000000000D+00  7 -1 1 23 -13 13 23 21 2 0.15372174D-01 0.50829368D+00 0.24432682D+06 0.24432682D+06 0.24432682D+06 0.10912099D+01  1  2  5  2  7  2        1 -.122800475524D-02 0.100000000000D+01
0.790948374940D-03 0.000000000000D+00 0.709135871627D-04 0.102909938407D-06 0.000000000000D+00  7 -1 1 23 -13 13 23 21 2 0.15372174D-01 0.48567558D+00 0.24432682D+06 0.24432682D+06 0.24432682D+06 0.10912099D+01  1  2  6  2  7  2        1 0.160138442097D-02 0.100000000000D+01
0.353446716780D-05 0.000000000000D+00 0.000000000000D+00 0.102909938407D-06 0.000000000000D+00  7 -1 21 23 -13 13 23 -1 2 0.15372174D-01 0.50874902D+00 0.25184211D+06 0.25184211D+06 0.25184211D+06 0.10902193D+01  1  2 12  4  7  2        1 0.898640604515D-06 0.100000000000D+01
-.624077186489D-05 0.000000000000D+00 -.566558203237D-06 0.102909938407D-06 0.000000000000D+00  7 -1 21 23 -13 13 23 -1 2 0.15372174D-01 0.50829368D+00 0.24432682D+06 0.24432682D+06 0.24432682D+06 0.10912099D+01  1  2  5  4  7  2        1 -.160848538138D-05 0.100000000000D+01
  </mgrwgt>
  </event>
  <event>
  8     66 0.58687835E-06 0.37095743E+03 0.75467711E-02 0.96899689E-01
       -1 -1    0    0    0  501 0.00000000E+00 0.00000000E+00 0.59936942E+02 0.59937796E+02 0.32000000E+00 0.0000E+00 0.9000E+01
        1 -1    0    0  501    0 0.00000000E+00 0.00000000E+00 -.27500699E+04 0.27500700E+04 0.32000000E+00 0.0000E+00 0.9000E+01
       25  2    1    2    0    0 -.33693830E+03 0.79200168E+01 -.17360706E+04 0.17938608E+04 0.30067476E+03 0.0000E+00 0.0000E+00
       23  2    1    2    0    0 0.33693830E+03 -.79200168E+01 -.95406240E+03 0.10161470E+04 0.93431391E+02 0.0000E+00 0.0000E+00
       23  1    3    3    0    0 -.11166378E+03 -.53680547E+02 -.10908012E+04 0.11015956E+04 0.91188000E+02 0.0000E+00 0.9000E+01
      -11  1    4    4    0    0 0.27376042E+03 -.59243057E+00 -.64643761E+03 0.70201617E+03 0.51099893E-03 0.0000E+00 0.9000E+01
       11  1    4    4    0    0 0.63177876E+02 -.73275862E+01 -.30762479E+03 0.31413078E+03 0.51099893E-03 0.0000E+00 0.9000E+01
       23  1    3    3    0    0 -.22527452E+03 0.61600563E+02 -.64526943E+03 0.69226521E+03 0.91188000E+02 0.0000E+00 0.9000E+01
#aMCatNLO 1  0  0  2  2 0.74699783D+02 0.00000000D+00  -5  7  0 0.00000000D+00 0.00000000D+00 0.00000000D+00 0.00000000D+00 0.00000000D+00
  <mgrwgt>
 0.2742702127D-03    3    2    0
 0.405995085489813D+03 0.000000000000000D+00 0.000000000000000D+00 0.405995085489813D+03
 0.405995085489813D+03 0.000000000000000D+00 0.000000000000000D+00 -.405995085489813D+03
 0.198391479074189D+03 -.111663780913618D+03 -.536805466586459D+02 -.125273806391236D+03
 0.287771631466615D+03 0.273760421098470D+03 -.592430572511801D+00 0.886983243526191D+02
 0.679298103818739D+02 0.631778757320910D+02 -.732758619370555D+01 -.238604617950206D+02
 0.257897250056948D+03 -.225274515916943D+03 0.616005634248633D+02 0.604359438336374D+02
 0.000000000000000D+00 0.000000000000000D+00 0.000000000000000D+00 0.000000000000000D+00
 0.108966932126969D+04 0.000000000000000D+00 0.000000000000000D+00 0.108966932126969D+04
 0.409755080701574D+03 0.000000000000000D+00 0.000000000000000D+00 -.409755080701574D+03
 0.208589668577048D+03 -.120872188132557D+03 -.699341551845853D+02 -.125273806391236D+03
 0.276619794774235D+03 0.260990428891958D+03 -.231325343351964D+02 0.886983243526191D+02
 0.659382001077817D+02 0.601489610973661D+02 -.126738737286500D+02 -.238604617950206D+02
 0.264271305730804D+03 -.237089168085400D+03 0.407467146917953D+02 0.604359438336374D+02
 0.684005432781400D+03 0.368219662286334D+02 0.649938485566364D+02 0.679914240568121D+03
0.350088163334D-04 0.000000000000D+00 0.000000000000D+00 0.160686286031D-06 0.000000000000D+00  7 -1 1 23 -11 11 23 21 0 0.92211352D-02 0.42308775D+00 0.13760941D+06 0.13760941D+06 0.13760941D+06 0.11105189D+01  1  2  2  2  7  2        1 0.270936460836D-03 0.100000000000D+01
-.192567155152D-05 0.000000000000D+00 -.134443072753D-06 0.160686286031D-06 0.000000000000D+00  7 -1 1 23 -11 11 23 21 2 0.92211352D-02 0.42308775D+00 0.13760941D+06 0.13760941D+06 0.13760941D+06 0.11105189D+01  1  2  3  2  7  2        1 -.183790949754D-04 0.100000000000D+01
0.227496574399D-05 0.000000000000D+00 0.000000000000D+00 0.160686286031D-06 0.000000000000D+00  7 -1 1 23 -11 11 23 21 2 0.92211352D-02 0.42308775D+00 0.13760941D+06 0.13760941D+06 0.13760941D+06 0.11105189D+01  1  2 15  2  7  2        1 0.217128468463D-04 0.100000000000D+01
  </mgrwgt>
  </event>
  <event>
  8     66 0.58687835E-06 0.93376803E+02 0.75467711E-02 0.10434403E+00
       -1 -1    0    0    0  501 0.00000000E+00 0.00000000E+00 0.25079650E+03 0.25079671E+03 0.32000000E+00 0.0000E+00 0.9000E+01
        1 -1    0    0  501    0 0.00000000E+00 0.00000000E+00 -.64136268E+03 0.64136276E+03 0.32000000E+00 0.0000E+00 0.9000E+01
       25  2    1    2    0    0 -.91178962E+02 0.52421442E+02 0.13738937E+03 0.34624599E+03 0.29991472E+03 0.0000E+00 0.0000E+00
       23  2    1    2    0    0 0.91178962E+02 -.52421442E+02 -.52795555E+03 0.54591347E+03 0.90679922E+02 0.0000E+00 0.0000E+00
       23  1    3    3    0    0 -.30082276E+01 0.74464250E+02 0.17606193E+03 0.21181839E+03 0.91188000E+02 0.0000E+00 0.9000E+01
      -13  1    4    4    0    0 -.68799607E+01 -.24025794E+02 -.38325175E+02 0.45753719E+02 0.10565837E+00 0.0000E+00 0.9000E+01
       13  1    4    4    0    0 0.98058922E+02 -.28395648E+02 -.48963037E+03 0.50015975E+03 0.10565837E+00 0.0000E+00 0.9000E+01
       23  1    3    3    0    0 -.88170734E+02 -.22042808E+02 -.38672557E+02 0.13442761E+03 0.91188000E+02 0.0000E+00 0.9000E+01
#aMCatNLO 1  0  0  2  1 0.10211982D+03 0.00000000D+00  -5  7  0 0.00000000D+00 0.00000000D+00 0.00000000D+00 0.00000000D+00 0.00000000D+00
  <mgrwgt>
 0.1527592604D-03    9    2    0
 0.401063141740387D+03 0.000000000000000D+00 0.000000000000000D+00 0.401063141740387D+03
 0.401063141740387D+03 0.000000000000000D+00 0.000000000000000D+00 -.401063141740387D+03
 0.321320491738785D+03 -.300822768251874D+01 0.744642503344029D+02 0.298960922288516D+03
 0.322278254317135D+02 -.688010309831212D+01 -.240257884438217D+02 -.203484250758215D+02
 0.317891972998909D+03 0.980590648619339D+02 -.283956536354766D+02 -.301053837627352D+03
 0.130685993311366D+03 -.881707340811030D+02 -.220428082551047D+02 0.224413404146584D+02
 0.000000000000000D+00 0.000000000000000D+00 0.000000000000000D+00 -.000000000000000D+00
 0.431135652578175D+03 0.000000000000000D+00 0.000000000000000D+00 0.431135652578175D+03
 0.501452671750407D+03 0.000000000000000D+00 0.000000000000000D+00 -.501452671750407D+03
 0.323718537434491D+03 -.438275737518048D+02 0.719718754664344D+02 0.298960922288516D+03
 0.335486567444095D+02 -.110425690387198D+02 -.242799430665106D+02 -.203484250758215D+02
 0.308217336956555D+03 0.584376288799438D+02 -.308148857100600D+02 -.301053837627352D+03
 0.143116131555246D+03 -.105497474299847D+03 -.231007559202073D+02 0.224413404146584D+02
 0.123987661637881D+03 0.101929988210428D+03 0.622370923034343D+01 -.703170191722311D+02
0.863936871723D-05 0.000000000000D+00 0.000000000000D+00 0.228276000643D-05 0.000000000000D+00  7 -1 1 23 -13 13 23 21 0 0.38584099D-01 0.98671203D-01 0.34892671D+05 0.34892671D+05 0.34892671D+05 0.11612968D+01  1  2  2  2  7  2        1 0.213780193343D-03 0.100000000000D+01
-.139247289147D-06 0.000000000000D+00 -.331774506722D-07 0.228276000643D-05 0.000000000000D+00  7 -1 1 23 -13 13 23 21 2 0.38584099D-01 0.98671203D-01 0.34892671D+05 0.34892671D+05 0.34892671D+05 0.11612968D+01  1  2  3  2  7  2        1 -.464684973302D-05 0.100000000000D+01
0.545827280991D-06 0.000000000000D+00 0.000000000000D+00 0.228276000643D-05 0.000000000000D+00  7 -1 1 23 -13 13 23 21 2 0.38584099D-01 0.98671203D-01 0.34892671D+05 0.34892671D+05 0.34892671D+05 0.11612968D+01  1  2 15  2  7  2        1 0.182149137013D-04 0.100000000000D+01
0.528194933504D-05 0.000000000000D+00 0.000000000000D+00 0.228276000643D-05 0.000000000000D+00  7 -1 1 23 -13 13 23 21 2 0.38584099D-01 0.12637846D+00 0.52983873D+05 0.52983873D+05 0.52983873D+05 0.11450877D+01  1  2 12  2  7  2        1 0.117128229623D-03 0.100000000000D+01
-.103001266494D-04 0.000000000000D+00 0.000000000000D+00 0.228276000643D-05 0.000000000000D+00  7 -1 1 23 -13 13 23 21 2 0.38584099D-01 0.98671203D-01 0.34892671D+05 0.34892671D+05 0.34892671D+05 0.11612968D+01  1  2  4  2  7  2        1 -.343727630636D-03 0.100000000000D+01
-.111728157027D-04 0.000000000000D+00 -.464698683058D-05 0.228276000643D-05 0.000000000000D+00  7 -1 1 23 -13 13 23 21 2 0.38584099D-01 0.12938822D+00 0.34892671D+05 0.34892671D+05 0.34892671D+05 0.11612968D+01  1  2  5  2  7  2        1 -.248117507316D-03 0.100000000000D+01
0.121489274623D-04 0.000000000000D+00 0.448138866133D-05 0.228276000643D-05 0.000000000000D+00  7 -1 1 23 -13 13 23 21 2 0.38584099D-01 0.98671203D-01 0.34892671D+05 0.34892671D+05 0.34892671D+05 0.11612968D+01  1  2  6  2  7  2        1 0.405424340256D-03 0.100000000000D+01
0.177430409552D-06 0.000000000000D+00 0.000000000000D+00 0.228276000643D-05 0.000000000000D+00  7 -1 21 23 -13 13 23 -1 2 0.38584099D-01 0.12637846D+00 0.52983873D+05 0.52983873D+05 0.52983873D+05 0.11450877D+01  1  2 12  4  7  2        1 0.710087257396D-05 0.100000000000D+01
-.312428918930D-06 0.000000000000D+00 -.166865143744D-06 0.228276000643D-05 0.000000000000D+00  7 -1 21 23 -13 13 23 -1 2 0.38584099D-01 0.12938822D+00 0.34892671D+05 0.34892671D+05 0.34892671D+05 0.11612968D+01  1  2  5  4  7  2        1 -.123973014353D-04 0.100000000000D+01
  </mgrwgt>
  </event>
  <event>
  8     66 0.58687835E-06 0.21810849E+03 0.75467711E-02 0.10196309E+00
       -1 -1    0    0    0  501 0.00000000E+00 0.00000000E+00 0.34151199E+02 0.34152698E+02 0.32000000E+00 0.0000E+00 0.9000E+01
        1 -1    0    0  501    0 0.00000000E+00 0.00000000E+00 -.16695863E+04 0.16695863E+04 0.32000000E+00 0.0000E+00 0.9000E+01
       25  2    1    2    0    0 0.75146754E+02 -.89455936E+02 -.98031782E+03 0.10318881E+04 0.30020095E+03 0.0000E+00 0.0000E+00
       23  2    1    2    0    0 -.75146754E+02 0.89455936E+02 -.65511728E+03 0.67185093E+03 0.92496634E+02 0.0000E+00 0.0000E+00
       23  1    3    3    0    0 0.15823061E+03 -.45029713E+02 -.50784631E+03 0.54156046E+03 0.91188000E+02 0.0000E+00 0.9000E+01
      -13  1    4    4    0    0 -.55762510E+02 0.61901803E+02 -.21706194E+03 0.23250202E+03 0.10565837E+00 0.0000E+00 0.9000E+01
       13  1    4    4    0    0 -.19384244E+02 0.27554133E+02 -.43805534E+03 0.43934891E+03 0.10565837E+00 0.0000E+00 0.9000E+01
       23  1    3    3    0    0 -.83083851E+02 -.44426223E+02 -.47247151E+03 0.49032764E+03 0.91188000E+02 0.0000E+00 0.9000E+01
#aMCatNLO 1  0  0  1  1 0.10848861D+03 0.00000000D+00  -5  7  0 0.00000000D+00 0.00000000D+00 0.00000000D+00 0.00000000D+00 0.00000000D+00
  <mgrwgt>
 0.1192352066D-03    4    2    0
 0.238787933526314D+03 0.000000000000000D+00 0.000000000000000D+00 0.238787933526314D+03
 0.238787933526314D+03 0.000000000000000D+00 0.000000000000000D+00 -.238787933526314D+03
 0.192907585226333D+03 0.158230616718384D+03 -.450297265419209D+02 0.428191634006868D+02
 0.861267429733542D+02 -.557625595584007D+02 0.619018528360313D+02 0.218291873912050D+02
 0.672663861705156D+02 -.193842140173021D+02 0.275541065522690D+02 -.582219045332474D+02
 0.131275152682424D+03 -.830838431426814D+02 -.444262328463794D+02 -.642644625864438D+01
 0.000000000000000D+00 -.000000000000000D+00 0.000000000000000D+00 -.000000000000000D+00
 0.292675273579746D+03 0.000000000000000D+00 0.000000000000000D+00 0.292675273579746D+03
 0.306424392572741D+03 0.000000000000000D+00 0.000000000000000D+00 -.306424392572741D+03
 0.231811293366011D+03 0.194477914841164D+03 -.759347369306102D+02 0.428191634006868D+02
 0.695583275838812D+02 -.424757398520167D+02 0.505733036109960D+02 0.218291873912050D+02
 0.615682782239447D+02 -.838892107357457D+01 0.181793487013100D+02 -.582219045332474D+02
 0.126805388675574D+03 -.610581626424497D+02 -.632056707612242D+02 -.642644625864438D+01
 0.109356378303076D+03 -.825550912731230D+02 0.703877553795284D+02 -.137491189929953D+02
0.193211242738D-05 0.000000000000D+00 0.000000000000D+00 0.164758483249D-06 0.000000000000D+00  7 -1 1 23 -13 13 23 21 0 0.52541483D-02 0.25685955D+00 0.47571315D+05 0.47571315D+05 0.47571315D+05 0.11492024D+01  1  2  2  1  7  1       -1 0.188915440670D-03 0.100000000000D+01
-.106268708574D-06 0.000000000000D+00 -.741982045804D-08 0.164758483249D-06 0.000000000000D+00  7 -1 1 23 -13 13 23 21 2 0.52541483D-02 0.25685955D+00 0.47571315D+05 0.47571315D+05 0.47571315D+05 0.11492024D+01  1  2  3  1  7  1       -1 -.137225079314D-04 0.100000000000D+01
0.125028461534D-06 0.000000000000D+00 0.000000000000D+00 0.164758483249D-06 0.000000000000D+00  7 -1 1 23 -13 13 23 21 2 0.52541483D-02 0.25685955D+00 0.47571315D+05 0.47571315D+05 0.47571315D+05 0.11492024D+01  1  2 15  1  7  1       -1 0.161449600552D-04 0.100000000000D+01
-.558371646601D-06 0.000000000000D+00 0.000000000000D+00 0.164758483249D-06 0.000000000000D+00  7 -1 1 23 -13 13 23 21 2 0.52541483D-02 0.25685955D+00 0.47571315D+05 0.47571315D+05 0.47571315D+05 0.11492024D+01  1  2  4  1  7  1       -1 -.721026862181D-04 0.100000000000D+01
  </mgrwgt>
  </event>
  <event>
  7     66 0.58687835E-06 0.12484285E+03 0.75467711E-02 0.10613477E+00
       -3 -1    0    0    0  501 0.00000000E+00 0.00000000E+00 0.84570490E+03 0.84570505E+03 0.50000000E+00 0.0000E+00 0.9000E+01
        3 -1    0    0  501    0 0.00000000E+00 0.00000000E+00 -.50492412E+02 0.50494887E+02 0.50000000E+00 0.0000E+00 0.9000E+01
       23  2    1    2    0    0 0.18375096E+02 -.94749676E+01 0.21920437E+03 0.23854468E+03 0.91791005E+02 0.0000E+00 0.0000E+00
       23  1    1    2    0    0 -.25034813E+01 0.11368843E+03 0.14885820E+03 0.20833949E+03 0.91188000E+02 0.0000E+00 0.9000E+01
      -11  1    3    3    0    0 0.82955303E+01 -.49542060E+02 0.14712692E+03 0.15546563E+03 0.51099893E-03 0.0000E+00 0.9000E+01
       11  1    3    3    0    0 0.10079565E+02 0.40067092E+02 0.72077454E+02 0.83079052E+02 0.51099893E-03 0.0000E+00 0.9000E+01
       23  1    1    2    0    0 -.15871614E+02 -.10421347E+03 0.42714992E+03 0.44931577E+03 0.91188000E+02 0.0000E+00 0.9000E+01
#aMCatNLO 1  0  0  1  2 0.27895448D+02 0.00000000D+00  -5  7  0 0.00000000D+00 0.00000000D+00 0.00000000D+00 0.00000000D+00 0.00000000D+00
  <mgrwgt>
 0.4306172322D-04    9    2    0
 0.206646693143761D+03 0.000000000000000D+00 0.000000000000000D+00 0.206646693143761D+03
 0.206646693143761D+03 0.000000000000000D+00 0.000000000000000D+00 -.206646693143761D+03
 0.165354571947080D+03 -.250352249357559D+01 0.113688455982772D+03 -.780740063733097D+02
 0.540321558460524D+02 0.829557606794578D+01 -.495420626305522D+02 0.199058110456084D+02
 0.414682089316720D+02 0.100795986425938D+02 0.400670542197538D+02 -.355601031442938D+01
 0.152438449562716D+03 -.158716522169640D+02 -.104213447571974D+03 0.617242056421307D+02
 0.000000000000000D+00 -.000000000000000D+00 0.000000000000000D+00 0.000000000000000D+00
 0.276729364721641D+03 0.000000000000000D+00 0.000000000000000D+00 0.276729364721641D+03
 0.209911461224921D+03 0.000000000000000D+00 0.000000000000000D+00 -.209911461224921D+03
 0.159386758201021D+03 0.385576091878367D+01 0.104778194212291D+03 -.780740063733097D+02
 0.572021251516695D+02 0.104738338145403D+02 -.525941119680634D+02 0.199058110456084D+02
 0.397565543948452D+02 0.116701916535282D+02 0.378384068740199D+02 -.355601031442938D+01
 0.157888287521059D+03 -.979464418522248D+01 -.112728201331635D+03 0.617242056421307D+02
 0.724071006779668D+02 -.162051422016297D+02 0.227057122133877D+02 0.668179034967200D+02
0.172861896622D-05 0.000000000000D+00 0.000000000000D+00 0.869340174171D-10 0.000000000000D+00  7 -3 3 23 -11 11 23 21 0 0.13010865D+00 0.77682651D-02 0.35474266D+05 0.35474266D+05 0.35474266D+05 0.11606418D+01  1  2  2  1  7  1       -3 0.306552847167D-04 0.100000000000D+01
-.950303708198D-07 0.000000000000D+00 -.663835198609D-08 0.869340174171D-10 0.000000000000D+00  7 -3 3 23 -11 11 23 21 2 0.13010865D+00 0.77682651D-02 0.35474266D+05 0.35474266D+05 0.35474266D+05 0.11606418D+01  1  2  3  1  7  1       -3 -.227020415562D-05 0.100000000000D+01
0.111715319490D-06 0.000000000000D+00 0.000000000000D+00 0.869340174171D-10 0.000000000000D+00  7 -3 3 23 -11 11 23 21 2 0.13010865D+00 0.77682651D-02 0.35474266D+05 0.35474266D+05 0.35474266D+05 0.11606418D+01  1  2 15  1  7  1       -3 0.266879504272D-05 0.100000000000D+01
0.821602262924D-05 0.000000000000D+00 0.000000000000D+00 0.869340174171D-10 0.000000000000D+00  7 -3 3 23 -11 11 23 21 2 0.17500875D+00 0.77682651D-02 0.41086900D+05 0.41086900D+05 0.41086900D+05 0.11548718D+01  1  2 12  1  7  1       -3 0.737303844988D-04 0.100000000000D+01
-.806009362775D-05 0.000000000000D+00 0.000000000000D+00 0.869340174171D-10 0.000000000000D+00  7 -3 3 23 -11 11 23 21 2 0.13010865D+00 0.77682651D-02 0.35474266D+05 0.35474266D+05 0.35474266D+05 0.11606418D+01  1  2  4  1  7  1       -3 -.192549580629D-03 0.100000000000D+01
-.930837493001D-05 0.000000000000D+00 -.813813851090D-06 0.869340174171D-10 0.000000000000D+00  7 -3 3 23 -11 11 23 21 2 0.17532925D+00 0.77682651D-02 0.35474266D+05 0.35474266D+05 0.35474266D+05 0.11606418D+01  1  2  5  1  7  1       -3 -.837401196947D-04 0.100000000000D+01
0.917481831135D-05 0.000000000000D+00 0.778902609349D-06 0.869340174171D-10 0.000000000000D+00  7 -3 3 23 -11 11 23 21 2 0.13010865D+00 0.77682651D-02 0.35474266D+05 0.35474266D+05 0.35474266D+05 0.11606418D+01  1  2  6  1  7  1       -3 0.219179515746D-03 0.100000000000D+01
0.314883766841D-06 0.000000000000D+00 0.000000000000D+00 0.869340174171D-10 0.000000000000D+00  7 21 3 23 -11 11 23 3 2 0.17500875D+00 0.77682651D-02 0.41086900D+05 0.41086900D+05 0.41086900D+05 0.11548718D+01  1  2 12  3  7  1       -3 0.507368860272D-04 0.100000000000D+01
-.340252963786D-06 0.000000000000D+00 -.313289323038D-07 0.869340174171D-10 0.000000000000D+00  7 21 3 23 -11 11 23 3 2 0.17532925D+00 0.77682651D-02 0.35474266D+05 0.35474266D+05 0.35474266D+05 0.11606418D+01  1  2  5  3  7  1       -3 -.553492383352D-04 0.100000000000D+01
  </mgrwgt>
  </event>
  <event>
  8     66 0.58687835E-06 0.23836754E+03 0.75467711E-02 0.94404908E-01
       -1 -1    0    0    0  501 0.00000000E+00 0.00000000E+00 0.42234933E+03 0.42234945E+03 0.32000000E+00 0.0000E+00 0.9000E+01
        1 -1    0    0  501    0 0.00000000E+00 0.00000000E+00 -.13059304E+04 0.13059304E+04 0.32000000E+00 0.0000E+00 0.9000E+01
       25  2    1    2    0    0 0.32017630E+03 -.30596967E+02 0.27741080E+03 0.52015490E+03 0.30025877E+03 0.0000E+00 0.0000E+00
       23  2    1    2    0    0 -.32017630E+03 0.30596967E+02 -.11609918E+04 0.12081250E+04 0.90635842E+02 0.0000E+00 0.0000E+00
       23  1    3    3    0    0 0.30382212E+03 -.32975565E+02 0.28427597E+03 0.42722751E+03 0.91188000E+02 0.0000E+00 0.9000E+01
      -11  1    4    4    0    0 -.58920825E+02 -.24376584E+02 -.29953132E+03 0.30624320E+03 0.51099893E-03 0.0000E+00 0.9000E+01
       11  1    4    4    0    0 -.26125547E+03 0.54973551E+02 -.86146051E+03 0.90188177E+03 0.51099893E-03 0.0000E+00 0.9000E+01
       23  1    3    3    0    0 0.16354176E+02 0.23785981E+01 -.68651702E+01 0.92927384E+02 0.91188000E+02 0.0000E+00 0.9000E+01
#aMCatNLO 1  0  0  2  1 0.24557505D+03 0.00000000D+00  -5  7  0 0.00000000D+00 0.00000000D+00 0.00000000D+00 0.00000000D+00 0.00000000D+00
  <mgrwgt>
 0.1743651629D-03    9    2    0
 0.742670154826694D+03 0.000000000000000D+00 0.000000000000000D+00 0.742670154826694D+03
 0.742670154826694D+03 0.000000000000000D+00 0.000000000000000D+00 -.742670154826694D+03
 0.666210669325632D+03 0.303822119191546D+03 -.329755649931684D+02 0.584915495249225D+03
 0.178150252167726D+03 -.589208247358343D+02 -.243765844294652D+02 -.166347921211618D+03
 0.536936838835409D+03 -.261255470583869D+03 0.549735512879644D+02 -.465859052340247D+03
 0.104042549324621D+03 0.163541761281569D+02 0.237859813466918D+01 0.472914783026403D+02
 0.000000000000000D+00 -.000000000000000D+00 -.000000000000000D+00 -.000000000000000D+00
 0.793147559632115D+03 0.000000000000000D+00 0.000000000000000D+00 0.793147559632115D+03
 0.112598163630264D+04 0.000000000000000D+00 0.000000000000000D+00 -.112598163630264D+04
 0.689132849198502D+03 0.345756706947646D+03 0.701070290236212D+02 0.584915495249225D+03
 0.173164739132037D+03 -.480510716943796D+02 0.234318079994341D+01 -.166347921211618D+03
 0.536368527054548D+03 -.228047197227446D+03 0.136605329339741D+03 -.465859052340247D+03
 0.106838098666205D+03 0.228788637209113D+02 0.184174280886479D+02 0.472914783026403D+02
 0.413624981883462D+03 -.925373017467327D+02 -.227472967251953D+03 -.332834076670523D+03
0.103024606239D-03 0.000000000000D+00 0.000000000000D+00 0.499003274732D-05 0.000000000000D+00  7 -1 1 23 -11 11 23 21 0 0.64976833D-01 0.20091238D+00 0.13776539D+06 0.13776539D+06 0.13776539D+06 0.11104797D+01  1  2  2  2  7  2        1 0.288392971299D-03 0.100000000000D+01
-.237573913554D-05 0.000000000000D+00 -.395641614961D-06 0.499003274732D-05 0.000000000000D+00  7 -1 1 23 -11 11 23 21 2 0.64976833D-01 0.20091238D+00 0.13776539D+06 0.13776539D+06 0.13776539D+06 0.11104797D+01  1  2  3  2  7  2        1 -.820094173340D-05 0.100000000000D+01
0.642987033794D-05 0.000000000000D+00 0.000000000000D+00 0.499003274732D-05 0.000000000000D+00  7 -1 1 23 -11 11 23 21 2 0.64976833D-01 0.20091238D+00 0.13776539D+06 0.13776539D+06 0.13776539D+06 0.11104797D+01  1  2 15  2  7  2        1 0.221956153375D-04 0.100000000000D+01
0.359820370561D-04 0.000000000000D+00 0.000000000000D+00 0.499003274732D-05 0.000000000000D+00  7 -1 1 23 -11 11 23 21 2 0.64976833D-01 0.30859634D+00 0.25994877D+06 0.25994877D+06 0.25994877D+06 0.10891864D+01  1  2 12  2  7  2        1 0.393718748739D-04 0.100000000000D+01
-.129268332067D-03 0.000000000000D+00 0.000000000000D+00 0.499003274732D-05 0.000000000000D+00  7 -1 1 23 -11 11 23 21 2 0.64976833D-01 0.20091238D+00 0.13776539D+06 0.13776539D+06 0.13776539D+06 0.11104797D+01  1  2  4  2  7  2        1 -.446228309915D-03 0.100000000000D+01
-.111681306049D-03 0.000000000000D+00 -.347463334627D-04 0.499003274732D-05 0.000000000000D+00  7 -1 1 23 -11 11 23 21 2 0.64976833D-01 0.31170226D+00 0.13776539D+06 0.13776539D+06 0.13776539D+06 0.11104797D+01  1  2  5  2  7  2        1 -.128427430417D-03 0.100000000000D+01
0.118435753337D-03 0.000000000000D+00 0.316451286860D-04 0.499003274732D-05 0.000000000000D+00  7 -1 1 23 -11 11 23 21 2 0.64976833D-01 0.20091238D+00 0.13776539D+06 0.13776539D+06 0.13776539D+06 0.11104797D+01  1  2  6  2  7  2        1 0.408834748619D-03 0.100000000000D+01
0.180429815964D-05 0.000000000000D+00 0.000000000000D+00 0.499003274732D-05 0.000000000000D+00  7 -1 21 23 -11 11 23 -1 2 0.64976833D-01 0.30859634D+00 0.25994877D+06 0.25994877D+06 0.25994877D+06 0.10891864D+01  1  2 12  4  7  2        1 0.998032243703D-06 0.100000000000D+01
-.435686724611D-05 0.000000000000D+00 -.177271544804D-05 0.499003274732D-05 0.000000000000D+00  7 -1 21 23 -11 11 23 -1 2 0.64976833D-01 0.31170226D+00 0.13776539D+06 0.13776539D+06 0.13776539D+06 0.11104797D+01  1  2  5  4  7  2        1 -.257139745374D-05 0.100000000000D+01
  </mgrwgt>
  </event>
  <event>
  8     66 0.58687835E-06 0.36081559E+03 0.75467711E-02 0.91935870E-01
       -1 -1    0    0    0  501 0.00000000E+00 0.00000000E+00 0.10657698E+03 0.10657746E+03 0.32000000E+00 0.0000E+00 0.9000E+01
        1 -1    0    0  501    0 0.00000000E+00 0.00000000E+00 -.14253015E+04 0.14253015E+04 0.32000000E+00 0.0000E+00 0.9000E+01
       25  2    1    2    0    0 0.26686266E+03 -.13356345E+03 -.99703125E+03 0.10831392E+04 0.30010711E+03 0.0000E+00 0.0000E+00
       23  2    1    2    0    0 -.26686266E+03 0.13356345E+03 -.32169323E+03 0.44873979E+03 0.93946724E+02 0.0000E+00 0.0000E+00
       23  1    3    3    0    0 0.13163561E+03 -.19194508E+03 -.59388274E+03 0.64434681E+03 0.91188000E+02 0.0000E+00 0.9000E+01
      -11  1    4    4    0    0 -.69192883E+02 0.35422092E+02 -.15066015E+03 0.16953129E+03 0.51099893E-03 0.0000E+00 0.9000E+01
       11  1    4    4    0    0 -.19766978E+03 0.98141359E+02 -.17103309E+03 0.27920849E+03 0.51099893E-03 0.0000E+00 0.9000E+01
       23  1    3    3    0    0 0.13522704E+03 0.58381625E+02 -.40314851E+03 0.43879237E+03 0.91188000E+02 0.0000E+00 0.9000E+01
#aMCatNLO 1  0  0  1  2 0.44580446D+03 0.00000000D+00  -5  7  0 0.00000000D+00 0.00000000D+00 0.00000000D+00 0.00000000D+00 0.00000000D+00
  <mgrwgt>
 0.2418119879D-03    3    2    0
 0.389749561861309D+03 0.000000000000000D+00 0.000000000000000D+00 0.389749561861309D+03
 0.389749561861309D+03 0.000000000000000D+00 0.000000000000000D+00 -.389749561861309D+03
 0.261570026137370D+03 0.131635614650505D+03 -.191945075498590D+03 -.770245426921111D+02
 0.782838556604137D+02 -.691928825547813D+02 0.354220915197543D+02 -.927267454334954D+01
 0.259356416171903D+03 -.197669775273072D+03 0.981413591464210D+02 0.136237601923696D+03
 0.180288825752930D+03 0.135227043177349D+03 0.583816248324151D+02 -.499403846882357D+02
 0.000000000000000D+00 -.000000000000000D+00 0.000000000000000D+00 -.000000000000000D+00
 0.579026324072974D+03 0.000000000000000D+00 0.000000000000000D+00 0.579026324072974D+03
 0.831070343163633D+03 0.000000000000000D+00 0.000000000000000D+00 -.831070343163633D+03
 0.432519439593000D+03 0.208734315531504D+03 -.359520541310936D+03 -.770245426921111D+02
 0.552384684578640D+02 -.543613684108540D+02 0.318551862072215D+01 -.927267454334954D+01
 0.200534767466910D+03 -.146585564150710D+03 -.128911274800259D+02 0.136237601923696D+03
 0.209683103773890D+03 0.178544699806724D+03 -.357701106004666D+02 -.499403846882357D+02
 0.512120887944943D+03 -.186332082776664D+03 0.404996260770706D+03 -.252044019090660D+03
0.977912950917D-05 0.000000000000D+00 0.000000000000D+00 0.216420347597D-06 0.000000000000D+00  7 -1 1 23 -11 11 23 21 0 0.16396498D-01 0.21927719D+00 0.13018789D+06 0.13018789D+06 0.13018789D+06 0.11124397D+01  1  2  2  1  7  1       -1 0.239356912640D-03 0.100000000000D+01
-.539354552469D-06 0.000000000000D+00 -.375544322191D-07 0.216420347597D-06 0.000000000000D+00  7 -1 1 23 -11 11 23 21 2 0.16396498D-01 0.21927719D+00 0.13018789D+06 0.13018789D+06 0.13018789D+06 0.11124397D+01  1  2  3  1  7  1       -1 -.163370297338D-04 0.100000000000D+01
0.620406985431D-06 0.000000000000D+00 0.000000000000D+00 0.216420347597D-06 0.000000000000D+00  7 -1 1 23 -11 11 23 21 2 0.16396498D-01 0.21927719D+00 0.13018789D+06 0.13018789D+06 0.13018789D+06 0.11124397D+01  1  2 15  1  7  1       -1 0.187921049736D-04 0.100000000000D+01
  </mgrwgt>
  </event>
  <event>
  8     66 0.58687835E-06 0.42977077E+03 0.75467711E-02 0.86761454E-01
       -1 -1    0    0    0  501 0.00000000E+00 0.00000000E+00 0.37775589E+03 0.37775602E+03 0.32000000E+00 0.0000E+00 0.9000E+01
        1 -1    0    0  501    0 0.00000000E+00 0.00000000E+00 -.17578481E+04 0.17578481E+04 0.32000000E+00 0.0000E+00 0.9000E+01
       25  2    1    2    0    0 0.66882081E+03 0.37783839E+03 -.91936790E+03 0.12350825E+04 0.30018067E+03 0.0000E+00 0.0000E+00
       23  2    1    2    0    0 -.66882081E+03 -.37783839E+03 -.46072429E+03 0.90052159E+03 0.92677633E+02 0.0000E+00 0.0000E+00
       23  1    3    3    0    0 0.45488898E+03 0.27879041E+03 -.77088638E+03 0.94192842E+03 0.91188000E+02 0.0000E+00 0.9000E+01
      -13  1    4    4    0    0 -.46997916E+03 -.28502024E+03 -.28351361E+03 0.61846336E+03 0.10565837E+00 0.0000E+00 0.9000E+01
       13  1    4    4    0    0 -.19884165E+03 -.92818142E+02 -.17721068E+03 0.28205823E+03 0.10565837E+00 0.0000E+00 0.9000E+01
       23  1    3    3    0    0 0.21393183E+03 0.99047975E+02 -.14848152E+03 0.29315413E+03 0.91188000E+02 0.0000E+00 0.9000E+01
#aMCatNLO 1  0  0  2  1 0.49243817D+03 0.00000000D+00  -5  7  0 0.00000000D+00 0.00000000D+00 0.00000000D+00 0.00000000D+00 0.00000000D+00
  <mgrwgt>
 0.1299464807D-03    9    2    0
 0.814885045907894D+03 0.000000000000000D+00 0.000000000000000D+00 0.814885045907894D+03
 0.814885045907894D+03 0.000000000000000D+00 0.000000000000000D+00 -.814885045907894D+03
 0.581488116319070D+03 0.454888977139594D+03 0.278790411044604D+03 -.212520830185597D+03
 0.570337334193683D+03 -.469979510532814D+03 -.285020494393125D+03 0.152207924335078D+03
 0.219538267216951D+03 -.198841296253895D+03 -.928178917558292D+02 0.663540855525383D+01
 0.258406374086084D+03 0.213931829647115D+03 0.990479751043493D+02 0.536774972952648D+02
 0.000000000000000D+00 -.000000000000000D+00 -.000000000000000D+00 -.000000000000000D+00
 0.100084733705285D+04 0.000000000000000D+00 0.000000000000000D+00 0.100084733705285D+04
 0.125657282760914D+04 0.000000000000000D+00 0.000000000000000D+00 -.125657282760914D+04
 0.760506077691859D+03 0.582889330060686D+03 0.430266392483639D+03 -.212520830185597D+03
 0.438368785548896D+03 -.373768409250162D+03 -.171164003691852D+03 0.152207924335078D+03
 0.169141585302655D+03 -.161768737730276D+03 -.489461206343610D+02 0.663540855525383D+01
 0.334524563938090D+03 0.270486000793038D+03 0.165974341972109D+03 0.536774972952648D+02
 0.554879152180492D+03 -.317838183873286D+03 -.376130610129536D+03 -.255725490556290D+03
0.688911837375D-04 0.000000000000D+00 0.000000000000D+00 0.259527395141D-05 0.000000000000D+00  7 -1 1 23 -13 13 23 21 0 0.58116303D-01 0.27043818D+00 0.61083662D+06 0.61083662D+06 0.61083662D+06 0.10624186D+01  1  2  2  2  7  2        1 0.109283094308D-03 0.100000000000D+01
-.381917496688D-05 0.000000000000D+00 -.264560285017D-06 0.259527395141D-05 0.000000000000D+00  7 -1 1 23 -13 13 23 21 2 0.58116303D-01 0.27043818D+00 0.61083662D+06 0.61083662D+06 0.61083662D+06 0.10624186D+01  1  2  3  2  7  2        1 -.683833280106D-05 0.100000000000D+01
0.434718492013D-05 0.000000000000D+00 0.000000000000D+00 0.259527395141D-05 0.000000000000D+00  7 -1 1 23 -13 13 23 21 2 0.58116303D-01 0.27043818D+00 0.61083662D+06 0.61083662D+06 0.61083662D+06 0.10624186D+01  1  2 15  2  7  2        1 0.778374845076D-05 0.100000000000D+01
0.106247075314D-04 0.000000000000D+00 0.000000000000D+00 0.259527395141D-05 0.000000000000D+00  7 -1 1 23 -13 13 23 21 2 0.58116303D-01 0.43437190D+00 0.11373625D+07 0.11373625D+07 0.11373625D+07 0.10441631D+01  1  2 12  2  7  2        1 0.322862945154D-05 0.100000000000D+01
-.304567391341D-04 0.000000000000D+00 0.000000000000D+00 0.259527395141D-05 0.000000000000D+00  7 -1 1 23 -13 13 23 21 2 0.58116303D-01 0.27043818D+00 0.61083662D+06 0.61083662D+06 0.61083662D+06 0.10624186D+01  1  2  4  2  7  2        1 -.545335890711D-04 0.100000000000D+01
-.398736964885D-04 0.000000000000D+00 -.195890466617D-04 0.259527395141D-05 0.000000000000D+00  7 -1 1 23 -13 13 23 21 2 0.58116303D-01 0.44779990D+00 0.61083662D+06 0.61083662D+06 0.61083662D+06 0.10624186D+01  1  2  5  2  7  2        1 -.113406143937D-04 0.100000000000D+01
0.460264078670D-04 0.000000000000D+00 0.173373011453D-04 0.259527395141D-05 0.000000000000D+00  7 -1 1 23 -13 13 23 21 2 0.58116303D-01 0.27043818D+00 0.61083662D+06 0.61083662D+06 0.61083662D+06 0.10624186D+01  1  2  6  2  7  2        1 0.824114887015D-04 0.100000000000D+01
0.574390351237D-06 0.000000000000D+00 0.000000000000D+00 0.259527395141D-05 0.000000000000D+00  7 -1 21 23 -13 13 23 -1 2 0.58116303D-01 0.43437190D+00 0.11373625D+07 0.11373625D+07 0.11373625D+07 0.10441631D+01  1  2 12  4  7  2        1 0.424471682436D-07 0.100000000000D+01
-.137144147450D-05 0.000000000000D+00 -.111202206624D-05 0.259527395141D-05 0.000000000000D+00  7 -1 21 23 -13 13 23 -1 2 0.58116303D-01 0.44779990D+00 0.61083662D+06 0.61083662D+06 0.61083662D+06 0.10624186D+01  1  2  5  4  7  2        1 -.903911149684D-07 0.100000000000D+01
  </mgrwgt>
  </event>
  <event>
  8     66 0.58687835E-06 0.23587434E+03 0.75467711E-02 0.10268101E+00
       -1 -1    0    0    0  501 0.00000000E+00 0.00000000E+00 0.14591310E+02 0.14594818E+02 0.32000000E+00 0.0000E+00 0.9000E+01
        1 -1    0    0  501    0 0.00000000E+00 0.00000000E+00 -.44209466E+04 0.44209466E+04 0.32000000E+00 0.0000E+00 0.9000E+01
       25  2    1    2    0    0 0.14012454E+03 0.45588638E+02 -.27520963E+04 0.27723243E+04 0.30005813E+03 0.0000E+00 0.0000E+00
       23  2    1    2    0    0 -.14012454E+03 -.45588638E+02 -.16542590E+04 0.16632171E+04 0.89471413E+02 0.0000E+00 0.0000E+00
       23  1    3    3    0    0 0.18655348E+03 0.68740909E+02 -.21559071E+04 0.21669744E+04 0.91188000E+02 0.0000E+00 0.9000E+01
      -11  1    4    4    0    0 -.45345490E+02 -.75127642E+01 -.99791481E+03 0.99897278E+03 0.51099893E-03 0.0000E+00 0.9000E+01
       11  1    4    4    0    0 -.94779048E+02 -.38075874E+02 -.65634419E+03 0.66424433E+03 0.51099893E-03 0.0000E+00 0.9000E+01
       23  1    3    3    0    0 -.46428939E+02 -.23152271E+02 -.59618918E+03 0.60534987E+03 0.91188000E+02 0.0000E+00 0.9000E+01
#aMCatNLO 1  0  0  2  1 0.48849341D+02 0.00000000D+00  -5  7  0 0.00000000D+00 0.00000000D+00 0.00000000D+00 0.00000000D+00 0.00000000D+00
  <mgrwgt>
 0.2411227943D-04    4    2    0
 0.253998438144562D+03 0.000000000000000D+00 0.000000000000000D+00 0.253998438144562D+03
 0.253998438144562D+03 0.000000000000000D+00 0.000000000000000D+00 -.253998438144562D+03
 0.220497837302694D+03 0.186553477615028D+03 0.687409086883788D+02 -.278663304652905D+02
 0.665712121603255D+02 -.453454903854001D+02 -.751276418580595D+01 -.481567354010956D+02
 0.106688787193041D+03 -.947790479959793D+02 -.380758735526780D+02 0.308165089992079D+02
 0.114239039633063D+03 -.464289392336484D+02 -.231522709498948D+02 0.452065568671782D+02
 0.000000000000000D+00 -.000000000000000D+00 -.000000000000000D+00 0.000000000000000D+00
 0.288395369021588D+03 0.000000000000000D+00 0.000000000000000D+00 0.288395369021588D+03
 0.273125218167786D+03 0.000000000000000D+00 0.000000000000000D+00 -.273125218167786D+03
 0.240352417140694D+03 0.208297392955009D+03 0.727303017725087D+02 -.278663304652905D+02
 0.624590557003146D+02 -.392575622707775D+02 -.639580167296457D+01 -.481567354010956D+02
 0.975557960329440D+02 -.851423452199779D+02 -.363078113243586D+02 0.308165089992079D+02
 0.109972896496171D+03 -.358501334059384D+02 -.212113594743143D+02 0.452065568671782D+02
 0.511804218192497D+02 -.480473520583151D+02 -.881532930087122D+01 0.152701508538015D+02
0.157808554999D-04 0.000000000000D+00 0.000000000000D+00 0.112478281743D-06 0.000000000000D+00  7 -1 1 23 -11 11 23 21 0 0.22450876D-02 0.68014590D+00 0.55636706D+05 0.55636706D+05 0.55636706D+05 0.11432370D+01  1  2  2  2  7  2        1 0.402330867433D-04 0.100000000000D+01
-.870872455905D-06 0.000000000000D+00 -.606026403144D-07 0.112478281743D-06 0.000000000000D+00  7 -1 1 23 -11 11 23 21 2 0.22450876D-02 0.68014590D+00 0.55636706D+05 0.55636706D+05 0.55636706D+05 0.11432370D+01  1  2  3  2  7  2        1 -.290188328622D-05 0.100000000000D+01
0.102625156044D-05 0.000000000000D+00 0.000000000000D+00 0.112478281743D-06 0.000000000000D+00  7 -1 1 23 -11 11 23 21 2 0.22450876D-02 0.68014590D+00 0.55636706D+05 0.55636706D+05 0.55636706D+05 0.11432370D+01  1  2 15  2  7  2        1 0.341963077431D-05 0.100000000000D+01
-.499332938478D-05 0.000000000000D+00 0.000000000000D+00 0.112478281743D-06 0.000000000000D+00  7 -1 1 23 -11 11 23 21 2 0.22450876D-02 0.68014590D+00 0.55636706D+05 0.55636706D+05 0.55636706D+05 0.11432370D+01  1  2  4  2  7  2        1 -.166385548034D-04 0.100000000000D+01
  </mgrwgt>
  </event>
  <event>
  8     66 0.58687835E-06 0.17119603E+03 0.75467711E-02 0.10162734E+00
       -1 -1    0    0    0  501 0.00000000E+00 0.00000000E+00 0.34106022E+03 0.34106037E+03 0.32000000E+00 0.0000E+00 0.9000E+01
        1 -1    0    0  501    0 0.00000000E+00 0.00000000E+00 -.20419056E+03 0.20419081E+03 0.32000000E+00 0.0000E+00 0.9000E+01
       25  2    1    2    0    0 0.11575315E+03 0.10024356E+03 0.31500337E+02 0.33840946E+03 0.30013518E+03 0.0000E+00 0.0000E+00
       23  2    1    2    0    0 -.11575315E+03 -.10024356E+03 0.10536933E+03 0.20684172E+03 0.90737187E+02 0.0000E+00 0.0000E+00
       23  1    3    3    0    0 -.48986923E+02 0.10248374E+03 -.84600730E+01 0.14590908E+03 0.91188000E+02 0.0000E+00 0.9000E+01
      -13  1    4    4    0    0 -.54358802E+02 -.72870004E+02 0.10596431E+03 0.13961863E+03 0.10565837E+00 0.0000E+00 0.9000E+01
       13  1    4    4    0    0 -.61394352E+02 -.27373555E+02 -.59498008E+00 0.67223085E+02 0.10565837E+00 0.0000E+00 0.9000E+01
       23  1    3    3    0    0 0.16474008E+03 -.22401793E+01 0.39960410E+02 0.19250038E+03 0.91188000E+02 0.0000E+00 0.9000E+01
#aMCatNLO 1  0  0  1  2 0.65708006D+02 0.00000000D+00  -5  7  0 0.00000000D+00 0.00000000D+00 0.00000000D+00 0.00000000D+00 0.00000000D+00
  <mgrwgt>
 0.2050410266D-03    9    2    0
 0.263896543358296D+03 0.000000000000000D+00 0.000000000000000D+00 0.263896543358296D+03
 0.263896543358296D+03 0.000000000000000D+00 0.000000000000000D+00 -.263896543358296D+03
 0.152929295403185D+03 -.489869219745847D+02 0.102483738669771D+03 -.465777074600776D+02
 0.116757797805672D+03 -.543587946248183D+02 -.728700655764091D+02 0.732629397325603D+02
 0.696008863977077D+02 -.613943606365867D+02 -.273734945000572D+02 -.180473728898885D+02
 0.188505107110028D+03 0.164740077235990D+03 -.224017859330480D+01 -.863785938259418D+01
 0.000000000000000D+00 -.000000000000000D+00 0.000000000000000D+00 0.000000000000000D+00
 0.303592566913170D+03 0.000000000000000D+00 0.000000000000000D+00 0.303592566913170D+03
 0.294596015006339D+03 0.000000000000000D+00 0.000000000000000D+00 -.294596015006339D+03
 0.140115297508089D+03 -.435883905187044D+02 0.851329233113292D+02 -.465777074600776D+02
 0.124310998957665D+03 -.499177726307625D+02 -.871434570072787D+02 0.732629397325603D+02
 0.711214342657858D+02 -.588019433286981D+02 -.357054926385897D+02 -.180473728898885D+02
 0.196319813393625D+03 0.171829405920429D+03 -.250251959678026D+02 -.863785938259418D+01
 0.663210377943433D+02 -.195212994422637D+02 0.627412223023418D+02 0.899655190683128D+01
0.193445436704D-05 0.000000000000D+00 0.000000000000D+00 0.452371984726D-06 0.000000000000D+00  7 -1 1 23 -13 13 23 21 0 0.52470834D-01 0.31413962D-01 0.60541264D+05 0.60541264D+05 0.60541264D+05 0.11400585D+01  1  2  2  1  7  1       -1 0.127227095503D-03 0.100000000000D+01
-.106829107026D-06 0.000000000000D+00 -.742881412295D-08 0.452371984726D-06 0.000000000000D+00  7 -1 1 23 -13 13 23 21 2 0.52470834D-01 0.31413962D-01 0.60541264D+05 0.60541264D+05 0.60541264D+05 0.11400585D+01  1  2  3  1  7  1       -1 -.913198092233D-05 0.100000000000D+01
0.125128507255D-06 0.000000000000D+00 0.000000000000D+00 0.452371984726D-06 0.000000000000D+00  7 -1 1 23 -13 13 23 21 2 0.52470834D-01 0.31413962D-01 0.60541264D+05 0.60541264D+05 0.60541264D+05 0.11400585D+01  1  2 15  1  7  1       -1 0.106962528556D-04 0.100000000000D+01
0.153249191035D-05 0.000000000000D+00 0.000000000000D+00 0.452371984726D-06 0.000000000000D+00  7 -1 1 23 -13 13 23 21 2 0.63017218D-01 0.31413962D-01 0.79300275D+05 0.79300275D+05 0.79300275D+05 0.11300826D+01  1  2 12  1  7  1       -1 0.917546766350D-04 0.100000000000D+01
-.139354936620D-05 0.000000000000D+00 0.000000000000D+00 0.452371984726D-06 0.000000000000D+00  7 -1 1 23 -13 13 23 21 2 0.52470834D-01 0.31413962D-01 0.60541264D+05 0.60541264D+05 0.60541264D+05 0.11400585D+01  1  2  4  1  7  1       -1 -.119123585141D-03 0.100000000000D+01
-.377705558700D-05 0.000000000000D+00 -.119617502801D-05 0.452371984726D-06 0.000000000000D+00  7 -1 1 23 -13 13 23 21 2 0.66457557D-01 0.31413962D-01 0.60541264D+05 0.60541264D+05 0.60541264D+05 0.11400585D+01  1  2  5  1  7  1       -1 -.208709456564D-03 0.100000000000D+01
0.398069641857D-05 0.000000000000D+00 0.116353730004D-05 0.452371984726D-06 0.000000000000D+00  7 -1 1 23 -13 13 23 21 2 0.52470834D-01 0.31413962D-01 0.60541264D+05 0.60541264D+05 0.60541264D+05 0.11400585D+01  1  2  6  1  7  1       -1 0.340278457471D-03 0.100000000000D+01
0.409693282767D-07 0.000000000000D+00 0.000000000000D+00 0.452371984726D-06 0.000000000000D+00  7 21 1 23 -13 13 23 1 2 0.63017218D-01 0.31413962D-01 0.79300275D+05 0.79300275D+05 0.79300275D+05 0.11300826D+01  1  2 12  3  7  1       -1 0.211062526675D-04 0.100000000000D+01
-.104334763647D-06 0.000000000000D+00 -.388274295676D-07 0.452371984726D-06 0.000000000000D+00  7 21 1 23 -13 13 23 1 2 0.66457557D-01 0.31413962D-01 0.60541264D+05 0.60541264D+05 0.60541264D+05 0.11400585D+01  1  2  5  3  7  1       -1 -.490566858643D-04 0.100000000000D+01
  </mgrwgt>
  </event>
  <event>
  9     66 -.58687835E-06 0.34945326E+03 0.75467711E-02 0.98440890E-01
       -1 -1    0    0    0  502 0.00000000E+00 0.00000000E+00 0.90972844E+02 0.90973407E+02 0.32000000E+00 0.0000E+00 0.9000E+01
        1 -1    0    0  501    0 0.00000000E+00 0.00000000E+00 -.16195465E+04 0.16195465E+04 0.32000000E+00 0.0000E+00 0.9000E+01
       25  2    1    2    0    0 -.25862902E+03 0.13320656E+03 -.65439031E+03 0.77616403E+03 0.29928410E+03 0.0000E+00 0.0000E+00
       23  2    1    2    0    0 0.23559725E+03 -.14219528E+03 -.85040527E+03 0.90004529E+03 0.10567322E+03 0.0000E+00 0.0000E+00
       23  1    3    3    0    0 -.19612134E+03 0.19388063E+03 -.43364897E+03 0.52193865E+03 0.91188000E+02 0.0000E+00 0.9000E+01
      -13  1    4    4    0    0 0.17076629E+03 -.67400802E+02 -.41941527E+03 0.45783531E+03 0.10565837E+00 0.0000E+00 0.9000E+01
       13  1    4    4    0    0 0.64830962E+02 -.74794478E+02 -.43099000E+03 0.44220997E+03 0.10565837E+00 0.0000E+00 0.9000E+01
       23  1    3    3    0    0 -.62507677E+02 -.60674069E+02 -.22074134E+03 0.25422538E+03 0.91188000E+02 0.0000E+00 0.9000E+01
       21  1    1    2  501  502 0.23031763E+02 0.89887238E+01 -.23778070E+02 0.34310616E+02 0.75000000E+00 0.0000E+00 0.9000E+01
#aMCatNLO 2  0  0  1  2 0.24723658D+02 0.00000000D+00  -5  7  0 0.00000000D+00 0.00000000D+00 0.00000000D+00 0.00000000D+00 0.00000000D+00
  <mgrwgt>
 -.2130910666D-04    3    2    0
 0.369004294262196D+03 0.000000000000000D+00 0.000000000000000D+00 0.369004294262196D+03
 0.369004294262196D+03 0.000000000000000D+00 0.000000000000000D+00 -.369004294262196D+03
 0.297491279098274D+03 -.186783858288844D+03 0.197524835726154D+03 0.792561628494337D+02
 0.189185893165485D+03 0.176596872718865D+03 -.651253374141817D+02 -.190666500840654D+02
 0.126699652325107D+03 0.687654116565996D+02 -.732589274992656D+02 -.771832209787770D+02
 0.124631763935527D+03 -.585784260866207D+02 -.591405708127066D+02 0.169937082134086D+02
 0.000000000000000D+00 0.000000000000000D+00 0.000000000000000D+00 0.000000000000000D+00
 0.391892616311573D+03 0.000000000000000D+00 0.000000000000000D+00 0.391892616311573D+03
 0.375948775408249D+03 0.000000000000000D+00 0.000000000000000D+00 -.375948775408249D+03
 0.301081521997864D+03 -.196121365428373D+03 0.193880639099020D+03 0.792561628494337D+02
 0.184573997638589D+03 0.170766361137881D+03 -.674008409635107D+02 -.190666500840654D+02
 0.125516970567835D+03 0.648309286452463D+02 -.747944582897899D+02 -.771832209787770D+02
 0.127250109657994D+03 -.625076871367228D+02 -.606740636017286D+02 0.169937082134086D+02
 0.294187918575395D+02 0.230317627819686D+02 0.898872375600932D+01 0.159438409033240D+02
-.141726963887D-04 0.000000000000D+00 0.000000000000D+00 0.275932990539D-08 0.000000000000D+00  7 -1 1 23 -13 13 23 21 2 0.14114469D-01 0.24455549D+00 0.13099486D+06 0.13099486D+06 0.13099486D+06 0.11122251D+01  1  2 13  1  7  1       -1 -.422548935554D-03 0.100000000000D+01
-.143477989210D-05 0.000000000000D+00 0.000000000000D+00 0.275932990539D-08 0.000000000000D+00  7 -1 1 23 -13 13 23 21 2 0.13178279D-01 0.24455549D+00 0.12211758D+06 0.12211758D+06 0.12211758D+06 0.11146697D+01  1  2  8  1  7  1       -1 -.479231551370D-04 0.100000000000D+01
0.155582950293D-04 0.000000000000D+00 0.000000000000D+00 0.275932990539D-08 0.298800094237D-10  7 -1 1 23 -13 13 23 21 2 0.13995692D-01 0.24915791D+00 0.13099486D+06 0.13099486D+06 0.13099486D+06 0.11122251D+01  1  2  1  1  7  1       -1 0.449162984027D-03 0.100000000000D+01
  </mgrwgt>
  </event>
  <event>
  7     66 0.58687835E-06 0.14032900E+03 0.75467711E-02 0.10178222E+00
       -1 -1    0    0    0  501 0.00000000E+00 0.00000000E+00 0.44809284E+02 0.44810427E+02 0.32000000E+00 0.0000E+00 0.9000E+01
        1 -1    0    0  501    0 0.00000000E+00 0.00000000E+00 -.11311575E+04 0.11311576E+04 0.32000000E+00 0.0000E+00 0.9000E+01
       23  2    1    2    0    0 0.49578816E+02 -.94766565E+02 -.19345371E+03 0.23919734E+03 0.91390746E+02 0.0000E+00 0.0000E+00
       23  1    1    2    0    0 0.53485458E+02 0.77090874E+02 -.29050541E+03 0.31861002E+03 0.91188000E+02 0.0000E+00 0.9000E+01
      -11  1    3    3    0    0 0.67359167E+02 -.81936822E+02 -.18913860E+03 0.21685090E+03 0.51099893E-03 0.0000E+00 0.9000E+01
       11  1    3    3    0    0 -.17780351E+02 -.12829743E+02 -.43151013E+01 0.22346438E+02 0.51099893E-03 0.0000E+00 0.9000E+01
       23  1    1    2    0    0 -.10306427E+03 0.17675692E+02 -.60238912E+03 0.61816064E+03 0.91188000E+02 0.0000E+00 0.9000E+01
#aMCatNLO 1  0  0  1  2 0.14362683D+03 0.00000000D+00  -5  7  0 0.00000000D+00 0.00000000D+00 0.00000000D+00 0.00000000D+00 0.00000000D+00
  <mgrwgt>
 0.3545539837D-03    7    2    0
 0.225137861794487D+03 0.000000000000000D+00 0.000000000000000D+00 0.225137861794487D+03
 0.225137861794487D+03 0.000000000000000D+00 0.000000000000000D+00 -.225137861794487D+03
 0.131219909100036D+03 0.534854576471422D+02 0.770908736738399D+02 0.998580075414975D+01
 0.110019978396335D+03 0.673591669144431D+02 -.819368220744179D+02 0.292146447397094D+02
 0.479506048268979D+02 -.177803511717662D+02 -.128297432390212D+02 0.426440770083582D+02
 0.161085231265705D+03 -.103064273389819D+03 0.176756916395992D+02 -.818445225022174D+02
 0.000000000000000D+00 -.000000000000000D+00 0.000000000000000D+00 0.000000000000000D+00
 0.420070306677891D+03 0.000000000000000D+00 0.000000000000000D+00 0.420070306677891D+03
 0.264379048481306D+03 0.000000000000000D+00 0.000000000000000D+00 -.264379048481306D+03
 0.147788720980111D+03 0.954026865465296D+02 0.657637125468156D+02 0.998580075414975D+01
 0.143041417734351D+03 0.105378178957767D+03 -.922105803025365D+02 0.292146447397094D+02
 0.459233635708760D+02 -.367707192949687D+01 -.166408280981860D+02 0.426440770083582D+02
 0.135874146696884D+03 -.584501902472947D+02 0.561976805975544D+01 -.818445225022174D+02
 0.211821706176975D+03 -.138653603327505D+03 0.374679277941515D+02 0.155691258196585D+03
0.319869193680D-05 0.000000000000D+00 0.000000000000D+00 0.222388315214D-08 0.000000000000D+00  7 -1 1 23 -11 11 23 21 0 0.68938274D-02 0.17402432D+00 0.39517388D+05 0.39517388D+05 0.39517388D+05 0.11563932D+01  1  2  2  1  7  1       -1 0.477515239395D-03 0.100000000000D+01
-.174357957303D-06 0.000000000000D+00 -.122838192722D-07 0.222388315214D-08 0.000000000000D+00  7 -1 1 23 -11 11 23 21 2 0.68938274D-02 0.17402432D+00 0.39517388D+05 0.39517388D+05 0.39517388D+05 0.11563932D+01  1  2  3  1  7  1       -1 -.348070845920D-04 0.100000000000D+01
0.210073790667D-06 0.000000000000D+00 0.000000000000D+00 0.222388315214D-08 0.000000000000D+00  7 -1 1 23 -11 11 23 21 2 0.68938274D-02 0.17402432D+00 0.39517388D+05 0.39517388D+05 0.39517388D+05 0.11563932D+01  1  2 15  1  7  1       -1 0.419370375487D-04 0.100000000000D+01
0.411980737322D-06 0.000000000000D+00 0.000000000000D+00 0.222388315214D-08 0.000000000000D+00  7 -1 1 23 -11 11 23 21 2 0.13009618D-01 0.17402432D+00 0.77452242D+05 0.77452242D+05 0.77452242D+05 0.11309434D+01  1  2 12  1  7  1       -1 0.298189177790D-04 0.100000000000D+01
-.186604535730D-05 0.000000000000D+00 -.103329718201D-05 0.222388315214D-08 0.000000000000D+00  7 -1 1 23 -11 11 23 21 2 0.15116874D-01 0.17402432D+00 0.39517388D+05 0.39517388D+05 0.39517388D+05 0.11563932D+01  1  2  5  1  7  1       -1 -.112815639095D-03 0.100000000000D+01
0.284535606770D-07 0.000000000000D+00 0.000000000000D+00 0.222388315214D-08 0.000000000000D+00  7 21 1 23 -11 11 23 1 2 0.13009618D-01 0.17402432D+00 0.77452242D+05 0.77452242D+05 0.77452242D+05 0.11309434D+01  1  2 12  3  7  1       -1 0.275678859060D-04 0.100000000000D+01
-.937412272517D-07 0.000000000000D+00 -.879197982544D-07 0.222388315214D-08 0.000000000000D+00  7 21 1 23 -11 11 23 1 2 0.15116874D-01 0.17402432D+00 0.39517388D+05 0.39517388D+05 0.39517388D+05 0.11563932D+01  1  2  5  3  7  1       -1 -.746623732906D-04 0.100000000000D+01
  </mgrwgt>
  </event>
  <event>
  8     66 0.58687835E-06 0.63120433E+03 0.75467711E-02 0.89339780E-01
       -1 -1    0    0    0  501 0.00000000E+00 0.00000000E+00 0.35134927E+03 0.35134941E+03 0.32000000E+00 0.0000E+00 0.9000E+01
        1 -1    0    0  501    0 0.00000000E+00 0.00000000E+00 -.13706003E+04 0.13706003E+04 0.32000000E+00 0.0000E+00 0.9000E+01
       25  2    1    2    0    0 -.13751037E+03 -.57995839E+03 -.87914648E+03 0.11032470E+04 0.29831947E+03 0.0000E+00 0.0000E+00
       23  2    1    2    0    0 0.13751037E+03 0.57995839E+03 -.14010452E+03 0.61870276E+03 0.88898767E+02 0.0000E+00 0.0000E+00
       23  1    3    3    0    0 0.16957176E+02 -.46885704E+02 -.14585253E+03 0.17909223E+03 0.91188000E+02 0.0000E+00 0.9000E+01
      -13  1    4    4    0    0 0.11735323E+01 0.50213113E+01 -.13443154E+02 0.14398621E+02 0.10565837E+00 0.0000E+00 0.9000E+01
       13  1    4    4    0    0 0.13633684E+03 0.57493707E+03 -.12666137E+03 0.60430414E+03 0.10565837E+00 0.0000E+00 0.9000E+01
       23  1    3    3    0    0 -.15446755E+03 -.53307268E+03 -.73329395E+03 0.92415473E+03 0.91188000E+02 0.0000E+00 0.9000E+01
#aMCatNLO 1  0  0  1  1 0.34252539D+03 0.00000000D+00  -5  7  0 0.00000000D+00 0.00000000D+00 0.00000000D+00 0.00000000D+00 0.00000000D+00
  <mgrwgt>
 0.2821797379D-03    4    2    0
 0.693944925967717D+03 0.000000000000000D+00 0.000000000000000D+00 0.693944925967717D+03
 0.693944925967717D+03 0.000000000000000D+00 0.000000000000000D+00 -.693944925967717D+03
 0.115086568054993D+03 0.169571757823931D+02 -.468857037594620D+02 -.494353292205235D+02
 0.799089475517194D+01 0.117334137209858D+01 0.502050619608785D+01 -.610509513011874D+01
 0.656740072764546D+03 0.136337033353737D+03 0.574937879919978D+03 0.286646421125757D+03
 0.608072316360724D+03 -.154467550508229D+03 -.533072682356604D+03 -.231105996775115D+03
 0.000000000000000D+00 0.000000000000000D+00 0.000000000000000D+00 -.000000000000000D+00
 0.798575790814930D+03 0.000000000000000D+00 0.000000000000000D+00 0.798575790814930D+03
 0.106473611629359D+04 0.000000000000000D+00 0.000000000000000D+00 -.106473611629359D+04
 0.130036987419616D+03 0.164436800151507D+02 -.766819428913170D+02 -.494353292205235D+02
 0.698680769047452D+01 0.114196541235467D+01 0.319987658400441D+01 -.610509513011874D+01
 0.533993909672586D+03 0.133842630648500D+03 0.430197018869609D+03 0.286646421125757D+03
 0.758514346479147D+03 -.157330337259097D+03 -.699189491985690D+03 -.231105996775115D+03
 0.433779855846698D+03 0.590206118309073D+01 0.342474539423394D+03 -.266160325478663D+03
0.945281241931D-04 0.000000000000D+00 0.000000000000D+00 0.969683614172D-07 0.000000000000D+00  7 -1 1 23 -13 13 23 21 0 0.54053748D-01 0.21086159D+00 0.39841891D+06 0.39841891D+06 0.39841891D+06 0.10755516D+01  1  2  2  1  7  1       -1 0.320827603754D-03 0.100000000000D+01
-.519422382420D-05 0.000000000000D+00 -.363012886728D-06 0.969683614172D-07 0.000000000000D+00  7 -1 1 23 -13 13 23 21 2 0.54053748D-01 0.21086159D+00 0.39841891D+06 0.39841891D+06 0.39841891D+06 0.10755516D+01  1  2  3  1  7  1       -1 -.203935993031D-04 0.100000000000D+01
0.617619342654D-05 0.000000000000D+00 0.000000000000D+00 0.969683614172D-07 0.000000000000D+00  7 -1 1 23 -13 13 23 21 2 0.54053748D-01 0.21086159D+00 0.39841891D+06 0.39841891D+06 0.39841891D+06 0.10755516D+01  1  2 15  1  7  1       -1 0.242490154876D-04 0.100000000000D+01
-.108255319089D-04 0.000000000000D+00 0.000000000000D+00 0.969683614172D-07 0.000000000000D+00  7 -1 1 23 -13 13 23 21 2 0.54053748D-01 0.21086159D+00 0.39841891D+06 0.39841891D+06 0.39841891D+06 0.10755516D+01  1  2  4  1  7  1       -1 -.425032820040D-04 0.100000000000D+01
  </mgrwgt>
  </event>
  <event>
  9     66 0.58687835E-06 0.25218442E+03 0.75467711E-02 0.10285098E+00
       -1 -1    0    0    0  501 0.00000000E+00 0.00000000E+00 0.13426610E+03 0.13426648E+03 0.32000000E+00 0.0000E+00 0.9000E+01
        1 -1    0    0  502    0 0.00000000E+00 0.00000000E+00 -.68125988E+03 0.68125996E+03 0.32000000E+00 0.0000E+00 0.9000E+01
       25  2    1    2    0    0 0.11854862E+03 0.11244000E+03 -.16372801E+03 0.37924462E+03 0.30053800E+03 0.0000E+00 0.0000E+00
       23  2    1    2    0    0 -.12676975E+03 -.11368571E+03 -.38148712E+03 0.42774573E+03 0.91863915E+02 0.0000E+00 0.0000E+00
       23  1    3    3    0    0 0.17072292E+03 0.96679002E+02 -.16645394E+03 0.27297492E+03 0.91188000E+02 0.0000E+00 0.9000E+01
      -13  1    4    4    0    0 -.61223565E+02 -.97623374E+02 -.16704423E+03 0.20293456E+03 0.10565837E+00 0.0000E+00 0.9000E+01
       13  1    4    4    0    0 -.65546182E+02 -.16062337E+02 -.21444289E+03 0.22481118E+03 0.10565837E+00 0.0000E+00 0.9000E+01
       23  1    3    3    0    0 -.52174296E+02 0.15760997E+02 0.27259315E+01 0.10626970E+03 0.91188000E+02 0.0000E+00 0.9000E+01
       21  1    1    2  502  501 0.82211238E+01 0.12457117E+01 -.17786564E+01 0.85360877E+01 0.75000000E+00 0.0000E+00 0.9000E+01
#aMCatNLO 2  0  0  2  1 0.83149669D+01 0.00000000D+00  -5  7  0 0.00000000D+00 0.00000000D+00 0.00000000D+00 0.00000000D+00 0.00000000D+00
  <mgrwgt>
 0.3103741183D-04    2    2    0
 0.297449472943239D+03 0.000000000000000D+00 0.000000000000000D+00 0.297449472943239D+03
 0.297449472943239D+03 0.000000000000000D+00 0.000000000000000D+00 -.297449472943239D+03
 0.220304465349690D+03 0.173749390847576D+03 0.971375908056826D+02 0.243771151200639D+02
 0.121140341085157D+03 -.595423837549624D+02 -.973687386950281D+02 -.406080718570133D+02
 0.107487263364758D+03 -.640544369739918D+02 -.158361931740351D+02 -.848513752118633D+02
 0.145966876086872D+03 -.501525701186222D+02 0.160673410633806D+02 0.101082331948813D+03
 0.000000000000000D+00 0.000000000000000D+00 0.000000000000000D+00 0.000000000000000D+00
 0.305143245507375D+03 0.000000000000000D+00 0.000000000000000D+00 0.305143245507375D+03
 0.299733621148209D+03 0.000000000000000D+00 0.000000000000000D+00 -.299733621148209D+03
 0.217721472859413D+03 0.170722919179547D+03 0.966790025047272D+02 0.243771151200639D+02
 0.122178900261236D+03 -.612235599730468D+02 -.976234801332521D+02 -.406080718570133D+02
 0.108416114438073D+03 -.655461875735651D+02 -.160622317588777D+02 -.848513752118633D+02
 0.146640565085546D+03 -.521742954396924D+02 0.157609976768615D+02 0.101082331948813D+03
 0.991981401131578D+01 0.822112380675730D+01 0.124571171054116D+01 0.540962435916635D+01
-.213461013752D-05 0.000000000000D+00 0.000000000000D+00 0.201109540459D-06 0.000000000000D+00  7 -1 1 23 -13 13 23 21 2 0.20134589D-01 0.10400565D+00 0.63596980D+05 0.63596980D+05 0.63596980D+05 0.11382184D+01  1  2  8  2  7  2        1 -.182967396495D-03 0.100000000000D+01
0.263719203358D-05 0.000000000000D+00 0.000000000000D+00 0.201109540459D-06 0.200604123930D-07  7 -1 1 23 -13 13 23 21 2 0.20655387D-01 0.10480432D+00 0.65951586D+05 0.65951586D+05 0.65951586D+05 0.11368657D+01  1  2  1  2  7  2        1 0.214004808323D-03 0.100000000000D+01
  </mgrwgt>
  </event>
  <event>
  8     66 0.58687835E-06 0.12147213E+03 0.75467711E-02 0.10495713E+00
       -1 -1    0    0    0  501 0.00000000E+00 0.00000000E+00 0.80613277E+02 0.80613912E+02 0.32000000E+00 0.0000E+00 0.9000E+01
        1 -1    0    0  501    0 0.00000000E+00 0.00000000E+00 -.74435488E+03 0.74435495E+03 0.32000000E+00 0.0000E+00 0.9000E+01
       25  2    1    2    0    0 -.86584720E+02 -.50576574E+02 -.29254102E+03 0.43064442E+03 0.29969896E+03 0.0000E+00 0.0000E+00
       23  2    1    2    0    0 0.86584720E+02 0.50576574E+02 -.37120058E+03 0.39432444E+03 0.87447064E+02 0.0000E+00 0.0000E+00
       23  1    3    3    0    0 -.16018000E+03 -.17537117E+02 -.12443117E+03 0.22307745E+03 0.91188000E+02 0.0000E+00 0.9000E+01
      -13  1    4    4    0    0 0.13488852E+01 0.41626285E+02 -.72923146E+02 0.83978351E+02 0.10565837E+00 0.0000E+00 0.9000E+01
       13  1    4    4    0    0 0.85235835E+02 0.89502885E+01 -.29827744E+03 0.31034609E+03 0.10565837E+00 0.0000E+00 0.9000E+01
       23  1    3    3    0    0 0.73595282E+02 -.33039456E+02 -.16810985E+03 0.20756697E+03 0.91188000E+02 0.0000E+00 0.9000E+01
#aMCatNLO 1  0  0  2  1 0.60864980D+01 0.00000000D+00  -5  7  0 0.00000000D+00 0.00000000D+00 0.00000000D+00 0.00000000D+00 0.00000000D+00
  <mgrwgt>
 0.1684859760D-03   11    2    0
 0.244959540573300D+03 0.000000000000000D+00 0.000000000000000D+00 0.244959540573300D+03
 0.244959540573300D+03 0.000000000000000D+00 0.000000000000000D+00 -.244959540573300D+03
 0.207058302943057D+03 -.160180006741212D+03 -.175371198380921D+02 0.926968410563624D+02
 0.426138576952699D+02 0.134877125354021D+01 0.416263253753154D+02 -.902057201771064D+01
 0.118482364525209D+03 0.852359560131866D+02 0.895025253124743D+01 -.818095073058726D+02
 0.121764555983064D+03 0.735952794744850D+02 -.330394580684707D+02 -.186676173277920D+01
 0.000000000000000D+00 -.000000000000000D+00 -.000000000000000D+00 -.000000000000000D+00
 0.245432622412492D+03 0.000000000000000D+00 0.000000000000000D+00 0.245432622412492D+03
 0.265369898141987D+03 0.000000000000000D+00 0.000000000000000D+00 -.265369898141987D+03
 0.205280423452448D+03 -.158022281521854D+03 -.161571999311678D+02 0.926968410563624D+02
 0.429098841110996D+02 0.179630800606054D+01 0.419125364592582D+02 -.902057201771064D+01
 0.119443511221402D+03 0.864809971154956D+02 0.974648783804282D+01 -.818095073058726D+02
 0.122323068633580D+03 0.748725643610451D+02 -.322226020453008D+02 -.186676173277920D+01
 0.208456331359490D+02 -.512758796074677D+01 -.327922232083240D+01 -.199372757294956D+02
0.838332545896D-06 0.000000000000D+00 0.000000000000D+00 0.235592738755D-07 0.000000000000D+00  7 -1 1 23 -13 13 23 21 0 0.12402097D-01 0.11451619D+00 0.47143866D+05 0.47143866D+05 0.47143866D+05 0.11495491D+01  1  2  2  2  7  2        1 0.102652139176D-03 0.100000000000D+01
-.457502395955D-07 0.000000000000D+00 -.321941771427D-08 0.235592738755D-07 0.000000000000D+00  7 -1 1 23 -13 13 23 21 2 0.12402097D-01 0.11451619D+00 0.47143866D+05 0.47143866D+05 0.47143866D+05 0.11495491D+01  1  2  3  2  7  2        1 -.740286960519D-05 0.100000000000D+01
0.547493768968D-07 0.000000000000D+00 0.000000000000D+00 0.235592738755D-07 0.000000000000D+00  7 -1 1 23 -13 13 23 21 2 0.12402097D-01 0.11451619D+00 0.47143866D+05 0.47143866D+05 0.47143866D+05 0.11495491D+01  1  2 15  2  7  2        1 0.885902460220D-05 0.100000000000D+01
0.211351098766D-04 0.000000000000D+00 0.000000000000D+00 0.235592738755D-07 0.000000000000D+00  7 -1 1 23 -13 13 23 21 2 0.12402097D-01 0.12416316D+00 0.48517588D+05 0.48517588D+05 0.48517588D+05 0.11484469D+01  1  2 12  2  7  2        1 0.301451887280D-02 0.100000000000D+01
-.267558324864D-04 0.000000000000D+00 0.000000000000D+00 0.235592738755D-07 0.000000000000D+00  7 -1 1 23 -13 13 23 21 2 0.12402097D-01 0.11451619D+00 0.47143866D+05 0.47143866D+05 0.47143866D+05 0.11495491D+01  1  2  4  2  7  2        1 -.432937490222D-02 0.100000000000D+01
-.323433094646D-04 0.000000000000D+00 -.130950823217D-05 0.235592738755D-07 0.000000000000D+00  7 -1 1 23 -13 13 23 21 2 0.12402097D-01 0.12416416D+00 0.47143866D+05 0.47143866D+05 0.47143866D+05 0.11495491D+01  1  2  5  2  7  2        1 -.462201839131D-02 0.100000000000D+01
0.323476240486D-04 0.000000000000D+00 0.130523587480D-05 0.235592738755D-07 0.000000000000D+00  7 -1 1 23 -13 13 23 21 2 0.12402097D-01 0.11451619D+00 0.47143866D+05 0.47143866D+05 0.47143866D+05 0.11495491D+01  1  2  6  2  7  2        1 0.523418554716D-02 0.100000000000D+01
0.550864895889D-05 0.000000000000D+00 0.000000000000D+00 0.235592738755D-07 0.448424229061D-08  7 -1 1 23 -13 13 23 21 2 0.12426048D-01 0.12405783D+00 0.48517588D+05 0.48517588D+05 0.48517588D+05 0.11484469D+01  1  2 11  2  7  2        1 0.784411193012D-03 0.100000000000D+01
0.305956096307D-06 0.000000000000D+00 0.000000000000D+00 0.235592738755D-07 0.000000000000D+00  7 -1 21 23 -13 13 23 -1 2 0.12402097D-01 0.12416316D+00 0.48517588D+05 0.48517588D+05 0.48517588D+05 0.11484469D+01  1  2 12  4  7  2        1 0.806973991307D-04 0.100000000000D+01
-.444926206037D-06 0.000000000000D+00 -.176633172331D-07 0.235592738755D-07 0.000000000000D+00  7 -1 21 23 -13 13 23 -1 2 0.12402097D-01 0.12416416D+00 0.47143866D+05 0.47143866D+05 0.47143866D+05 0.11495491D+01  1  2  5  4  7  2        1 -.117719792327D-03 0.100000000000D+01
0.746551203980D-07 0.000000000000D+00 0.000000000000D+00 0.235592738755D-07 0.605457342846D-10  7 -1 21 23 -13 13 23 -1 2 0.12426048D-01 0.12405783D+00 0.48517588D+05 0.48517588D+05 0.48517588D+05 0.11484469D+01  1  2 11  4  7  2        1 0.196777555502D-04 0.100000000000D+01
  </mgrwgt>
  </event>
  <event>
  8     66 0.58687835E-06 0.18620714E+03 0.75467711E-02 0.10038708E+00
       -1 -1    0    0    0  501 0.00000000E+00 0.00000000E+00 0.53746071E+03 0.53746081E+03 0.32000000E+00 0.0000E+00 0.9000E+01
        1 -1    0    0  501    0 0.00000000E+00 0.00000000E+00 -.25857952E+03 0.25857971E+03 0.32000000E+00 0.0000E+00 0.9000E+01
       25  2    1    2    0    0 -.10109761E+03 0.64596946E+02 0.45868308E+03 0.56140688E+03 0.30065599E+03 0.0000E+00 0.0000E+00
       23  2    1    2    0    0 0.10109761E+03 -.64596946E+02 -.17980189E+03 0.23463364E+03 0.91272850E+02 0.0000E+00 0.0000E+00
       23  1    3    3    0    0 -.81590506E+02 -.31048767E+00 0.41777646E+02 0.12929706E+03 0.91188000E+02 0.0000E+00 0.9000E+01
      -11  1    4    4    0    0 0.27006499E+02 -.55585517E+02 -.33263273E+02 0.70182234E+02 0.51099893E-03 0.0000E+00 0.9000E+01
       11  1    4    4    0    0 0.74091116E+02 -.90114292E+01 -.14653861E+03 0.16445141E+03 0.51099893E-03 0.0000E+00 0.9000E+01
       23  1    3    3    0    0 -.19507109E+02 0.64907434E+02 0.41690544E+03 0.43210982E+03 0.91188000E+02 0.0000E+00 0.9000E+01
#aMCatNLO 1  0  0  2  1 0.20758902D+03 0.00000000D+00  -5  7  0 0.00000000D+00 0.00000000D+00 0.00000000D+00 0.00000000D+00 0.00000000D+00
  <mgrwgt>
 0.1397771205D-03    7    2    0
 0.372795449863290D+03 0.000000000000000D+00 0.000000000000000D+00 0.372795449863290D+03
 0.372795449863290D+03 0.000000000000000D+00 0.000000000000000D+00 -.372795449863290D+03
 0.122419279013786D+03 -.815905060515238D+02 -.310487672171650D+00 -.375785176888324D+01
 0.873728524686201D+02 0.270064988332598D+02 -.555855170721792D+02 -.617649954350428D+02
 0.230390212763057D+03 0.740911157591455D+02 -.901142923720194D+01 -.217965480858036D+03
 0.305408555481116D+03 -.195071085408815D+02 0.649074339815527D+02 0.283488328061962D+03
 0.000000000000000D+00 0.000000000000000D+00 0.000000000000000D+00 -.000000000000000D+00
 0.465866069658651D+03 0.000000000000000D+00 0.000000000000000D+00 0.465866069658651D+03
 0.523534521035148D+03 0.000000000000000D+00 0.000000000000000D+00 -.523534521035148D+03
 0.127863958942131D+03 -.826470110465861D+02 -.344860952777143D+02 -.375785176888324D+01
 0.105932683697446D+03 0.261905102508818D+02 -.819809489274842D+02 -.617649954350428D+02
 0.241023726709399D+03 0.721011655496857D+02 -.733819318196855D+02 -.217965480858036D+03
 0.299129880297749D+03 -.220590088691808D+02 -.176409161691912D+02 0.283488328061962D+03
 0.215450341047074D+03 0.641434411519938D+01 0.207489892194075D+03 -.576684513764965D+02
0.814888968841D-05 0.000000000000D+00 0.000000000000D+00 0.642245324315D-06 0.000000000000D+00  7 -1 1 23 -11 11 23 21 0 0.82686286D-01 0.39781487D-01 0.34673098D+05 0.34673098D+05 0.34673098D+05 0.11615472D+01  1  2  2  2  7  2        1 0.168394066597D-03 0.100000000000D+01
-.187475896723D-06 0.000000000000D+00 -.312938820554D-07 0.642245324315D-06 0.000000000000D+00  7 -1 1 23 -11 11 23 21 2 0.82686286D-01 0.39781487D-01 0.34673098D+05 0.34673098D+05 0.34673098D+05 0.11615472D+01  1  2  3  2  7  2        1 -.522693965927D-05 0.100000000000D+01
0.514756396354D-06 0.000000000000D+00 0.000000000000D+00 0.642245324315D-06 0.000000000000D+00  7 -1 1 23 -11 11 23 21 2 0.82686286D-01 0.39781487D-01 0.34673098D+05 0.34673098D+05 0.34673098D+05 0.11615472D+01  1  2 15  2  7  2        1 0.143517149137D-04 0.100000000000D+01
-.354359200712D-05 0.000000000000D+00 0.000000000000D+00 0.642245324315D-06 0.000000000000D+00  7 -1 1 23 -11 11 23 21 2 0.82686286D-01 0.39781487D-01 0.34673098D+05 0.34673098D+05 0.34673098D+05 0.11615472D+01  1  2  4  2  7  2        1 -.987974556841D-04 0.100000000000D+01
-.838661917333D-06 0.000000000000D+00 -.295560604610D-05 0.642245324315D-06 0.000000000000D+00  7 -1 1 23 -11 11 23 21 2 0.82686286D-01 0.67993177D-01 0.34673098D+05 0.34673098D+05 0.34673098D+05 0.11615472D+01  1  2  5  2  7  2        1 -.116290020244D-04 0.100000000000D+01
0.244259037581D-05 0.000000000000D+00 0.257653703554D-05 0.642245324315D-06 0.000000000000D+00  7 -1 1 23 -11 11 23 21 2 0.82686286D-01 0.39781487D-01 0.34673098D+05 0.34673098D+05 0.34673098D+05 0.11615472D+01  1  2  6  2  7  2        1 0.681008744583D-04 0.100000000000D+01
0.937193288612D-07 0.000000000000D+00 -.176259314042D-06 0.642245324315D-06 0.000000000000D+00  7 -1 21 23 -11 11 23 -1 2 0.82686286D-01 0.67993177D-01 0.34673098D+05 0.34673098D+05 0.34673098D+05 0.11615472D+01  1  2  5  4  7  2        1 0.458386188074D-05 0.100000000000D+01
  </mgrwgt>
  </event>
</LesHouchesEvents>
